Generated by trjconv : CNT in water t= 431.00000
33518
    1C        C    1   2.846   2.767   4.747
    1C        C    2   2.903   2.719   4.867
    1C        C    3   2.840   2.766   4.983
    1C        C    4   2.852   2.769   4.260
    1C        C    5   2.902   2.722   4.383
    1C        C    6   2.849   2.770   4.505
    1C        C    7   3.013   2.635   4.625
    1C        C    8   2.897   2.715   4.626
    1C        C    9   3.077   2.598   4.746
    1C        C   10   3.015   2.633   4.868
    1C        C   11   3.185   2.500   4.982
    1C        C   12   3.061   2.565   4.981
    1C        C   13   2.850   2.772   3.772
    1C        C   14   2.904   2.726   3.894
    1C        C   15   2.852   2.774   4.016
    1C        C   16   3.019   2.641   4.138
    1C        C   17   2.905   2.724   4.137
    1C        C   18   3.082   2.609   4.261
    1C        C   19   3.020   2.645   4.383
    1C        C   20   3.209   2.548   4.506
    1C        C   21   3.078   2.601   4.504
    1C        C   22   3.280   2.527   4.626
    1C        C   23   3.209   2.546   4.746
    1C        C   24   3.412   2.488   4.871
    1C        C   25   3.270   2.501   4.867
    1C        C   26   3.493   2.481   4.986
    1C        C   27   2.851   2.766   3.281
    1C        C   28   2.906   2.723   3.404
    1C        C   29   2.855   2.771   3.527
    1C        C   30   3.020   2.642   3.649
    1C        C   31   2.907   2.726   3.650
    1C        C   32   3.081   2.605   3.771
    1C        C   33   3.017   2.640   3.892
    1C        C   34   3.209   2.552   4.017
    1C        C   35   3.079   2.607   4.015
    1C        C   36   3.278   2.533   4.139
    1C        C   37   3.212   2.554   4.262
    1C        C   38   3.419   2.509   4.384
    1C        C   39   3.280   2.532   4.384
    1C        C   40   3.489   2.498   4.507
    1C        C   41   3.419   2.502   4.629
    1C        C   42   3.630   2.488   4.744
    1C        C   43   3.488   2.483   4.751
    1C        C   44   3.706   2.494   4.863
    1C        C   45   3.632   2.485   4.982
    1C        C   46   2.842   2.756   2.793
    1C        C   47   2.900   2.714   2.915
    1C        C   48   2.847   2.761   3.037
    1C        C   49   3.019   2.637   3.163
    1C        C   50   2.902   2.716   3.159
    1C        C   51   3.083   2.604   3.284
    1C        C   52   3.019   2.638   3.405
    1C        C   53   3.210   2.548   3.528
    1C        C   54   3.080   2.603   3.527
    1C        C   55   3.279   2.530   3.650
    1C        C   56   3.211   2.551   3.772
    1C        C   57   3.415   2.502   3.894
    1C        C   58   3.276   2.527   3.895
    1C        C   59   3.487   2.499   4.016
    1C        C   60   3.417   2.510   4.138
    1C        C   61   3.629   2.508   4.261
    1C        C   62   3.487   2.506   4.261
    1C        C   63   3.700   2.516   4.383
    1C        C   64   3.629   2.508   4.505
    1C        C   65   3.837   2.557   4.624
    1C        C   66   3.702   2.515   4.626
    1C        C   67   3.905   2.571   4.746
    1C        C   68   3.841   2.533   4.866
    1C        C   69   4.054   2.585   4.977
    1C        C   70   3.926   2.529   4.978
    1C        C   71   2.825   2.736   2.309
    1C        C   72   2.882   2.691   2.430
    1C        C   73   2.835   2.749   2.550
    1C        C   74   3.012   2.629   2.675
    1C        C   75   2.895   2.708   2.671
    1C        C   76   3.075   2.595   2.797
    1C        C   77   3.012   2.628   2.919
    1C        C   78   3.204   2.537   3.039
    1C        C   79   3.074   2.592   3.040
    1C        C   80   3.277   2.519   3.159
    1C        C   81   3.212   2.546   3.281
    1C        C   82   3.414   2.497   3.405
    1C        C   83   3.275   2.522   3.406
    1C        C   84   3.487   2.495   3.526
    1C        C   85   3.418   2.504   3.649
    1C        C   86   3.627   2.503   3.771
    1C        C   87   3.486   2.495   3.772
    1C        C   88   3.697   2.515   3.893
    1C        C   89   3.628   2.506   4.017
    1C        C   90   3.835   2.553   4.136
    1C        C   91   3.698   2.519   4.139
    1C        C   92   3.903   2.574   4.258
    1C        C   93   3.836   2.552   4.381
    1C        C   94   4.033   2.638   4.501
    1C        C   95   3.905   2.579   4.501
    1C        C   96   4.096   2.672   4.623
    1C        C   97   4.035   2.629   4.742
    1C        C   98   4.196   2.766   4.861
    1C        C   99   4.105   2.656   4.863
    1C        C  100   4.218   2.841   4.977
    1C        C  101   2.825   2.733   2.070
    1C        C  102   2.988   2.590   2.193
    1C        C  103   2.877   2.679   2.189
    1C        C  104   3.062   2.569   2.312
    1C        C  105   3.000   2.613   2.431
    1C        C  106   3.198   2.532   2.553
    1C        C  107   3.068   2.588   2.552
    1C        C  108   3.270   2.511   2.673
    1C        C  109   3.205   2.539   2.795
    1C        C  110   3.411   2.493   2.915
    1C        C  111   3.271   2.514   2.917
    1C        C  112   3.484   2.492   3.036
    1C        C  113   3.417   2.500   3.159
    1C        C  114   3.626   2.500   3.280
    1C        C  115   3.485   2.490   3.283
    1C        C  116   3.694   2.513   3.403
    1C        C  117   3.628   2.504   3.527
    1C        C  118   3.835   2.546   3.647
    1C        C  119   3.698   2.513   3.649
    1C        C  120   3.899   2.575   3.770
    1C        C  121   3.834   2.551   3.893
    1C        C  122   4.025   2.647   4.014
    1C        C  123   3.902   2.578   4.014
    1C        C  124   4.087   2.681   4.136
    1C        C  125   4.028   2.640   4.257
    1C        C  126   4.201   2.765   4.379
    1C        C  127   4.091   2.677   4.378
    1C        C  128   4.250   2.819   4.500
    1C        C  129   4.203   2.764   4.621
    1C        C  130   4.334   2.935   4.745
    1C        C  131   4.256   2.816   4.742
    1C        C  132   4.359   3.006   4.864
    1C        C  133   4.293   2.958   4.977
    1C        C  134   3.170   2.463   2.084
    1C        C  135   3.036   2.506   2.087
    1C        C  136   3.259   2.477   2.192
    1C        C  137   3.194   2.517   2.311
    1C        C  138   3.405   2.480   2.431
    1C        C  139   3.267   2.508   2.432
    1C        C  140   3.481   2.477   2.550
    1C        C  141   3.409   2.491   2.671
    1C        C  142   3.623   2.497   2.792
    1C        C  143   3.482   2.490   2.792
    1C        C  144   3.695   2.513   2.912
    1C        C  145   3.625   2.503   3.034
    1C        C  146   3.832   2.545   3.159
    1C        C  147   3.694   2.512   3.157
    1C        C  148   3.898   2.572   3.281
    1C        C  149   3.831   2.550   3.403
    1C        C  150   4.028   2.630   3.524
    1C        C  151   3.900   2.570   3.525
    1C        C  152   4.086   2.675   3.645
    1C        C  153   4.021   2.646   3.767
    1C        C  154   4.199   2.762   3.888
    1C        C  155   4.082   2.683   3.889
    1C        C  156   4.250   2.810   4.011
    1C        C  157   4.204   2.761   4.135
    1C        C  158   4.343   2.922   4.254
    1C        C  159   4.255   2.811   4.257
    1C        C  160   4.379   2.984   4.376
    1C        C  161   4.334   2.932   4.499
    1C        C  162   4.442   3.115   4.617
    1C        C  163   4.373   2.992   4.621
    1C        C  164   4.473   3.184   4.736
    1C        C  165   4.440   3.122   4.859
    1C        C  166   4.529   3.321   4.972
    1C        C  167   4.486   3.188   4.973
    1C        C  168   3.475   2.435   2.076
    1C        C  169   3.397   2.451   2.192
    1C        C  170   3.617   2.458   2.309
    1C        C  171   3.475   2.459   2.309
    1C        C  172   3.693   2.477   2.427
    1C        C  173   3.622   2.479   2.549
    1C        C  174   3.829   2.539   2.667
    1C        C  175   3.693   2.500   2.669
    1C        C  176   3.893   2.573   2.788
    1C        C  177   3.831   2.552   2.913
    1C        C  178   4.025   2.631   3.034
    1C        C  179   3.897   2.570   3.036
    1C        C  180   4.086   2.666   3.156
    1C        C  181   4.025   2.633   3.279
    1C        C  182   4.201   2.751   3.400
    1C        C  183   4.089   2.665   3.401
    1C        C  184   4.254   2.800   3.521
    1C        C  185   4.204   2.753   3.645
    1C        C  186   4.344   2.915   3.765
    1C        C  187   4.257   2.803   3.766
    1C        C  188   4.378   2.978   3.887
    1C        C  189   4.337   2.921   4.010
    1C        C  190   4.452   3.102   4.131
    1C        C  191   4.382   2.979   4.131
    1C        C  192   4.477   3.172   4.251
    1C        C  193   4.447   3.107   4.373
    1C        C  194   4.508   3.312   4.494
    1C        C  195   4.476   3.175   4.494
    1C        C  196   4.523   3.387   4.613
    1C        C  197   4.514   3.320   4.737
    1C        C  198   4.563   3.537   4.848
    1C        C  199   4.542   3.395   4.854
    1C        C  200   4.586   3.618   4.964
    1C        C  201   3.615   2.423   2.073
    1C        C  202   3.825   2.512   2.185
    1C        C  203   3.691   2.462   2.188
    1C        C  204   3.896   2.542   2.305
    1C        C  205   3.828   2.518   2.426
    1C        C  206   4.021   2.621   2.543
    1C        C  207   3.898   2.552   2.544
    1C        C  208   4.082   2.660   2.664
    1C        C  209   4.022   2.630   2.789
    1C        C  210   4.201   2.747   2.908
    1C        C  211   4.085   2.666   2.910
    1C        C  212   4.251   2.796   3.030
    1C        C  213   4.198   2.752   3.154
    1C        C  214   4.335   2.912   3.274
    1C        C  215   4.250   2.799   3.276
    1C        C  216   4.373   2.971   3.396
    1C        C  217   4.342   2.910   3.520
    1C        C  218   4.441   3.100   3.640
    1C        C  219   4.381   2.972   3.641
    1C        C  220   4.466   3.166   3.762
    1C        C  221   4.443   3.103   3.886
    1C        C  222   4.507   3.304   4.006
    1C        C  223   4.479   3.166   4.008
    1C        C  224   4.517   3.379   4.126
    1C        C  225   4.510   3.309   4.249
    1C        C  226   4.517   3.522   4.365
    1C        C  227   4.514   3.381   4.371
    1C        C  228   4.516   3.597   4.485
    1C        C  229   4.522   3.528   4.608
    1C        C  230   4.499   3.742   4.725
    1C        C  231   4.537   3.604   4.726
    1C        C  232   4.486   3.813   4.846
    1C        C  233   4.539   3.750   4.959
    1C        C  234   4.018   2.609   2.067
    1C        C  235   3.898   2.539   2.068
    1C        C  236   4.083   2.652   2.184
    1C        C  237   4.021   2.610   2.303
    1C        C  238   4.203   2.732   2.423
    1C        C  239   4.087   2.650   2.422
    1C        C  240   4.254   2.787   2.543
    1C        C  241   4.194   2.747   2.664
    1C        C  242   4.341   2.903   2.784
    1C        C  243   4.251   2.794   2.784
    1C        C  244   4.381   2.961   2.906
    1C        C  245   4.341   2.905   3.029
    1C        C  246   4.445   3.091   3.149
    1C        C  247   4.379   2.966   3.151
    1C        C  248   4.462   3.158   3.272
    1C        C  249   4.432   3.099   3.397
    1C        C  250   4.497   3.303   3.514
    1C        C  251   4.463   3.166   3.517
    1C        C  252   4.513   3.371   3.637
    1C        C  253   4.502   3.303   3.760
    1C        C  254   4.520   3.512   3.881
    1C        C  255   4.518   3.371   3.882
    1C        C  256   4.513   3.587   4.000
    1C        C  257   4.525   3.520   4.124
    1C        C  258   4.494   3.733   4.241
    1C        C  259   4.518   3.594   4.244
    1C        C  260   4.478   3.806   4.361
    1C        C  261   4.491   3.736   4.484
    1C        C  262   4.422   3.941   4.605
    1C        C  263   4.469   3.808   4.604
    1C        C  264   4.394   4.008   4.726
    1C        C  265   4.432   3.943   4.845
    1C        C  266   4.322   4.130   4.959
    1C        C  267   4.399   4.014   4.962
    1C        C  268   4.259   2.782   2.063
    1C        C  269   4.195   2.738   2.180
    1C        C  270   4.346   2.891   2.298
    1C        C  271   4.253   2.783   2.300
    1C        C  272   4.388   2.952   2.419
    1C        C  273   4.348   2.892   2.541
    1C        C  274   4.451   3.081   2.663
    1C        C  275   4.389   2.954   2.661
    1C        C  276   4.475   3.151   2.783
    1C        C  277   4.449   3.086   2.905
    1C        C  278   4.507   3.292   3.025
    1C        C  279   4.476   3.154   3.026
    1C        C  280   4.517   3.363   3.147
    1C        C  281   4.503   3.293   3.269
    1C        C  282   4.517   3.509   3.392
    1C        C  283   4.507   3.368   3.389
    1C        C  284   4.515   3.581   3.513
    1C        C  285   4.517   3.513   3.637
    1C        C  286   4.482   3.721   3.755
    1C        C  287   4.514   3.584   3.759
    1C        C  288   4.462   3.792   3.875
    1C        C  289   4.483   3.725   3.998
    1C        C  290   4.424   3.931   4.115
    1C        C  291   4.476   3.800   4.118
    1C        C  292   4.394   3.996   4.236
    1C        C  293   4.427   3.938   4.361
    1C        C  294   4.321   4.124   4.478
    1C        C  295   4.395   4.004   4.482
    1C        C  296   4.281   4.185   4.599
    1C        C  297   4.322   4.131   4.723
    1C        C  298   4.196   4.311   4.839
    1C        C  299   4.281   4.196   4.842
    1C        C  300   4.165   4.400   4.947
    1C        C  301   4.349   2.888   2.061
    1C        C  302   4.476   3.067   2.175
    1C        C  303   4.399   2.946   2.178
    1C        C  304   4.487   3.139   2.297
    1C        C  305   4.455   3.076   2.419
    1C        C  306   4.515   3.281   2.537
    1C        C  307   4.483   3.144   2.540
    1C        C  308   4.521   3.354   2.658
    1C        C  309   4.510   3.288   2.782
    1C        C  310   4.523   3.501   2.901
    1C        C  311   4.524   3.360   2.903
    1C        C  312   4.516   3.573   3.023
    1C        C  313   4.519   3.504   3.146
    1C        C  314   4.485   3.715   3.265
    1C        C  315   4.513   3.576   3.267
    1C        C  316   4.471   3.786   3.387
    1C        C  317   4.490   3.720   3.510
    1C        C  318   4.418   3.922   3.627
    1C        C  319   4.464   3.788   3.631
    1C        C  320   4.392   3.987   3.749
    1C        C  321   4.421   3.927   3.874
    1C        C  322   4.317   4.117   3.993
    1C        C  323   4.392   3.997   3.993
    1C        C  324   4.273   4.171   4.116
    1C        C  325   4.319   4.116   4.238
    1C        C  326   4.185   4.287   4.356
    1C        C  327   4.280   4.182   4.356
    1C        C  328   4.134   4.337   4.477
    1C        C  329   4.190   4.293   4.599
    1C        C  330   4.022   4.435   4.716
    1C        C  331   4.140   4.355   4.716
    1C        C  332   3.966   4.492   4.833
    1C        C  333   4.051   4.481   4.944
    1C        C  334   4.558   3.264   2.064
    1C        C  335   4.541   3.125   2.062
    1C        C  336   4.542   3.347   2.176
    1C        C  337   4.520   3.278   2.296
    1C        C  338   4.524   3.494   2.414
    1C        C  339   4.525   3.353   2.416
    1C        C  340   4.519   3.568   2.535
    1C        C  341   4.521   3.495   2.656
    1C        C  342   4.489   3.706   2.777
    1C        C  343   4.515   3.568   2.777
    1C        C  344   4.474   3.781   2.896
    1C        C  345   4.494   3.713   3.018
    1C        C  346   4.419   3.911   3.139
    1C        C  347   4.467   3.778   3.140
    1C        C  348   4.390   3.979   3.259
    1C        C  349   4.420   3.917   3.383
    1C        C  350   4.313   4.104   3.504
    1C        C  351   4.389   3.984   3.504
    1C        C  352   4.273   4.164   3.625
    1C        C  353   4.316   4.106   3.747
    1C        C  354   4.180   4.271   3.867
    1C        C  355   4.277   4.168   3.868
    1C        C  356   4.122   4.316   3.989
    1C        C  357   4.174   4.271   4.112
    1C        C  358   4.016   4.412   4.231
    1C        C  359   4.131   4.331   4.233
    1C        C  360   3.956   4.452   4.352
    1C        C  361   4.019   4.419   4.475
    1C        C  362   3.829   4.522   4.594
    1C        C  363   3.959   4.466   4.594
    1C        C  364   3.763   4.555   4.714
    1C        C  365   3.838   4.550   4.834
    1C        C  366   3.629   4.592   4.950
    1C        C  367   3.767   4.579   4.951
    1C        C  368   4.509   3.561   2.055
    1C        C  369   4.525   3.488   2.173
    1C        C  370   4.500   3.704   2.288
    1C        C  371   4.520   3.565   2.292
    1C        C  372   4.479   3.774   2.409
    1C        C  373   4.498   3.708   2.532
    1C        C  374   4.423   3.906   2.651
    1C        C  375   4.475   3.774   2.654
    1C        C  376   4.389   3.973   2.771
    1C        C  377   4.417   3.911   2.894
    1C        C  378   4.314   4.096   3.014
    1C        C  379   4.385   3.973   3.016
    1C        C  380   4.273   4.154   3.136
    1C        C  381   4.315   4.098   3.259
    1C        C  382   4.179   4.263   3.378
    1C        C  383   4.275   4.160   3.380
    1C        C  384   4.123   4.309   3.500
    1C        C  385   4.179   4.269   3.623
    1C        C  386   4.011   4.398   3.742
    1C        C  387   4.129   4.320   3.745
    1C        C  388   3.950   4.436   3.864
    1C        C  389   4.010   4.401   3.986
    1C        C  390   3.821   4.495   4.108
    1C        C  391   3.953   4.445   4.108
    1C        C  392   3.756   4.518   4.231
    1C        C  393   3.827   4.509   4.353
    1C        C  394   3.618   4.556   4.474
    1C        C  395   3.758   4.537   4.473
    1C        C  396   3.546   4.565   4.595
    1C        C  397   3.622   4.567   4.714
    1C        C  398   3.411   4.547   4.842
    1C        C  399   3.550   4.572   4.836
    1C        C  400   3.341   4.511   4.957
    1C        C  401   4.509   3.700   2.050
    1C        C  402   4.447   3.910   2.164
    1C        C  403   4.491   3.776   2.167
    1C        C  404   4.406   3.973   2.284
    1C        C  405   4.432   3.908   2.406
    1C        C  406   4.322   4.089   2.527
    1C        C  407   4.396   3.969   2.528
    1C        C  408   4.270   4.145   2.646
    1C        C  409   4.313   4.092   2.770
    1C        C  410   4.178   4.256   2.890
    1C        C  411   4.274   4.153   2.891
    1C        C  412   4.123   4.301   3.012
    1C        C  413   4.177   4.258   3.135
    1C        C  414   4.007   4.387   3.254
    1C        C  415   4.125   4.309   3.256
    1C        C  416   3.947   4.424   3.377
    1C        C  417   4.007   4.389   3.500
    1C        C  418   3.817   4.486   3.619
    1C        C  419   3.946   4.430   3.621
    1C        C  420   3.750   4.509   3.742
    1C        C  421   3.818   4.489   3.864
    1C        C  422   3.614   4.537   3.987
    1C        C  423   3.753   4.516   3.986
    1C        C  424   3.545   4.541   4.110
    1C        C  425   3.617   4.544   4.231
    1C        C  426   3.405   4.546   4.356
    1C        C  427   3.546   4.554   4.353
    1C        C  428   3.335   4.540   4.479
    1C        C  429   3.406   4.547   4.601
    1C        C  430   3.196   4.513   4.725
    1C        C  431   3.336   4.539   4.723
    1C        C  432   3.126   4.486   4.846
    1C        C  433   3.204   4.484   4.962
    1C        C  434   4.379   4.120   2.048
    1C        C  435   4.441   3.995   2.053
    1C        C  436   4.304   4.163   2.162
    1C        C  437   4.333   4.095   2.283
    1C        C  438   4.183   4.248   2.402
    1C        C  439   4.282   4.147   2.404
    1C        C  440   4.127   4.299   2.521
    1C        C  441   4.178   4.252   2.644
    1C        C  442   4.011   4.383   2.767
    1C        C  443   4.125   4.300   2.766
    1C        C  444   3.947   4.419   2.888
    1C        C  445   4.009   4.384   3.010
    1C        C  446   3.816   4.476   3.132
    1C        C  447   3.947   4.421   3.131
    1C        C  448   3.749   4.500   3.254
    1C        C  449   3.816   4.475   3.376
    1C        C  450   3.611   4.539   3.498
    1C        C  451   3.747   4.502   3.497
    1C        C  452   3.541   4.547   3.621
    1C        C  453   3.612   4.538   3.743
    1C        C  454   3.401   4.544   3.864
    1C        C  455   3.542   4.547   3.865
    1C        C  456   3.334   4.531   3.988
    1C        C  457   3.404   4.535   4.111
    1C        C  458   3.198   4.498   4.236
    1C        C  459   3.335   4.534   4.234
    1C        C  460   3.131   4.486   4.359
    1C        C  461   3.197   4.508   4.482
    1C        C  462   2.998   4.434   4.601
    1C        C  463   3.128   4.491   4.604
    1C        C  464   2.932   4.402   4.722
    1C        C  465   2.988   4.446   4.844
    1C        C  466   2.802   4.341   4.957
    1C        C  467   2.909   4.432   4.963
    1C        C  468   4.118   4.277   2.045
    1C        C  469   4.189   4.249   2.162
    1C        C  470   4.009   4.374   2.280
    1C        C  471   4.130   4.299   2.282
    1C        C  472   3.944   4.405   2.401
    1C        C  473   4.008   4.374   2.523
    1C        C  474   3.814   4.463   2.643
    1C        C  475   3.945   4.409   2.645
    1C        C  476   3.746   4.490   2.764
    1C        C  477   3.816   4.471   2.885
    1C        C  478   3.611   4.521   3.011
    1C        C  479   3.750   4.493   3.008
    1C        C  480   3.539   4.535   3.132
    1C        C  481   3.611   4.530   3.253
    1C        C  482   3.400   4.537   3.377
    1C        C  483   3.541   4.543   3.375
    1C        C  484   3.332   4.529   3.500
    1C        C  485   3.400   4.542   3.623
    1C        C  486   3.190   4.502   3.744
    1C        C  487   3.327   4.536   3.743
    1C        C  488   3.129   4.476   3.869
    1C        C  489   3.198   4.495   3.990
    1C        C  490   3.006   4.410   4.115
    1C        C  491   3.132   4.474   4.113
    1C        C  492   2.946   4.379   4.240
    1C        C  493   3.004   4.425   4.360
    1C        C  494   2.826   4.307   4.486
    1C        C  495   2.936   4.395   4.481
    1C        C  496   2.775   4.255   4.607
    1C        C  497   2.821   4.313   4.727
    1C        C  498   2.664   4.165   4.848
    1C        C  499   2.753   4.275   4.844
    1C        C  500   2.595   4.117   4.961
    1C        C  501   4.000   4.350   2.041
    1C        C  502   3.816   4.462   2.156
    1C        C  503   3.945   4.404   2.158
    1C        C  504   3.746   4.482   2.277
    1C        C  505   3.813   4.457   2.399
    1C        C  506   3.606   4.506   2.518
    1C        C  507   3.745   4.480   2.521
    1C        C  508   3.537   4.520   2.641
    1C        C  509   3.607   4.514   2.763
    1C        C  510   3.400   4.528   2.887
    1C        C  511   3.541   4.520   2.888
    1C        C  512   3.330   4.518   3.009
    1C        C  513   3.398   4.530   3.132
    1C        C  514   3.192   4.495   3.256
    1C        C  515   3.329   4.529   3.255
    1C        C  516   3.127   4.467   3.379
    1C        C  517   3.195   4.494   3.500
    1C        C  518   3.000   4.408   3.624
    1C        C  519   3.125   4.474   3.621
    1C        C  520   2.943   4.372   3.748
    1C        C  521   3.007   4.405   3.870
    1C        C  522   2.834   4.287   3.997
    1C        C  523   2.946   4.372   3.993
    1C        C  524   2.786   4.240   4.121
    1C        C  525   2.836   4.291   4.243
    1C        C  526   2.695   4.135   4.368
    1C        C  527   2.781   4.247   4.366
    1C        C  528   2.644   4.082   4.489
    1C        C  529   2.685   4.146   4.608
    1C        C  530   2.584   3.961   4.737
    1C        C  531   2.641   4.091   4.730
    1C        C  532   2.538   3.902   4.858
    1C        C  533   2.531   3.993   4.969
    1C        C  534   3.620   4.558   2.043
    1C        C  535   3.751   4.509   2.041
    1C        C  536   3.535   4.536   2.156
    1C        C  537   3.608   4.515   2.277
    1C        C  538   3.392   4.520   2.399
    1C        C  539   3.533   4.514   2.397
    1C        C  540   3.324   4.510   2.522
    1C        C  541   3.396   4.520   2.644
    1C        C  542   3.188   4.489   2.768
    1C        C  543   3.326   4.520   2.767
    1C        C  544   3.122   4.467   2.890
    1C        C  545   3.193   4.482   3.011
    1C        C  546   3.001   4.400   3.135
    1C        C  547   3.127   4.464   3.135
    1C        C  548   2.941   4.365   3.258
    1C        C  549   3.000   4.405   3.380
    1C        C  550   2.829   4.282   3.505
    1C        C  551   2.940   4.370   3.502
    1C        C  552   2.779   4.234   3.628
    1C        C  553   2.831   4.284   3.749
    1C        C  554   2.697   4.126   3.877
    1C        C  555   2.785   4.237   3.874
    1C        C  556   2.662   4.067   4.001
    1C        C  557   2.700   4.128   4.122
    1C        C  558   2.599   3.945   4.248
    1C        C  559   2.662   4.072   4.246
    1C        C  560   2.566   3.884   4.371
    1C        C  561   2.591   3.951   4.492
    1C        C  562   2.533   3.751   4.613
    1C        C  563   2.564   3.889   4.616
    1C        C  564   2.525   3.684   4.737
    1C        C  565   2.523   3.760   4.857
    1C        C  566   2.530   3.548   4.977
    1C        C  567   2.528   3.687   4.976
    1C        C  568   3.327   4.475   2.041
    1C        C  569   3.395   4.514   2.157
    1C        C  570   3.182   4.479   2.280
    1C        C  571   3.320   4.513   2.278
    1C        C  572   3.119   4.458   2.405
    1C        C  573   3.187   4.477   2.527
    1C        C  574   2.987   4.406   2.647
    1C        C  575   3.117   4.462   2.649
    1C        C  576   2.933   4.365   2.770
    1C        C  577   2.997   4.401   2.891
    1C        C  578   2.831   4.272   3.015
    1C        C  579   2.938   4.364   3.014
    1C        C  580   2.782   4.223   3.138
    1C        C  581   2.833   4.274   3.259
    1C        C  582   2.692   4.120   3.386
    1C        C  583   2.781   4.229   3.383
    1C        C  584   2.657   4.060   3.510
    1C        C  585   2.697   4.119   3.632
    1C        C  586   2.597   3.937   3.755
    1C        C  587   2.659   4.064   3.756
    1C        C  588   2.570   3.877   3.880
    1C        C  589   2.598   3.941   4.003
    1C        C  590   2.543   3.739   4.126
    1C        C  591   2.572   3.877   4.127
    1C        C  592   2.528   3.674   4.250
    1C        C  593   2.534   3.746   4.372
    1C        C  594   2.513   3.535   4.499
    1C        C  595   2.522   3.676   4.494
    1C        C  596   2.520   3.464   4.620
    1C        C  597   2.522   3.541   4.738
    1C        C  598   2.536   3.329   4.864
    1C        C  599   2.530   3.470   4.860
    1C        C  600   2.535   3.247   4.977
    1C        C  601   3.193   4.441   2.041
    1C        C  602   2.985   4.390   2.159
    1C        C  603   3.117   4.445   2.159
    1C        C  604   2.927   4.356   2.284
    1C        C  605   2.992   4.394   2.403
    1C        C  606   2.822   4.270   2.528
    1C        C  607   2.929   4.363   2.526
    1C        C  608   2.777   4.217   2.651
    1C        C  609   2.828   4.270   2.771
    1C        C  610   2.689   4.112   2.895
    1C        C  611   2.777   4.222   2.894
    1C        C  612   2.655   4.052   3.019
    1C        C  613   2.696   4.110   3.141
    1C        C  614   2.591   3.931   3.265
    1C        C  615   2.657   4.056   3.265
    1C        C  616   2.571   3.868   3.390
    1C        C  617   2.597   3.932   3.513
    1C        C  618   2.535   3.730   3.639
    1C        C  619   2.573   3.866   3.635
    1C        C  620   2.520   3.664   3.764
    1C        C  621   2.531   3.741   3.882
    1C        C  622   2.519   3.529   4.010
    1C        C  623   2.527   3.670   4.004
    1C        C  624   2.523   3.460   4.134
    1C        C  625   2.525   3.533   4.254
    1C        C  626   2.546   3.324   4.380
    1C        C  627   2.524   3.464   4.377
    1C        C  628   2.564   3.254   4.502
    1C        C  629   2.547   3.325   4.622
    1C        C  630   2.600   3.120   4.743
    1C        C  631   2.557   3.256   4.745
    1C        C  632   2.616   3.047   4.864
    1C        C  633   2.556   3.108   4.979
    1C        C  634   2.780   4.308   2.054
    1C        C  635   2.892   4.392   2.050
    1C        C  636   2.753   4.232   2.168
    1C        C  637   2.813   4.272   2.290
    1C        C  638   2.674   4.110   2.411
    1C        C  639   2.759   4.223   2.411
    1C        C  640   2.635   4.050   2.533
    1C        C  641   2.686   4.109   2.651
    1C        C  642   2.588   3.923   2.778
    1C        C  643   2.651   4.049   2.774
    1C        C  644   2.566   3.858   2.901
    1C        C  645   2.592   3.925   3.023
    1C        C  646   2.524   3.726   3.149
    1C        C  647   2.561   3.862   3.145
    1C        C  648   2.514   3.658   3.273
    1C        C  649   2.532   3.733   3.392
    1C        C  650   2.519   3.523   3.521
    1C        C  651   2.518   3.664   3.515
    1C        C  652   2.522   3.455   3.645
    1C        C  653   2.518   3.523   3.768
    1C        C  654   2.543   3.314   3.891
    1C        C  655   2.521   3.454   3.891
    1C        C  656   2.554   3.249   4.016
    1C        C  657   2.541   3.320   4.138
    1C        C  658   2.610   3.119   4.259
    1C        C  659   2.558   3.251   4.260
    1C        C  660   2.639   3.052   4.380
    1C        C  661   2.609   3.120   4.500
    1C        C  662   2.714   2.939   4.625
    1C        C  663   2.634   3.055   4.622
    1C        C  664   2.754   2.875   4.745
    1C        C  665   2.697   2.929   4.863
    1C        C  666   2.744   2.867   4.980
    1C        C  667   2.676   4.029   2.057
    1C        C  668   2.680   4.111   2.171
    1C        C  669   2.594   3.911   2.292
    1C        C  670   2.644   4.044   2.290
    1C        C  671   2.565   3.848   2.415
    1C        C  672   2.578   3.921   2.535
    1C        C  673   2.517   3.720   2.659
    1C        C  674   2.559   3.854   2.658
    1C        C  675   2.506   3.651   2.782
    1C        C  676   2.527   3.722   2.903
    1C        C  677   2.513   3.515   3.031
    1C        C  678   2.516   3.656   3.027
    1C        C  679   2.511   3.445   3.154
    1C        C  680   2.506   3.517   3.275
    1C        C  681   2.540   3.312   3.402
    1C        C  682   2.516   3.451   3.399
    1C        C  683   2.561   3.245   3.525
    1C        C  684   2.546   3.315   3.647
    1C        C  685   2.605   3.112   3.772
    1C        C  686   2.559   3.246   3.769
    1C        C  687   2.638   3.053   3.896
    1C        C  688   2.604   3.117   4.017
    1C        C  689   2.717   2.934   4.140
    1C        C  690   2.644   3.055   4.138
    1C        C  691   2.757   2.874   4.262
    1C        C  692   2.713   2.932   4.383
    1C        C  693   2.757   2.876   4.506
    1C        C  694   2.622   3.900   2.055
    1C        C  695   2.531   3.704   2.178
    1C        C  696   2.583   3.836   2.173
    1C        C  697   2.509   3.639   2.301
    1C        C  698   2.527   3.712   2.421
    1C        C  699   2.491   3.502   2.544
    1C        C  700   2.503   3.643   2.542
    1C        C  701   2.505   3.435   2.668
    1C        C  702   2.508   3.510   2.788
    1C        C  703   2.532   3.300   2.914
    1C        C  704   2.516   3.441   2.911
    1C        C  705   2.550   3.234   3.038
    1C        C  706   2.532   3.305   3.159
    1C        C  707   2.603   3.107   3.281
    1C        C  708   2.556   3.240   3.282
    1C        C  709   2.640   3.048   3.404
    1C        C  710   2.611   3.113   3.526
    1C        C  711   2.712   2.930   3.648
    1C        C  712   2.635   3.048   3.649
    1C        C  713   2.754   2.876   3.772
    1C        C  714   2.714   2.934   3.894
    1C        C  715   2.758   2.879   4.017
    1C        C  716   2.457   3.498   2.063
    1C        C  717   2.493   3.633   2.063
    1C        C  718   2.469   3.422   2.184
    1C        C  719   2.485   3.499   2.303
    1C        C  720   2.519   3.289   2.422
    1C        C  721   2.491   3.427   2.424
    1C        C  722   2.536   3.222   2.545
    1C        C  723   2.526   3.295   2.666
    1C        C  724   2.603   3.103   2.790
    1C        C  725   2.548   3.234   2.791
    1C        C  726   2.627   3.038   2.913
    1C        C  727   2.599   3.102   3.036
    1C        C  728   2.710   2.924   3.159
    1C        C  729   2.628   3.039   3.159
    1C        C  730   2.757   2.871   3.281
    1C        C  731   2.716   2.929   3.404
    1C        C  732   2.758   2.874   3.527
    1C        C  733   2.490   3.196   2.069
    1C        C  734   2.491   3.281   2.180
    1C        C  735   2.582   3.085   2.305
    1C        C  736   2.524   3.215   2.302
    1C        C  737   2.611   3.020   2.426
    1C        C  738   2.588   3.091   2.546
    1C        C  739   2.704   2.916   2.672
    1C        C  740   2.627   3.034   2.669
    1C        C  741   2.749   2.863   2.795
    1C        C  742   2.702   2.918   2.916
    1C        C  743   2.751   2.865   3.037
    1C        C  744   2.550   3.070   2.071
    1C        C  745   2.692   2.900   2.186
    1C        C  746   2.612   3.017   2.185
    1C        C  747   2.728   2.840   2.309
    1C        C  748   2.682   2.897   2.429
    1C        C  749   2.739   2.853   2.550
    1C        C  750   2.739   2.843   2.068
    1C        C  751   3.646   2.310   1.983
    1C        O  752   3.714   2.208   2.013
    1C        O  753   3.647   2.334   1.845
    1C        C  754   4.655   3.054   1.999
    1C        O  755   4.629   2.977   1.902
    1C        O  756   4.775   3.032   2.067
    1C        C  757   4.442   4.223   1.963
    1C        O  758   4.565   4.250   1.967
    1C        O  759   4.409   4.250   1.829
    1C        C  760   3.592   4.669   1.949
    1C        O  761   3.655   4.776   1.971
    1C        O  762   3.580   4.642   1.812
    1C        C  763   2.888   4.502   1.951
    1C        O  764   2.958   4.509   1.847
    1C        O  765   2.823   4.626   1.967
    1C        C  766   2.351   3.463   1.967
    1C        O  767   2.375   3.465   1.843
    1C        O  768   2.220   3.429   2.002
    1C        C  769   4.696   3.585   5.057
    1C        O  770   4.668   3.546   5.174
    1C        O  771   4.820   3.649   5.055
    1C        C  772   4.271   4.443   5.041
    1C        O  773   4.266   4.436   5.166
    1C        O  774   4.372   4.534   5.006
    1C        C  775   4.151   2.534   5.076
    1C        O  776   4.231   2.440   5.050
    1C        O  777   4.117   2.527   5.212
    1C        C  778   2.901   4.531   5.073
    1C        O  779   2.862   4.648   5.049
    1C        O  780   2.867   4.493   5.203
    1C        C  781   2.457   3.046   5.070
    1C        O  782   2.380   2.960   5.019
    1C        O  783   2.466   3.018   5.206
    1C        C  784   2.437   3.986   5.083
    1C        O  785   2.324   4.041   5.097
    1C        O  786   2.495   3.945   5.203
    1C        C  787   2.943   2.443   1.990
    1C        O  788   2.927   2.478   1.870
    1C        O  789   2.851   2.347   2.029
    1C        C  790   3.210   2.428   5.109
    1C        O  791   3.189   2.305   5.129
    1C        O  792   3.215   2.494   5.233
    1C        H  793   4.325   2.988   5.075
    1C        H  794   4.135   2.839   5.045
    1C        H  795   4.471   3.144   5.070
    1C        H  796   4.525   3.371   5.067
    1C        H  797   4.534   3.796   5.056
    1C        H  798   4.460   3.996   5.047
    1C        H  799   4.290   4.165   5.055
    1C        H  800   4.040   4.554   5.021
    1C        H  801   3.806   4.535   5.041
    1C        H  802   3.597   4.663   5.023
    1C        H  803   3.381   4.551   5.048
    1C        H  804   3.165   4.446   5.054
    1C        H  805   3.899   2.465   5.060
    1C        H  806   3.678   2.469   5.077
    1C        H  807   2.999   2.552   5.067
    1C        H  808   3.455   2.436   5.075
    1C        H  809   2.869   2.730   5.079
    1C        H  810   2.679   2.872   5.065
    1C        H  811   2.482   3.286   5.061
    1C        H  812   2.522   3.498   5.071
    1C        H  813   2.466   3.725   5.055
    1C        H  814   2.638   4.142   5.056
    1C        H  815   2.742   4.337   5.046
    1C        H  816   2.699   2.866   1.971
    1C        H  817   2.859   2.702   1.974
    1C        H  818   3.202   2.408   1.998
    1C        H  819   3.423   2.441   1.983
    1C        H  820   3.891   2.470   1.987
    1C        H  821   4.055   2.647   1.975
    1C        H  822   4.242   2.730   1.971
    1C        H  823   4.361   2.944   1.971
    1C        H  824   4.607   3.305   1.978
    1C        H  825   4.518   3.511   1.961
    1C        H  826   4.547   3.750   1.963
    1C        H  827   3.815   4.548   1.965
    1C        H  828   3.955   4.369   1.946
    1C        H  829   4.166   4.249   1.953
    1C        H  830   4.522   3.985   1.984
    1C        H  831   2.621   3.846   1.963
    1C        H  832   2.692   4.073   1.961
    1C        H  833   2.709   4.306   1.974
    1C        H  834   3.369   4.513   1.950
    1C        H  835   3.147   4.412   1.949
    1C        H  836   2.508   3.003   1.999
    1C        H  837   2.455   3.229   1.973
    1C        H  838   2.466   3.687   1.975
    2V3OU   H29  839   2.802   3.553   5.088
    2V3OU   C27  840   2.779   3.504   5.186
    2V3OU   H27  841   2.723   3.577   5.250
    2V3OU   H28  842   2.725   3.406   5.180
    2V3OU   O11  843   2.902   3.481   5.255
    2V3OU   C15  844   2.919   3.404   5.369
    2V3OU   C13  845   3.053   3.378   5.404
    2V3OU   C14  846   3.079   3.266   5.484
    2V3OU   C16  847   2.974   3.182   5.521
    2V3OU    H6  848   2.996   3.104   5.596
    2V3OU   C12  849   3.217   3.231   5.524
    2V3OU    O2  850   3.237   3.123   5.584
    2V3OU   C10  851   3.330   3.309   5.472
    2V3OU    C8  852   3.462   3.274   5.497
    2V3OU   O10  853   3.496   3.151   5.546
    2V3OU   H26  854   3.407   3.116   5.563
    2V3OU    C6  855   3.566   3.353   5.440
    2V3OU    C5  856   3.539   3.471   5.372
    2V3OU    C4  857   3.703   3.294   5.432
    2V3OU    H4  858   3.721   3.229   5.522
    2V3OU    H5  859   3.711   3.231   5.338
    2V3OU    C2  860   3.814   3.399   5.436
    2V3OU    O6  861   3.803   3.477   5.556
    2V3OU   H21  862   3.762   3.555   5.516
    2V3OU    C3  863   3.781   3.501   5.327
    2V3OU    H2  864   3.862   3.579   5.323
    2V3OU    H3  865   3.781   3.441   5.233
    2V3OU   C25  866   3.947   3.326   5.419
    2V3OU    O7  867   3.998   3.297   5.311
    2V3OU   C26  868   4.031   3.287   5.539
    2V3OU   H22  869   4.066   3.381   5.589
    2V3OU   H23  870   4.115   3.221   5.507
    2V3OU    O8  871   3.966   3.212   5.640
    2V3OU   H24  872   3.919   3.263   5.708
    2V3OU    C1  873   3.646   3.570   5.338
    2V3OU    H1  874   3.628   3.625   5.240
    2V3OU    O3  875   3.659   3.657   5.451
    2V3OU   C19  876   3.621   3.795   5.443
    2V3OU    H9  877   3.519   3.806   5.395
    2V3OU    O4  878   3.710   3.857   5.354
    2V3OU   C20  879   3.843   3.882   5.400
    2V3OU   H10  880   3.897   3.783   5.410
    2V3OU   C24  881   3.613   3.858   5.582
    2V3OU   H16  882   3.544   3.797   5.646
    2V3OU   H17  883   3.568   3.960   5.566
    2V3OU   C23  884   3.753   3.879   5.639
    2V3OU   H15  885   3.798   3.775   5.653
    2V3OU    N1  886   3.739   3.960   5.758
    2V3OU   H19  887   3.807   3.925   5.823
    2V3OU   H20  888   3.650   3.935   5.795
    2V3OU   C21  889   3.849   3.949   5.538
    2V3OU   H11  890   3.957   3.932   5.564
    2V3OU    O5  891   3.829   4.090   5.535
    2V3OU   H18  892   3.790   4.110   5.621
    2V3OU   C22  893   3.915   3.948   5.284
    2V3OU   H12  894   3.866   4.046   5.259
    2V3OU   H13  895   3.900   3.887   5.191
    2V3OU   H14  896   4.024   3.961   5.304
    2V3OU   C11  897   3.162   3.473   5.376
    2V3OU    O1  898   3.136   3.589   5.340
    2V3OU    C9  899   3.301   3.427   5.399
    2V3OU    C7  900   3.402   3.508   5.350
    2V3OU    O9  901   3.388   3.633   5.293
    2V3OU   H25  902   3.292   3.639   5.309
    2V3OU   C17  903   2.814   3.320   5.413
    2V3OU    H7  904   2.709   3.341   5.395
    2V3OU   C18  905   2.841   3.209   5.492
    2V3OU    H8  906   2.755   3.151   5.530
    3SOL     OW  907   3.889   3.947   4.314
    3SOL    HW1  908   3.923   3.964   4.406
    3SOL    HW2  909   3.823   4.018   4.289
    4SOL     OW  910   6.490   0.254   0.390
    4SOL    HW1  911   6.485   0.339   0.442
    4SOL    HW2  912   6.418   0.253   0.321
    5SOL     OW  913   4.562   1.613   1.277
    5SOL    HW1  914   4.465   1.640   1.280
    5SOL    HW2  915   4.577   1.554   1.198
    6SOL     OW  916   5.310   0.428   2.623
    6SOL    HW1  917   5.240   0.470   2.680
    6SOL    HW2  918   5.317   0.477   2.537
    7SOL     OW  919   2.282   4.464   3.324
    7SOL    HW1  920   2.330   4.481   3.238
    7SOL    HW2  921   2.345   4.478   3.400
    8SOL     OW  922   1.801   3.588   5.782
    8SOL    HW1  923   1.825   3.584   5.685
    8SOL    HW2  924   1.827   3.502   5.827
    9SOL     OW  925   6.163   0.899   6.715
    9SOL    HW1  926   6.231   0.900   6.789
    9SOL    HW2  927   6.072   0.918   6.753
   10SOL     OW  928   4.855   4.813   3.150
   10SOL    HW1  929   4.852   4.805   3.051
   10SOL    HW2  930   4.869   4.909   3.176
   11SOL     OW  931   2.451   0.691   0.815
   11SOL    HW1  932   2.448   0.697   0.715
   11SOL    HW2  933   2.531   0.742   0.849
   12SOL     OW  934   3.252   5.247   3.367
   12SOL    HW1  935   3.337   5.237   3.418
   12SOL    HW2  936   3.202   5.326   3.401
   13SOL     OW  937   4.999   6.094   1.462
   13SOL    HW1  938   5.007   5.994   1.456
   13SOL    HW2  939   5.032   6.125   1.552
   14SOL     OW  940   4.233   5.322   4.975
   14SOL    HW1  941   4.261   5.392   5.041
   14SOL    HW2  942   4.305   5.310   4.906
   15SOL     OW  943   6.848   5.837   6.020
   15SOL    HW1  944   6.808   5.822   6.110
   15SOL    HW2  945   6.869   5.749   5.977
   16SOL     OW  946   1.056   3.834   5.381
   16SOL    HW1  947   1.115   3.875   5.311
   16SOL    HW2  948   1.109   3.769   5.435
   17SOL     OW  949   6.286   1.112   5.017
   17SOL    HW1  950   6.348   1.161   4.956
   17SOL    HW2  951   6.217   1.176   5.052
   18SOL     OW  952   3.141   0.816   5.955
   18SOL    HW1  953   3.195   0.731   5.965
   18SOL    HW2  954   3.199   0.887   5.915
   19SOL     OW  955   1.697   1.221   3.292
   19SOL    HW1  956   1.622   1.257   3.348
   19SOL    HW2  957   1.776   1.281   3.298
   20SOL     OW  958   6.024   1.742   5.481
   20SOL    HW1  959   5.955   1.797   5.528
   20SOL    HW2  960   6.104   1.798   5.460
   21SOL     OW  961   2.765   5.167   2.598
   21SOL    HW1  962   2.677   5.168   2.550
   21SOL    HW2  963   2.766   5.238   2.668
   22SOL     OW  964   1.948   6.184   5.746
   22SOL    HW1  965   1.899   6.140   5.671
   22SOL    HW2  966   1.885   6.200   5.823
   23SOL     OW  967   5.228   4.263   2.130
   23SOL    HW1  968   5.217   4.321   2.211
   23SOL    HW2  969   5.320   4.226   2.129
   24SOL     OW  970   4.181   0.962   1.723
   24SOL    HW1  971   4.115   1.030   1.693
   24SOL    HW2  972   4.180   0.884   1.660
   25SOL     OW  973   2.312   0.680   4.085
   25SOL    HW1  974   2.350   0.653   4.173
   25SOL    HW2  975   2.386   0.702   4.022
   26SOL     OW  976   0.782   3.104   6.822
   26SOL    HW1  977   0.851   3.038   6.793
   26SOL    HW2  978   0.773   3.100   6.922
   27SOL     OW  979   7.020   0.988   1.178
   27SOL    HW1  980   7.022   0.952   1.085
   27SOL    HW2  981   6.972   1.076   1.178
   28SOL     OW  982   2.626   0.989   4.612
   28SOL    HW1  983   2.678   0.958   4.532
   28SOL    HW2  984   2.689   1.029   4.679
   29SOL     OW  985   0.154   0.544   0.957
   29SOL    HW1  986   0.076   0.485   0.978
   29SOL    HW2  987   0.205   0.564   1.040
   30SOL     OW  988   4.265   0.559   5.039
   30SOL    HW1  989   4.246   0.623   5.114
   30SOL    HW2  990   4.279   0.467   5.077
   31SOL     OW  991   1.096   3.314   5.024
   31SOL    HW1  992   1.137   3.388   5.078
   31SOL    HW2  993   1.132   3.227   5.056
   32SOL     OW  994   2.086   0.519   1.082
   32SOL    HW1  995   2.077   0.427   1.045
   32SOL    HW2  996   2.171   0.560   1.048
   33SOL     OW  997   0.598   5.465   5.761
   33SOL    HW1  998   0.641   5.398   5.821
   33SOL    HW2  999   0.653   5.549   5.759
   34SOL     OW 1000   2.360   5.444   5.107
   34SOL    HW1 1001   2.297   5.507   5.152
   34SOL    HW2 1002   2.423   5.406   5.175
   35SOL     OW 1003   3.156   3.016   0.582
   35SOL    HW1 1004   3.119   2.971   0.501
   35SOL    HW2 1005   3.255   3.003   0.585
   36SOL     OW 1006   4.431   0.470   4.536
   36SOL    HW1 1007   4.437   0.480   4.635
   36SOL    HW2 1008   4.428   0.561   4.494
   37SOL     OW 1009   2.736   0.896   3.652
   37SOL    HW1 1010   2.762   0.977   3.704
   37SOL    HW2 1011   2.649   0.912   3.605
   38SOL     OW 1012   0.213   4.397   2.785
   38SOL    HW1 1013   0.144   4.424   2.718
   38SOL    HW2 1014   0.186   4.427   2.876
   39SOL     OW 1015   6.730   5.544   5.833
   39SOL    HW1 1016   6.667   5.620   5.817
   39SOL    HW2 1017   6.739   5.530   5.932
   40SOL     OW 1018   3.743   0.857   6.419
   40SOL    HW1 1019   3.756   0.790   6.346
   40SOL    HW2 1020   3.667   0.917   6.395
   41SOL     OW 1021   6.072   4.524   1.670
   41SOL    HW1 1022   6.090   4.467   1.750
   41SOL    HW2 1023   6.028   4.470   1.599
   42SOL     OW 1024   2.191   5.583   6.029
   42SOL    HW1 1025   2.218   5.601   6.124
   42SOL    HW2 1026   2.254   5.516   5.989
   43SOL     OW 1027   4.864   6.571   4.637
   43SOL    HW1 1028   4.949   6.550   4.588
   43SOL    HW2 1029   4.820   6.650   4.595
   44SOL     OW 1030   6.466   1.664   6.173
   44SOL    HW1 1031   6.528   1.734   6.208
   44SOL    HW2 1032   6.374   1.704   6.161
   45SOL     OW 1033   3.338   5.089   0.073
   45SOL    HW1 1034   3.376   5.107   7.008
   45SOL    HW2 1035   3.281   5.007   0.070
   46SOL     OW 1036   0.494   2.848   4.216
   46SOL    HW1 1037   0.407   2.895   4.204
   46SOL    HW2 1038   0.546   2.851   4.130
   47SOL     OW 1039   5.893   3.024   1.599
   47SOL    HW1 1040   5.869   2.998   1.505
   47SOL    HW2 1041   5.834   3.099   1.629
   48SOL     OW 1042   6.108   3.569   0.767
   48SOL    HW1 1043   6.142   3.491   0.820
   48SOL    HW2 1044   6.049   3.625   0.825
   49SOL     OW 1045   4.338   3.054   0.165
   49SOL    HW1 1046   4.238   3.060   0.158
   49SOL    HW2 1047   4.373   3.138   0.207
   50SOL     OW 1048   6.471   3.551   6.701
   50SOL    HW1 1049   6.383   3.541   6.655
   50SOL    HW2 1050   6.493   3.466   6.749
   51SOL     OW 1051   2.647   5.744   2.840
   51SOL    HW1 1052   2.732   5.797   2.835
   51SOL    HW2 1053   2.579   5.784   2.780
   52SOL     OW 1054   5.735   2.820   1.487
   52SOL    HW1 1055   5.690   2.855   1.404
   52SOL    HW2 1056   5.706   2.726   1.503
   53SOL     OW 1057   3.820   0.677   2.161
   53SOL    HW1 1058   3.726   0.709   2.149
   53SOL    HW2 1059   3.821   0.602   2.227
   54SOL     OW 1060   5.467   6.732   0.210
   54SOL    HW1 1061   5.457   6.830   0.198
   54SOL    HW2 1062   5.475   6.711   0.308
   55SOL     OW 1063   1.096   3.451   6.247
   55SOL    HW1 1064   1.138   3.513   6.181
   55SOL    HW2 1065   1.160   3.431   6.321
   56SOL     OW 1066   1.116   2.568   0.094
   56SOL    HW1 1067   1.082   2.475   0.081
   56SOL    HW2 1068   1.098   2.597   0.188
   57SOL     OW 1069   4.611   0.322   0.111
   57SOL    HW1 1070   4.514   0.302   0.123
   57SOL    HW2 1071   4.647   0.272   0.032
   58SOL     OW 1072   0.732   0.442   5.908
   58SOL    HW1 1073   0.688   0.373   5.851
   58SOL    HW2 1074   0.664   0.511   5.935
   59SOL     OW 1075   5.005   3.351   5.878
   59SOL    HW1 1076   4.923   3.407   5.866
   59SOL    HW2 1077   5.080   3.408   5.911
   60SOL     OW 1078   5.497   0.583   2.837
   60SOL    HW1 1079   5.484   0.536   2.749
   60SOL    HW2 1080   5.493   0.681   2.823
   61SOL     OW 1081   7.023   6.651   5.165
   61SOL    HW1 1082   0.095   6.665   5.147
   61SOL    HW2 1083   6.989   6.577   5.106
   62SOL     OW 1084   6.884   1.835   2.198
   62SOL    HW1 1085   6.798   1.800   2.162
   62SOL    HW2 1086   6.889   1.934   2.184
   63SOL     OW 1087   4.444   5.831   4.996
   63SOL    HW1 1088   4.529   5.795   4.958
   63SOL    HW2 1089   4.372   5.829   4.926
   64SOL     OW 1090   0.534   4.671   0.049
   64SOL    HW1 1091   0.597   4.630   0.115
   64SOL    HW2 1092   0.440   4.656   0.080
   65SOL     OW 1093   0.994   6.951   5.235
   65SOL    HW1 1094   0.938   6.895   5.297
   65SOL    HW2 1095   1.087   6.912   5.231
   66SOL     OW 1096   4.089   0.758   2.122
   66SOL    HW1 1097   3.995   0.726   2.134
   66SOL    HW2 1098   4.142   0.739   2.204
   67SOL     OW 1099   0.975   2.249   1.171
   67SOL    HW1 1100   1.071   2.267   1.150
   67SOL    HW2 1101   0.918   2.322   1.132
   68SOL     OW 1102   0.002   1.857   5.387
   68SOL    HW1 1103   0.033   1.804   5.309
   68SOL    HW2 1104   7.008   1.795   5.464
   69SOL     OW 1105   0.834   5.437   6.245
   69SOL    HW1 1106   0.781   5.414   6.326
   69SOL    HW2 1107   0.842   5.356   6.187
   70SOL     OW 1108   5.141   3.562   4.256
   70SOL    HW1 1109   5.085   3.643   4.242
   70SOL    HW2 1110   5.225   3.569   4.201
   71SOL     OW 1111   4.469   1.538   4.183
   71SOL    HW1 1112   4.538   1.611   4.194
   71SOL    HW2 1113   4.511   1.460   4.137
   72SOL     OW 1114   0.367   1.007   3.726
   72SOL    HW1 1115   0.375   0.918   3.681
   72SOL    HW2 1116   0.401   1.079   3.665
   73SOL     OW 1117   2.878   0.659   1.336
   73SOL    HW1 1118   2.814   0.726   1.375
   73SOL    HW2 1119   2.847   0.631   1.246
   74SOL     OW 1120   2.051   2.463   0.695
   74SOL    HW1 1121   2.028   2.383   0.751
   74SOL    HW2 1122   2.146   2.457   0.666
   75SOL     OW 1123   3.979   2.755   0.243
   75SOL    HW1 1124   4.016   2.714   0.160
   75SOL    HW2 1125   3.959   2.851   0.226
   76SOL     OW 1126   3.409   4.749   5.296
   76SOL    HW1 1127   3.313   4.723   5.293
   76SOL    HW2 1128   3.433   4.797   5.212
   77SOL     OW 1129   1.331   4.285   4.467
   77SOL    HW1 1130   1.318   4.243   4.557
   77SOL    HW2 1131   1.307   4.219   4.396
   78SOL     OW 1132   5.002   1.857   0.850
   78SOL    HW1 1133   5.000   1.777   0.910
   78SOL    HW2 1134   5.029   1.937   0.902
   79SOL     OW 1135   2.011   4.897   2.785
   79SOL    HW1 1136   2.032   4.843   2.704
   79SOL    HW2 1137   2.084   4.965   2.799
   80SOL     OW 1138   4.736   2.005   4.508
   80SOL    HW1 1139   4.674   1.940   4.551
   80SOL    HW2 1140   4.683   2.076   4.462
   81SOL     OW 1141   3.437   5.409   1.387
   81SOL    HW1 1142   3.483   5.389   1.300
   81SOL    HW2 1143   3.344   5.374   1.384
   82SOL     OW 1144   2.024   5.809   1.556
   82SOL    HW1 1145   2.021   5.807   1.456
   82SOL    HW2 1146   2.117   5.787   1.586
   83SOL     OW 1147   5.058   1.166   4.716
   83SOL    HW1 1148   5.115   1.161   4.798
   83SOL    HW2 1149   5.113   1.141   4.636
   84SOL     OW 1150   5.631   2.537   2.507
   84SOL    HW1 1151   5.632   2.508   2.411
   84SOL    HW2 1152   5.671   2.628   2.514
   85SOL     OW 1153   2.102   0.559   3.954
   85SOL    HW1 1154   2.111   0.461   3.934
   85SOL    HW2 1155   2.168   0.585   4.024
   86SOL     OW 1156   5.302   0.609   6.700
   86SOL    HW1 1157   5.290   0.690   6.758
   86SOL    HW2 1158   5.390   0.615   6.653
   87SOL     OW 1159   2.988   4.314   0.156
   87SOL    HW1 1160   3.048   4.366   0.216
   87SOL    HW2 1161   3.035   4.297   0.069
   88SOL     OW 1162   3.313   3.581   0.180
   88SOL    HW1 1163   3.333   3.679   0.177
   88SOL    HW2 1164   3.259   3.560   0.262
   89SOL     OW 1165   2.952   3.541   2.826
   89SOL    HW1 1166   2.930   3.555   2.730
   89SOL    HW2 1167   2.869   3.515   2.875
   90SOL     OW 1168   4.950   4.027   3.200
   90SOL    HW1 1169   4.984   3.965   3.130
   90SOL    HW2 1170   4.861   4.063   3.173
   91SOL     OW 1171   4.821   4.896   5.584
   91SOL    HW1 1172   4.903   4.859   5.629
   91SOL    HW2 1173   4.842   4.986   5.546
   92SOL     OW 1174   5.599   4.068   6.529
   92SOL    HW1 1175   5.560   4.160   6.530
   92SOL    HW2 1176   5.593   4.031   6.437
   93SOL     OW 1177   2.885   3.242   2.068
   93SOL    HW1 1178   2.802   3.201   2.107
   93SOL    HW2 1179   2.951   3.170   2.048
   94SOL     OW 1180   3.161   1.800   5.422
   94SOL    HW1 1181   3.259   1.781   5.430
   94SOL    HW2 1182   3.137   1.809   5.325
   95SOL     OW 1183   0.651   0.301   4.583
   95SOL    HW1 1184   0.569   0.275   4.635
   95SOL    HW2 1185   0.730   0.300   4.643
   96SOL     OW 1186   5.251   5.160   0.365
   96SOL    HW1 1187   5.156   5.185   0.381
   96SOL    HW2 1188   5.263   5.062   0.382
   97SOL     OW 1189   2.955   4.989   5.882
   97SOL    HW1 1190   2.949   5.041   5.968
   97SOL    HW2 1191   3.007   5.043   5.815
   98SOL     OW 1192   1.320   2.672   3.267
   98SOL    HW1 1193   1.363   2.585   3.243
   98SOL    HW2 1194   1.360   2.746   3.212
   99SOL     OW 1195   3.842   2.896   4.939
   99SOL    HW1 1196   3.749   2.866   4.917
   99SOL    HW2 1197   3.853   2.899   5.039
  100SOL     OW 1198   0.231   0.515   3.852
  100SOL    HW1 1199   0.166   0.554   3.917
  100SOL    HW2 1200   0.254   0.584   3.783
  101SOL     OW 1201   6.901   3.719   2.538
  101SOL    HW1 1202   6.819   3.662   2.529
  101SOL    HW2 1203   6.895   3.796   2.475
  102SOL     OW 1204   2.911   0.529   0.458
  102SOL    HW1 1205   2.821   0.572   0.461
  102SOL    HW2 1206   2.978   0.589   0.499
  103SOL     OW 1207   2.377   0.868   1.756
  103SOL    HW1 1208   2.366   0.931   1.833
  103SOL    HW2 1209   2.311   0.890   1.685
  104SOL     OW 1210   0.990   4.749   1.449
  104SOL    HW1 1211   0.937   4.722   1.368
  104SOL    HW2 1212   0.958   4.698   1.529
  105SOL     OW 1213   5.345   1.105   5.876
  105SOL    HW1 1214   5.329   1.011   5.903
  105SOL    HW2 1215   5.377   1.107   5.781
  106SOL     OW 1216   5.779   5.097   2.158
  106SOL    HW1 1217   5.874   5.081   2.132
  106SOL    HW2 1218   5.760   5.053   2.246
  107SOL     OW 1219   5.595   0.673   1.084
  107SOL    HW1 1220   5.553   0.601   1.029
  107SOL    HW2 1221   5.601   0.757   1.030
  108SOL     OW 1222   1.974   1.212   5.601
  108SOL    HW1 1223   2.036   1.152   5.652
  108SOL    HW2 1224   1.956   1.173   5.511
  109SOL     OW 1225   1.717   1.033   4.118
  109SOL    HW1 1226   1.750   1.037   4.212
  109SOL    HW2 1227   1.630   1.081   4.110
  110SOL     OW 1228   3.052   4.373   5.641
  110SOL    HW1 1229   3.146   4.407   5.645
  110SOL    HW2 1230   3.008   4.409   5.558
  111SOL     OW 1231   6.574   1.620   1.452
  111SOL    HW1 1232   6.649   1.640   1.389
  111SOL    HW2 1233   6.516   1.548   1.413
  112SOL     OW 1234   4.607   0.073   6.753
  112SOL    HW1 1235   4.640   0.151   6.806
  112SOL    HW2 1236   4.530   0.030   6.799
  113SOL     OW 1237   6.658   6.061   1.573
  113SOL    HW1 1238   6.613   6.147   1.598
  113SOL    HW2 1239   6.595   6.007   1.517
  114SOL     OW 1240   0.423   3.720   3.492
  114SOL    HW1 1241   0.423   3.620   3.483
  114SOL    HW2 1242   0.383   3.761   3.410
  115SOL     OW 1243   5.923   0.870   3.728
  115SOL    HW1 1244   5.840   0.826   3.762
  115SOL    HW2 1245   5.957   0.933   3.798
  116SOL     OW 1246   1.080   4.739   0.549
  116SOL    HW1 1247   0.984   4.742   0.577
  116SOL    HW2 1248   1.134   4.798   0.608
  117SOL     OW 1249   2.319   1.718   0.023
  117SOL    HW1 1250   2.418   1.717   0.010
  117SOL    HW2 1251   2.275   1.680   6.967
  118SOL     OW 1252   1.664   1.788   4.255
  118SOL    HW1 1253   1.679   1.689   4.254
  118SOL    HW2 1254   1.620   1.816   4.169
  119SOL     OW 1255   6.621   6.202   6.443
  119SOL    HW1 1256   6.641   6.111   6.404
  119SOL    HW2 1257   6.522   6.210   6.458
  120SOL     OW 1258   4.826   2.241   4.873
  120SOL    HW1 1259   4.735   2.274   4.846
  120SOL    HW2 1260   4.851   2.282   4.961
  121SOL     OW 1261   1.540   4.343   6.782
  121SOL    HW1 1262   1.537   4.244   6.765
  121SOL    HW2 1263   1.548   4.360   6.880
  122SOL     OW 1264   0.520   4.056   7.019
  122SOL    HW1 1265   0.569   3.975   0.026
  122SOL    HW2 1266   0.422   4.045   0.009
  123SOL     OW 1267   0.986   1.273   1.762
  123SOL    HW1 1268   0.932   1.197   1.799
  123SOL    HW2 1269   1.077   1.240   1.737
  124SOL     OW 1270   2.445   2.758   0.520
  124SOL    HW1 1271   2.382   2.703   0.466
  124SOL    HW2 1272   2.538   2.748   0.484
  125SOL     OW 1273   3.699   3.760   0.071
  125SOL    HW1 1274   3.797   3.761   0.091
  125SOL    HW2 1275   3.684   3.747   6.999
  126SOL     OW 1276   3.877   3.366   4.389
  126SOL    HW1 1277   3.786   3.332   4.366
  126SOL    HW2 1278   3.894   3.354   4.487
  127SOL     OW 1279   0.456   6.146   6.128
  127SOL    HW1 1280   0.393   6.095   6.187
  127SOL    HW2 1281   0.454   6.108   6.036
  128SOL     OW 1282   4.931   3.455   0.784
  128SOL    HW1 1283   4.969   3.517   0.853
  128SOL    HW2 1284   4.995   3.449   0.707
  129SOL     OW 1285   1.544   5.616   1.082
  129SOL    HW1 1286   1.632   5.599   1.037
  129SOL    HW2 1287   1.559   5.635   1.179
  130SOL     OW 1288   5.106   2.581   4.832
  130SOL    HW1 1289   5.008   2.587   4.853
  130SOL    HW2 1290   5.145   2.673   4.826
  131SOL     OW 1291   6.865   2.377   3.835
  131SOL    HW1 1292   6.863   2.278   3.824
  131SOL    HW2 1293   6.949   2.404   3.882
  132SOL     OW 1294   4.108   3.504   2.284
  132SOL    HW1 1295   4.061   3.459   2.207
  132SOL    HW2 1296   4.199   3.463   2.295
  133SOL     OW 1297   5.550   6.511   5.911
  133SOL    HW1 1298   5.577   6.432   5.857
  133SOL    HW2 1299   5.558   6.490   6.008
  134SOL     OW 1300   4.904   0.775   1.835
  134SOL    HW1 1301   4.804   0.781   1.836
  134SOL    HW2 1302   4.940   0.818   1.918
  135SOL     OW 1303   4.919   3.553   3.646
  135SOL    HW1 1304   4.954   3.630   3.592
  135SOL    HW2 1305   4.912   3.580   3.742
  136SOL     OW 1306   3.400   6.920   5.839
  136SOL    HW1 1307   3.412   6.977   5.921
  136SOL    HW2 1308   3.423   6.973   5.758
  137SOL     OW 1309   3.108   2.386   5.615
  137SOL    HW1 1310   3.081   2.412   5.523
  137SOL    HW2 1311   3.147   2.465   5.662
  138SOL     OW 1312   1.106   5.902   6.029
  138SOL    HW1 1313   1.197   5.914   5.989
  138SOL    HW2 1314   1.115   5.859   6.119
  139SOL     OW 1315   2.137   5.882   0.371
  139SOL    HW1 1316   2.115   5.887   0.469
  139SOL    HW2 1317   2.140   5.975   0.334
  140SOL     OW 1318   2.464   0.185   2.023
  140SOL    HW1 1319   2.467   0.174   1.924
  140SOL    HW2 1320   2.369   0.187   2.054
  141SOL     OW 1321   6.721   3.646   0.213
  141SOL    HW1 1322   6.677   3.672   0.299
  141SOL    HW2 1323   6.740   3.728   0.159
  142SOL     OW 1324   1.637   4.442   2.381
  142SOL    HW1 1325   1.618   4.347   2.358
  142SOL    HW2 1326   1.735   4.459   2.380
  143SOL     OW 1327   4.747   6.722   2.417
  143SOL    HW1 1328   4.736   6.646   2.481
  143SOL    HW2 1329   4.812   6.788   2.455
  144SOL     OW 1330   3.271   4.910   3.599
  144SOL    HW1 1331   3.310   4.825   3.634
  144SOL    HW2 1332   3.298   4.985   3.659
  145SOL     OW 1333   6.835   5.145   3.161
  145SOL    HW1 1334   6.770   5.158   3.237
  145SOL    HW2 1335   6.927   5.129   3.198
  146SOL     OW 1336   5.892   1.611   6.564
  146SOL    HW1 1337   5.913   1.515   6.582
  146SOL    HW2 1338   5.795   1.619   6.540
  147SOL     OW 1339   4.826   1.307   5.350
  147SOL    HW1 1340   4.738   1.299   5.396
  147SOL    HW2 1341   4.889   1.237   5.387
  148SOL     OW 1342   1.268   5.147   0.552
  148SOL    HW1 1343   1.326   5.160   0.633
  148SOL    HW2 1344   1.299   5.067   0.501
  149SOL     OW 1345   1.906   2.909   5.722
  149SOL    HW1 1346   1.930   2.900   5.819
  149SOL    HW2 1347   1.984   2.948   5.672
  150SOL     OW 1348   4.259   1.818   4.901
  150SOL    HW1 1349   4.311   1.806   4.986
  150SOL    HW2 1350   4.231   1.729   4.866
  151SOL     OW 1351   4.228   2.801   0.879
  151SOL    HW1 1352   4.308   2.841   0.923
  151SOL    HW2 1353   4.146   2.854   0.902
  152SOL     OW 1354   1.145   1.829   0.153
  152SOL    HW1 1355   1.135   1.885   0.070
  152SOL    HW2 1356   1.226   1.859   0.203
  153SOL     OW 1357   3.076   1.181   3.516
  153SOL    HW1 1358   3.144   1.250   3.492
  153SOL    HW2 1359   3.110   1.090   3.493
  154SOL     OW 1360   5.911   1.288   1.257
  154SOL    HW1 1361   6.010   1.282   1.268
  154SOL    HW2 1362   5.867   1.228   1.322
  155SOL     OW 1363   1.928   6.950   2.254
  155SOL    HW1 1364   1.840   6.998   2.251
  155SOL    HW2 1365   1.930   6.879   2.184
  156SOL     OW 1366   5.250   2.144   0.449
  156SOL    HW1 1367   5.189   2.223   0.443
  156SOL    HW2 1368   5.268   2.123   0.545
  157SOL     OW 1369   4.461   5.109   0.067
  157SOL    HW1 1370   4.436   5.023   0.024
  157SOL    HW2 1371   4.561   5.119   0.066
  158SOL     OW 1372   0.443   2.866   3.121
  158SOL    HW1 1373   0.538   2.891   3.104
  158SOL    HW2 1374   0.391   2.868   3.035
  159SOL     OW 1375   5.907   5.334   0.384
  159SOL    HW1 1376   5.978   5.392   0.424
  159SOL    HW2 1377   5.856   5.287   0.457
  160SOL     OW 1378   6.134   6.908   1.182
  160SOL    HW1 1379   6.200   6.935   1.252
  160SOL    HW2 1380   6.048   6.958   1.197
  161SOL     OW 1381   0.026   6.715   0.378
  161SOL    HW1 1382   0.071   6.629   0.355
  161SOL    HW2 1383   7.024   6.762   0.294
  162SOL     OW 1384   3.994   0.015   6.957
  162SOL    HW1 1385   4.031   0.105   6.980
  162SOL    HW2 1386   3.902   0.007   6.995
  163SOL     OW 1387   6.746   3.868   3.098
  163SOL    HW1 1388   6.761   3.783   3.149
  163SOL    HW2 1389   6.691   3.849   3.016
  164SOL     OW 1390   2.082   2.442   3.476
  164SOL    HW1 1391   2.169   2.394   3.478
  164SOL    HW2 1392   2.012   2.386   3.521
  165SOL     OW 1393   0.484   6.508   3.454
  165SOL    HW1 1394   0.563   6.533   3.398
  165SOL    HW2 1395   0.455   6.587   3.507
  166SOL     OW 1396   6.896   3.495   3.026
  166SOL    HW1 1397   6.921   3.496   2.929
  166SOL    HW2 1398   6.851   3.408   3.047
  167SOL     OW 1399   4.822   2.058   6.882
  167SOL    HW1 1400   4.793   2.017   6.796
  167SOL    HW2 1401   4.742   2.070   6.942
  168SOL     OW 1402   4.991   4.315   1.983
  168SOL    HW1 1403   4.913   4.252   1.981
  168SOL    HW2 1404   5.059   4.282   2.048
  169SOL     OW 1405   6.005   2.089   1.306
  169SOL    HW1 1406   6.043   2.169   1.260
  169SOL    HW2 1407   5.906   2.099   1.313
  170SOL     OW 1408   0.645   5.361   3.106
  170SOL    HW1 1409   0.692   5.449   3.105
  170SOL    HW2 1410   0.651   5.320   3.014
  171SOL     OW 1411   3.057   4.077   0.326
  171SOL    HW1 1412   2.992   4.138   0.279
  171SOL    HW2 1413   3.040   4.081   0.425
  172SOL     OW 1414   6.853   1.890   0.295
  172SOL    HW1 1415   6.839   1.939   0.209
  172SOL    HW2 1416   6.827   1.794   0.283
  173SOL     OW 1417   0.020   2.163   5.101
  173SOL    HW1 1418   0.011   2.122   5.192
  173SOL    HW2 1419   0.007   2.262   5.107
  174SOL     OW 1420   6.283   5.278   5.503
  174SOL    HW1 1421   6.370   5.326   5.517
  174SOL    HW2 1422   6.208   5.344   5.507
  175SOL     OW 1423   0.718   0.078   0.919
  175SOL    HW1 1424   0.646   0.120   0.975
  175SOL    HW2 1425   0.705   7.004   0.918
  176SOL     OW 1426   5.680   4.652   2.292
  176SOL    HW1 1427   5.618   4.716   2.247
  176SOL    HW2 1428   5.747   4.619   2.225
  177SOL     OW 1429   5.931   2.297   4.369
  177SOL    HW1 1430   5.853   2.350   4.335
  177SOL    HW2 1431   5.911   2.263   4.461
  178SOL     OW 1432   1.933   6.406   4.935
  178SOL    HW1 1433   1.959   6.364   5.022
  178SOL    HW2 1434   1.948   6.341   4.861
  179SOL     OW 1435   3.760   4.592   1.310
  179SOL    HW1 1436   3.776   4.494   1.324
  179SOL    HW2 1437   3.837   4.632   1.261
  180SOL     OW 1438   4.412   1.626   0.752
  180SOL    HW1 1439   4.472   1.653   0.678
  180SOL    HW2 1440   4.326   1.676   0.745
  181SOL     OW 1441   3.262   2.177   5.476
  181SOL    HW1 1442   3.278   2.272   5.450
  181SOL    HW2 1443   3.203   2.133   5.408
  182SOL     OW 1444   5.069   2.514   6.767
  182SOL    HW1 1445   4.990   2.564   6.731
  182SOL    HW2 1446   5.059   2.417   6.748
  183SOL     OW 1447   3.401   1.707   3.463
  183SOL    HW1 1448   3.443   1.714   3.554
  183SOL    HW2 1449   3.305   1.737   3.468
  184SOL     OW 1450   5.684   6.093   3.672
  184SOL    HW1 1451   5.699   6.188   3.643
  184SOL    HW2 1452   5.771   6.043   3.670
  185SOL     OW 1453   6.933   1.648   4.194
  185SOL    HW1 1454   6.980   1.696   4.120
  185SOL    HW2 1455   6.907   1.557   4.163
  186SOL     OW 1456   4.557   5.745   4.199
  186SOL    HW1 1457   4.508   5.696   4.271
  186SOL    HW2 1458   4.563   5.842   4.222
  187SOL     OW 1459   4.564   6.309   1.631
  187SOL    HW1 1460   4.523   6.268   1.712
  187SOL    HW2 1461   4.617   6.389   1.657
  188SOL     OW 1462   1.716   3.300   3.102
  188SOL    HW1 1463   1.715   3.301   3.202
  188SOL    HW2 1464   1.738   3.208   3.070
  189SOL     OW 1465   6.094   5.127   6.188
  189SOL    HW1 1466   6.065   5.216   6.222
  189SOL    HW2 1467   6.142   5.077   6.261
  190SOL     OW 1468   6.242   0.243   0.217
  190SOL    HW1 1469   6.239   0.339   0.188
  190SOL    HW2 1470   6.150   0.215   0.247
  191SOL     OW 1471   6.743   1.279   5.772
  191SOL    HW1 1472   6.653   1.323   5.773
  191SOL    HW2 1473   6.814   1.349   5.771
  192SOL     OW 1474   0.811   5.577   0.672
  192SOL    HW1 1475   0.768   5.626   0.597
  192SOL    HW2 1476   0.778   5.613   0.759
  193SOL     OW 1477   2.579   6.227   6.234
  193SOL    HW1 1478   2.526   6.224   6.318
  193SOL    HW2 1479   2.530   6.177   6.162
  194SOL     OW 1480   3.898   6.729   2.085
  194SOL    HW1 1481   3.813   6.694   2.046
  194SOL    HW2 1482   3.935   6.801   2.026
  195SOL     OW 1483   3.321   0.760   1.694
  195SOL    HW1 1484   3.239   0.761   1.636
  195SOL    HW2 1485   3.381   0.686   1.665
  196SOL     OW 1486   2.126   1.431   0.700
  196SOL    HW1 1487   2.119   1.355   0.636
  196SOL    HW2 1488   2.034   1.462   0.724
  197SOL     OW 1489   2.143   6.383   0.733
  197SOL    HW1 1490   2.147   6.473   0.690
  197SOL    HW2 1491   2.114   6.315   0.667
  198SOL     OW 1492   4.360   0.035   6.868
  198SOL    HW1 1493   4.318   0.097   6.934
  198SOL    HW2 1494   4.291   7.023   6.807
  199SOL     OW 1495   6.815   6.246   3.165
  199SOL    HW1 1496   6.875   6.326   3.161
  199SOL    HW2 1497   6.782   6.234   3.258
  200SOL     OW 1498   0.686   3.789   3.547
  200SOL    HW1 1499   0.742   3.711   3.576
  200SOL    HW2 1500   0.594   3.757   3.526
  201SOL     OW 1501   3.336   1.122   6.875
  201SOL    HW1 1502   3.245   1.158   6.858
  201SOL    HW2 1503   3.351   1.042   6.817
  202SOL     OW 1504   3.752   0.232   2.984
  202SOL    HW1 1505   3.711   0.291   2.914
  202SOL    HW2 1506   3.698   0.239   3.068
  203SOL     OW 1507   5.400   3.690   6.397
  203SOL    HW1 1508   5.392   3.739   6.310
  203SOL    HW2 1509   5.325   3.716   6.457
  204SOL     OW 1510   2.060   6.784   0.925
  204SOL    HW1 1511   2.037   6.815   0.832
  204SOL    HW2 1512   2.127   6.710   0.920
  205SOL     OW 1513   6.066   1.767   0.759
  205SOL    HW1 1514   6.137   1.727   0.700
  205SOL    HW2 1515   6.029   1.849   0.715
  206SOL     OW 1516   0.955   4.720   2.195
  206SOL    HW1 1517   0.963   4.736   2.097
  206SOL    HW2 1518   1.013   4.643   2.221
  207SOL     OW 1519   4.549   0.644   5.803
  207SOL    HW1 1520   4.505   0.720   5.851
  207SOL    HW2 1521   4.641   0.630   5.839
  208SOL     OW 1522   4.766   5.576   6.069
  208SOL    HW1 1523   4.796   5.484   6.043
  208SOL    HW2 1524   4.673   5.591   6.038
  209SOL     OW 1525   6.516   5.446   5.545
  209SOL    HW1 1526   6.615   5.436   5.534
  209SOL    HW2 1527   6.492   5.543   5.534
  210SOL     OW 1528   4.086   2.798   1.197
  210SOL    HW1 1529   4.046   2.802   1.106
  210SOL    HW2 1530   4.096   2.702   1.225
  211SOL     OW 1531   1.562   1.186   0.983
  211SOL    HW1 1532   1.524   1.246   1.053
  211SOL    HW2 1533   1.658   1.167   1.004
  212SOL     OW 1534   0.601   4.986   4.037
  212SOL    HW1 1535   0.539   4.954   4.108
  212SOL    HW2 1536   0.635   4.908   3.985
  213SOL     OW 1537   5.214   2.125   6.701
  213SOL    HW1 1538   5.135   2.184   6.719
  213SOL    HW2 1539   5.205   2.041   6.754
  214SOL     OW 1540   0.766   0.210   2.647
  214SOL    HW1 1541   0.863   0.204   2.673
  214SOL    HW2 1542   0.759   0.216   2.548
  215SOL     OW 1543   3.853   3.420   3.001
  215SOL    HW1 1544   3.824   3.374   2.917
  215SOL    HW2 1545   3.817   3.371   3.080
  216SOL     OW 1546   0.777   6.969   6.194
  216SOL    HW1 1547   0.832   0.027   6.198
  216SOL    HW2 1548   0.694   6.981   6.247
  217SOL     OW 1549   0.646   3.082   3.403
  217SOL    HW1 1550   0.680   3.005   3.457
  217SOL    HW2 1551   0.578   3.133   3.456
  218SOL     OW 1552   1.222   3.678   5.519
  218SOL    HW1 1553   1.254   3.753   5.577
  218SOL    HW2 1554   1.284   3.600   5.528
  219SOL     OW 1555   4.728   5.258   0.170
  219SOL    HW1 1556   4.827   5.262   0.160
  219SOL    HW2 1557   4.696   5.339   0.219
  220SOL     OW 1558   2.595   5.284   0.355
  220SOL    HW1 1559   2.501   5.253   0.342
  220SOL    HW2 1560   2.641   5.288   0.267
  221SOL     OW 1561   5.487   2.123   4.245
  221SOL    HW1 1562   5.442   2.086   4.326
  221SOL    HW2 1563   5.586   2.128   4.261
  222SOL     OW 1564   0.580   5.754   5.344
  222SOL    HW1 1565   0.662   5.718   5.389
  222SOL    HW2 1566   0.529   5.810   5.408
  223SOL     OW 1567   6.895   4.119   2.130
  223SOL    HW1 1568   6.860   4.139   2.038
  223SOL    HW2 1569   6.993   4.138   2.132
  224SOL     OW 1570   2.911   2.302   1.663
  224SOL    HW1 1571   2.924   2.335   1.757
  224SOL    HW2 1572   2.900   2.381   1.602
  225SOL     OW 1573   5.893   1.138   6.776
  225SOL    HW1 1574   5.802   1.099   6.771
  225SOL    HW2 1575   5.915   1.161   6.871
  226SOL     OW 1576   0.086   5.895   0.869
  226SOL    HW1 1577   0.103   5.956   0.946
  226SOL    HW2 1578   0.029   5.942   0.801
  227SOL     OW 1579   1.439   3.391   3.707
  227SOL    HW1 1580   1.498   3.417   3.783
  227SOL    HW2 1581   1.367   3.459   3.696
  228SOL     OW 1582   4.724   6.794   3.942
  228SOL    HW1 1583   4.645   6.734   3.926
  228SOL    HW2 1584   4.799   6.741   3.981
  229SOL     OW 1585   6.195   5.916   2.019
  229SOL    HW1 1586   6.220   5.926   2.116
  229SOL    HW2 1587   6.277   5.910   1.964
  230SOL     OW 1588   2.309   4.350   5.105
  230SOL    HW1 1589   2.338   4.255   5.103
  230SOL    HW2 1590   2.350   4.400   5.030
  231SOL     OW 1591   0.597   2.571   6.179
  231SOL    HW1 1592   0.529   2.640   6.205
  231SOL    HW2 1593   0.654   2.549   6.258
  232SOL     OW 1594   2.265   4.639   6.529
  232SOL    HW1 1595   2.342   4.623   6.590
  232SOL    HW2 1596   2.181   4.608   6.573
  233SOL     OW 1597   2.181   1.045   5.704
  233SOL    HW1 1598   2.210   1.103   5.781
  233SOL    HW2 1599   2.204   0.950   5.724
  234SOL     OW 1600   2.874   5.425   6.271
  234SOL    HW1 1601   2.916   5.360   6.334
  234SOL    HW2 1602   2.873   5.516   6.312
  235SOL     OW 1603   2.938   3.498   4.702
  235SOL    HW1 1604   2.854   3.498   4.757
  235SOL    HW2 1605   2.922   3.548   4.617
  236SOL     OW 1606   6.597   2.149   5.583
  236SOL    HW1 1607   6.689   2.110   5.584
  236SOL    HW2 1608   6.537   2.092   5.639
  237SOL     OW 1609   0.514   0.112   1.122
  237SOL    HW1 1610   0.453   0.051   1.071
  237SOL    HW2 1611   0.487   0.207   1.107
  238SOL     OW 1612   5.876   2.799   2.904
  238SOL    HW1 1613   5.917   2.846   2.826
  238SOL    HW2 1614   5.788   2.760   2.877
  239SOL     OW 1615   6.623   5.697   6.584
  239SOL    HW1 1616   6.672   5.743   6.659
  239SOL    HW2 1617   6.540   5.749   6.562
  240SOL     OW 1618   0.156   4.058   5.815
  240SOL    HW1 1619   0.122   3.967   5.790
  240SOL    HW2 1620   0.216   4.050   5.895
  241SOL     OW 1621   0.274   0.945   3.116
  241SOL    HW1 1622   0.369   0.926   3.093
  241SOL    HW2 1623   0.218   0.942   3.033
  242SOL     OW 1624   1.601   3.812   4.306
  242SOL    HW1 1625   1.646   3.849   4.225
  242SOL    HW2 1626   1.509   3.780   4.282
  243SOL     OW 1627   5.879   6.951   5.352
  243SOL    HW1 1628   5.809   6.908   5.409
  243SOL    HW2 1629   5.925   6.881   5.297
  244SOL     OW 1630   6.035   1.930   5.713
  244SOL    HW1 1631   6.025   1.960   5.807
  244SOL    HW2 1632   6.020   1.831   5.708
  245SOL     OW 1633   5.679   2.488   4.033
  245SOL    HW1 1634   5.645   2.405   3.990
  245SOL    HW2 1635   5.762   2.518   3.987
  246SOL     OW 1636   4.978   3.314   3.125
  246SOL    HW1 1637   4.956   3.320   3.222
  246SOL    HW2 1638   4.917   3.247   3.081
  247SOL     OW 1639   2.355   1.400   3.410
  247SOL    HW1 1640   2.383   1.487   3.449
  247SOL    HW2 1641   2.379   1.326   3.473
  248SOL     OW 1642   6.108   1.465   3.247
  248SOL    HW1 1643   6.124   1.493   3.153
  248SOL    HW2 1644   6.184   1.496   3.304
  249SOL     OW 1645   3.245   0.035   3.920
  249SOL    HW1 1646   3.301   0.099   3.868
  249SOL    HW2 1647   3.154   0.030   3.879
  250SOL     OW 1648   5.392   3.053   5.829
  250SOL    HW1 1649   5.305   3.020   5.792
  250SOL    HW2 1650   5.390   3.153   5.833
  251SOL     OW 1651   4.074   2.238   7.003
  251SOL    HW1 1652   4.000   2.212   0.041
  251SOL    HW2 1653   4.156   2.186   0.001
  252SOL     OW 1654   6.949   0.524   5.730
  252SOL    HW1 1655   0.000   0.588   5.726
  252SOL    HW2 1656   6.895   0.543   5.812
  253SOL     OW 1657   3.226   3.503   0.411
  253SOL    HW1 1658   3.202   3.420   0.462
  253SOL    HW2 1659   3.169   3.579   0.444
  254SOL     OW 1660   5.683   3.093   5.020
  254SOL    HW1 1661   5.640   3.044   5.096
  254SOL    HW2 1662   5.614   3.110   4.949
  255SOL     OW 1663   2.899   1.603   3.409
  255SOL    HW1 1664   2.868   1.573   3.319
  255SOL    HW2 1665   2.830   1.664   3.448
  256SOL     OW 1666   5.955   5.169   0.127
  256SOL    HW1 1667   5.918   5.113   0.202
  256SOL    HW2 1668   5.959   5.265   0.155
  257SOL     OW 1669   2.921   6.430   5.859
  257SOL    HW1 1670   2.866   6.489   5.800
  257SOL    HW2 1671   2.919   6.464   5.952
  258SOL     OW 1672   5.498   4.380   4.829
  258SOL    HW1 1673   5.530   4.290   4.801
  258SOL    HW2 1674   5.574   4.432   4.869
  259SOL     OW 1675   1.740   2.005   2.238
  259SOL    HW1 1676   1.769   2.101   2.236
  259SOL    HW2 1677   1.820   1.945   2.232
  260SOL     OW 1678   5.156   0.420   5.669
  260SOL    HW1 1679   5.179   0.333   5.713
  260SOL    HW2 1680   5.208   0.493   5.712
  261SOL     OW 1681   0.809   3.735   2.313
  261SOL    HW1 1682   0.825   3.670   2.386
  261SOL    HW2 1683   0.838   3.826   2.342
  262SOL     OW 1684   0.716   4.738   2.324
  262SOL    HW1 1685   0.730   4.790   2.409
  262SOL    HW2 1686   0.799   4.742   2.269
  263SOL     OW 1687   1.041   2.190   4.406
  263SOL    HW1 1688   1.110   2.222   4.470
  263SOL    HW2 1689   0.954   2.234   4.425
  264SOL     OW 1690   2.408   4.989   6.170
  264SOL    HW1 1691   2.474   5.031   6.108
  264SOL    HW2 1692   2.349   5.059   6.210
  265SOL     OW 1693   5.366   3.735   4.638
  265SOL    HW1 1694   5.434   3.713   4.568
  265SOL    HW2 1695   5.316   3.652   4.662
  266SOL     OW 1696   4.422   1.742   0.490
  266SOL    HW1 1697   4.442   1.649   0.459
  266SOL    HW2 1698   4.323   1.753   0.499
  267SOL     OW 1699   1.303   2.325   6.006
  267SOL    HW1 1700   1.356   2.288   6.083
  267SOL    HW2 1701   1.237   2.256   5.975
  268SOL     OW 1702   4.227   4.924   4.806
  268SOL    HW1 1703   4.317   4.957   4.778
  268SOL    HW2 1704   4.234   4.879   4.895
  269SOL     OW 1705   0.492   1.805   5.736
  269SOL    HW1 1706   0.554   1.798   5.658
  269SOL    HW2 1707   0.399   1.820   5.704
  270SOL     OW 1708   5.223   1.090   2.913
  270SOL    HW1 1709   5.201   0.995   2.935
  270SOL    HW2 1710   5.218   1.147   2.995
  271SOL     OW 1711   1.582   0.854   0.155
  271SOL    HW1 1712   1.625   0.776   0.110
  271SOL    HW2 1713   1.485   0.834   0.171
  272SOL     OW 1714   3.424   5.831   3.530
  272SOL    HW1 1715   3.514   5.874   3.533
  272SOL    HW2 1716   3.387   5.835   3.437
  273SOL     OW 1717   2.337   6.382   5.123
  273SOL    HW1 1718   2.272   6.456   5.104
  273SOL    HW2 1719   2.287   6.302   5.159
  274SOL     OW 1720   6.138   2.143   1.565
  274SOL    HW1 1721   6.088   2.138   1.478
  274SOL    HW2 1722   6.236   2.138   1.547
  275SOL     OW 1723   6.546   5.991   5.152
  275SOL    HW1 1724   6.549   6.029   5.060
  275SOL    HW2 1725   6.516   5.896   5.149
  276SOL     OW 1726   6.591   5.848   3.726
  276SOL    HW1 1727   6.609   5.784   3.801
  276SOL    HW2 1728   6.562   5.936   3.765
  277SOL     OW 1729   4.326   1.438   5.670
  277SOL    HW1 1730   4.304   1.521   5.618
  277SOL    HW2 1731   4.399   1.459   5.736
  278SOL     OW 1732   5.965   3.071   2.715
  278SOL    HW1 1733   5.950   2.982   2.672
  278SOL    HW2 1734   5.890   3.090   2.779
  279SOL     OW 1735   6.802   2.760   4.393
  279SOL    HW1 1736   6.895   2.778   4.361
  279SOL    HW2 1737   6.804   2.723   4.486
  280SOL     OW 1738   3.520   0.738   3.815
  280SOL    HW1 1739   3.514   0.781   3.725
  280SOL    HW2 1740   3.429   0.738   3.858
  281SOL     OW 1741   4.973   6.184   4.297
  281SOL    HW1 1742   4.924   6.116   4.352
  281SOL    HW2 1743   5.004   6.142   4.212
  282SOL     OW 1744   4.133   1.706   0.436
  282SOL    HW1 1745   4.057   1.651   0.472
  282SOL    HW2 1746   4.142   1.690   0.337
  283SOL     OW 1747   6.338   2.110   4.940
  283SOL    HW1 1748   6.295   2.088   4.853
  283SOL    HW2 1749   6.437   2.099   4.933
  284SOL     OW 1750   5.531   5.605   3.735
  284SOL    HW1 1751   5.504   5.631   3.642
  284SOL    HW2 1752   5.622   5.564   3.733
  285SOL     OW 1753   4.098   0.672   6.387
  285SOL    HW1 1754   4.009   0.717   6.392
  285SOL    HW2 1755   4.124   0.639   6.478
  286SOL     OW 1756   3.097   5.268   4.948
  286SOL    HW1 1757   3.128   5.291   5.040
  286SOL    HW2 1758   3.075   5.170   4.944
  287SOL     OW 1759   2.847   6.907   6.010
  287SOL    HW1 1760   2.925   6.858   6.047
  287SOL    HW2 1761   2.847   7.001   6.045
  288SOL     OW 1762   3.675   1.021   0.863
  288SOL    HW1 1763   3.674   1.121   0.870
  288SOL    HW2 1764   3.693   0.995   0.769
  289SOL     OW 1765   6.633   6.273   4.443
  289SOL    HW1 1766   6.652   6.331   4.364
  289SOL    HW2 1767   6.550   6.305   4.489
  290SOL     OW 1768   3.414   0.746   5.107
  290SOL    HW1 1769   3.459   0.821   5.060
  290SOL    HW2 1770   3.383   0.678   5.040
  291SOL     OW 1771   4.179   6.907   4.874
  291SOL    HW1 1772   4.175   6.817   4.831
  291SOL    HW2 1773   4.247   6.906   4.948
  292SOL     OW 1774   4.253   0.329   3.656
  292SOL    HW1 1775   4.239   0.256   3.724
  292SOL    HW2 1776   4.351   0.340   3.639
  293SOL     OW 1777   6.093   6.697   2.440
  293SOL    HW1 1778   6.054   6.755   2.511
  293SOL    HW2 1779   6.044   6.610   2.437
  294SOL     OW 1780   6.513   0.558   5.637
  294SOL    HW1 1781   6.530   0.475   5.584
  294SOL    HW2 1782   6.596   0.614   5.639
  295SOL     OW 1783   1.245   1.696   5.035
  295SOL    HW1 1784   1.180   1.753   5.086
  295SOL    HW2 1785   1.246   1.604   5.073
  296SOL     OW 1786   0.234   2.357   1.717
  296SOL    HW1 1787   0.248   2.429   1.650
  296SOL    HW2 1788   0.137   2.334   1.723
  297SOL     OW 1789   5.663   3.594   3.775
  297SOL    HW1 1790   5.754   3.601   3.816
  297SOL    HW2 1791   5.673   3.575   3.677
  298SOL     OW 1792   3.458   0.986   6.685
  298SOL    HW1 1793   3.521   1.057   6.655
  298SOL    HW2 1794   3.398   0.960   6.610
  299SOL     OW 1795   2.276   1.331   6.327
  299SOL    HW1 1796   2.218   1.399   6.282
  299SOL    HW2 1797   2.346   1.299   6.264
  300SOL     OW 1798   4.025   0.346   2.756
  300SOL    HW1 1799   4.007   0.281   2.681
  300SOL    HW2 1800   3.972   0.429   2.740
  301SOL     OW 1801   6.488   5.295   0.691
  301SOL    HW1 1802   6.558   5.279   0.622
  301SOL    HW2 1803   6.498   5.230   0.766
  302SOL     OW 1804   6.108   5.644   0.876
  302SOL    HW1 1805   6.182   5.580   0.854
  302SOL    HW2 1806   6.118   5.726   0.819
  303SOL     OW 1807   6.039   5.668   1.878
  303SOL    HW1 1808   6.116   5.709   1.831
  303SOL    HW2 1809   6.013   5.726   1.956
  304SOL     OW 1810   2.356   6.631   5.358
  304SOL    HW1 1811   2.354   6.612   5.260
  304SOL    HW2 1812   2.281   6.693   5.381
  305SOL     OW 1813   1.317   3.011   2.431
  305SOL    HW1 1814   1.299   3.097   2.479
  305SOL    HW2 1815   1.335   2.939   2.498
  306SOL     OW 1816   6.619   0.192   2.678
  306SOL    HW1 1817   6.598   0.195   2.580
  306SOL    HW2 1818   6.627   0.286   2.713
  307SOL     OW 1819   3.522   2.864   3.541
  307SOL    HW1 1820   3.587   2.911   3.601
  307SOL    HW2 1821   3.559   2.861   3.448
  308SOL     OW 1822   5.829   1.754   3.869
  308SOL    HW1 1823   5.768   1.742   3.790
  308SOL    HW2 1824   5.820   1.847   3.904
  309SOL     OW 1825   0.764   6.210   5.915
  309SOL    HW1 1826   0.665   6.220   5.904
  309SOL    HW2 1827   0.784   6.124   5.962
  310SOL     OW 1828   5.345   6.296   5.035
  310SOL    HW1 1829   5.343   6.350   4.951
  310SOL    HW2 1830   5.370   6.354   5.113
  311SOL     OW 1831   2.256   5.507   2.883
  311SOL    HW1 1832   2.190   5.449   2.835
  311SOL    HW2 1833   2.217   5.539   2.969
  312SOL     OW 1834   4.659   2.094   3.046
  312SOL    HW1 1835   4.646   2.050   3.135
  312SOL    HW2 1836   4.600   2.050   2.978
  313SOL     OW 1837   4.103   3.546   3.204
  313SOL    HW1 1838   4.146   3.508   3.286
  313SOL    HW2 1839   4.095   3.476   3.134
  314SOL     OW 1840   2.152   6.458   5.663
  314SOL    HW1 1841   2.146   6.545   5.711
  314SOL    HW2 1842   2.176   6.386   5.728
  315SOL     OW 1843   6.291   1.577   3.423
  315SOL    HW1 1844   6.336   1.489   3.432
  315SOL    HW2 1845   6.360   1.649   3.411
  316SOL     OW 1846   3.578   0.976   5.083
  316SOL    HW1 1847   3.606   1.042   5.013
  316SOL    HW2 1848   3.591   1.017   5.174
  317SOL     OW 1849   1.075   1.391   1.439
  317SOL    HW1 1850   1.033   1.356   1.522
  317SOL    HW2 1851   1.160   1.438   1.461
  318SOL     OW 1852   0.148   0.442   5.311
  318SOL    HW1 1853   0.183   0.508   5.378
  318SOL    HW2 1854   0.049   0.438   5.317
  319SOL     OW 1855   1.432   2.493   2.624
  319SOL    HW1 1856   1.411   2.415   2.566
  319SOL    HW2 1857   1.505   2.547   2.582
  320SOL     OW 1858   5.840   2.929   6.617
  320SOL    HW1 1859   5.891   2.981   6.548
  320SOL    HW2 1860   5.812   2.841   6.578
  321SOL     OW 1861   4.370   3.153   1.089
  321SOL    HW1 1862   4.410   3.068   1.055
  321SOL    HW2 1863   4.426   3.188   1.164
  322SOL     OW 1864   3.652   3.321   6.259
  322SOL    HW1 1865   3.653   3.358   6.352
  322SOL    HW2 1866   3.686   3.227   6.260
  323SOL     OW 1867   0.258   3.268   3.527
  323SOL    HW1 1868   0.211   3.299   3.444
  323SOL    HW2 1869   0.237   3.171   3.543
  324SOL     OW 1870   0.619   6.915   3.889
  324SOL    HW1 1871   0.688   6.962   3.944
  324SOL    HW2 1872   0.537   6.900   3.944
  325SOL     OW 1873   0.515   3.767   2.491
  325SOL    HW1 1874   0.598   3.729   2.533
  325SOL    HW2 1875   0.503   3.861   2.521
  326SOL     OW 1876   0.550   6.341   6.587
  326SOL    HW1 1877   0.583   6.326   6.493
  326SOL    HW2 1878   0.576   6.433   6.616
  327SOL     OW 1879   4.373   5.041   3.298
  327SOL    HW1 1880   4.312   5.070   3.371
  327SOL    HW2 1881   4.344   4.951   3.264
  328SOL     OW 1882   2.290   4.118   2.230
  328SOL    HW1 1883   2.214   4.172   2.267
  328SOL    HW2 1884   2.370   4.129   2.289
  329SOL     OW 1885   3.510   3.841   2.202
  329SOL    HW1 1886   3.606   3.841   2.230
  329SOL    HW2 1887   3.498   3.906   2.126
  330SOL     OW 1888   3.646   5.213   0.270
  330SOL    HW1 1889   3.676   5.120   0.292
  330SOL    HW2 1890   3.724   5.276   0.278
  331SOL     OW 1891   5.537   5.486   6.690
  331SOL    HW1 1892   5.506   5.527   6.776
  331SOL    HW2 1893   5.471   5.416   6.661
  332SOL     OW 1894   5.304   2.169   2.764
  332SOL    HW1 1895   5.215   2.140   2.727
  332SOL    HW2 1896   5.357   2.214   2.693
  333SOL     OW 1897   3.485   1.473   6.261
  333SOL    HW1 1898   3.389   1.487   6.237
  333SOL    HW2 1899   3.540   1.550   6.226
  334SOL     OW 1900   3.674   3.568   3.643
  334SOL    HW1 1901   3.632   3.582   3.553
  334SOL    HW2 1902   3.639   3.484   3.684
  335SOL     OW 1903   3.105   0.480   6.021
  335SOL    HW1 1904   3.010   0.484   6.054
  335SOL    HW2 1905   3.104   0.459   5.923
  336SOL     OW 1906   3.210   1.691   3.019
  336SOL    HW1 1907   3.271   1.615   2.999
  336SOL    HW2 1908   3.115   1.662   3.005
  337SOL     OW 1909   2.178   0.466   5.929
  337SOL    HW1 1910   2.217   0.435   5.842
  337SOL    HW2 1911   2.243   0.525   5.976
  338SOL     OW 1912   4.729   1.725   1.461
  338SOL    HW1 1913   4.664   1.674   1.405
  338SOL    HW2 1914   4.707   1.823   1.457
  339SOL     OW 1915   3.808   4.938   5.012
  339SOL    HW1 1916   3.888   4.999   5.012
  339SOL    HW2 1917   3.793   4.904   4.919
  340SOL     OW 1918   4.739   1.890   3.550
  340SOL    HW1 1919   4.776   1.892   3.644
  340SOL    HW2 1920   4.654   1.942   3.547
  341SOL     OW 1921   5.551   6.999   4.007
  341SOL    HW1 1922   5.630   6.939   4.007
  341SOL    HW2 1923   5.467   6.945   4.002
  342SOL     OW 1924   5.109   2.376   1.555
  342SOL    HW1 1925   5.111   2.427   1.469
  342SOL    HW2 1926   5.136   2.281   1.538
  343SOL     OW 1927   0.975   5.793   3.013
  343SOL    HW1 1928   0.950   5.837   3.099
  343SOL    HW2 1929   0.916   5.826   2.940
  344SOL     OW 1930   1.902   1.438   1.909
  344SOL    HW1 1931   1.844   1.471   1.982
  344SOL    HW2 1932   1.997   1.436   1.940
  345SOL     OW 1933   6.154   3.292   3.993
  345SOL    HW1 1934   6.191   3.379   3.960
  345SOL    HW2 1935   6.227   3.237   4.033
  346SOL     OW 1936   1.724   6.884   2.835
  346SOL    HW1 1937   1.759   6.971   2.870
  346SOL    HW2 1938   1.650   6.901   2.770
  347SOL     OW 1939   2.774   5.122   0.508
  347SOL    HW1 1940   2.706   5.176   0.458
  347SOL    HW2 1941   2.741   5.028   0.518
  348SOL     OW 1942   5.188   5.648   2.309
  348SOL    HW1 1943   5.206   5.747   2.309
  348SOL    HW2 1944   5.239   5.604   2.235
  349SOL     OW 1945   6.646   4.235   1.341
  349SOL    HW1 1946   6.624   4.328   1.370
  349SOL    HW2 1947   6.643   4.173   1.419
  350SOL     OW 1948   3.318   3.038   0.166
  350SOL    HW1 1949   3.370   3.088   0.235
  350SOL    HW2 1950   3.367   3.040   0.079
  351SOL     OW 1951   3.231   4.354   1.444
  351SOL    HW1 1952   3.305   4.363   1.510
  351SOL    HW2 1953   3.258   4.290   1.371
  352SOL     OW 1954   4.259   6.688   2.909
  352SOL    HW1 1955   4.177   6.691   2.966
  352SOL    HW2 1956   4.233   6.698   2.813
  353SOL     OW 1957   2.304   6.247   6.607
  353SOL    HW1 1958   2.226   6.301   6.637
  353SOL    HW2 1959   2.340   6.194   6.685
  354SOL     OW 1960   6.615   2.372   0.378
  354SOL    HW1 1961   6.683   2.405   0.312
  354SOL    HW2 1962   6.531   2.350   0.329
  355SOL     OW 1963   2.133   2.490   2.439
  355SOL    HW1 1964   2.047   2.442   2.456
  355SOL    HW2 1965   2.115   2.574   2.389
  356SOL     OW 1966   1.153   6.940   6.266
  356SOL    HW1 1967   1.085   6.891   6.321
  356SOL    HW2 1968   1.132   0.012   6.267
  357SOL     OW 1969   5.384   6.602   4.394
  357SOL    HW1 1970   5.388   6.702   4.391
  357SOL    HW2 1971   5.424   6.565   4.311
  358SOL     OW 1972   5.208   6.123   0.675
  358SOL    HW1 1973   5.275   6.197   0.668
  358SOL    HW2 1974   5.144   6.143   0.750
  359SOL     OW 1975   2.978   2.120   1.986
  359SOL    HW1 1976   3.075   2.141   1.993
  359SOL    HW2 1977   2.924   2.198   2.017
  360SOL     OW 1978   1.458   4.433   4.120
  360SOL    HW1 1979   1.415   4.436   4.029
  360SOL    HW2 1980   1.404   4.489   4.184
  361SOL     OW 1981   6.707   6.211   3.400
  361SOL    HW1 1982   6.743   6.166   3.481
  361SOL    HW2 1983   6.628   6.161   3.365
  362SOL     OW 1984   3.967   4.155   1.178
  362SOL    HW1 1985   4.040   4.095   1.145
  362SOL    HW2 1986   4.007   4.237   1.219
  363SOL     OW 1987   6.272   5.202   2.441
  363SOL    HW1 1988   6.310   5.277   2.495
  363SOL    HW2 1989   6.191   5.166   2.487
  364SOL     OW 1990   0.194   5.386   6.842
  364SOL    HW1 1991   0.228   5.407   6.751
  364SOL    HW2 1992   0.267   5.401   6.909
  365SOL     OW 1993   3.619   1.543   2.300
  365SOL    HW1 1994   3.596   1.599   2.221
  365SOL    HW2 1995   3.578   1.582   2.382
  366SOL     OW 1996   6.032   2.830   0.768
  366SOL    HW1 1997   6.102   2.889   0.807
  366SOL    HW2 1998   6.037   2.835   0.668
  367SOL     OW 1999   4.482   1.811   5.803
  367SOL    HW1 2000   4.510   1.899   5.841
  367SOL    HW2 2001   4.413   1.825   5.732
  368SOL     OW 2002   6.568   2.212   5.905
  368SOL    HW1 2003   6.530   2.153   5.834
  368SOL    HW2 2004   6.532   2.305   5.895
  369SOL     OW 2005   5.302   3.575   2.574
  369SOL    HW1 2006   5.376   3.509   2.570
  369SOL    HW2 2007   5.336   3.661   2.613
  370SOL     OW 2008   2.274   2.951   4.300
  370SOL    HW1 2009   2.304   2.913   4.387
  370SOL    HW2 2010   2.236   3.042   4.314
  371SOL     OW 2011   2.043   4.071   6.842
  371SOL    HW1 2012   2.046   4.153   6.786
  371SOL    HW2 2013   2.126   4.017   6.828
  372SOL     OW 2014   2.799   0.008   5.566
  372SOL    HW1 2015   2.869   6.988   5.622
  372SOL    HW2 2016   2.813   0.107   5.568
  373SOL     OW 2017   6.170   6.397   4.659
  373SOL    HW1 2018   6.161   6.321   4.723
  373SOL    HW2 2019   6.080   6.424   4.626
  374SOL     OW 2020   2.758   1.572   2.444
  374SOL    HW1 2021   2.843   1.557   2.393
  374SOL    HW2 2022   2.696   1.628   2.389
  375SOL     OW 2023   1.157   4.564   5.255
  375SOL    HW1 2024   1.075   4.580   5.199
  375SOL    HW2 2025   1.130   4.544   5.349
  376SOL     OW 2026   2.813   0.933   4.087
  376SOL    HW1 2027   2.791   0.999   4.016
  376SOL    HW2 2028   2.730   0.906   4.136
  377SOL     OW 2029   1.707   1.963   6.706
  377SOL    HW1 2030   1.727   2.061   6.704
  377SOL    HW2 2031   1.613   1.948   6.734
  378SOL     OW 2032   2.954   1.850   1.112
  378SOL    HW1 2033   3.043   1.897   1.121
  378SOL    HW2 2034   2.969   1.755   1.088
  379SOL     OW 2035   5.838   2.420   6.563
  379SOL    HW1 2036   5.877   2.356   6.629
  379SOL    HW2 2037   5.773   2.372   6.504
  380SOL     OW 2038   3.733   1.396   1.312
  380SOL    HW1 2039   3.796   1.467   1.283
  380SOL    HW2 2040   3.753   1.370   1.406
  381SOL     OW 2041   1.581   4.437   3.271
  381SOL    HW1 2042   1.631   4.352   3.289
  381SOL    HW2 2043   1.579   4.454   3.173
  382SOL     OW 2044   6.123   0.614   0.402
  382SOL    HW1 2045   6.154   0.534   0.453
  382SOL    HW2 2046   6.026   0.631   0.421
  383SOL     OW 2047   4.029   2.655   1.605
  383SOL    HW1 2048   4.067   2.565   1.586
  383SOL    HW2 2049   3.943   2.666   1.556
  384SOL     OW 2050   6.464   3.861   4.897
  384SOL    HW1 2051   6.376   3.907   4.883
  384SOL    HW2 2052   6.535   3.930   4.915
  385SOL     OW 2053   4.564   4.729   6.849
  385SOL    HW1 2054   4.636   4.795   6.828
  385SOL    HW2 2055   4.594   4.638   6.823
  386SOL     OW 2056   4.220   0.338   4.430
  386SOL    HW1 2057   4.307   0.371   4.465
  386SOL    HW2 2058   4.164   0.304   4.506
  387SOL     OW 2059   2.186   4.972   3.513
  387SOL    HW1 2060   2.218   4.949   3.605
  387SOL    HW2 2061   2.152   5.066   3.512
  388SOL     OW 2062   2.205   2.685   6.668
  388SOL    HW1 2063   2.268   2.742   6.720
  388SOL    HW2 2064   2.158   2.622   6.730
  389SOL     OW 2065   2.965   3.547   3.493
  389SOL    HW1 2066   2.984   3.564   3.590
  389SOL    HW2 2067   2.958   3.634   3.444
  390SOL     OW 2068   2.385   1.490   4.112
  390SOL    HW1 2069   2.348   1.456   4.025
  390SOL    HW2 2070   2.376   1.589   4.115
  391SOL     OW 2071   1.170   2.551   6.695
  391SOL    HW1 2072   1.231   2.524   6.770
  391SOL    HW2 2073   1.086   2.588   6.733
  392SOL     OW 2074   2.460   5.243   1.748
  392SOL    HW1 2075   2.365   5.216   1.735
  392SOL    HW2 2076   2.470   5.341   1.730
  393SOL     OW 2077   6.162   4.583   5.096
  393SOL    HW1 2078   6.174   4.495   5.143
  393SOL    HW2 2079   6.085   4.632   5.136
  394SOL     OW 2080   6.780   6.565   0.199
  394SOL    HW1 2081   6.735   6.480   0.169
  394SOL    HW2 2082   6.811   6.615   0.118
  395SOL     OW 2083   4.997   4.258   2.451
  395SOL    HW1 2084   5.007   4.164   2.421
  395SOL    HW2 2085   4.904   4.290   2.432
  396SOL     OW 2086   3.260   3.913   3.329
  396SOL    HW1 2087   3.247   3.928   3.231
  396SOL    HW2 2088   3.346   3.955   3.358
  397SOL     OW 2089   4.435   2.262   5.617
  397SOL    HW1 2090   4.507   2.192   5.616
  397SOL    HW2 2091   4.377   2.249   5.697
  398SOL     OW 2092   0.804   5.671   2.282
  398SOL    HW1 2093   0.839   5.602   2.219
  398SOL    HW2 2094   0.862   5.753   2.278
  399SOL     OW 2095   4.625   5.570   1.450
  399SOL    HW1 2096   4.709   5.596   1.497
  399SOL    HW2 2097   4.593   5.482   1.485
  400SOL     OW 2098   0.200   6.750   5.401
  400SOL    HW1 2099   0.217   6.716   5.308
  400SOL    HW2 2100   0.120   6.809   5.401
  401SOL     OW 2101   4.585   1.367   6.304
  401SOL    HW1 2102   4.515   1.375   6.375
  401SOL    HW2 2103   4.543   1.331   6.221
  402SOL     OW 2104   6.466   6.161   2.752
  402SOL    HW1 2105   6.529   6.126   2.682
  402SOL    HW2 2106   6.461   6.260   2.745
  403SOL     OW 2107   4.748   2.330   5.995
  403SOL    HW1 2108   4.687   2.317   6.073
  403SOL    HW2 2109   4.841   2.304   6.020
  404SOL     OW 2110   1.411   6.722   3.734
  404SOL    HW1 2111   1.342   6.785   3.697
  404SOL    HW2 2112   1.454   6.764   3.814
  405SOL     OW 2113   1.866   2.637   1.128
  405SOL    HW1 2114   1.898   2.566   1.065
  405SOL    HW2 2115   1.917   2.721   1.112
  406SOL     OW 2116   1.027   2.738   4.291
  406SOL    HW1 2117   0.974   2.703   4.368
  406SOL    HW2 2118   1.055   2.662   4.233
  407SOL     OW 2119   3.094   0.085   4.666
  407SOL    HW1 2120   3.030   0.129   4.730
  407SOL    HW2 2121   3.048   0.008   4.621
  408SOL     OW 2122   1.295   0.129   3.384
  408SOL    HW1 2123   1.248   0.181   3.455
  408SOL    HW2 2124   1.299   0.183   3.300
  409SOL     OW 2125   6.464   3.241   2.958
  409SOL    HW1 2126   6.425   3.295   3.033
  409SOL    HW2 2127   6.422   3.149   2.959
  410SOL     OW 2128   2.137   0.196   0.366
  410SOL    HW1 2129   2.216   0.235   0.320
  410SOL    HW2 2130   2.149   0.098   0.376
  411SOL     OW 2131   5.659   5.079   6.633
  411SOL    HW1 2132   5.715   5.160   6.653
  411SOL    HW2 2133   5.719   4.999   6.626
  412SOL     OW 2134   3.725   6.428   2.971
  412SOL    HW1 2135   3.725   6.331   2.997
  412SOL    HW2 2136   3.690   6.483   3.047
  413SOL     OW 2137   3.334   5.458   0.317
  413SOL    HW1 2138   3.243   5.490   0.343
  413SOL    HW2 2139   3.327   5.367   0.276
  414SOL     OW 2140   4.203   4.843   1.427
  414SOL    HW1 2141   4.292   4.877   1.396
  414SOL    HW2 2142   4.138   4.919   1.433
  415SOL     OW 2143   1.233   5.827   0.738
  415SOL    HW1 2144   1.236   5.733   0.705
  415SOL    HW2 2145   1.276   5.832   0.828
  416SOL     OW 2146   4.016   5.743   4.809
  416SOL    HW1 2147   4.024   5.669   4.742
  416SOL    HW2 2148   3.955   5.814   4.773
  417SOL     OW 2149   3.286   6.132   1.859
  417SOL    HW1 2150   3.347   6.210   1.849
  417SOL    HW2 2151   3.267   6.117   1.957
  418SOL     OW 2152   4.854   6.101   0.397
  418SOL    HW1 2153   4.795   6.056   0.464
  418SOL    HW2 2154   4.900   6.032   0.341
  419SOL     OW 2155   0.222   0.986   0.699
  419SOL    HW1 2156   0.251   0.898   0.738
  419SOL    HW2 2157   0.232   0.983   0.599
  420SOL     OW 2158   5.956   3.977   1.325
  420SOL    HW1 2159   5.916   4.049   1.269
  420SOL    HW2 2160   5.942   3.998   1.422
  421SOL     OW 2161   1.342   4.927   6.255
  421SOL    HW1 2162   1.283   4.929   6.175
  421SOL    HW2 2163   1.352   4.833   6.287
  422SOL     OW 2164   5.601   4.669   0.453
  422SOL    HW1 2165   5.519   4.642   0.401
  422SOL    HW2 2166   5.589   4.762   0.488
  423SOL     OW 2167   5.961   2.993   6.845
  423SOL    HW1 2168   5.923   3.084   6.862
  423SOL    HW2 2169   5.913   2.950   6.769
  424SOL     OW 2170   2.786   3.683   0.274
  424SOL    HW1 2171   2.715   3.616   0.256
  424SOL    HW2 2172   2.874   3.636   0.288
  425SOL     OW 2173   5.176   1.826   1.208
  425SOL    HW1 2174   5.188   1.887   1.287
  425SOL    HW2 2175   5.080   1.801   1.200
  426SOL     OW 2176   5.097   2.757   5.451
  426SOL    HW1 2177   5.084   2.659   5.467
  426SOL    HW2 2178   5.177   2.771   5.392
  427SOL     OW 2179   5.746   4.332   2.057
  427SOL    HW1 2180   5.753   4.431   2.063
  427SOL    HW2 2181   5.743   4.304   1.961
  428SOL     OW 2182   4.291   0.618   5.512
  428SOL    HW1 2183   4.346   0.552   5.562
  428SOL    HW2 2184   4.311   0.710   5.545
  429SOL     OW 2185   1.967   5.075   0.127
  429SOL    HW1 2186   1.964   5.125   0.214
  429SOL    HW2 2187   1.888   5.101   0.072
  430SOL     OW 2188   1.691   6.910   4.549
  430SOL    HW1 2189   1.659   6.911   4.644
  430SOL    HW2 2190   1.619   6.944   4.489
  431SOL     OW 2191   3.327   1.087   0.119
  431SOL    HW1 2192   3.379   1.001   0.112
  431SOL    HW2 2193   3.337   1.138   0.034
  432SOL     OW 2194   0.060   2.298   0.286
  432SOL    HW1 2195   0.122   2.221   0.273
  432SOL    HW2 2196   0.108   2.384   0.267
  433SOL     OW 2197   3.057   0.067   4.191
  433SOL    HW1 2198   3.133   0.031   4.137
  433SOL    HW2 2199   3.093   0.124   4.265
  434SOL     OW 2200   5.258   4.629   1.354
  434SOL    HW1 2201   5.279   4.650   1.450
  434SOL    HW2 2202   5.176   4.679   1.327
  435SOL     OW 2203   3.589   3.242   6.004
  435SOL    HW1 2204   3.509   3.210   5.953
  435SOL    HW2 2205   3.567   3.251   6.101
  436SOL     OW 2206   1.464   0.120   1.336
  436SOL    HW1 2207   1.535   0.167   1.390
  436SOL    HW2 2208   1.496   0.028   1.313
  437SOL     OW 2209   6.902   7.019   6.560
  437SOL    HW1 2210   6.943   6.933   6.529
  437SOL    HW2 2211   6.819   6.999   6.612
  438SOL     OW 2212   1.899   2.539   2.252
  438SOL    HW1 2213   1.813   2.590   2.253
  438SOL    HW2 2214   1.975   2.602   2.238
  439SOL     OW 2215   6.235   4.801   3.264
  439SOL    HW1 2216   6.158   4.801   3.201
  439SOL    HW2 2217   6.284   4.714   3.256
  440SOL     OW 2218   0.735   2.211   4.523
  440SOL    HW1 2219   0.817   2.243   4.571
  440SOL    HW2 2220   0.666   2.181   4.589
  441SOL     OW 2221   1.228   1.939   3.362
  441SOL    HW1 2222   1.227   1.940   3.462
  441SOL    HW2 2223   1.283   2.015   3.328
  442SOL     OW 2224   0.445   4.288   0.232
  442SOL    HW1 2225   0.439   4.191   0.256
  442SOL    HW2 2226   0.538   4.309   0.200
  443SOL     OW 2227   1.132   4.615   4.667
  443SOL    HW1 2228   1.224   4.646   4.692
  443SOL    HW2 2229   1.113   4.528   4.713
  444SOL     OW 2230   4.614   2.753   5.963
  444SOL    HW1 2231   4.672   2.813   6.018
  444SOL    HW2 2232   4.567   2.808   5.893
  445SOL     OW 2233   1.941   5.465   3.024
  445SOL    HW1 2234   2.027   5.510   3.048
  445SOL    HW2 2235   1.878   5.531   2.983
  446SOL     OW 2236   3.634   4.894   3.495
  446SOL    HW1 2237   3.546   4.883   3.449
  446SOL    HW2 2238   3.620   4.894   3.594
  447SOL     OW 2239   0.263   4.376   6.949
  447SOL    HW1 2240   0.333   4.350   7.016
  447SOL    HW2 2241   0.181   4.321   6.964
  448SOL     OW 2242   3.711   0.634   4.884
  448SOL    HW1 2243   3.661   0.602   4.964
  448SOL    HW2 2244   3.802   0.666   4.911
  449SOL     OW 2245   5.238   0.933   5.066
  449SOL    HW1 2246   5.145   0.969   5.050
  449SOL    HW2 2247   5.261   0.869   4.992
  450SOL     OW 2248   0.168   6.050   3.431
  450SOL    HW1 2249   0.126   5.959   3.433
  450SOL    HW2 2250   0.262   6.043   3.400
  451SOL     OW 2251   0.872   2.430   2.395
  451SOL    HW1 2252   0.949   2.453   2.336
  451SOL    HW2 2253   0.858   2.331   2.396
  452SOL     OW 2254   6.688   5.812   6.833
  452SOL    HW1 2255   6.617   5.872   6.870
  452SOL    HW2 2256   6.765   5.809   6.896
  453SOL     OW 2257   3.221   0.744   6.638
  453SOL    HW1 2258   3.179   0.730   6.728
  453SOL    HW2 2259   3.152   0.780   6.575
  454SOL     OW 2260   6.852   6.130   5.864
  454SOL    HW1 2261   6.864   6.040   5.822
  454SOL    HW2 2262   6.794   6.187   5.805
  455SOL     OW 2263   6.475   0.334   4.453
  455SOL    HW1 2264   6.555   0.339   4.512
  455SOL    HW2 2265   6.419   0.416   4.466
  456SOL     OW 2266   4.886   5.399   5.581
  456SOL    HW1 2267   4.894   5.371   5.486
  456SOL    HW2 2268   4.950   5.473   5.601
  457SOL     OW 2269   2.088   3.898   3.111
  457SOL    HW1 2270   2.148   3.939   3.180
  457SOL    HW2 2271   2.105   3.800   3.107
  458SOL     OW 2272   5.496   5.730   5.488
  458SOL    HW1 2273   5.565   5.723   5.416
  458SOL    HW2 2274   5.540   5.758   5.573
  459SOL     OW 2275   1.306   0.123   3.735
  459SOL    HW1 2276   1.398   0.144   3.705
  459SOL    HW2 2277   1.241   0.185   3.691
  460SOL     OW 2278   0.184   1.360   2.217
  460SOL    HW1 2279   0.099   1.322   2.183
  460SOL    HW2 2280   0.244   1.384   2.140
  461SOL     OW 2281   4.851   6.859   4.820
  461SOL    HW1 2282   4.939   6.864   4.773
  461SOL    HW2 2283   4.842   6.769   4.864
  462SOL     OW 2284   4.235   2.238   6.033
  462SOL    HW1 2285   4.326   2.227   6.073
  462SOL    HW2 2286   4.243   2.243   5.934
  463SOL     OW 2287   6.497   5.633   2.729
  463SOL    HW1 2288   6.553   5.554   2.755
  463SOL    HW2 2289   6.510   5.706   2.797
  464SOL     OW 2290   2.737   1.587   6.539
  464SOL    HW1 2291   2.675   1.634   6.603
  464SOL    HW2 2292   2.828   1.628   6.546
  465SOL     OW 2293   0.844   1.775   4.667
  465SOL    HW1 2294   0.940   1.751   4.652
  465SOL    HW2 2295   0.819   1.852   4.607
  466SOL     OW 2296   0.112   6.044   3.754
  466SOL    HW1 2297   0.131   6.098   3.673
  466SOL    HW2 2298   0.198   6.015   3.796
  467SOL     OW 2299   1.016   0.159   6.243
  467SOL    HW1 2300   1.052   0.221   6.313
  467SOL    HW2 2301   1.006   0.207   6.156
  468SOL     OW 2302   3.293   6.043   0.600
  468SOL    HW1 2303   3.243   6.062   0.515
  468SOL    HW2 2304   3.354   5.965   0.586
  469SOL     OW 2305   3.086   4.518   0.360
  469SOL    HW1 2306   3.169   4.512   0.304
  469SOL    HW2 2307   3.074   4.612   0.393
  470SOL     OW 2308   3.271   0.200   2.410
  470SOL    HW1 2309   3.366   0.201   2.443
  470SOL    HW2 2310   3.269   0.226   2.314
  471SOL     OW 2311   1.456   2.601   4.228
  471SOL    HW1 2312   1.412   2.613   4.317
  471SOL    HW2 2313   1.386   2.579   4.159
  472SOL     OW 2314   4.791   3.612   6.817
  472SOL    HW1 2315   4.807   3.666   6.734
  472SOL    HW2 2316   4.806   3.669   6.897
  473SOL     OW 2317   0.560   2.786   1.227
  473SOL    HW1 2318   0.514   2.835   1.153
  473SOL    HW2 2319   0.566   2.689   1.203
  474SOL     OW 2320   4.871   4.998   3.722
  474SOL    HW1 2321   4.786   5.013   3.773
  474SOL    HW2 2322   4.949   5.008   3.784
  475SOL     OW 2323   6.160   0.280   6.871
  475SOL    HW1 2324   6.152   0.339   6.951
  475SOL    HW2 2325   6.231   0.315   6.810
  476SOL     OW 2326   0.142   4.444   2.317
  476SOL    HW1 2327   0.129   4.494   2.231
  476SOL    HW2 2328   0.229   4.394   2.313
  477SOL     OW 2329   2.410   4.782   4.965
  477SOL    HW1 2330   2.500   4.823   4.951
  477SOL    HW2 2331   2.372   4.815   5.052
  478SOL     OW 2332   3.176   6.139   2.124
  478SOL    HW1 2333   3.225   6.172   2.205
  478SOL    HW2 2334   3.088   6.186   2.117
  479SOL     OW 2335   4.447   1.876   0.205
  479SOL    HW1 2336   4.491   1.796   0.244
  479SOL    HW2 2337   4.383   1.915   0.271
  480SOL     OW 2338   1.723   0.026   6.926
  480SOL    HW1 2339   1.706   0.031   7.025
  480SOL    HW2 2340   1.698   0.113   6.884
  481SOL     OW 2341   2.116   0.047   0.913
  481SOL    HW1 2342   2.144   6.993   0.965
  481SOL    HW2 2343   2.196   0.091   0.871
  482SOL     OW 2344   4.758   4.555   2.491
  482SOL    HW1 2345   4.668   4.527   2.523
  482SOL    HW2 2346   4.792   4.630   2.547
  483SOL     OW 2347   5.437   2.386   1.327
  483SOL    HW1 2348   5.454   2.374   1.425
  483SOL    HW2 2349   5.349   2.430   1.313
  484SOL     OW 2350   1.066   2.560   4.971
  484SOL    HW1 2351   1.070   2.651   4.931
  484SOL    HW2 2352   1.123   2.557   5.053
  485SOL     OW 2353   4.244   5.603   2.147
  485SOL    HW1 2354   4.183   5.550   2.206
  485SOL    HW2 2355   4.338   5.594   2.179
  486SOL     OW 2356   0.662   1.540   0.872
  486SOL    HW1 2357   0.595   1.575   0.938
  486SOL    HW2 2358   0.623   1.462   0.823
  487SOL     OW 2359   1.139   1.585   6.771
  487SOL    HW1 2360   1.172   1.618   6.683
  487SOL    HW2 2361   1.214   1.586   6.838
  488SOL     OW 2362   1.109   0.392   1.314
  488SOL    HW1 2363   1.131   0.486   1.340
  488SOL    HW2 2364   1.088   0.388   1.216
  489SOL     OW 2365   3.387   5.816   0.048
  489SOL    HW1 2366   3.417   5.770   0.131
  489SOL    HW2 2367   3.293   5.790   0.027
  490SOL     OW 2368   6.674   5.847   4.234
  490SOL    HW1 2369   6.726   5.931   4.225
  490SOL    HW2 2370   6.737   5.769   4.245
  491SOL     OW 2371   6.823   2.536   3.267
  491SOL    HW1 2372   6.903   2.592   3.287
  491SOL    HW2 2373   6.850   2.439   3.263
  492SOL     OW 2374   3.010   0.276   4.853
  492SOL    HW1 2375   3.102   0.314   4.841
  492SOL    HW2 2376   2.948   0.348   4.884
  493SOL     OW 2377   5.768   5.232   6.027
  493SOL    HW1 2378   5.730   5.249   5.936
  493SOL    HW2 2379   5.862   5.265   6.031
  494SOL     OW 2380   0.550   6.455   0.032
  494SOL    HW1 2381   0.515   6.483   0.122
  494SOL    HW2 2382   0.534   6.357   0.020
  495SOL     OW 2383   5.475   5.670   2.838
  495SOL    HW1 2384   5.398   5.718   2.879
  495SOL    HW2 2385   5.458   5.572   2.837
  496SOL     OW 2386   5.309   2.825   2.723
  496SOL    HW1 2387   5.306   2.868   2.813
  496SOL    HW2 2388   5.243   2.869   2.663
  497SOL     OW 2389   3.328   1.455   5.574
  497SOL    HW1 2390   3.365   1.545   5.595
  497SOL    HW2 2391   3.230   1.454   5.593
  498SOL     OW 2392   1.082   4.323   1.550
  498SOL    HW1 2393   1.111   4.327   1.455
  498SOL    HW2 2394   1.019   4.247   1.562
  499SOL     OW 2395   3.270   0.755   3.934
  499SOL    HW1 2396   3.208   0.774   3.857
  499SOL    HW2 2397   3.291   0.841   3.980
  500SOL     OW 2398   1.358   3.998   3.332
  500SOL    HW1 2399   1.299   3.924   3.299
  500SOL    HW2 2400   1.451   3.984   3.297
  501SOL     OW 2401   3.442   0.629   0.952
  501SOL    HW1 2402   3.347   0.606   0.931
  501SOL    HW2 2403   3.457   0.726   0.934
  502SOL     OW 2404   6.099   4.478   6.292
  502SOL    HW1 2405   6.014   4.483   6.345
  502SOL    HW2 2406   6.152   4.398   6.322
  503SOL     OW 2407   5.852   4.912   5.829
  503SOL    HW1 2408   5.850   4.941   5.924
  503SOL    HW2 2409   5.947   4.908   5.798
  504SOL     OW 2410   2.731   6.337   3.711
  504SOL    HW1 2411   2.818   6.387   3.706
  504SOL    HW2 2412   2.671   6.367   3.637
  505SOL     OW 2413   3.608   0.677   5.855
  505SOL    HW1 2414   3.683   0.665   5.790
  505SOL    HW2 2415   3.527   0.710   5.806
  506SOL     OW 2416   1.788   5.462   4.792
  506SOL    HW1 2417   1.888   5.462   4.794
  506SOL    HW2 2418   1.753   5.504   4.876
  507SOL     OW 2419   3.683   0.526   4.209
  507SOL    HW1 2420   3.620   0.484   4.143
  507SOL    HW2 2421   3.672   0.482   4.298
  508SOL     OW 2422   6.333   3.702   2.678
  508SOL    HW1 2423   6.307   3.727   2.771
  508SOL    HW2 2424   6.252   3.669   2.628
  509SOL     OW 2425   3.286   1.772   1.712
  509SOL    HW1 2426   3.240   1.822   1.785
  509SOL    HW2 2427   3.384   1.767   1.731
  510SOL     OW 2428   6.821   4.576   5.966
  510SOL    HW1 2429   6.832   4.545   5.872
  510SOL    HW2 2430   6.729   4.614   5.978
  511SOL     OW 2431   0.147   6.493   0.074
  511SOL    HW1 2432   0.167   6.474   0.170
  511SOL    HW2 2433   0.132   6.591   0.062
  512SOL     OW 2434   0.267   3.359   0.476
  512SOL    HW1 2435   0.306   3.332   0.388
  512SOL    HW2 2436   0.193   3.297   0.500
  513SOL     OW 2437   5.917   6.337   3.129
  513SOL    HW1 2438   5.867   6.252   3.109
  513SOL    HW2 2439   6.006   6.314   3.167
  514SOL     OW 2440   6.523   2.251   4.226
  514SOL    HW1 2441   6.578   2.327   4.191
  514SOL    HW2 2442   6.559   2.222   4.314
  515SOL     OW 2443   2.022   0.076   5.950
  515SOL    HW1 2444   2.074   0.100   5.868
  515SOL    HW2 2445   1.957   0.003   5.928
  516SOL     OW 2446   2.773   4.482   1.650
  516SOL    HW1 2447   2.841   4.490   1.723
  516SOL    HW2 2448   2.819   4.482   1.562
  517SOL     OW 2449   5.422   5.990   2.648
  517SOL    HW1 2450   5.456   5.978   2.555
  517SOL    HW2 2451   5.498   5.981   2.713
  518SOL     OW 2452   2.853   1.783   1.699
  518SOL    HW1 2453   2.824   1.828   1.783
  518SOL    HW2 2454   2.795   1.813   1.623
  519SOL     OW 2455   6.774   0.645   5.042
  519SOL    HW1 2456   6.848   0.706   5.070
  519SOL    HW2 2457   6.812   0.570   4.988
  520SOL     OW 2458   5.560   4.544   6.352
  520SOL    HW1 2459   5.546   4.445   6.359
  520SOL    HW2 2460   5.623   4.574   6.424
  521SOL     OW 2461   6.430   2.431   6.522
  521SOL    HW1 2462   6.458   2.484   6.603
  521SOL    HW2 2463   6.399   2.341   6.551
  522SOL     OW 2464   3.832   2.994   5.529
  522SOL    HW1 2465   3.871   2.929   5.594
  522SOL    HW2 2466   3.886   3.078   5.530
  523SOL     OW 2467   0.132   5.211   3.843
  523SOL    HW1 2468   0.136   5.310   3.854
  523SOL    HW2 2469   0.065   5.187   3.773
  524SOL     OW 2470   2.394   1.172   6.644
  524SOL    HW1 2471   2.307   1.181   6.693
  524SOL    HW2 2472   2.442   1.260   6.644
  525SOL     OW 2473   2.643   3.320   6.329
  525SOL    HW1 2474   2.723   3.270   6.296
  525SOL    HW2 2475   2.659   3.418   6.318
  526SOL     OW 2476   2.661   6.726   4.947
  526SOL    HW1 2477   2.563   6.714   4.931
  526SOL    HW2 2478   2.706   6.637   4.948
  527SOL     OW 2479   6.135   3.174   6.056
  527SOL    HW1 2480   6.122   3.110   6.131
  527SOL    HW2 2481   6.226   3.216   6.063
  528SOL     OW 2482   1.364   1.038   3.672
  528SOL    HW1 2483   1.451   1.051   3.719
  528SOL    HW2 2484   1.379   1.006   3.579
  529SOL     OW 2485   0.762   5.394   4.781
  529SOL    HW1 2486   0.813   5.333   4.841
  529SOL    HW2 2487   0.756   5.355   4.689
  530SOL     OW 2488   2.657   2.938   5.353
  530SOL    HW1 2489   2.593   2.934   5.430
  530SOL    HW2 2490   2.607   2.963   5.270
  531SOL     OW 2491   0.287   0.945   1.831
  531SOL    HW1 2492   0.235   0.938   1.745
  531SOL    HW2 2493   0.225   0.968   1.906
  532SOL     OW 2494   0.813   2.868   6.031
  532SOL    HW1 2495   0.794   2.788   5.973
  532SOL    HW2 2496   0.769   2.949   5.992
  533SOL     OW 2497   4.995   5.753   4.358
  533SOL    HW1 2498   4.992   5.810   4.276
  533SOL    HW2 2499   5.084   5.707   4.363
  534SOL     OW 2500   5.138   5.052   3.438
  534SOL    HW1 2501   5.161   4.979   3.374
  534SOL    HW2 2502   5.210   5.060   3.507
  535SOL     OW 2503   1.073   4.374   4.475
  535SOL    HW1 2504   1.171   4.355   4.476
  535SOL    HW2 2505   1.059   4.473   4.471
  536SOL     OW 2506   0.207   5.123   1.954
  536SOL    HW1 2507   0.290   5.120   2.009
  536SOL    HW2 2508   0.196   5.215   1.916
  537SOL     OW 2509   2.084   6.519   3.910
  537SOL    HW1 2510   2.135   6.448   3.958
  537SOL    HW2 2511   2.019   6.477   3.846
  538SOL     OW 2512   1.569   5.924   3.326
  538SOL    HW1 2513   1.571   5.835   3.371
  538SOL    HW2 2514   1.518   5.989   3.383
  539SOL     OW 2515   6.977   6.097   0.555
  539SOL    HW1 2516   0.001   6.140   0.479
  539SOL    HW2 2517   6.937   6.011   0.523
  540SOL     OW 2518   0.469   1.684   2.202
  540SOL    HW1 2519   0.418   1.681   2.288
  540SOL    HW2 2520   0.478   1.779   2.172
  541SOL     OW 2521   2.859   6.584   4.389
  541SOL    HW1 2522   2.890   6.494   4.359
  541SOL    HW2 2523   2.877   6.594   4.487
  542SOL     OW 2524   6.432   6.556   6.887
  542SOL    HW1 2525   6.428   6.540   6.986
  542SOL    HW2 2526   6.523   6.588   6.862
  543SOL     OW 2527   0.570   4.925   5.710
  543SOL    HW1 2528   0.504   4.935   5.783
  543SOL    HW2 2529   0.552   4.992   5.638
  544SOL     OW 2530   1.259   4.369   1.320
  544SOL    HW1 2531   1.274   4.399   1.226
  544SOL    HW2 2532   1.252   4.270   1.323
  545SOL     OW 2533   3.502   1.833   3.257
  545SOL    HW1 2534   3.421   1.867   3.211
  545SOL    HW2 2535   3.474   1.771   3.331
  546SOL     OW 2536   1.910   3.355   1.692
  546SOL    HW1 2537   1.945   3.407   1.614
  546SOL    HW2 2538   1.910   3.258   1.670
  547SOL     OW 2539   2.476   1.363   6.919
  547SOL    HW1 2540   2.543   1.414   6.973
  547SOL    HW2 2541   2.477   1.398   6.825
  548SOL     OW 2542   3.631   2.946   2.707
  548SOL    HW1 2543   3.628   2.905   2.616
  548SOL    HW2 2544   3.538   2.964   2.738
  549SOL     OW 2545   4.242   3.533   1.655
  549SOL    HW1 2546   4.320   3.595   1.660
  549SOL    HW2 2547   4.167   3.578   1.606
  550SOL     OW 2548   7.021   3.158   3.075
  550SOL    HW1 2549   0.013   3.185   3.170
  550SOL    HW2 2550   0.075   3.181   3.019
  551SOL     OW 2551   6.898   2.175   0.701
  551SOL    HW1 2552   6.818   2.181   0.760
  551SOL    HW2 2553   6.871   2.188   0.606
  552SOL     OW 2554   3.456   5.844   0.564
  552SOL    HW1 2555   3.403   5.783   0.623
  552SOL    HW2 2556   3.544   5.802   0.544
  553SOL     OW 2557   1.954   6.748   2.737
  553SOL    HW1 2558   1.998   6.701   2.813
  553SOL    HW2 2559   1.875   6.799   2.769
  554SOL     OW 2560   4.962   0.127   6.523
  554SOL    HW1 2561   4.936   0.032   6.543
  554SOL    HW2 2562   5.049   0.147   6.566
  555SOL     OW 2563   2.385   5.255   4.110
  555SOL    HW1 2564   2.465   5.231   4.165
  555SOL    HW2 2565   2.413   5.308   4.030
  556SOL     OW 2566   6.060   2.374   4.135
  556SOL    HW1 2567   6.140   2.430   4.156
  556SOL    HW2 2568   6.037   2.317   4.215
  557SOL     OW 2569   0.049   6.424   6.544
  557SOL    HW1 2570   0.028   6.329   6.523
  557SOL    HW2 2571   0.096   6.430   6.632
  558SOL     OW 2572   4.166   3.751   5.206
  558SOL    HW1 2573   4.107   3.782   5.132
  558SOL    HW2 2574   4.184   3.653   5.195
  559SOL     OW 2575   6.755   6.384   6.607
  559SOL    HW1 2576   6.707   6.311   6.559
  559SOL    HW2 2577   6.838   6.408   6.557
  560SOL     OW 2578   3.489   6.576   0.640
  560SOL    HW1 2579   3.481   6.507   0.568
  560SOL    HW2 2580   3.404   6.579   0.693
  561SOL     OW 2581   5.622   0.249   6.654
  561SOL    HW1 2582   5.538   0.211   6.614
  561SOL    HW2 2583   5.600   0.289   6.743
  562SOL     OW 2584   4.607   1.001   6.394
  562SOL    HW1 2585   4.520   1.035   6.428
  562SOL    HW2 2586   4.647   1.068   6.332
  563SOL     OW 2587   2.872   6.596   3.342
  563SOL    HW1 2588   2.952   6.536   3.355
  563SOL    HW2 2589   2.822   6.567   3.261
  564SOL     OW 2590   2.354   2.379   6.187
  564SOL    HW1 2591   2.446   2.414   6.170
  564SOL    HW2 2592   2.287   2.441   6.147
  565SOL     OW 2593   4.511   3.140   5.720
  565SOL    HW1 2594   4.500   3.040   5.718
  565SOL    HW2 2595   4.557   3.167   5.804
  566SOL     OW 2596   4.302   4.757   3.719
  566SOL    HW1 2597   4.341   4.849   3.710
  566SOL    HW2 2598   4.287   4.719   3.628
  567SOL     OW 2599   3.183   3.287   4.171
  567SOL    HW1 2600   3.137   3.255   4.089
  567SOL    HW2 2601   3.222   3.377   4.155
  568SOL     OW 2602   3.906   2.422   0.633
  568SOL    HW1 2603   3.874   2.447   0.725
  568SOL    HW2 2604   3.963   2.496   0.597
  569SOL     OW 2605   1.228   2.865   0.517
  569SOL    HW1 2606   1.252   2.782   0.567
  569SOL    HW2 2607   1.309   2.922   0.505
  570SOL     OW 2608   1.407   6.395   0.305
  570SOL    HW1 2609   1.422   6.452   0.225
  570SOL    HW2 2610   1.453   6.307   0.293
  571SOL     OW 2611   3.047   5.846   2.558
  571SOL    HW1 2612   2.965   5.850   2.501
  571SOL    HW2 2613   3.104   5.768   2.529
  572SOL     OW 2614   2.212   4.608   5.702
  572SOL    HW1 2615   2.222   4.685   5.639
  572SOL    HW2 2616   2.189   4.642   5.793
  573SOL     OW 2617   3.361   1.715   5.665
  573SOL    HW1 2618   3.430   1.765   5.613
  573SOL    HW2 2619   3.355   1.753   5.758
  574SOL     OW 2620   2.349   2.075   4.367
  574SOL    HW1 2621   2.311   2.162   4.398
  574SOL    HW2 2622   2.390   2.027   4.445
  575SOL     OW 2623   6.470   3.425   0.736
  575SOL    HW1 2624   6.396   3.395   0.795
  575SOL    HW2 2625   6.485   3.357   0.663
  576SOL     OW 2626   1.291   2.390   2.038
  576SOL    HW1 2627   1.314   2.376   1.942
  576SOL    HW2 2628   1.274   2.487   2.055
  577SOL     OW 2629   2.236   1.506   3.857
  577SOL    HW1 2630   2.222   1.435   3.787
  577SOL    HW2 2631   2.322   1.553   3.840
  578SOL     OW 2632   0.285   3.491   3.683
  578SOL    HW1 2633   0.266   3.413   3.623
  578SOL    HW2 2634   0.377   3.525   3.666
  579SOL     OW 2635   4.206   2.171   1.222
  579SOL    HW1 2636   4.277   2.111   1.258
  579SOL    HW2 2637   4.156   2.213   1.298
  580SOL     OW 2638   0.919   5.004   6.162
  580SOL    HW1 2639   1.004   4.956   6.139
  580SOL    HW2 2640   0.841   4.946   6.140
  581SOL     OW 2641   3.837   3.109   3.534
  581SOL    HW1 2642   3.778   3.051   3.591
  581SOL    HW2 2643   3.875   3.183   3.589
  582SOL     OW 2644   5.918   3.949   2.347
  582SOL    HW1 2645   6.013   3.961   2.376
  582SOL    HW2 2646   5.886   3.858   2.375
  583SOL     OW 2647   2.939   4.689   6.872
  583SOL    HW1 2648   3.010   4.622   6.896
  583SOL    HW2 2649   2.943   4.766   6.936
  584SOL     OW 2650   7.006   4.859   5.435
  584SOL    HW1 2651   0.037   4.913   5.497
  584SOL    HW2 2652   0.013   4.872   5.341
  585SOL     OW 2653   0.078   2.500   6.228
  585SOL    HW1 2654   0.104   2.590   6.263
  585SOL    HW2 2655   0.074   2.502   6.128
  586SOL     OW 2656   2.679   0.047   0.503
  586SOL    HW1 2657   2.710   0.039   0.408
  586SOL    HW2 2658   2.738   7.018   0.562
  587SOL     OW 2659   1.611   2.227   5.269
  587SOL    HW1 2660   1.582   2.204   5.177
  587SOL    HW2 2661   1.561   2.171   5.335
  588SOL     OW 2662   3.588   6.913   1.565
  588SOL    HW1 2663   3.495   6.924   1.531
  588SOL    HW2 2664   3.653   6.940   1.494
  589SOL     OW 2665   3.724   5.083   1.758
  589SOL    HW1 2666   3.674   5.153   1.707
  589SOL    HW2 2667   3.708   5.096   1.856
  590SOL     OW 2668   0.023   2.782   2.083
  590SOL    HW1 2669   0.116   2.815   2.067
  590SOL    HW2 2670   6.987   2.859   2.093
  591SOL     OW 2671   4.422   6.911   3.665
  591SOL    HW1 2672   4.418   7.002   3.706
  591SOL    HW2 2673   4.432   6.843   3.737
  592SOL     OW 2674   4.823   1.146   0.389
  592SOL    HW1 2675   4.897   1.119   0.327
  592SOL    HW2 2676   4.842   1.237   0.425
  593SOL     OW 2677   4.108   2.177   4.037
  593SOL    HW1 2678   4.028   2.130   4.000
  593SOL    HW2 2679   4.187   2.116   4.032
  594SOL     OW 2680   4.156   3.574   6.944
  594SOL    HW1 2681   4.110   3.573   6.855
  594SOL    HW2 2682   4.114   3.644   7.002
  595SOL     OW 2683   4.013   6.661   4.513
  595SOL    HW1 2684   3.960   6.663   4.598
  595SOL    HW2 2685   3.952   6.674   4.435
  596SOL     OW 2686   0.997   4.422   2.243
  596SOL    HW1 2687   1.083   4.374   2.262
  596SOL    HW2 2688   0.931   4.403   2.315
  597SOL     OW 2689   3.382   0.050   7.025
  597SOL    HW1 2690   3.439   0.051   0.081
  597SOL    HW2 2691   3.322   0.131   7.025
  598SOL     OW 2692   4.225   4.601   0.242
  598SOL    HW1 2693   4.141   4.653   0.226
  598SOL    HW2 2694   4.304   4.657   0.217
  599SOL     OW 2695   0.229   0.276   2.707
  599SOL    HW1 2696   0.294   0.335   2.755
  599SOL    HW2 2697   0.148   0.263   2.764
  600SOL     OW 2698   0.907   6.542   0.649
  600SOL    HW1 2699   0.977   6.508   0.711
  600SOL    HW2 2700   0.821   6.495   0.666
  601SOL     OW 2701   2.660   5.919   3.430
  601SOL    HW1 2702   2.677   5.821   3.446
  601SOL    HW2 2703   2.709   5.973   3.498
  602SOL     OW 2704   1.158   0.209   0.741
  602SOL    HW1 2705   1.085   0.175   0.800
  602SOL    HW2 2706   1.244   0.208   0.791
  603SOL     OW 2707   3.755   2.173   3.679
  603SOL    HW1 2708   3.783   2.123   3.597
  603SOL    HW2 2709   3.724   2.265   3.653
  604SOL     OW 2710   1.524   3.487   0.096
  604SOL    HW1 2711   1.568   3.577   0.088
  604SOL    HW2 2712   1.580   3.419   0.049
  605SOL     OW 2713   7.025   5.830   3.413
  605SOL    HW1 2714   7.026   5.762   3.339
  605SOL    HW2 2715   7.019   5.783   3.501
  606SOL     OW 2716   4.280   0.283   5.088
  606SOL    HW1 2717   4.289   0.220   5.011
  606SOL    HW2 2718   4.333   0.248   5.166
  607SOL     OW 2719   5.523   1.348   3.673
  607SOL    HW1 2720   5.547   1.360   3.576
  607SOL    HW2 2721   5.594   1.294   3.718
  608SOL     OW 2722   2.931   0.597   0.814
  608SOL    HW1 2723   2.834   0.617   0.808
  608SOL    HW2 2724   2.980   0.641   0.739
  609SOL     OW 2725   3.483   2.943   4.499
  609SOL    HW1 2726   3.577   2.933   4.467
  609SOL    HW2 2727   3.420   2.920   4.424
  610SOL     OW 2728   5.157   2.497   3.818
  610SOL    HW1 2729   5.180   2.577   3.874
  610SOL    HW2 2730   5.228   2.428   3.827
  611SOL     OW 2731   0.082   0.633   0.068
  611SOL    HW1 2732   0.180   0.637   0.052
  611SOL    HW2 2733   0.034   0.615   7.007
  612SOL     OW 2734   3.540   5.101   5.874
  612SOL    HW1 2735   3.477   5.136   5.804
  612SOL    HW2 2736   3.491   5.090   5.961
  613SOL     OW 2737   4.020   1.813   5.718
  613SOL    HW1 2738   4.014   1.779   5.812
  613SOL    HW2 2739   3.947   1.772   5.663
  614SOL     OW 2740   6.079   4.743   0.616
  614SOL    HW1 2741   6.002   4.729   0.678
  614SOL    HW2 2742   6.063   4.823   0.559
  615SOL     OW 2743   0.766   0.287   0.113
  615SOL    HW1 2744   0.814   0.278   0.200
  615SOL    HW2 2745   0.832   0.273   0.038
  616SOL     OW 2746   5.624   2.167   4.623
  616SOL    HW1 2747   5.592   2.091   4.566
  616SOL    HW2 2748   5.723   2.173   4.618
  617SOL     OW 2749   0.502   4.678   5.838
  617SOL    HW1 2750   0.513   4.767   5.795
  617SOL    HW2 2751   0.571   4.615   5.801
  618SOL     OW 2752   6.291   3.422   1.411
  618SOL    HW1 2753   6.340   3.456   1.332
  618SOL    HW2 2754   6.222   3.488   1.439
  619SOL     OW 2755   3.313   0.711   0.561
  619SOL    HW1 2756   3.277   0.718   0.468
  619SOL    HW2 2757   3.340   0.802   0.593
  620SOL     OW 2758   5.565   3.517   2.224
  620SOL    HW1 2759   5.513   3.493   2.142
  620SOL    HW2 2760   5.662   3.524   2.202
  621SOL     OW 2761   2.581   6.914   6.127
  621SOL    HW1 2762   2.667   6.918   6.075
  621SOL    HW2 2763   2.594   6.957   6.216
  622SOL     OW 2764   1.286   2.397   5.427
  622SOL    HW1 2765   1.366   2.445   5.465
  622SOL    HW2 2766   1.275   2.309   5.474
  623SOL     OW 2767   6.378   6.630   4.343
  623SOL    HW1 2768   6.288   6.675   4.341
  623SOL    HW2 2769   6.447   6.694   4.375
  624SOL     OW 2770   6.347   1.643   6.657
  624SOL    HW1 2771   6.287   1.590   6.597
  624SOL    HW2 2772   6.335   1.613   6.752
  625SOL     OW 2773   2.334   1.320   0.371
  625SOL    HW1 2774   2.400   1.392   0.392
  625SOL    HW2 2775   2.268   1.312   0.446
  626SOL     OW 2776   1.236   5.643   3.559
  626SOL    HW1 2777   1.336   5.642   3.552
  626SOL    HW2 2778   1.207   5.585   3.635
  627SOL     OW 2779   6.147   6.828   0.050
  627SOL    HW1 2780   6.182   6.796   6.987
  627SOL    HW2 2781   6.191   6.914   0.074
  628SOL     OW 2782   5.194   4.252   5.621
  628SOL    HW1 2783   5.204   4.271   5.523
  628SOL    HW2 2784   5.139   4.169   5.633
  629SOL     OW 2785   6.751   0.671   0.140
  629SOL    HW1 2786   6.844   0.634   0.145
  629SOL    HW2 2787   6.754   0.765   0.107
  630SOL     OW 2788   6.989   1.435   1.221
  630SOL    HW1 2789   6.890   1.436   1.213
  630SOL    HW2 2790   7.014   1.413   1.316
  631SOL     OW 2791   2.582   2.467   4.946
  631SOL    HW1 2792   2.577   2.537   4.875
  631SOL    HW2 2793   2.576   2.511   5.036
  632SOL     OW 2794   4.950   3.181   0.527
  632SOL    HW1 2795   4.901   3.176   0.440
  632SOL    HW2 2796   5.014   3.104   0.533
  633SOL     OW 2797   1.837   5.128   1.249
  633SOL    HW1 2798   1.764   5.189   1.220
  633SOL    HW2 2799   1.819   5.036   1.214
  634SOL     OW 2800   3.036   3.610   4.008
  634SOL    HW1 2801   3.134   3.601   4.027
  634SOL    HW2 2802   3.021   3.609   3.909
  635SOL     OW 2803   5.335   1.355   6.567
  635SOL    HW1 2804   5.404   1.343   6.495
  635SOL    HW2 2805   5.254   1.399   6.528
  636SOL     OW 2806   2.873   0.155   6.244
  636SOL    HW1 2807   2.841   0.246   6.270
  636SOL    HW2 2808   2.967   0.161   6.211
  637SOL     OW 2809   6.159   1.006   1.936
  637SOL    HW1 2810   6.116   0.996   2.026
  637SOL    HW2 2811   6.116   0.943   1.871
  638SOL     OW 2812   5.820   3.236   3.918
  638SOL    HW1 2813   5.772   3.235   3.830
  638SOL    HW2 2814   5.889   3.308   3.917
  639SOL     OW 2815   5.355   4.653   3.028
  639SOL    HW1 2816   5.358   4.647   3.128
  639SOL    HW2 2817   5.445   4.633   2.990
  640SOL     OW 2818   0.181   2.745   2.592
  640SOL    HW1 2819   0.212   2.803   2.518
  640SOL    HW2 2820   0.082   2.757   2.605
  641SOL     OW 2821   1.983   4.880   5.343
  641SOL    HW1 2822   1.991   4.873   5.244
  641SOL    HW2 2823   1.946   4.795   5.380
  642SOL     OW 2824   1.232   3.884   4.527
  642SOL    HW1 2825   1.143   3.885   4.573
  642SOL    HW2 2826   1.261   3.789   4.513
  643SOL     OW 2827   5.049   6.425   6.893
  643SOL    HW1 2828   5.064   6.481   6.974
  643SOL    HW2 2829   4.967   6.456   6.845
  644SOL     OW 2830   0.252   7.025   4.652
  644SOL    HW1 2831   0.251   6.939   4.600
  644SOL    HW2 2832   0.327   7.023   4.718
  645SOL     OW 2833   3.633   4.935   3.150
  645SOL    HW1 2834   3.646   4.897   3.059
  645SOL    HW2 2835   3.551   4.894   3.192
  646SOL     OW 2836   3.871   0.848   5.440
  646SOL    HW1 2837   3.790   0.825   5.385
  646SOL    HW2 2838   3.876   0.948   5.450
  647SOL     OW 2839   4.971   2.109   4.692
  647SOL    HW1 2840   4.896   2.096   4.627
  647SOL    HW2 2841   4.949   2.186   4.752
  648SOL     OW 2842   6.035   1.389   2.734
  648SOL    HW1 2843   6.059   1.313   2.673
  648SOL    HW2 2844   6.114   1.449   2.744
  649SOL     OW 2845   2.100   4.861   0.062
  649SOL    HW1 2846   2.054   4.934   0.111
  649SOL    HW2 2847   2.196   4.885   0.047
  650SOL     OW 2848   6.508   5.615   0.586
  650SOL    HW1 2849   6.553   5.591   0.500
  650SOL    HW2 2850   6.552   5.566   0.661
  651SOL     OW 2851   1.266   0.251   5.591
  651SOL    HW1 2852   1.343   0.236   5.529
  651SOL    HW2 2853   1.183   0.211   5.551
  652SOL     OW 2854   4.416   0.586   1.807
  652SOL    HW1 2855   4.415   0.611   1.711
  652SOL    HW2 2856   4.369   0.656   1.861
  653SOL     OW 2857   6.735   6.718   0.947
  653SOL    HW1 2858   6.726   6.722   0.848
  653SOL    HW2 2859   6.792   6.793   0.979
  654SOL     OW 2860   6.646   6.689   5.895
  654SOL    HW1 2861   6.574   6.700   5.827
  654SOL    HW2 2862   6.735   6.690   5.850
  655SOL     OW 2863   0.252   4.800   2.206
  655SOL    HW1 2864   0.244   4.767   2.300
  655SOL    HW2 2865   0.346   4.788   2.175
  656SOL     OW 2866   3.220   6.657   0.736
  656SOL    HW1 2867   3.142   6.684   0.793
  656SOL    HW2 2868   3.191   6.587   0.671
  657SOL     OW 2869   3.821   3.443   1.657
  657SOL    HW1 2870   3.808   3.517   1.723
  657SOL    HW2 2871   3.856   3.362   1.704
  658SOL     OW 2872   2.170   4.253   4.205
  658SOL    HW1 2873   2.125   4.342   4.206
  658SOL    HW2 2874   2.168   4.213   4.297
  659SOL     OW 2875   3.861   6.183   5.852
  659SOL    HW1 2876   3.837   6.092   5.884
  659SOL    HW2 2877   3.808   6.251   5.902
  660SOL     OW 2878   5.148   4.653   2.535
  660SOL    HW1 2879   5.147   4.597   2.618
  660SOL    HW2 2880   5.082   4.617   2.469
  661SOL     OW 2881   4.847   4.369   4.092
  661SOL    HW1 2882   4.919   4.436   4.074
  661SOL    HW2 2883   4.763   4.398   4.046
  662SOL     OW 2884   4.822   2.965   0.288
  662SOL    HW1 2885   4.879   2.948   0.208
  662SOL    HW2 2886   4.789   3.060   0.285
  663SOL     OW 2887   6.817   4.207   6.814
  663SOL    HW1 2888   6.734   4.238   6.860
  663SOL    HW2 2889   6.797   4.126   6.759
  664SOL     OW 2890   1.432   6.219   6.311
  664SOL    HW1 2891   1.423   6.282   6.234
  664SOL    HW2 2892   1.430   6.270   6.397
  665SOL     OW 2893   3.771   5.174   1.384
  665SOL    HW1 2894   3.745   5.203   1.292
  665SOL    HW2 2895   3.707   5.105   1.417
  666SOL     OW 2896   3.897   1.730   0.159
  666SOL    HW1 2897   3.939   1.721   0.068
  666SOL    HW2 2898   3.941   1.806   0.208
  667SOL     OW 2899   0.654   2.914   3.702
  667SOL    HW1 2900   0.735   2.936   3.648
  667SOL    HW2 2901   0.588   2.989   3.694
  668SOL     OW 2902   4.357   6.623   0.006
  668SOL    HW1 2903   4.315   6.571   6.957
  668SOL    HW2 2904   4.404   6.560   0.068
  669SOL     OW 2905   0.799   6.941   3.656
  669SOL    HW1 2906   0.741   6.888   3.718
  669SOL    HW2 2907   0.746   6.970   3.577
  670SOL     OW 2908   3.533   3.722   3.034
  670SOL    HW1 2909   3.444   3.686   3.007
  670SOL    HW2 2910   3.527   3.821   3.045
  671SOL     OW 2911   1.676   6.131   5.932
  671SOL    HW1 2912   1.690   6.033   5.937
  671SOL    HW2 2913   1.633   6.163   6.017
  672SOL     OW 2914   1.532   3.184   4.632
  672SOL    HW1 2915   1.573   3.275   4.636
  672SOL    HW2 2916   1.433   3.192   4.620
  673SOL     OW 2917   4.953   0.560   0.220
  673SOL    HW1 2918   4.908   0.550   0.131
  673SOL    HW2 2919   4.898   0.515   0.291
  674SOL     OW 2920   0.706   2.593   3.577
  674SOL    HW1 2921   0.715   2.635   3.487
  674SOL    HW2 2922   0.789   2.609   3.630
  675SOL     OW 2923   0.636   2.576   4.684
  675SOL    HW1 2924   0.656   2.672   4.666
  675SOL    HW2 2925   0.702   2.539   4.749
  676SOL     OW 2926   2.760   4.736   4.470
  676SOL    HW1 2927   2.842   4.790   4.448
  676SOL    HW2 2928   2.783   4.639   4.465
  677SOL     OW 2929   6.301   0.380   0.837
  677SOL    HW1 2930   6.221   0.321   0.835
  677SOL    HW2 2931   6.368   0.344   0.902
  678SOL     OW 2932   2.771   0.775   5.613
  678SOL    HW1 2933   2.825   0.783   5.529
  678SOL    HW2 2934   2.688   0.830   5.604
  679SOL     OW 2935   3.602   1.013   3.228
  679SOL    HW1 2936   3.629   0.945   3.296
  679SOL    HW2 2937   3.546   1.083   3.271
  680SOL     OW 2938   5.477   3.666   5.429
  680SOL    HW1 2939   5.481   3.617   5.515
  680SOL    HW2 2940   5.381   3.682   5.404
  681SOL     OW 2941   6.590   6.586   1.117
  681SOL    HW1 2942   6.494   6.592   1.090
  681SOL    HW2 2943   6.646   6.642   1.056
  682SOL     OW 2944   2.027   6.857   6.859
  682SOL    HW1 2945   1.993   6.916   6.786
  682SOL    HW2 2946   2.039   6.911   6.942
  683SOL     OW 2947   3.779   1.368   6.137
  683SOL    HW1 2948   3.729   1.422   6.205
  683SOL    HW2 2949   3.817   1.286   6.181
  684SOL     OW 2950   0.410   6.636   5.986
  684SOL    HW1 2951   0.484   6.664   6.048
  684SOL    HW2 2952   0.420   6.539   5.965
  685SOL     OW 2953   4.703   0.153   6.500
  685SOL    HW1 2954   4.673   0.110   6.585
  685SOL    HW2 2955   4.803   0.161   6.501
  686SOL     OW 2956   5.292   2.601   3.467
  686SOL    HW1 2957   5.251   2.651   3.544
  686SOL    HW2 2958   5.227   2.596   3.392
  687SOL     OW 2959   6.715   3.136   6.521
  687SOL    HW1 2960   6.689   3.095   6.609
  687SOL    HW2 2961   6.634   3.146   6.464
  688SOL     OW 2962   2.039   3.697   6.998
  688SOL    HW1 2963   2.136   3.721   7.003
  688SOL    HW2 2964   2.019   3.659   6.908
  689SOL     OW 2965   0.364   4.104   6.585
  689SOL    HW1 2966   0.395   4.020   6.539
  689SOL    HW2 2967   0.280   4.136   6.542
  690SOL     OW 2968   1.194   2.212   3.951
  690SOL    HW1 2969   1.269   2.262   3.994
  690SOL    HW2 2970   1.214   2.114   3.952
  691SOL     OW 2971   1.270   2.671   6.470
  691SOL    HW1 2972   1.305   2.625   6.388
  691SOL    HW2 2973   1.242   2.603   6.537
  692SOL     OW 2974   2.690   6.900   3.074
  692SOL    HW1 2975   2.665   6.929   2.982
  692SOL    HW2 2976   2.770   6.952   3.105
  693SOL     OW 2977   6.499   2.254   2.504
  693SOL    HW1 2978   6.465   2.337   2.459
  693SOL    HW2 2979   6.594   2.240   2.479
  694SOL     OW 2980   3.135   5.440   1.141
  694SOL    HW1 2981   3.085   5.496   1.207
  694SOL    HW2 2982   3.140   5.488   1.053
  695SOL     OW 2983   5.344   5.561   5.051
  695SOL    HW1 2984   5.312   5.467   5.055
  695SOL    HW2 2985   5.308   5.612   5.129
  696SOL     OW 2986   3.387   5.181   2.376
  696SOL    HW1 2987   3.315   5.167   2.308
  696SOL    HW2 2988   3.430   5.093   2.398
  697SOL     OW 2989   0.798   3.270   5.010
  697SOL    HW1 2990   0.872   3.298   5.070
  697SOL    HW2 2991   0.803   3.321   4.924
  698SOL     OW 2992   4.656   0.521   3.479
  698SOL    HW1 2993   4.753   0.540   3.495
  698SOL    HW2 2994   4.612   0.602   3.440
  699SOL     OW 2995   1.555   4.531   1.015
  699SOL    HW1 2996   1.577   4.439   1.048
  699SOL    HW2 2997   1.456   4.545   1.018
  700SOL     OW 2998   2.616   2.346   3.902
  700SOL    HW1 2999   2.593   2.434   3.943
  700SOL    HW2 3000   2.541   2.315   3.843
  701SOL     OW 3001   0.651   4.635   6.822
  701SOL    HW1 3002   0.655   4.537   6.844
  701SOL    HW2 3003   0.608   4.685   6.897
  702SOL     OW 3004   5.274   6.678   5.134
  702SOL    HW1 3005   5.330   6.724   5.065
  702SOL    HW2 3006   5.179   6.708   5.126
  703SOL     OW 3007   4.317   3.407   6.662
  703SOL    HW1 3008   4.397   3.466   6.665
  703SOL    HW2 3009   4.235   3.462   6.679
  704SOL     OW 3010   1.299   0.903   6.428
  704SOL    HW1 3011   1.262   0.862   6.345
  704SOL    HW2 3012   1.392   0.869   6.443
  705SOL     OW 3013   5.205   0.573   3.368
  705SOL    HW1 3014   5.304   0.577   3.364
  705SOL    HW2 3015   5.166   0.650   3.316
  706SOL     OW 3016   3.468   1.967   4.207
  706SOL    HW1 3017   3.438   1.876   4.179
  706SOL    HW2 3018   3.477   2.025   4.126
  707SOL     OW 3019   4.533   0.573   1.453
  707SOL    HW1 3020   4.481   0.627   1.387
  707SOL    HW2 3021   4.599   0.632   1.499
  708SOL     OW 3022   4.735   0.423   1.448
  708SOL    HW1 3023   4.644   0.456   1.421
  708SOL    HW2 3024   4.731   0.386   1.540
  709SOL     OW 3025   0.965   5.017   0.814
  709SOL    HW1 3026   1.012   4.942   0.860
  709SOL    HW2 3027   0.873   5.026   0.851
  710SOL     OW 3028   3.439   4.097   2.480
  710SOL    HW1 3029   3.421   4.140   2.569
  710SOL    HW2 3030   3.521   4.041   2.486
  711SOL     OW 3031   6.597   2.638   5.300
  711SOL    HW1 3032   6.611   2.661   5.396
  711SOL    HW2 3033   6.634   2.547   5.281
  712SOL     OW 3034   0.943   3.667   0.891
  712SOL    HW1 3035   0.996   3.749   0.912
  712SOL    HW2 3036   0.846   3.690   0.891
  713SOL     OW 3037   3.871   3.386   2.162
  713SOL    HW1 3038   3.847   3.302   2.113
  713SOL    HW2 3039   3.882   3.366   2.259
  714SOL     OW 3040   5.595   4.346   5.372
  714SOL    HW1 3041   5.582   4.326   5.469
  714SOL    HW2 3042   5.536   4.422   5.346
  715SOL     OW 3043   4.286   5.697   6.667
  715SOL    HW1 3044   4.355   5.689   6.595
  715SOL    HW2 3045   4.331   5.715   6.755
  716SOL     OW 3046   0.508   5.291   1.303
  716SOL    HW1 3047   0.485   5.260   1.211
  716SOL    HW2 3048   0.603   5.267   1.324
  717SOL     OW 3049   6.211   4.174   6.961
  717SOL    HW1 3050   6.173   4.257   7.002
  717SOL    HW2 3051   6.288   4.142   7.016
  718SOL     OW 3052   3.599   2.939   5.773
  718SOL    HW1 3053   3.598   3.035   5.744
  718SOL    HW2 3054   3.653   2.931   5.857
  719SOL     OW 3055   6.814   2.720   1.315
  719SOL    HW1 3056   6.912   2.734   1.333
  719SOL    HW2 3057   6.763   2.799   1.349
  720SOL     OW 3058   2.280   1.640   5.292
  720SOL    HW1 3059   2.258   1.676   5.382
  720SOL    HW2 3060   2.235   1.551   5.280
  721SOL     OW 3061   1.638   0.546   5.368
  721SOL    HW1 3062   1.729   0.541   5.326
  721SOL    HW2 3063   1.632   0.480   5.443
  722SOL     OW 3064   4.098   6.551   5.312
  722SOL    HW1 3065   4.176   6.564   5.251
  722SOL    HW2 3066   4.094   6.455   5.340
  723SOL     OW 3067   2.325   2.700   2.124
  723SOL    HW1 3068   2.344   2.716   2.027
  723SOL    HW2 3069   2.406   2.663   2.168
  724SOL     OW 3070   0.753   1.525   4.990
  724SOL    HW1 3071   0.742   1.529   4.891
  724SOL    HW2 3072   0.752   1.617   5.028
  725SOL     OW 3073   2.656   5.158   1.936
  725SOL    HW1 3074   2.755   5.143   1.935
  725SOL    HW2 3075   2.633   5.230   1.872
  726SOL     OW 3076   3.191   5.322   6.510
  726SOL    HW1 3077   3.278   5.278   6.487
  726SOL    HW2 3078   3.117   5.255   6.506
  727SOL     OW 3079   3.721   5.744   4.477
  727SOL    HW1 3080   3.803   5.694   4.450
  727SOL    HW2 3081   3.658   5.750   4.400
  728SOL     OW 3082   0.324   3.910   5.572
  728SOL    HW1 3083   0.238   3.952   5.603
  728SOL    HW2 3084   0.319   3.895   5.473
  729SOL     OW 3085   2.097   1.247   0.490
  729SOL    HW1 3086   2.004   1.248   0.453
  729SOL    HW2 3087   2.137   1.156   0.478
  730SOL     OW 3088   6.167   0.179   3.482
  730SOL    HW1 3089   6.150   0.275   3.506
  730SOL    HW2 3090   6.194   0.173   3.386
  731SOL     OW 3091   5.414   3.165   4.933
  731SOL    HW1 3092   5.369   3.204   4.853
  731SOL    HW2 3093   5.349   3.162   5.009
  732SOL     OW 3094   0.640   2.505   1.211
  732SOL    HW1 3095   0.699   2.531   1.288
  732SOL    HW2 3096   0.580   2.431   1.240
  733SOL     OW 3097   5.054   4.507   3.825
  733SOL    HW1 3098   4.957   4.501   3.804
  733SOL    HW2 3099   5.067   4.564   3.906
  734SOL     OW 3100   0.545   4.336   1.498
  734SOL    HW1 3101   0.541   4.236   1.488
  734SOL    HW2 3102   0.538   4.379   1.409
  735SOL     OW 3103   1.957   3.250   0.383
  735SOL    HW1 3104   1.964   3.276   0.479
  735SOL    HW2 3105   1.903   3.318   0.334
  736SOL     OW 3106   6.187   6.577   2.670
  736SOL    HW1 3107   6.180   6.580   2.770
  736SOL    HW2 3108   6.155   6.664   2.632
  737SOL     OW 3109   4.846   3.792   1.448
  737SOL    HW1 3110   4.830   3.876   1.500
  737SOL    HW2 3111   4.918   3.809   1.381
  738SOL     OW 3112   0.392   4.542   4.189
  738SOL    HW1 3113   0.432   4.470   4.247
  738SOL    HW2 3114   0.405   4.631   4.233
  739SOL     OW 3115   4.570   6.920   5.868
  739SOL    HW1 3116   4.590   7.006   5.821
  739SOL    HW2 3117   4.471   6.909   5.877
  740SOL     OW 3118   5.541   0.694   0.732
  740SOL    HW1 3119   5.552   0.671   0.635
  740SOL    HW2 3120   5.494   0.618   0.778
  741SOL     OW 3121   1.063   6.408   3.273
  741SOL    HW1 3122   0.993   6.396   3.343
  741SOL    HW2 3123   1.109   6.497   3.286
  742SOL     OW 3124   1.869   6.414   3.187
  742SOL    HW1 3125   1.848   6.322   3.220
  742SOL    HW2 3126   1.846   6.481   3.257
  743SOL     OW 3127   1.020   4.331   3.908
  743SOL    HW1 3128   1.077   4.410   3.885
  743SOL    HW2 3129   1.078   4.257   3.942
  744SOL     OW 3130   6.825   6.047   6.587
  744SOL    HW1 3131   6.864   5.956   6.598
  744SOL    HW2 3132   6.812   6.089   6.676
  745SOL     OW 3133   0.982   5.280   3.770
  745SOL    HW1 3134   0.907   5.216   3.752
  745SOL    HW2 3135   1.007   5.275   3.866
  746SOL     OW 3136   0.413   6.365   5.358
  746SOL    HW1 3137   0.381   6.425   5.431
  746SOL    HW2 3138   0.510   6.344   5.373
  747SOL     OW 3139   4.390   4.629   3.924
  747SOL    HW1 3140   4.352   4.669   4.007
  747SOL    HW2 3141   4.336   4.658   3.845
  748SOL     OW 3142   4.531   4.521   1.042
  748SOL    HW1 3143   4.519   4.517   0.943
  748SOL    HW2 3144   4.449   4.559   1.085
  749SOL     OW 3145   0.102   2.724   5.009
  749SOL    HW1 3146   0.010   2.753   5.033
  749SOL    HW2 3147   0.136   2.780   4.933
  750SOL     OW 3148   3.067   2.909   0.970
  750SOL    HW1 3149   3.009   2.977   0.925
  750SOL    HW2 3150   3.084   2.938   1.065
  751SOL     OW 3151   4.050   1.480   0.779
  751SOL    HW1 3152   4.012   1.450   0.866
  751SOL    HW2 3153   4.149   1.484   0.785
  752SOL     OW 3154   4.635   2.431   2.091
  752SOL    HW1 3155   4.675   2.442   2.000
  752SOL    HW2 3156   4.642   2.517   2.141
  753SOL     OW 3157   1.743   3.452   4.901
  753SOL    HW1 3158   1.687   3.383   4.854
  753SOL    HW2 3159   1.780   3.413   4.985
  754SOL     OW 3160   5.035   4.051   6.683
  754SOL    HW1 3161   5.103   4.035   6.612
  754SOL    HW2 3162   5.033   4.148   6.706
  755SOL     OW 3163   0.601   5.938   6.712
  755SOL    HW1 3164   0.557   5.854   6.745
  755SOL    HW2 3165   0.532   6.005   6.687
  756SOL     OW 3166   4.748   0.858   2.436
  756SOL    HW1 3167   4.669   0.799   2.420
  756SOL    HW2 3168   4.727   0.951   2.406
  757SOL     OW 3169   0.573   6.547   4.032
  757SOL    HW1 3170   0.488   6.597   4.052
  757SOL    HW2 3171   0.595   6.558   3.936
  758SOL     OW 3172   3.529   1.968   1.160
  758SOL    HW1 3173   3.534   1.896   1.229
  758SOL    HW2 3174   3.488   2.050   1.200
  759SOL     OW 3175   0.690   0.926   0.063
  759SOL    HW1 3176   0.774   0.920   0.009
  759SOL    HW2 3177   0.658   1.021   0.064
  760SOL     OW 3178   4.671   1.608   6.594
  760SOL    HW1 3179   4.593   1.552   6.566
  760SOL    HW2 3180   4.678   1.688   6.534
  761SOL     OW 3181   5.991   3.562   0.484
  761SOL    HW1 3182   6.017   3.538   0.578
  761SOL    HW2 3183   6.040   3.503   0.420
  762SOL     OW 3184   2.002   6.097   3.873
  762SOL    HW1 3185   1.974   6.143   3.957
  762SOL    HW2 3186   2.102   6.085   3.874
  763SOL     OW 3187   4.162   5.754   0.003
  763SOL    HW1 3188   4.094   5.768   6.957
  763SOL    HW2 3189   4.174   5.656   0.020
  764SOL     OW 3190   3.202   1.064   3.216
  764SOL    HW1 3191   3.154   1.152   3.217
  764SOL    HW2 3192   3.186   1.017   3.303
  765SOL     OW 3193   0.865   6.355   1.287
  765SOL    HW1 3194   0.779   6.334   1.334
  765SOL    HW2 3195   0.894   6.275   1.234
  766SOL     OW 3196   6.771   0.601   6.725
  766SOL    HW1 3197   6.764   0.692   6.766
  766SOL    HW2 3198   6.835   0.603   6.648
  767SOL     OW 3199   0.482   6.489   1.790
  767SOL    HW1 3200   0.579   6.489   1.813
  767SOL    HW2 3201   0.449   6.584   1.783
  768SOL     OW 3202   2.166   0.138   2.819
  768SOL    HW1 3203   2.119   0.078   2.756
  768SOL    HW2 3204   2.134   0.232   2.806
  769SOL     OW 3205   3.575   0.423   4.431
  769SOL    HW1 3206   3.546   0.328   4.438
  769SOL    HW2 3207   3.508   0.482   4.476
  770SOL     OW 3208   2.940   5.778   3.395
  770SOL    HW1 3209   2.954   5.769   3.296
  770SOL    HW2 3210   2.853   5.735   3.420
  771SOL     OW 3211   1.872   5.381   2.738
  771SOL    HW1 3212   1.899   5.286   2.750
  771SOL    HW2 3213   1.852   5.422   2.827
  772SOL     OW 3214   6.827   4.312   0.457
  772SOL    HW1 3215   6.842   4.390   0.518
  772SOL    HW2 3216   6.755   4.335   0.392
  773SOL     OW 3217   0.103   3.043   3.598
  773SOL    HW1 3218   0.091   3.090   3.686
  773SOL    HW2 3219   0.131   2.948   3.615
  774SOL     OW 3220   1.532   1.917   2.072
  774SOL    HW1 3221   1.524   1.820   2.094
  774SOL    HW2 3222   1.610   1.956   2.122
  775SOL     OW 3223   1.091   1.897   4.355
  775SOL    HW1 3224   1.053   1.987   4.375
  775SOL    HW2 3225   1.021   1.838   4.317
  776SOL     OW 3226   1.010   6.741   5.760
  776SOL    HW1 3227   1.079   6.764   5.829
  776SOL    HW2 3228   0.927   6.707   5.806
  777SOL     OW 3229   3.534   1.053   1.216
  777SOL    HW1 3230   3.616   1.006   1.246
  777SOL    HW2 3231   3.558   1.139   1.172
  778SOL     OW 3232   4.285   0.624   3.623
  778SOL    HW1 3233   4.325   0.668   3.543
  778SOL    HW2 3234   4.188   0.607   3.606
  779SOL     OW 3235   0.358   1.485   2.015
  779SOL    HW1 3236   0.386   1.551   2.085
  779SOL    HW2 3237   0.346   1.532   1.928
  780SOL     OW 3238   5.925   2.672   4.264
  780SOL    HW1 3239   6.006   2.616   4.281
  780SOL    HW2 3240   5.846   2.613   4.247
  781SOL     OW 3241   6.158   1.366   6.142
  781SOL    HW1 3242   6.062   1.339   6.135
  781SOL    HW2 3243   6.184   1.420   6.062
  782SOL     OW 3244   0.669   3.706   0.925
  782SOL    HW1 3245   0.597   3.716   0.857
  782SOL    HW2 3246   0.671   3.611   0.957
  783SOL     OW 3247   2.884   5.488   6.946
  783SOL    HW1 3248   2.845   5.578   6.964
  783SOL    HW2 3249   2.983   5.492   6.956
  784SOL     OW 3250   4.468   0.527   5.297
  784SOL    HW1 3251   4.433   0.435   5.317
  784SOL    HW2 3252   4.441   0.589   5.370
  785SOL     OW 3253   6.251   1.554   2.602
  785SOL    HW1 3254   6.348   1.576   2.592
  785SOL    HW2 3255   6.213   1.527   2.513
  786SOL     OW 3256   7.019   0.489   0.342
  786SOL    HW1 3257   7.007   0.467   0.245
  786SOL    HW2 3258   0.027   0.583   0.350
  787SOL     OW 3259   2.995   1.294   5.930
  787SOL    HW1 3260   2.958   1.239   6.005
  787SOL    HW2 3261   2.922   1.349   5.890
  788SOL     OW 3262   2.144   3.803   4.423
  788SOL    HW1 3263   2.115   3.708   4.427
  788SOL    HW2 3264   2.155   3.831   4.328
  789SOL     OW 3265   6.301   4.541   2.142
  789SOL    HW1 3266   6.354   4.528   2.226
  789SOL    HW2 3267   6.359   4.519   2.063
  790SOL     OW 3268   2.293   1.298   4.300
  790SOL    HW1 3269   2.313   1.372   4.236
  790SOL    HW2 3270   2.372   1.237   4.306
  791SOL     OW 3271   3.985   0.556   4.018
  791SOL    HW1 3272   3.900   0.609   4.022
  791SOL    HW2 3273   4.063   0.618   4.021
  792SOL     OW 3274   6.203   0.173   2.208
  792SOL    HW1 3275   6.157   0.087   2.232
  792SOL    HW2 3276   6.211   0.231   2.289
  793SOL     OW 3277   4.726   6.524   1.751
  793SOL    HW1 3278   4.716   6.505   1.849
  793SOL    HW2 3279   4.774   6.611   1.739
  794SOL     OW 3280   2.903   4.976   5.540
  794SOL    HW1 3281   2.852   4.895   5.510
  794SOL    HW2 3282   3.000   4.962   5.523
  795SOL     OW 3283   3.423   5.165   5.630
  795SOL    HW1 3284   3.435   5.247   5.575
  795SOL    HW2 3285   3.447   5.085   5.575
  796SOL     OW 3286   0.141   2.360   5.731
  796SOL    HW1 3287   0.232   2.375   5.692
  796SOL    HW2 3288   0.141   2.277   5.787
  797SOL     OW 3289   4.977   2.347   2.446
  797SOL    HW1 3290   5.070   2.378   2.466
  797SOL    HW2 3291   4.968   2.330   2.348
  798SOL     OW 3292   4.647   0.350   1.006
  798SOL    HW1 3293   4.720   0.302   0.958
  798SOL    HW2 3294   4.666   0.448   1.006
  799SOL     OW 3295   6.429   2.073   3.191
  799SOL    HW1 3296   6.520   2.082   3.151
  799SOL    HW2 3297   6.363   2.119   3.131
  800SOL     OW 3298   5.465   0.641   2.001
  800SOL    HW1 3299   5.374   0.602   2.010
  800SOL    HW2 3300   5.519   0.588   1.936
  801SOL     OW 3301   1.069   2.692   3.483
  801SOL    HW1 3302   1.065   2.619   3.414
  801SOL    HW2 3303   1.164   2.709   3.507
  802SOL     OW 3304   4.509   1.499   0.428
  802SOL    HW1 3305   4.444   1.427   0.405
  802SOL    HW2 3306   4.597   1.480   0.384
  803SOL     OW 3307   6.043   6.116   4.333
  803SOL    HW1 3308   5.993   6.106   4.418
  803SOL    HW2 3309   6.132   6.070   4.340
  804SOL     OW 3310   6.772   6.809   0.391
  804SOL    HW1 3311   6.693   6.821   0.331
  804SOL    HW2 3312   6.820   6.725   0.365
  805SOL     OW 3313   4.413   2.844   5.734
  805SOL    HW1 3314   4.326   2.803   5.761
  805SOL    HW2 3315   4.435   2.816   5.640
  806SOL     OW 3316   4.010   1.267   5.332
  806SOL    HW1 3317   4.091   1.271   5.390
  806SOL    HW2 3318   3.988   1.358   5.299
  807SOL     OW 3319   1.229   0.817   3.754
  807SOL    HW1 3320   1.147   0.838   3.807
  807SOL    HW2 3321   1.281   0.901   3.739
  808SOL     OW 3322   4.839   3.231   6.046
  808SOL    HW1 3323   4.912   3.286   6.003
  808SOL    HW2 3324   4.863   3.215   6.142
  809SOL     OW 3325   1.114   4.786   0.855
  809SOL    HW1 3326   1.147   4.706   0.805
  809SOL    HW2 3327   1.099   4.762   0.951
  810SOL     OW 3328   4.333   3.565   1.349
  810SOL    HW1 3329   4.342   3.484   1.407
  810SOL    HW2 3330   4.397   3.635   1.381
  811SOL     OW 3331   4.929   5.777   3.626
  811SOL    HW1 3332   4.968   5.755   3.537
  811SOL    HW2 3333   4.902   5.692   3.673
  812SOL     OW 3334   0.242   0.387   1.353
  812SOL    HW1 3335   0.165   0.324   1.352
  812SOL    HW2 3336   0.303   0.365   1.429
  813SOL     OW 3337   4.399   6.173   3.609
  813SOL    HW1 3338   4.485   6.215   3.580
  813SOL    HW2 3339   4.351   6.138   3.528
  814SOL     OW 3340   5.241   6.429   2.657
  814SOL    HW1 3341   5.171   6.500   2.660
  814SOL    HW2 3342   5.330   6.471   2.641
  815SOL     OW 3343   6.318   2.174   1.977
  815SOL    HW1 3344   6.231   2.203   1.937
  815SOL    HW2 3345   6.300   2.119   2.058
  816SOL     OW 3346   6.311   6.062   0.196
  816SOL    HW1 3347   6.257   5.982   0.219
  816SOL    HW2 3348   6.262   6.117   0.129
  817SOL     OW 3349   1.902   4.256   2.483
  817SOL    HW1 3350   1.902   4.353   2.460
  817SOL    HW2 3351   1.952   4.243   2.570
  818SOL     OW 3352   6.062   2.989   0.347
  818SOL    HW1 3353   6.140   2.935   0.376
  818SOL    HW2 3354   5.980   2.932   0.344
  819SOL     OW 3355   6.043   2.528   4.559
  819SOL    HW1 3356   6.110   2.487   4.621
  819SOL    HW2 3357   6.029   2.468   4.481
  820SOL     OW 3358   1.444   2.883   4.814
  820SOL    HW1 3359   1.393   2.960   4.776
  820SOL    HW2 3360   1.386   2.835   4.880
  821SOL     OW 3361   2.022   4.842   0.523
  821SOL    HW1 3362   1.941   4.900   0.525
  821SOL    HW2 3363   2.082   4.865   0.600
  822SOL     OW 3364   1.005   4.508   5.037
  822SOL    HW1 3365   1.054   4.449   4.973
  822SOL    HW2 3366   0.963   4.584   4.987
  823SOL     OW 3367   4.962   4.488   6.026
  823SOL    HW1 3368   4.991   4.542   5.947
  823SOL    HW2 3369   4.959   4.547   6.107
  824SOL     OW 3370   4.696   1.477   5.081
  824SOL    HW1 3371   4.755   1.516   5.010
  824SOL    HW2 3372   4.718   1.520   5.169
  825SOL     OW 3373   2.195   3.077   2.389
  825SOL    HW1 3374   2.289   3.088   2.420
  825SOL    HW2 3375   2.181   3.128   2.305
  826SOL     OW 3376   5.685   3.596   0.871
  826SOL    HW1 3377   5.665   3.587   0.773
  826SOL    HW2 3378   5.600   3.619   0.920
  827SOL     OW 3379   3.637   5.440   6.184
  827SOL    HW1 3380   3.565   5.497   6.221
  827SOL    HW2 3381   3.600   5.382   6.111
  828SOL     OW 3382   6.162   0.668   4.975
  828SOL    HW1 3383   6.256   0.658   5.009
  828SOL    HW2 3384   6.112   0.582   4.990
  829SOL     OW 3385   3.060   3.135   3.981
  829SOL    HW1 3386   2.979   3.097   4.026
  829SOL    HW2 3387   3.122   3.061   3.954
  830SOL     OW 3388   5.217   4.901   5.561
  830SOL    HW1 3389   5.185   4.855   5.644
  830SOL    HW2 3390   5.270   4.836   5.506
  831SOL     OW 3391   6.865   6.607   4.718
  831SOL    HW1 3392   6.788   6.659   4.681
  831SOL    HW2 3393   6.876   6.523   4.666
  832SOL     OW 3394   2.579   1.498   0.324
  832SOL    HW1 3395   2.529   1.583   0.309
  832SOL    HW2 3396   2.662   1.518   0.376
  833SOL     OW 3397   6.291   6.518   6.556
  833SOL    HW1 3398   6.219   6.493   6.620
  833SOL    HW2 3399   6.282   6.464   6.472
  834SOL     OW 3400   3.250   3.639   3.328
  834SOL    HW1 3401   3.181   3.632   3.255
  834SOL    HW2 3402   3.250   3.731   3.365
  835SOL     OW 3403   4.175   6.916   3.409
  835SOL    HW1 3404   4.234   6.871   3.475
  835SOL    HW2 3405   4.109   6.974   3.457
  836SOL     OW 3406   3.553   6.593   6.717
  836SOL    HW1 3407   3.552   6.495   6.703
  836SOL    HW2 3408   3.635   6.619   6.768
  837SOL     OW 3409   5.495   0.397   0.137
  837SOL    HW1 3410   5.416   0.403   0.075
  837SOL    HW2 3411   5.463   0.389   0.231
  838SOL     OW 3412   1.251   6.642   5.152
  838SOL    HW1 3413   1.216   6.701   5.079
  838SOL    HW2 3414   1.342   6.608   5.127
  839SOL     OW 3415   2.800   1.168   3.466
  839SOL    HW1 3416   2.785   1.238   3.536
  839SOL    HW2 3417   2.897   1.147   3.459
  840SOL     OW 3418   0.885   1.127   6.746
  840SOL    HW1 3419   0.904   1.063   6.821
  840SOL    HW2 3420   0.797   1.103   6.703
  841SOL     OW 3421   6.483   4.092   0.027
  841SOL    HW1 3422   6.503   4.002   7.014
  841SOL    HW2 3423   6.467   4.084   0.125
  842SOL     OW 3424   3.930   5.470   2.937
  842SOL    HW1 3425   3.845   5.459   2.989
  842SOL    HW2 3426   4.005   5.490   3.001
  843SOL     OW 3427   5.980   2.603   0.964
  843SOL    HW1 3428   5.994   2.673   0.895
  843SOL    HW2 3429   5.968   2.514   0.920
  844SOL     OW 3430   5.078   6.146   0.908
  844SOL    HW1 3431   5.156   6.149   0.970
  844SOL    HW2 3432   5.026   6.231   0.916
  845SOL     OW 3433   6.039   3.309   5.133
  845SOL    HW1 3434   5.956   3.322   5.079
  845SOL    HW2 3435   6.063   3.212   5.136
  846SOL     OW 3436   6.021   1.609   0.334
  846SOL    HW1 3437   5.950   1.611   0.264
  846SOL    HW2 3438   5.980   1.596   0.424
  847SOL     OW 3439   6.283   3.436   0.948
  847SOL    HW1 3440   6.356   3.496   0.980
  847SOL    HW2 3441   6.262   3.369   1.019
  848SOL     OW 3442   6.566   0.239   6.152
  848SOL    HW1 3443   6.615   0.177   6.091
  848SOL    HW2 3444   6.468   0.234   6.134
  849SOL     OW 3445   0.470   6.096   5.198
  849SOL    HW1 3446   0.532   6.161   5.154
  849SOL    HW2 3447   0.412   6.144   5.264
  850SOL     OW 3448   4.595   0.832   3.317
  850SOL    HW1 3449   4.553   0.862   3.231
  850SOL    HW2 3450   4.682   0.880   3.330
  851SOL     OW 3451   0.209   1.380   6.738
  851SOL    HW1 3452   0.272   1.364   6.662
  851SOL    HW2 3453   0.163   1.468   6.726
  852SOL     OW 3454   2.563   2.608   6.951
  852SOL    HW1 3455   2.556   2.585   6.853
  852SOL    HW2 3456   2.613   2.535   6.998
  853SOL     OW 3457   0.918   3.003   2.531
  853SOL    HW1 3458   0.986   3.006   2.604
  853SOL    HW2 3459   0.842   2.945   2.558
  854SOL     OW 3460   5.858   6.524   2.960
  854SOL    HW1 3461   5.868   6.446   3.021
  854SOL    HW2 3462   5.846   6.607   3.014
  855SOL     OW 3463   5.536   0.290   1.805
  855SOL    HW1 3464   5.486   0.344   1.738
  855SOL    HW2 3465   5.523   0.192   1.787
  856SOL     OW 3466   1.878   0.505   5.244
  856SOL    HW1 3467   1.901   0.409   5.258
  856SOL    HW2 3468   1.961   0.560   5.247
  857SOL     OW 3469   6.077   3.813   1.059
  857SOL    HW1 3470   6.031   3.779   1.141
  857SOL    HW2 3471   6.020   3.797   0.979
  858SOL     OW 3472   2.764   4.849   1.437
  858SOL    HW1 3473   2.736   4.894   1.352
  858SOL    HW2 3474   2.862   4.827   1.432
  859SOL     OW 3475   5.876   4.641   6.703
  859SOL    HW1 3476   5.871   4.543   6.720
  859SOL    HW2 3477   5.972   4.667   6.685
  860SOL     OW 3478   3.556   4.675   0.028
  860SOL    HW1 3479   3.491   4.704   0.098
  860SOL    HW2 3480   3.598   4.589   0.055
  861SOL     OW 3481   3.232   6.722   4.946
  861SOL    HW1 3482   3.254   6.722   5.044
  861SOL    HW2 3483   3.255   6.633   4.907
  862SOL     OW 3484   6.255   4.569   4.843
  862SOL    HW1 3485   6.243   4.595   4.939
  862SOL    HW2 3486   6.348   4.590   4.814
  863SOL     OW 3487   0.609   0.675   0.681
  863SOL    HW1 3488   0.529   0.678   0.620
  863SOL    HW2 3489   0.675   0.744   0.652
  864SOL     OW 3490   5.049   3.946   3.446
  864SOL    HW1 3491   4.974   3.888   3.476
  864SOL    HW2 3492   5.021   3.999   3.366
  865SOL     OW 3493   1.222   0.022   4.180
  865SOL    HW1 3494   1.205   0.117   4.155
  865SOL    HW2 3495   1.316   0.013   4.214
  866SOL     OW 3496   2.752   1.540   2.032
  866SOL    HW1 3497   2.707   1.476   1.970
  866SOL    HW2 3498   2.839   1.569   1.992
  867SOL     OW 3499   3.075   2.886   7.005
  867SOL    HW1 3500   3.144   2.956   7.024
  867SOL    HW2 3501   2.984   2.922   0.004
  868SOL     OW 3502   5.603   0.176   3.017
  868SOL    HW1 3503   5.525   0.150   3.074
  868SOL    HW2 3504   5.600   0.123   2.932
  869SOL     OW 3505   6.415   5.975   2.295
  869SOL    HW1 3506   6.358   5.930   2.364
  869SOL    HW2 3507   6.511   5.966   2.320
  870SOL     OW 3508   0.367   2.787   1.428
  870SOL    HW1 3509   0.433   2.803   1.354
  870SOL    HW2 3510   0.348   2.872   1.476
  871SOL     OW 3511   6.809   2.367   2.225
  871SOL    HW1 3512   6.735   2.436   2.225
  871SOL    HW2 3513   6.896   2.412   2.204
  872SOL     OW 3514   6.295   2.869   4.793
  872SOL    HW1 3515   6.200   2.835   4.790
  872SOL    HW2 3516   6.328   2.884   4.700
  873SOL     OW 3517   4.075   6.934   3.058
  873SOL    HW1 3518   4.122   7.014   3.096
  873SOL    HW2 3519   4.102   6.853   3.110
  874SOL     OW 3520   1.715   4.382   5.175
  874SOL    HW1 3521   1.692   4.463   5.229
  874SOL    HW2 3522   1.741   4.409   5.083
  875SOL     OW 3523   5.360   4.501   0.701
  875SOL    HW1 3524   5.274   4.452   0.712
  875SOL    HW2 3525   5.363   4.578   0.764
  876SOL     OW 3526   6.602   3.744   2.617
  876SOL    HW1 3527   6.511   3.734   2.656
  876SOL    HW2 3528   6.595   3.757   2.518
  877SOL     OW 3529   5.024   5.274   6.793
  877SOL    HW1 3530   5.117   5.301   6.768
  877SOL    HW2 3531   4.985   5.219   6.719
  878SOL     OW 3532   3.155   5.243   0.202
  878SOL    HW1 3533   3.061   5.225   0.175
  878SOL    HW2 3534   3.217   5.182   0.152
  879SOL     OW 3535   4.753   1.969   2.762
  879SOL    HW1 3536   4.798   2.003   2.844
  879SOL    HW2 3537   4.656   1.955   2.779
  880SOL     OW 3538   3.783   4.609   0.396
  880SOL    HW1 3539   3.778   4.621   0.495
  880SOL    HW2 3540   3.811   4.515   0.375
  881SOL     OW 3541   4.406   4.667   4.480
  881SOL    HW1 3542   4.445   4.684   4.571
  881SOL    HW2 3543   4.376   4.572   4.474
  882SOL     OW 3544   1.018   0.641   4.776
  882SOL    HW1 3545   1.049   0.719   4.831
  882SOL    HW2 3546   0.988   0.674   4.687
  883SOL     OW 3547   3.568   5.170   6.552
  883SOL    HW1 3548   3.596   5.237   6.621
  883SOL    HW2 3549   3.508   5.214   6.485
  884SOL     OW 3550   6.176   3.514   2.165
  884SOL    HW1 3551   6.182   3.611   2.187
  884SOL    HW2 3552   6.150   3.463   2.246
  885SOL     OW 3553   5.881   6.498   0.193
  885SOL    HW1 3554   5.784   6.511   0.212
  885SOL    HW2 3555   5.934   6.570   0.239
  886SOL     OW 3556   3.920   0.885   0.243
  886SOL    HW1 3557   3.930   0.880   0.343
  886SOL    HW2 3558   4.001   0.930   0.205
  887SOL     OW 3559   4.045   0.263   6.352
  887SOL    HW1 3560   4.045   0.345   6.295
  887SOL    HW2 3561   3.955   0.218   6.346
  888SOL     OW 3562   6.803   6.684   3.720
  888SOL    HW1 3563   6.731   6.630   3.764
  888SOL    HW2 3564   6.806   6.775   3.762
  889SOL     OW 3565   0.150   6.269   5.216
  889SOL    HW1 3566   0.076   6.243   5.278
  889SOL    HW2 3567   0.225   6.310   5.268
  890SOL     OW 3568   2.732   4.690   2.258
  890SOL    HW1 3569   2.643   4.713   2.218
  890SOL    HW2 3570   2.802   4.693   2.187
  891SOL     OW 3571   5.716   2.612   1.241
  891SOL    HW1 3572   5.812   2.638   1.250
  891SOL    HW2 3573   5.701   2.525   1.287
  892SOL     OW 3574   2.516   3.635   1.012
  892SOL    HW1 3575   2.501   3.551   1.065
  892SOL    HW2 3576   2.550   3.611   0.921
  893SOL     OW 3577   1.407   0.501   0.292
  893SOL    HW1 3578   1.402   0.462   0.384
  893SOL    HW2 3579   1.397   0.600   0.298
  894SOL     OW 3580   1.329   5.622   4.204
  894SOL    HW1 3581   1.397   5.688   4.172
  894SOL    HW2 3582   1.286   5.656   4.288
  895SOL     OW 3583   2.214   0.348   4.288
  895SOL    HW1 3584   2.270   0.291   4.348
  895SOL    HW2 3585   2.143   0.292   4.246
  896SOL     OW 3586   6.076   6.554   3.377
  896SOL    HW1 3587   6.065   6.555   3.277
  896SOL    HW2 3588   6.058   6.462   3.411
  897SOL     OW 3589   5.037   2.814   6.673
  897SOL    HW1 3590   5.121   2.825   6.726
  897SOL    HW2 3591   5.011   2.901   6.632
  898SOL     OW 3592   5.414   6.368   3.852
  898SOL    HW1 3593   5.426   6.270   3.840
  898SOL    HW2 3594   5.327   6.386   3.898
  899SOL     OW 3595   0.277   4.926   6.761
  899SOL    HW1 3596   0.249   4.839   6.720
  899SOL    HW2 3597   0.216   4.999   6.729
  900SOL     OW 3598   0.247   6.310   3.407
  900SOL    HW1 3599   0.223   6.213   3.411
  900SOL    HW2 3600   0.283   6.339   3.496
  901SOL     OW 3601   6.630   1.197   4.063
  901SOL    HW1 3602   6.556   1.179   3.998
  901SOL    HW2 3603   6.702   1.251   4.017
  902SOL     OW 3604   6.773   0.342   6.335
  902SOL    HW1 3605   6.768   0.313   6.430
  902SOL    HW2 3606   6.698   0.299   6.283
  903SOL     OW 3607   0.259   4.789   1.112
  903SOL    HW1 3608   0.296   4.845   1.186
  903SOL    HW2 3609   0.185   4.838   1.067
  904SOL     OW 3610   1.602   1.599   3.412
  904SOL    HW1 3611   1.600   1.672   3.343
  904SOL    HW2 3612   1.697   1.577   3.434
  905SOL     OW 3613   5.253   2.286   5.654
  905SOL    HW1 3614   5.276   2.365   5.711
  905SOL    HW2 3615   5.188   2.314   5.583
  906SOL     OW 3616   0.098   4.338   6.180
  906SOL    HW1 3617   0.130   4.262   6.123
  906SOL    HW2 3618   7.024   4.337   6.184
  907SOL     OW 3619   6.196   2.346   2.499
  907SOL    HW1 3620   6.097   2.357   2.507
  907SOL    HW2 3621   6.241   2.388   2.577
  908SOL     OW 3622   1.722   0.054   3.800
  908SOL    HW1 3623   1.733   0.028   3.704
  908SOL    HW2 3624   1.655   0.129   3.806
  909SOL     OW 3625   3.388   0.817   1.213
  909SOL    HW1 3626   3.381   0.828   1.114
  909SOL    HW2 3627   3.464   0.871   1.247
  910SOL     OW 3628   1.835   1.235   0.639
  910SOL    HW1 3629   1.828   1.138   0.664
  910SOL    HW2 3630   1.832   1.244   0.540
  911SOL     OW 3631   0.567   4.231   1.123
  911SOL    HW1 3632   0.546   4.187   1.036
  911SOL    HW2 3633   0.619   4.315   1.106
  912SOL     OW 3634   7.019   0.919   6.119
  912SOL    HW1 3635   6.926   0.900   6.087
  912SOL    HW2 3636   0.024   0.844   6.179
  913SOL     OW 3637   2.460   0.927   2.545
  913SOL    HW1 3638   2.472   1.008   2.488
  913SOL    HW2 3639   2.470   0.952   2.641
  914SOL     OW 3640   2.769   6.059   3.680
  914SOL    HW1 3641   2.860   6.033   3.645
  914SOL    HW2 3642   2.775   6.149   3.723
  915SOL     OW 3643   0.544   2.850   7.016
  915SOL    HW1 3644   0.508   2.758   7.002
  915SOL    HW2 3645   0.497   2.893   0.068
  916SOL     OW 3646   2.661   2.312   2.975
  916SOL    HW1 3647   2.654   2.267   2.886
  916SOL    HW2 3648   2.591   2.383   2.982
  917SOL     OW 3649   4.192   1.563   1.491
  917SOL    HW1 3650   4.184   1.659   1.516
  917SOL    HW2 3651   4.102   1.519   1.499
  918SOL     OW 3652   2.475   6.076   6.463
  918SOL    HW1 3653   2.399   6.137   6.485
  918SOL    HW2 3654   2.439   5.991   6.426
  919SOL     OW 3655   1.578   5.988   1.619
  919SOL    HW1 3656   1.673   6.004   1.595
  919SOL    HW2 3657   1.534   6.074   1.644
  920SOL     OW 3658   2.789   0.393   3.163
  920SOL    HW1 3659   2.868   0.369   3.219
  920SOL    HW2 3660   2.780   0.326   3.089
  921SOL     OW 3661   5.659   5.035   4.406
  921SOL    HW1 3662   5.695   5.021   4.498
  921SOL    HW2 3663   5.615   4.950   4.374
  922SOL     OW 3664   3.144   3.534   6.954
  922SOL    HW1 3665   3.158   3.613   6.894
  922SOL    HW2 3666   3.202   3.543   0.009
  923SOL     OW 3667   3.085   6.643   6.526
  923SOL    HW1 3668   3.169   6.591   6.537
  923SOL    HW2 3669   3.098   6.714   6.456
  924SOL     OW 3670   6.187   3.987   2.447
  924SOL    HW1 3671   6.269   4.035   2.415
  924SOL    HW2 3672   6.185   3.986   2.547
  925SOL     OW 3673   0.275   1.984   5.066
  925SOL    HW1 3674   0.225   2.017   5.147
  925SOL    HW2 3675   0.235   2.026   4.984
  926SOL     OW 3676   5.065   6.261   0.304
  926SOL    HW1 3677   4.993   6.221   0.360
  926SOL    HW2 3678   5.055   6.230   0.209
  927SOL     OW 3679   4.565   4.456   4.306
  927SOL    HW1 3680   4.625   4.408   4.370
  927SOL    HW2 3681   4.572   4.415   4.215
  928SOL     OW 3682   2.031   0.610   1.379
  928SOL    HW1 3683   2.051   0.573   1.288
  928SOL    HW2 3684   1.986   0.699   1.369
  929SOL     OW 3685   0.264   2.870   2.842
  929SOL    HW1 3686   0.186   2.905   2.894
  929SOL    HW2 3687   0.232   2.817   2.763
  930SOL     OW 3688   5.392   5.016   4.252
  930SOL    HW1 3689   5.454   5.048   4.180
  930SOL    HW2 3690   5.427   4.931   4.292
  931SOL     OW 3691   1.395   2.263   2.458
  931SOL    HW1 3692   1.426   2.211   2.378
  931SOL    HW2 3693   1.373   2.201   2.533
  932SOL     OW 3694   4.497   5.772   0.898
  932SOL    HW1 3695   4.473   5.689   0.948
  932SOL    HW2 3696   4.429   5.789   0.827
  933SOL     OW 3697   1.751   5.041   2.715
  933SOL    HW1 3698   1.800   5.027   2.629
  933SOL    HW2 3699   1.661   5.081   2.696
  934SOL     OW 3700   3.479   1.328   5.349
  934SOL    HW1 3701   3.414   1.387   5.397
  934SOL    HW2 3702   3.442   1.305   5.258
  935SOL     OW 3703   3.867   3.078   6.280
  935SOL    HW1 3704   3.918   3.157   6.313
  935SOL    HW2 3705   3.912   3.040   6.199
  936SOL     OW 3706   0.796   0.429   0.673
  936SOL    HW1 3707   0.712   0.376   0.686
  936SOL    HW2 3708   0.773   0.524   0.654
  937SOL     OW 3709   4.218   1.619   4.708
  937SOL    HW1 3710   4.178   1.664   4.628
  937SOL    HW2 3711   4.170   1.533   4.725
  938SOL     OW 3712   0.508   3.069   6.018
  938SOL    HW1 3713   0.557   3.061   6.105
  938SOL    HW2 3714   0.492   2.977   5.980
  939SOL     OW 3715   5.218   1.556   5.780
  939SOL    HW1 3716   5.177   1.470   5.751
  939SOL    HW2 3717   5.307   1.539   5.821
  940SOL     OW 3718   6.762   0.906   3.575
  940SOL    HW1 3719   6.813   0.856   3.645
  940SOL    HW2 3720   6.692   0.961   3.618
  941SOL     OW 3721   5.736   1.584   3.645
  941SOL    HW1 3722   5.730   1.611   3.549
  941SOL    HW2 3723   5.814   1.522   3.657
  942SOL     OW 3724   5.126   6.676   5.437
  942SOL    HW1 3725   5.033   6.640   5.430
  942SOL    HW2 3726   5.191   6.600   5.442
  943SOL     OW 3727   5.999   2.486   1.828
  943SOL    HW1 3728   6.088   2.525   1.803
  943SOL    HW2 3729   6.010   2.390   1.854
  944SOL     OW 3730   5.900   3.634   4.522
  944SOL    HW1 3731   5.947   3.722   4.514
  944SOL    HW2 3732   5.968   3.560   4.520
  945SOL     OW 3733   5.430   4.547   3.988
  945SOL    HW1 3734   5.355   4.613   3.985
  945SOL    HW2 3735   5.461   4.527   3.895
  946SOL     OW 3736   6.060   3.092   5.809
  946SOL    HW1 3737   6.097   3.118   5.898
  946SOL    HW2 3738   6.074   2.994   5.796
  947SOL     OW 3739   3.341   2.597   6.289
  947SOL    HW1 3740   3.369   2.552   6.204
  947SOL    HW2 3741   3.412   2.584   6.358
  948SOL     OW 3742   3.871   1.813   0.847
  948SOL    HW1 3743   3.953   1.868   0.833
  948SOL    HW2 3744   3.808   1.861   0.908
  949SOL     OW 3745   6.275   5.123   6.647
  949SOL    HW1 3746   6.180   5.128   6.679
  949SOL    HW2 3747   6.328   5.066   6.710
  950SOL     OW 3748   4.163   5.626   0.924
  950SOL    HW1 3749   4.109   5.557   0.876
  950SOL    HW2 3750   4.232   5.581   0.980
  951SOL     OW 3751   0.833   0.746   1.584
  951SOL    HW1 3752   0.748   0.698   1.608
  951SOL    HW2 3753   0.909   0.706   1.634
  952SOL     OW 3754   5.249   0.842   3.003
  952SOL    HW1 3755   5.268   0.861   3.099
  952SOL    HW2 3756   5.325   0.791   2.963
  953SOL     OW 3757   4.513   5.867   6.120
  953SOL    HW1 3758   4.508   5.941   6.052
  953SOL    HW2 3759   4.492   5.903   6.210
  954SOL     OW 3760   5.846   0.392   1.268
  954SOL    HW1 3761   5.796   0.423   1.349
  954SOL    HW2 3762   5.850   0.467   1.201
  955SOL     OW 3763   0.896   5.885   3.269
  955SOL    HW1 3764   0.798   5.901   3.281
  955SOL    HW2 3765   0.945   5.973   3.272
  956SOL     OW 3766   1.780   2.044   0.990
  956SOL    HW1 3767   1.871   2.065   0.952
  956SOL    HW2 3768   1.731   1.982   0.929
  957SOL     OW 3769   1.858   4.782   4.961
  957SOL    HW1 3770   1.777   4.836   4.936
  957SOL    HW2 3771   1.832   4.686   4.970
  958SOL     OW 3772   5.470   1.826   1.385
  958SOL    HW1 3773   5.446   1.750   1.446
  958SOL    HW2 3774   5.394   1.891   1.382
  959SOL     OW 3775   3.192   4.830   3.129
  959SOL    HW1 3776   3.115   4.769   3.108
  959SOL    HW2 3777   3.248   4.842   3.048
  960SOL     OW 3778   1.952   5.663   4.508
  960SOL    HW1 3779   1.937   5.720   4.589
  960SOL    HW2 3780   2.041   5.685   4.468
  961SOL     OW 3781   4.224   6.549   1.540
  961SOL    HW1 3782   4.148   6.553   1.475
  961SOL    HW2 3783   4.189   6.523   1.630
  962SOL     OW 3784   1.848   0.838   3.572
  962SOL    HW1 3785   1.885   0.750   3.542
  962SOL    HW2 3786   1.772   0.864   3.513
  963SOL     OW 3787   6.373   0.733   1.571
  963SOL    HW1 3788   6.455   0.748   1.516
  963SOL    HW2 3789   6.309   0.809   1.559
  964SOL     OW 3790   5.455   3.709   1.939
  964SOL    HW1 3791   5.457   3.741   1.844
  964SOL    HW2 3792   5.514   3.767   1.995
  965SOL     OW 3793   0.453   1.609   0.419
  965SOL    HW1 3794   0.418   1.589   0.511
  965SOL    HW2 3795   0.398   1.682   0.377
  966SOL     OW 3796   6.040   1.140   2.629
  966SOL    HW1 3797   6.056   1.048   2.666
  966SOL    HW2 3798   6.098   1.154   2.549
  967SOL     OW 3799   0.771   5.625   0.199
  967SOL    HW1 3800   0.755   5.680   0.281
  967SOL    HW2 3801   0.791   5.530   0.226
  968SOL     OW 3802   4.695   2.674   2.239
  968SOL    HW1 3803   4.653   2.625   2.315
  968SOL    HW2 3804   4.701   2.771   2.262
  969SOL     OW 3805   4.576   6.472   6.115
  969SOL    HW1 3806   4.675   6.480   6.108
  969SOL    HW2 3807   4.549   6.376   6.100
  970SOL     OW 3808   4.380   1.883   5.532
  970SOL    HW1 3809   4.466   1.919   5.494
  970SOL    HW2 3810   4.304   1.911   5.473
  971SOL     OW 3811   6.770   1.444   2.088
  971SOL    HW1 3812   6.671   1.429   2.090
  971SOL    HW2 3813   6.802   1.445   1.993
  972SOL     OW 3814   6.602   4.945   0.702
  972SOL    HW1 3815   6.528   4.898   0.751
  972SOL    HW2 3816   6.669   4.877   0.672
  973SOL     OW 3817   6.470   4.641   6.636
  973SOL    HW1 3818   6.454   4.561   6.578
  973SOL    HW2 3819   6.509   4.611   6.723
  974SOL     OW 3820   3.219   0.187   3.220
  974SOL    HW1 3821   3.287   0.260   3.205
  974SOL    HW2 3822   3.159   0.181   3.140
  975SOL     OW 3823   2.621   5.977   5.656
  975SOL    HW1 3824   2.653   5.886   5.630
  975SOL    HW2 3825   2.694   6.026   5.703
  976SOL     OW 3826   6.596   2.980   3.220
  976SOL    HW1 3827   6.601   2.881   3.234
  976SOL    HW2 3828   6.544   3.000   3.138
  977SOL     OW 3829   1.595   1.058   3.849
  977SOL    HW1 3830   1.619   1.122   3.923
  977SOL    HW2 3831   1.615   0.965   3.878
  978SOL     OW 3832   5.616   4.253   3.991
  978SOL    HW1 3833   5.540   4.191   3.972
  978SOL    HW2 3834   5.593   4.311   4.069
  979SOL     OW 3835   6.334   0.469   3.509
  979SOL    HW1 3836   6.291   0.466   3.419
  979SOL    HW2 3837   6.381   0.382   3.527
  980SOL     OW 3838   5.318   2.250   3.896
  980SOL    HW1 3839   5.414   2.275   3.905
  980SOL    HW2 3840   5.311   2.153   3.871
  981SOL     OW 3841   1.068   1.424   4.215
  981SOL    HW1 3842   1.088   1.489   4.141
  981SOL    HW2 3843   1.101   1.333   4.190
  982SOL     OW 3844   1.118   2.359   1.521
  982SOL    HW1 3845   1.116   2.260   1.504
  982SOL    HW2 3846   1.134   2.407   1.436
  983SOL     OW 3847   6.320   1.889   2.954
  983SOL    HW1 3848   6.329   1.950   3.033
  983SOL    HW2 3849   6.234   1.909   2.907
  984SOL     OW 3850   4.559   1.353   5.427
  984SOL    HW1 3851   4.479   1.311   5.469
  984SOL    HW2 3852   4.577   1.310   5.338
  985SOL     OW 3853   3.093   5.519   0.867
  985SOL    HW1 3854   2.998   5.493   0.852
  985SOL    HW2 3855   3.154   5.460   0.813
  986SOL     OW 3856   4.995   5.308   6.232
  986SOL    HW1 3857   4.951   5.376   6.291
  986SOL    HW2 3858   4.924   5.254   6.186
  987SOL     OW 3859   3.029   6.306   1.594
  987SOL    HW1 3860   3.074   6.216   1.596
  987SOL    HW2 3861   3.059   6.360   1.673
  988SOL     OW 3862   3.838   2.619   0.845
  988SOL    HW1 3863   3.757   2.655   0.892
  988SOL    HW2 3864   3.843   2.658   0.753
  989SOL     OW 3865   1.037   0.265   5.977
  989SOL    HW1 3866   1.019   0.234   5.884
  989SOL    HW2 3867   1.065   0.360   5.976
  990SOL     OW 3868   4.891   0.442   4.032
  990SOL    HW1 3869   4.986   0.412   4.027
  990SOL    HW2 3870   4.839   0.377   4.088
  991SOL     OW 3871   1.207   2.208   4.635
  991SOL    HW1 3872   1.305   2.195   4.618
  991SOL    HW2 3873   1.176   2.143   4.703
  992SOL     OW 3874   0.264   3.055   6.486
  992SOL    HW1 3875   0.184   3.043   6.426
  992SOL    HW2 3876   0.246   3.012   6.574
  993SOL     OW 3877   3.558   4.862   2.614
  993SOL    HW1 3878   3.534   4.918   2.535
  993SOL    HW2 3879   3.553   4.765   2.590
  994SOL     OW 3880   3.798   3.740   2.251
  994SOL    HW1 3881   3.825   3.831   2.217
  994SOL    HW2 3882   3.758   3.688   2.175
  995SOL     OW 3883   1.922   3.109   6.133
  995SOL    HW1 3884   1.853   3.178   6.112
  995SOL    HW2 3885   1.896   3.060   6.217
  996SOL     OW 3886   1.938   3.449   2.811
  996SOL    HW1 3887   1.895   3.508   2.879
  996SOL    HW2 3888   2.023   3.412   2.849
  997SOL     OW 3889   0.424   0.922   1.128
  997SOL    HW1 3890   0.493   0.993   1.138
  997SOL    HW2 3891   0.443   0.869   1.045
  998SOL     OW 3892   4.038   6.542   1.929
  998SOL    HW1 3893   4.011   6.605   2.002
  998SOL    HW2 3894   4.095   6.589   1.863
  999SOL     OW 3895   5.816   5.547   0.689
  999SOL    HW1 3896   5.799   5.570   0.785
  999SOL    HW2 3897   5.801   5.628   0.632
 1000SOL     OW 3898   2.317   2.307   3.422
 1000SOL    HW1 3899   2.379   2.280   3.496
 1000SOL    HW2 3900   2.368   2.359   3.354
 1001SOL     OW 3901   4.682   6.735   6.608
 1001SOL    HW1 3902   4.633   6.709   6.525
 1001SOL    HW2 3903   4.618   6.776   6.673
 1002SOL     OW 3904   5.641   1.757   6.540
 1002SOL    HW1 3905   5.624   1.845   6.495
 1002SOL    HW2 3906   5.554   1.716   6.568
 1003SOL     OW 3907   2.954   6.116   2.568
 1003SOL    HW1 3908   2.897   6.135   2.648
 1003SOL    HW2 3909   2.980   6.020   2.567
 1004SOL     OW 3910   6.789   0.232   6.576
 1004SOL    HW1 3911   6.843   0.148   6.562
 1004SOL    HW2 3912   6.846   0.301   6.621
 1005SOL     OW 3913   0.458   0.419   2.545
 1005SOL    HW1 3914   0.446   0.411   2.644
 1005SOL    HW2 3915   0.454   0.328   2.504
 1006SOL     OW 3916   2.193   5.233   1.727
 1006SOL    HW1 3917   2.194   5.223   1.627
 1006SOL    HW2 3918   2.141   5.314   1.752
 1007SOL     OW 3919   6.557   1.154   3.596
 1007SOL    HW1 3920   6.503   1.124   3.518
 1007SOL    HW2 3921   6.545   1.253   3.610
 1008SOL     OW 3922   0.860   2.492   3.852
 1008SOL    HW1 3923   0.838   2.507   3.949
 1008SOL    HW2 3924   0.879   2.580   3.808
 1009SOL     OW 3925   6.837   5.645   4.308
 1009SOL    HW1 3926   6.804   5.563   4.262
 1009SOL    HW2 3927   6.926   5.671   4.270
 1010SOL     OW 3928   4.244   1.979   0.639
 1010SOL    HW1 3929   4.289   1.997   0.551
 1010SOL    HW2 3930   4.146   1.970   0.625
 1011SOL     OW 3931   2.722   5.523   4.067
 1011SOL    HW1 3932   2.680   5.603   4.109
 1011SOL    HW2 3933   2.735   5.452   4.136
 1012SOL     OW 3934   6.361   5.405   0.432
 1012SOL    HW1 3935   6.275   5.390   0.383
 1012SOL    HW2 3936   6.365   5.343   0.511
 1013SOL     OW 3937   1.340   0.942   6.867
 1013SOL    HW1 3938   1.319   1.040   6.872
 1013SOL    HW2 3939   1.410   0.926   6.798
 1014SOL     OW 3940   4.490   5.614   6.015
 1014SOL    HW1 3941   4.409   5.616   5.957
 1014SOL    HW2 3942   4.518   5.708   6.036
 1015SOL     OW 3943   3.633   6.488   5.121
 1015SOL    HW1 3944   3.578   6.441   5.053
 1015SOL    HW2 3945   3.614   6.586   5.117
 1016SOL     OW 3946   3.571   2.372   1.090
 1016SOL    HW1 3947   3.596   2.331   1.003
 1016SOL    HW2 3948   3.483   2.420   1.080
 1017SOL     OW 3949   4.746   2.527   0.805
 1017SOL    HW1 3950   4.777   2.475   0.726
 1017SOL    HW2 3951   4.805   2.607   0.818
 1018SOL     OW 3952   1.636   3.049   3.525
 1018SOL    HW1 3953   1.625   2.990   3.445
 1018SOL    HW2 3954   1.658   2.993   3.605
 1019SOL     OW 3955   0.247   1.416   0.142
 1019SOL    HW1 3956   0.318   1.382   0.205
 1019SOL    HW2 3957   0.286   1.428   0.051
 1020SOL     OW 3958   2.353   0.508   0.980
 1020SOL    HW1 3959   2.437   0.466   1.015
 1020SOL    HW2 3960   2.376   0.568   0.904
 1021SOL     OW 3961   6.602   1.110   1.919
 1021SOL    HW1 3962   6.613   1.017   1.882
 1021SOL    HW2 3963   6.506   1.137   1.913
 1022SOL     OW 3964   4.282   3.509   6.204
 1022SOL    HW1 3965   4.282   3.436   6.136
 1022SOL    HW2 3966   4.190   3.519   6.242
 1023SOL     OW 3967   5.786   0.372   2.543
 1023SOL    HW1 3968   5.691   0.341   2.554
 1023SOL    HW2 3969   5.846   0.294   2.530
 1024SOL     OW 3970   6.264   1.931   4.377
 1024SOL    HW1 3971   6.312   1.968   4.297
 1024SOL    HW2 3972   6.299   1.839   4.395
 1025SOL     OW 3973   3.268   4.556   0.730
 1025SOL    HW1 3974   3.200   4.629   0.722
 1025SOL    HW2 3975   3.240   4.478   0.675
 1026SOL     OW 3976   1.795   1.900   0.445
 1026SOL    HW1 3977   1.810   1.803   0.464
 1026SOL    HW2 3978   1.877   1.938   0.403
 1027SOL     OW 3979   2.804   5.041   1.613
 1027SOL    HW1 3980   2.751   5.117   1.576
 1027SOL    HW2 3981   2.786   4.958   1.559
 1028SOL     OW 3982   2.060   6.001   6.803
 1028SOL    HW1 3983   2.057   5.937   6.880
 1028SOL    HW2 3984   2.142   6.057   6.810
 1029SOL     OW 3985   1.722   0.405   0.209
 1029SOL    HW1 3986   1.654   0.446   0.149
 1029SOL    HW2 3987   1.677   0.344   0.274
 1030SOL     OW 3988   3.674   3.239   5.066
 1030SOL    HW1 3989   3.676   3.315   5.001
 1030SOL    HW2 3990   3.707   3.156   5.021
 1031SOL     OW 3991   3.333   4.998   1.244
 1031SOL    HW1 3992   3.353   5.061   1.169
 1031SOL    HW2 3993   3.250   5.028   1.292
 1032SOL     OW 3994   1.843   1.500   5.575
 1032SOL    HW1 3995   1.783   1.422   5.595
 1032SOL    HW2 3996   1.914   1.472   5.510
 1033SOL     OW 3997   1.855   5.543   1.919
 1033SOL    HW1 3998   1.830   5.517   2.013
 1033SOL    HW2 3999   1.857   5.642   1.912
 1034SOL     OW 4000   2.210   5.833   3.989
 1034SOL    HW1 4001   2.299   5.863   4.025
 1034SOL    HW2 4002   2.140   5.900   4.013
 1035SOL     OW 4003   2.844   1.690   4.543
 1035SOL    HW1 4004   2.939   1.679   4.574
 1035SOL    HW2 4005   2.815   1.607   4.496
 1036SOL     OW 4006   4.416   1.998   1.369
 1036SOL    HW1 4007   4.516   1.993   1.377
 1036SOL    HW2 4008   4.379   2.049   1.447
 1037SOL     OW 4009   0.927   0.843   0.931
 1037SOL    HW1 4010   0.856   0.842   0.860
 1037SOL    HW2 4011   0.980   0.927   0.923
 1038SOL     OW 4012   1.132   1.207   5.439
 1038SOL    HW1 4013   1.179   1.238   5.356
 1038SOL    HW2 4014   1.197   1.155   5.495
 1039SOL     OW 4015   3.692   1.351   4.467
 1039SOL    HW1 4016   3.695   1.273   4.404
 1039SOL    HW2 4017   3.750   1.425   4.433
 1040SOL     OW 4018   5.867   3.381   2.837
 1040SOL    HW1 4019   5.828   3.309   2.895
 1040SOL    HW2 4020   5.894   3.341   2.749
 1041SOL     OW 4021   6.624   0.527   4.019
 1041SOL    HW1 4022   6.713   0.523   4.064
 1041SOL    HW2 4023   6.569   0.600   4.058
 1042SOL     OW 4024   4.660   5.111   1.378
 1042SOL    HW1 4025   4.682   5.149   1.288
 1042SOL    HW2 4026   4.729   5.043   1.404
 1043SOL     OW 4027   3.767   1.629   6.663
 1043SOL    HW1 4028   3.728   1.543   6.631
 1043SOL    HW2 4029   3.695   1.698   6.673
 1044SOL     OW 4030   3.896   2.397   1.609
 1044SOL    HW1 4031   3.849   2.460   1.671
 1044SOL    HW2 4032   3.840   2.316   1.594
 1045SOL     OW 4033   3.253   1.179   2.379
 1045SOL    HW1 4034   3.311   1.098   2.366
 1045SOL    HW2 4035   3.223   1.213   2.289
 1046SOL     OW 4036   3.044   0.004   0.321
 1046SOL    HW1 4037   3.087   0.092   0.303
 1046SOL    HW2 4038   3.060   7.003   0.416
 1047SOL     OW 4039   1.581   5.043   3.063
 1047SOL    HW1 4040   1.639   5.114   3.022
 1047SOL    HW2 4041   1.593   5.043   3.162
 1048SOL     OW 4042   5.218   5.330   5.090
 1048SOL    HW1 4043   5.118   5.326   5.083
 1048SOL    HW2 4044   5.256   5.240   5.070
 1049SOL     OW 4045   7.009   4.026   5.054
 1049SOL    HW1 4046   6.959   4.104   5.016
 1049SOL    HW2 4047   7.019   4.039   5.153
 1050SOL     OW 4048   3.787   7.000   6.701
 1050SOL    HW1 4049   3.782   0.074   6.704
 1050SOL    HW2 4050   3.822   6.971   6.611
 1051SOL     OW 4051   3.949   4.884   0.499
 1051SOL    HW1 4052   4.004   4.942   0.438
 1051SOL    HW2 4053   3.983   4.790   0.495
 1052SOL     OW 4054   4.009   0.019   4.736
 1052SOL    HW1 4055   4.035   7.011   4.645
 1052SOL    HW2 4056   4.065   6.998   4.805
 1053SOL     OW 4057   4.920   5.468   3.694
 1053SOL    HW1 4058   4.823   5.468   3.717
 1053SOL    HW2 4059   4.948   5.375   3.668
 1054SOL     OW 4060   3.170   4.912   5.457
 1054SOL    HW1 4061   3.212   4.977   5.394
 1054SOL    HW2 4062   3.182   4.944   5.551
 1055SOL     OW 4063   5.324   5.345   4.803
 1055SOL    HW1 4064   5.248   5.281   4.817
 1055SOL    HW2 4065   5.325   5.412   4.876
 1056SOL     OW 4066   1.774   6.079   5.036
 1056SOL    HW1 4067   1.676   6.073   5.052
 1056SOL    HW2 4068   1.791   6.099   4.939
 1057SOL     OW 4069   3.016   3.185   2.973
 1057SOL    HW1 4070   2.948   3.257   2.990
 1057SOL    HW2 4071   3.037   3.139   3.059
 1058SOL     OW 4072   4.071   1.628   2.449
 1058SOL    HW1 4073   3.986   1.622   2.502
 1058SOL    HW2 4074   4.104   1.723   2.450
 1059SOL     OW 4075   4.359   1.182   2.011
 1059SOL    HW1 4076   4.314   1.112   2.065
 1059SOL    HW2 4077   4.415   1.137   1.940
 1060SOL     OW 4078   0.779   3.769   5.392
 1060SOL    HW1 4079   0.875   3.782   5.419
 1060SOL    HW2 4080   0.730   3.724   5.466
 1061SOL     OW 4081   3.093   4.960   1.644
 1061SOL    HW1 4082   3.016   5.023   1.633
 1061SOL    HW2 4083   3.126   4.932   1.554
 1062SOL     OW 4084   6.830   5.600   5.375
 1062SOL    HW1 4085   6.823   5.557   5.465
 1062SOL    HW2 4086   6.887   5.681   5.381
 1063SOL     OW 4087   1.597   3.480   1.635
 1063SOL    HW1 4088   1.654   3.469   1.553
 1063SOL    HW2 4089   1.502   3.495   1.607
 1064SOL     OW 4090   1.351   3.365   2.229
 1064SOL    HW1 4091   1.425   3.323   2.176
 1064SOL    HW2 4092   1.375   3.460   2.249
 1065SOL     OW 4093   5.495   0.214   3.874
 1065SOL    HW1 4094   5.447   0.270   3.941
 1065SOL    HW2 4095   5.547   0.143   3.921
 1066SOL     OW 4096   5.045   0.398   4.353
 1066SOL    HW1 4097   5.089   0.465   4.293
 1066SOL    HW2 4098   4.950   0.424   4.368
 1067SOL     OW 4099   1.764   2.299   1.673
 1067SOL    HW1 4100   1.758   2.395   1.644
 1067SOL    HW2 4101   1.775   2.240   1.593
 1068SOL     OW 4102   0.489   3.820   2.216
 1068SOL    HW1 4103   0.488   3.739   2.156
 1068SOL    HW2 4104   0.546   3.801   2.296
 1069SOL     OW 4105   3.943   4.418   0.623
 1069SOL    HW1 4106   4.030   4.403   0.670
 1069SOL    HW2 4107   3.875   4.353   0.657
 1070SOL     OW 4108   1.957   0.655   0.260
 1070SOL    HW1 4109   1.908   0.582   0.309
 1070SOL    HW2 4110   1.924   0.660   0.166
 1071SOL     OW 4111   4.393   6.455   2.865
 1071SOL    HW1 4112   4.309   6.509   2.872
 1071SOL    HW2 4113   4.403   6.422   2.771
 1072SOL     OW 4114   3.094   6.366   2.760
 1072SOL    HW1 4115   3.189   6.395   2.771
 1072SOL    HW2 4116   3.090   6.290   2.695
 1073SOL     OW 4117   3.041   4.882   2.369
 1073SOL    HW1 4118   2.993   4.871   2.282
 1073SOL    HW2 4119   3.140   4.872   2.354
 1074SOL     OW 4120   1.356   5.158   1.719
 1074SOL    HW1 4121   1.443   5.207   1.720
 1074SOL    HW2 4122   1.333   5.128   1.812
 1075SOL     OW 4123   5.783   4.511   3.345
 1075SOL    HW1 4124   5.833   4.429   3.372
 1075SOL    HW2 4125   5.822   4.591   3.390
 1076SOL     OW 4126   0.636   4.441   4.583
 1076SOL    HW1 4127   0.631   4.395   4.671
 1076SOL    HW2 4128   0.694   4.389   4.521
 1077SOL     OW 4129   5.442   0.229   1.108
 1077SOL    HW1 4130   5.377   0.165   1.068
 1077SOL    HW2 4131   5.421   0.244   1.204
 1078SOL     OW 4132   1.338   1.747   1.266
 1078SOL    HW1 4133   1.418   1.777   1.214
 1078SOL    HW2 4134   1.367   1.711   1.354
 1079SOL     OW 4135   2.405   5.681   3.806
 1079SOL    HW1 4136   2.350   5.717   3.881
 1079SOL    HW2 4137   2.488   5.736   3.796
 1080SOL     OW 4138   2.354   5.515   3.563
 1080SOL    HW1 4139   2.394   5.574   3.634
 1080SOL    HW2 4140   2.366   5.419   3.589
 1081SOL     OW 4141   1.544   0.875   6.238
 1081SOL    HW1 4142   1.502   0.823   6.164
 1081SOL    HW2 4143   1.553   0.971   6.211
 1082SOL     OW 4144   1.049   0.106   5.477
 1082SOL    HW1 4145   1.005   0.136   5.392
 1082SOL    HW2 4146   1.080   0.012   5.467
 1083SOL     OW 4147   3.546   3.151   2.016
 1083SOL    HW1 4148   3.543   3.121   2.111
 1083SOL    HW2 4149   3.641   3.151   1.985
 1084SOL     OW 4150   6.120   4.813   0.921
 1084SOL    HW1 4151   6.136   4.714   0.925
 1084SOL    HW2 4152   6.188   4.859   0.978
 1085SOL     OW 4153   1.788   5.073   4.076
 1085SOL    HW1 4154   1.731   5.153   4.056
 1085SOL    HW2 4155   1.868   5.102   4.128
 1086SOL     OW 4156   5.093   6.142   3.221
 1086SOL    HW1 4157   5.127   6.062   3.173
 1086SOL    HW2 4158   5.106   6.130   3.319
 1087SOL     OW 4159   4.925   2.957   5.364
 1087SOL    HW1 4160   4.955   2.872   5.405
 1087SOL    HW2 4161   4.998   3.025   5.370
 1088SOL     OW 4162   5.674   4.878   3.461
 1088SOL    HW1 4163   5.672   4.940   3.383
 1088SOL    HW2 4164   5.588   4.827   3.464
 1089SOL     OW 4165   0.173   0.394   4.814
 1089SOL    HW1 4166   0.174   0.361   4.908
 1089SOL    HW2 4167   0.081   0.426   4.791
 1090SOL     OW 4168   1.660   1.587   5.959
 1090SOL    HW1 4169   1.687   1.491   5.971
 1090SOL    HW2 4170   1.735   1.647   5.986
 1091SOL     OW 4171   1.510   1.833   4.506
 1091SOL    HW1 4172   1.522   1.739   4.539
 1091SOL    HW2 4173   1.550   1.842   4.415
 1092SOL     OW 4174   2.382   4.147   1.329
 1092SOL    HW1 4175   2.472   4.172   1.293
 1092SOL    HW2 4176   2.383   4.050   1.354
 1093SOL     OW 4177   1.078   2.780   2.376
 1093SOL    HW1 4178   1.115   2.728   2.453
 1093SOL    HW2 4179   1.041   2.867   2.409
 1094SOL     OW 4180   0.386   6.545   1.473
 1094SOL    HW1 4181   0.421   6.522   1.382
 1094SOL    HW2 4182   0.459   6.586   1.527
 1095SOL     OW 4183   5.926   3.369   6.412
 1095SOL    HW1 4184   5.898   3.319   6.330
 1095SOL    HW2 4185   5.929   3.467   6.393
 1096SOL     OW 4186   3.201   4.683   1.561
 1096SOL    HW1 4187   3.168   4.706   1.652
 1096SOL    HW2 4188   3.296   4.653   1.567
 1097SOL     OW 4189   1.472   4.989   5.049
 1097SOL    HW1 4190   1.530   4.935   5.110
 1097SOL    HW2 4191   1.523   5.009   4.965
 1098SOL     OW 4192   4.689   2.296   1.601
 1098SOL    HW1 4193   4.605   2.305   1.654
 1098SOL    HW2 4194   4.743   2.219   1.637
 1099SOL     OW 4195   4.332   2.047   4.016
 1099SOL    HW1 4196   4.419   2.034   4.063
 1099SOL    HW2 4197   4.349   2.084   3.924
 1100SOL     OW 4198   1.610   1.121   6.456
 1100SOL    HW1 4199   1.627   1.024   6.472
 1100SOL    HW2 4200   1.547   1.132   6.378
 1101SOL     OW 4201   5.249   3.198   1.319
 1101SOL    HW1 4202   5.150   3.202   1.326
 1101SOL    HW2 4203   5.284   3.119   1.369
 1102SOL     OW 4204   0.466   4.116   4.126
 1102SOL    HW1 4205   0.369   4.136   4.115
 1102SOL    HW2 4206   0.508   4.104   4.036
 1103SOL     OW 4207   1.605   1.567   1.793
 1103SOL    HW1 4208   1.568   1.534   1.707
 1103SOL    HW2 4209   1.655   1.652   1.778
 1104SOL     OW 4210   2.738   5.002   6.284
 1104SOL    HW1 4211   2.744   4.923   6.346
 1104SOL    HW2 4212   2.643   5.013   6.254
 1105SOL     OW 4213   4.787   4.058   6.947
 1105SOL    HW1 4214   4.870   4.086   6.996
 1105SOL    HW2 4215   4.774   3.960   6.958
 1106SOL     OW 4216   6.796   2.762   5.721
 1106SOL    HW1 4217   6.698   2.774   5.738
 1106SOL    HW2 4218   6.826   2.674   5.760
 1107SOL     OW 4219   0.729   0.331   0.415
 1107SOL    HW1 4220   0.648   0.277   0.391
 1107SOL    HW2 4221   0.718   0.367   0.507
 1108SOL     OW 4222   2.015   0.782   6.179
 1108SOL    HW1 4223   1.944   0.712   6.187
 1108SOL    HW2 4224   2.090   0.760   6.241
 1109SOL     OW 4225   3.889   6.355   3.949
 1109SOL    HW1 4226   3.964   6.290   3.940
 1109SOL    HW2 4227   3.890   6.418   3.871
 1110SOL     OW 4228   2.653   2.838   1.576
 1110SOL    HW1 4229   2.615   2.812   1.488
 1110SOL    HW2 4230   2.689   2.758   1.623
 1111SOL     OW 4231   5.686   0.916   6.776
 1111SOL    HW1 4232   5.640   0.916   6.687
 1111SOL    HW2 4233   5.645   0.848   6.836
 1112SOL     OW 4234   6.605   0.526   2.451
 1112SOL    HW1 4235   6.682   0.479   2.495
 1112SOL    HW2 4236   6.524   0.517   2.508
 1113SOL     OW 4237   6.525   3.412   2.615
 1113SOL    HW1 4238   6.429   3.384   2.622
 1113SOL    HW2 4239   6.532   3.487   2.549
 1114SOL     OW 4240   4.433   0.543   6.135
 1114SOL    HW1 4241   4.515   0.581   6.177
 1114SOL    HW2 4242   4.389   0.612   6.078
 1115SOL     OW 4243   3.606   3.256   0.863
 1115SOL    HW1 4244   3.529   3.212   0.909
 1115SOL    HW2 4245   3.573   3.329   0.804
 1116SOL     OW 4246   4.794   5.581   4.234
 1116SOL    HW1 4247   4.722   5.648   4.224
 1116SOL    HW2 4248   4.871   5.622   4.283
 1117SOL     OW 4249   2.466   2.574   1.494
 1117SOL    HW1 4250   2.472   2.490   1.548
 1117SOL    HW2 4251   2.515   2.562   1.408
 1118SOL     OW 4252   2.378   5.179   3.255
 1118SOL    HW1 4253   2.446   5.122   3.300
 1118SOL    HW2 4254   2.415   5.215   3.170
 1119SOL     OW 4255   4.329   3.982   1.721
 1119SOL    HW1 4256   4.379   3.993   1.635
 1119SOL    HW2 4257   4.334   4.067   1.774
 1120SOL     OW 4258   5.314   0.091   6.186
 1120SOL    HW1 4259   5.231   0.141   6.164
 1120SOL    HW2 4260   5.392   0.154   6.186
 1121SOL     OW 4261   4.985   2.912   1.980
 1121SOL    HW1 4262   4.902   2.948   2.023
 1121SOL    HW2 4263   4.961   2.838   1.917
 1122SOL     OW 4264   5.842   3.253   6.900
 1122SOL    HW1 4265   5.769   3.282   6.837
 1122SOL    HW2 4266   5.822   3.288   6.992
 1123SOL     OW 4267   4.707   1.119   1.948
 1123SOL    HW1 4268   4.657   1.097   1.864
 1123SOL    HW2 4269   4.804   1.131   1.927
 1124SOL     OW 4270   6.619   3.424   5.112
 1124SOL    HW1 4271   6.715   3.395   5.115
 1124SOL    HW2 4272   6.614   3.523   5.101
 1125SOL     OW 4273   2.831   2.740   5.437
 1125SOL    HW1 4274   2.760   2.805   5.411
 1125SOL    HW2 4275   2.816   2.709   5.531
 1126SOL     OW 4276   4.812   0.011   0.754
 1126SOL    HW1 4277   4.842   0.069   0.831
 1126SOL    HW2 4278   4.852   0.046   0.669
 1127SOL     OW 4279   2.659   4.871   0.535
 1127SOL    HW1 4280   2.609   4.846   0.618
 1127SOL    HW2 4281   2.728   4.803   0.516
 1128SOL     OW 4282   3.464   1.852   3.710
 1128SOL    HW1 4283   3.403   1.902   3.648
 1128SOL    HW2 4284   3.557   1.854   3.674
 1129SOL     OW 4285   4.460   0.682   7.018
 1129SOL    HW1 4286   4.544   0.680   6.963
 1129SOL    HW2 4287   4.477   0.635   0.079
 1130SOL     OW 4288   1.471   3.855   0.724
 1130SOL    HW1 4289   1.468   3.806   0.812
 1130SOL    HW2 4290   1.428   3.799   0.653
 1131SOL     OW 4291   0.513   5.906   5.553
 1131SOL    HW1 4292   0.571   5.922   5.633
 1131SOL    HW2 4293   0.423   5.945   5.569
 1132SOL     OW 4294   4.962   0.114   5.573
 1132SOL    HW1 4295   5.003   0.076   5.656
 1132SOL    HW2 4296   5.024   0.182   5.534
 1133SOL     OW 4297   1.047   2.750   1.440
 1133SOL    HW1 4298   1.121   2.791   1.493
 1133SOL    HW2 4299   1.084   2.712   1.355
 1134SOL     OW 4300   5.869   2.448   6.962
 1134SOL    HW1 4301   5.777   2.476   6.933
 1134SOL    HW2 4302   5.909   2.520   7.019
 1135SOL     OW 4303   3.071   2.158   3.647
 1135SOL    HW1 4304   3.015   2.217   3.706
 1135SOL    HW2 4305   3.039   2.166   3.553
 1136SOL     OW 4306   2.670   5.646   3.448
 1136SOL    HW1 4307   2.679   5.557   3.402
 1136SOL    HW2 4308   2.576   5.658   3.480
 1137SOL     OW 4309   1.458   2.024   6.776
 1137SOL    HW1 4310   1.368   1.999   6.741
 1137SOL    HW2 4311   1.475   2.121   6.760
 1138SOL     OW 4312   2.357   3.315   6.306
 1138SOL    HW1 4313   2.350   3.412   6.331
 1138SOL    HW2 4314   2.453   3.288   6.307
 1139SOL     OW 4315   1.268   6.459   2.683
 1139SOL    HW1 4316   1.341   6.423   2.741
 1139SOL    HW2 4317   1.302   6.467   2.589
 1140SOL     OW 4318   3.192   1.535   3.240
 1140SOL    HW1 4319   3.136   1.608   3.277
 1140SOL    HW2 4320   3.261   1.573   3.178
 1141SOL     OW 4321   5.570   5.621   5.208
 1141SOL    HW1 4322   5.643   5.588   5.148
 1141SOL    HW2 4323   5.481   5.599   5.168
 1142SOL     OW 4324   5.422   0.489   4.367
 1142SOL    HW1 4325   5.328   0.491   4.334
 1142SOL    HW2 4326   5.468   0.575   4.342
 1143SOL     OW 4327   3.884   2.184   3.192
 1143SOL    HW1 4328   3.971   2.138   3.178
 1143SOL    HW2 4329   3.899   2.280   3.215
 1144SOL     OW 4330   0.752   4.322   4.013
 1144SOL    HW1 4331   0.751   4.412   4.055
 1144SOL    HW2 4332   0.847   4.293   4.000
 1145SOL     OW 4333   6.937   5.315   4.426
 1145SOL    HW1 4334   6.970   5.410   4.424
 1145SOL    HW2 4335   6.950   5.273   4.337
 1146SOL     OW 4336   6.016   2.117   1.000
 1146SOL    HW1 4337   5.927   2.077   1.021
 1146SOL    HW2 4338   6.088   2.066   1.048
 1147SOL     OW 4339   0.290   4.002   2.273
 1147SOL    HW1 4340   0.278   3.968   2.366
 1147SOL    HW2 4341   0.344   3.937   2.220
 1148SOL     OW 4342   3.676   6.285   6.342
 1148SOL    HW1 4343   3.624   6.366   6.370
 1148SOL    HW2 4344   3.704   6.295   6.247
 1149SOL     OW 4345   6.490   3.560   2.969
 1149SOL    HW1 4346   6.540   3.515   2.895
 1149SOL    HW2 4347   6.498   3.505   3.052
 1150SOL     OW 4348   2.180   5.056   0.717
 1150SOL    HW1 4349   2.210   4.974   0.766
 1150SOL    HW2 4350   2.225   5.137   0.754
 1151SOL     OW 4351   5.953   4.964   6.516
 1151SOL    HW1 4352   5.875   4.928   6.464
 1151SOL    HW2 4353   6.038   4.938   6.469
 1152SOL     OW 4354   1.376   0.112   4.839
 1152SOL    HW1 4355   1.425   0.192   4.807
 1152SOL    HW2 4356   1.346   0.127   4.934
 1153SOL     OW 4357   2.225   5.845   2.871
 1153SOL    HW1 4358   2.278   5.773   2.916
 1153SOL    HW2 4359   2.266   5.866   2.782
 1154SOL     OW 4360   0.756   3.679   2.041
 1154SOL    HW1 4361   0.833   3.659   1.980
 1154SOL    HW2 4362   0.791   3.702   2.132
 1155SOL     OW 4363   3.075   6.165   1.271
 1155SOL    HW1 4364   3.109   6.104   1.342
 1155SOL    HW2 4365   3.151   6.204   1.220
 1156SOL     OW 4366   2.609   0.800   4.206
 1156SOL    HW1 4367   2.580   0.779   4.113
 1156SOL    HW2 4368   2.554   0.747   4.271
 1157SOL     OW 4369   0.213   2.286   4.388
 1157SOL    HW1 4370   0.196   2.375   4.348
 1157SOL    HW2 4371   0.164   2.215   4.337
 1158SOL     OW 4372   5.553   4.726   5.936
 1158SOL    HW1 4373   5.580   4.744   5.841
 1158SOL    HW2 4374   5.457   4.700   5.939
 1159SOL     OW 4375   3.627   5.843   2.638
 1159SOL    HW1 4376   3.633   5.778   2.714
 1159SOL    HW2 4377   3.532   5.848   2.607
 1160SOL     OW 4378   4.124   3.516   2.596
 1160SOL    HW1 4379   4.142   3.565   2.681
 1160SOL    HW2 4380   4.091   3.424   2.617
 1161SOL     OW 4381   5.582   0.210   3.362
 1161SOL    HW1 4382   5.672   0.175   3.337
 1161SOL    HW2 4383   5.583   0.243   3.456
 1162SOL     OW 4384   3.400   3.644   1.785
 1162SOL    HW1 4385   3.455   3.623   1.866
 1162SOL    HW2 4386   3.320   3.583   1.782
 1163SOL     OW 4387   4.823   2.332   1.902
 1163SOL    HW1 4388   4.805   2.249   1.849
 1163SOL    HW2 4389   4.904   2.377   1.865
 1164SOL     OW 4390   5.427   2.647   2.905
 1164SOL    HW1 4391   5.332   2.663   2.932
 1164SOL    HW2 4392   5.451   2.551   2.922
 1165SOL     OW 4393   0.811   3.305   3.548
 1165SOL    HW1 4394   0.799   3.246   3.627
 1165SOL    HW2 4395   0.906   3.301   3.517
 1166SOL     OW 4396   4.205   2.571   6.266
 1166SOL    HW1 4397   4.222   2.603   6.173
 1166SOL    HW2 4398   4.163   2.480   6.262
 1167SOL     OW 4399   4.517   0.797   5.178
 1167SOL    HW1 4400   4.439   0.836   5.129
 1167SOL    HW2 4401   4.494   0.706   5.211
 1168SOL     OW 4402   6.972   6.433   3.724
 1168SOL    HW1 4403   6.931   6.354   3.768
 1168SOL    HW2 4404   6.919   6.515   3.744
 1169SOL     OW 4405   0.813   3.566   1.776
 1169SOL    HW1 4406   0.795   3.659   1.745
 1169SOL    HW2 4407   0.912   3.555   1.790
 1170SOL     OW 4408   3.642   1.422   2.634
 1170SOL    HW1 4409   3.656   1.324   2.639
 1170SOL    HW2 4410   3.583   1.444   2.556
 1171SOL     OW 4411   2.982   5.609   1.310
 1171SOL    HW1 4412   2.928   5.544   1.363
 1171SOL    HW2 4413   2.976   5.700   1.352
 1172SOL     OW 4414   3.311   3.632   4.390
 1172SOL    HW1 4415   3.273   3.707   4.443
 1172SOL    HW2 4416   3.396   3.600   4.432
 1173SOL     OW 4417   3.106   0.798   5.622
 1173SOL    HW1 4418   3.121   0.852   5.705
 1173SOL    HW2 4419   3.046   0.721   5.643
 1174SOL     OW 4420   2.655   6.254   0.777
 1174SOL    HW1 4421   2.704   6.172   0.805
 1174SOL    HW2 4422   2.558   6.245   0.801
 1175SOL     OW 4423   6.255   4.714   6.212
 1175SOL    HW1 4424   6.198   4.718   6.130
 1175SOL    HW2 4425   6.235   4.630   6.262
 1176SOL     OW 4426   5.809   4.677   0.981
 1176SOL    HW1 4427   5.748   4.653   1.057
 1176SOL    HW2 4428   5.904   4.676   1.014
 1177SOL     OW 4429   7.003   2.852   5.884
 1177SOL    HW1 4430   0.021   2.936   5.852
 1177SOL    HW2 4431   6.912   2.844   5.845
 1178SOL     OW 4432   5.474   3.343   2.502
 1178SOL    HW1 4433   5.534   3.389   2.436
 1178SOL    HW2 4434   5.390   3.314   2.455
 1179SOL     OW 4435   1.918   4.269   0.541
 1179SOL    HW1 4436   1.821   4.259   0.519
 1179SOL    HW2 4437   1.941   4.366   0.553
 1180SOL     OW 4438   2.005   1.696   3.852
 1180SOL    HW1 4439   1.977   1.750   3.931
 1180SOL    HW2 4440   2.091   1.649   3.872
 1181SOL     OW 4441   1.308   4.440   3.893
 1181SOL    HW1 4442   1.321   4.395   3.804
 1181SOL    HW2 4443   1.239   4.512   3.884
 1182SOL     OW 4444   1.799   4.386   4.035
 1182SOL    HW1 4445   1.867   4.404   3.964
 1182SOL    HW2 4446   1.719   4.443   4.019
 1183SOL     OW 4447   4.329   5.921   1.663
 1183SOL    HW1 4448   4.231   5.909   1.652
 1183SOL    HW2 4449   4.372   5.926   1.572
 1184SOL     OW 4450   3.048   2.906   5.347
 1184SOL    HW1 4451   3.091   2.904   5.437
 1184SOL    HW2 4452   2.972   2.840   5.345
 1185SOL     OW 4453   2.268   6.856   0.151
 1185SOL    HW1 4454   2.345   6.913   0.179
 1185SOL    HW2 4455   2.212   6.907   0.085
 1186SOL     OW 4456   5.958   0.775   4.624
 1186SOL    HW1 4457   5.911   0.698   4.582
 1186SOL    HW2 4458   6.057   0.767   4.608
 1187SOL     OW 4459   5.893   6.618   4.841
 1187SOL    HW1 4460   5.891   6.561   4.759
 1187SOL    HW2 4461   5.890   6.714   4.814
 1188SOL     OW 4462   2.012   6.580   5.892
 1188SOL    HW1 4463   2.061   6.667   5.883
 1188SOL    HW2 4464   1.952   6.584   5.971
 1189SOL     OW 4465   5.737   1.125   1.417
 1189SOL    HW1 4466   5.645   1.152   1.443
 1189SOL    HW2 4467   5.770   1.054   1.479
 1190SOL     OW 4468   4.230   5.294   3.200
 1190SOL    HW1 4469   4.313   5.238   3.208
 1190SOL    HW2 4470   4.165   5.267   3.271
 1191SOL     OW 4471   3.078   5.555   5.702
 1191SOL    HW1 4472   3.061   5.592   5.611
 1191SOL    HW2 4473   3.068   5.628   5.770
 1192SOL     OW 4474   6.090   4.670   2.991
 1192SOL    HW1 4475   6.170   4.720   2.957
 1192SOL    HW2 4476   6.035   4.637   2.914
 1193SOL     OW 4477   5.154   0.200   4.483
 1193SOL    HW1 4478   5.251   0.194   4.461
 1193SOL    HW2 4479   5.114   0.280   4.438
 1194SOL     OW 4480   6.482   0.856   0.997
 1194SOL    HW1 4481   6.527   0.767   0.990
 1194SOL    HW2 4482   6.387   0.847   0.966
 1195SOL     OW 4483   5.433   0.752   6.178
 1195SOL    HW1 4484   5.517   0.747   6.124
 1195SOL    HW2 4485   5.429   0.674   6.240
 1196SOL     OW 4486   0.183   5.120   2.486
 1196SOL    HW1 4487   0.274   5.103   2.447
 1196SOL    HW2 4488   0.153   5.039   2.537
 1197SOL     OW 4489   3.888   5.636   5.703
 1197SOL    HW1 4490   3.970   5.594   5.666
 1197SOL    HW2 4491   3.857   5.709   5.642
 1198SOL     OW 4492   3.440   1.989   2.972
 1198SOL    HW1 4493   3.513   2.049   3.005
 1198SOL    HW2 4494   3.352   2.037   2.979
 1199SOL     OW 4495   3.063   3.646   1.955
 1199SOL    HW1 4496   3.120   3.728   1.953
 1199SOL    HW2 4497   3.113   3.569   1.915
 1200SOL     OW 4498   3.885   4.122   6.331
 1200SOL    HW1 4499   3.869   4.161   6.240
 1200SOL    HW2 4500   3.895   4.196   6.398
 1201SOL     OW 4501   1.229   1.754   4.530
 1201SOL    HW1 4502   1.170   1.814   4.476
 1201SOL    HW2 4503   1.318   1.797   4.543
 1202SOL     OW 4504   5.006   0.469   4.958
 1202SOL    HW1 4505   5.094   0.459   5.004
 1202SOL    HW2 4506   4.982   0.566   4.954
 1203SOL     OW 4507   5.462   0.474   0.935
 1203SOL    HW1 4508   5.486   0.394   0.990
 1203SOL    HW2 4509   5.363   0.487   0.936
 1204SOL     OW 4510   3.506   0.986   0.424
 1204SOL    HW1 4511   3.420   0.971   0.374
 1204SOL    HW2 4512   3.502   0.936   0.510
 1205SOL     OW 4513   6.366   2.370   5.840
 1205SOL    HW1 4514   6.367   2.453   5.895
 1205SOL    HW2 4515   6.362   2.393   5.743
 1206SOL     OW 4516   1.790   1.715   4.656
 1206SOL    HW1 4517   1.832   1.767   4.582
 1206SOL    HW2 4518   1.856   1.650   4.694
 1207SOL     OW 4519   5.636   0.135   0.217
 1207SOL    HW1 4520   5.725   0.103   0.184
 1207SOL    HW2 4521   5.598   0.201   0.152
 1208SOL     OW 4522   3.643   3.912   2.691
 1208SOL    HW1 4523   3.732   3.898   2.736
 1208SOL    HW2 4524   3.594   3.825   2.689
 1209SOL     OW 4525   6.103   5.731   5.046
 1209SOL    HW1 4526   6.093   5.633   5.028
 1209SOL    HW2 4527   6.062   5.783   4.970
 1210SOL     OW 4528   4.299   0.297   2.596
 1210SOL    HW1 4529   4.320   0.273   2.691
 1210SOL    HW2 4530   4.246   0.382   2.593
 1211SOL     OW 4531   1.471   3.701   3.834
 1211SOL    HW1 4532   1.416   3.778   3.868
 1211SOL    HW2 4533   1.513   3.653   3.912
 1212SOL     OW 4534   1.117   4.366   4.823
 1212SOL    HW1 4535   1.209   4.329   4.833
 1212SOL    HW2 4536   1.062   4.304   4.767
 1213SOL     OW 4537   6.613   2.976   5.232
 1213SOL    HW1 4538   6.555   2.899   5.204
 1213SOL    HW2 4539   6.699   2.972   5.181
 1214SOL     OW 4540   1.808   3.665   4.093
 1214SOL    HW1 4541   1.779   3.608   4.016
 1214SOL    HW2 4542   1.908   3.673   4.093
 1215SOL     OW 4543   2.027   4.365   3.102
 1215SOL    HW1 4544   1.990   4.324   3.185
 1215SOL    HW2 4545   2.017   4.465   3.107
 1216SOL     OW 4546   1.122   6.722   1.529
 1216SOL    HW1 4547   1.126   6.768   1.441
 1216SOL    HW2 4548   1.139   6.624   1.516
 1217SOL     OW 4549   1.193   6.460   0.467
 1217SOL    HW1 4550   1.153   6.552   0.467
 1217SOL    HW2 4551   1.271   6.457   0.406
 1218SOL     OW 4552   0.627   3.680   4.497
 1218SOL    HW1 4553   0.527   3.681   4.490
 1218SOL    HW2 4554   0.665   3.764   4.460
 1219SOL     OW 4555   4.116   5.825   0.751
 1219SOL    HW1 4556   4.139   5.744   0.804
 1219SOL    HW2 4557   4.067   5.891   0.809
 1220SOL     OW 4558   5.650   2.620   2.761
 1220SOL    HW1 4559   5.638   2.585   2.668
 1220SOL    HW2 4560   5.562   2.626   2.806
 1221SOL     OW 4561   5.300   3.384   0.984
 1221SOL    HW1 4562   5.383   3.344   1.024
 1221SOL    HW2 4563   5.285   3.475   1.023
 1222SOL     OW 4564   0.056   6.806   0.652
 1222SOL    HW1 4565   0.023   6.730   0.709
 1222SOL    HW2 4566   0.017   6.798   0.560
 1223SOL     OW 4567   6.089   0.195   6.194
 1223SOL    HW1 4568   6.135   0.189   6.283
 1223SOL    HW2 4569   6.051   0.105   6.171
 1224SOL     OW 4570   4.382   5.927   0.689
 1224SOL    HW1 4571   4.312   5.970   0.632
 1224SOL    HW2 4572   4.436   5.998   0.734
 1225SOL     OW 4573   4.675   1.891   0.407
 1225SOL    HW1 4574   4.749   1.853   0.463
 1225SOL    HW2 4575   4.592   1.837   0.420
 1226SOL     OW 4576   5.957   6.035   1.433
 1226SOL    HW1 4577   5.876   5.980   1.454
 1226SOL    HW2 4578   6.036   5.998   1.483
 1227SOL     OW 4579   5.775   4.007   5.570
 1227SOL    HW1 4580   5.803   4.081   5.509
 1227SOL    HW2 4581   5.675   4.008   5.580
 1228SOL     OW 4582   3.597   3.263   2.438
 1228SOL    HW1 4583   3.518   3.304   2.483
 1228SOL    HW2 4584   3.638   3.194   2.499
 1229SOL     OW 4585   1.868   6.103   2.481
 1229SOL    HW1 4586   1.858   6.181   2.419
 1229SOL    HW2 4587   1.914   6.028   2.432
 1230SOL     OW 4588   4.810   5.090   2.167
 1230SOL    HW1 4589   4.850   5.090   2.259
 1230SOL    HW2 4590   4.827   5.178   2.123
 1231SOL     OW 4591   1.845   2.334   6.494
 1231SOL    HW1 4592   1.903   2.396   6.442
 1231SOL    HW2 4593   1.754   2.331   6.454
 1232SOL     OW 4594   3.191   0.509   5.289
 1232SOL    HW1 4595   3.261   0.566   5.333
 1232SOL    HW2 4596   3.173   0.544   5.197
 1233SOL     OW 4597   0.159   4.987   4.025
 1233SOL    HW1 4598   0.146   5.081   3.992
 1233SOL    HW2 4599   0.120   4.923   3.959
 1234SOL     OW 4600   6.983   3.118   6.497
 1234SOL    HW1 4601   6.886   3.124   6.523
 1234SOL    HW2 4602   0.005   3.200   6.530
 1235SOL     OW 4603   5.806   4.601   0.293
 1235SOL    HW1 4604   5.738   4.626   0.362
 1235SOL    HW2 4605   5.774   4.628   0.203
 1236SOL     OW 4606   2.360   0.991   1.131
 1236SOL    HW1 4607   2.429   0.964   1.198
 1236SOL    HW2 4608   2.388   1.076   1.086
 1237SOL     OW 4609   1.507   0.371   4.641
 1237SOL    HW1 4610   1.540   0.403   4.730
 1237SOL    HW2 4611   1.457   0.446   4.596
 1238SOL     OW 4612   0.114   6.808   3.858
 1238SOL    HW1 4613   0.160   6.794   3.770
 1238SOL    HW2 4614   0.056   6.729   3.878
 1239SOL     OW 4615   5.854   5.624   4.182
 1239SOL    HW1 4616   5.892   5.603   4.272
 1239SOL    HW2 4617   5.784   5.556   4.158
 1240SOL     OW 4618   6.052   5.122   2.560
 1240SOL    HW1 4619   6.000   5.159   2.636
 1240SOL    HW2 4620   5.990   5.084   2.492
 1241SOL     OW 4621   5.884   5.127   3.953
 1241SOL    HW1 4622   5.804   5.141   4.011
 1241SOL    HW2 4623   5.965   5.168   3.996
 1242SOL     OW 4624   1.496   4.019   0.004
 1242SOL    HW1 4625   1.478   3.921   0.005
 1242SOL    HW2 4626   1.509   4.050   6.935
 1243SOL     OW 4627   1.176   3.975   5.178
 1243SOL    HW1 4628   1.173   3.892   5.122
 1243SOL    HW2 4629   1.269   3.991   5.210
 1244SOL     OW 4630   5.558   6.825   4.755
 1244SOL    HW1 4631   5.522   6.880   4.680
 1244SOL    HW2 4632   5.653   6.800   4.735
 1245SOL     OW 4633   5.303   6.508   1.698
 1245SOL    HW1 4634   5.340   6.433   1.644
 1245SOL    HW2 4635   5.267   6.579   1.637
 1246SOL     OW 4636   4.785   1.790   0.651
 1246SOL    HW1 4637   4.870   1.789   0.705
 1246SOL    HW2 4638   4.720   1.726   0.692
 1247SOL     OW 4639   6.606   6.354   3.649
 1247SOL    HW1 4640   6.673   6.409   3.697
 1247SOL    HW2 4641   6.642   6.327   3.559
 1248SOL     OW 4642   0.413   6.884   5.043
 1248SOL    HW1 4643   0.397   6.958   5.109
 1248SOL    HW2 4644   0.476   6.917   4.972
 1249SOL     OW 4645   0.363   4.467   0.826
 1249SOL    HW1 4646   0.300   4.414   0.882
 1249SOL    HW2 4647   0.368   4.427   0.734
 1250SOL     OW 4648   5.732   3.244   5.321
 1250SOL    HW1 4649   5.716   3.156   5.278
 1250SOL    HW2 4650   5.822   3.244   5.364
 1251SOL     OW 4651   2.555   0.412   2.501
 1251SOL    HW1 4652   2.511   0.485   2.449
 1251SOL    HW2 4653   2.631   0.374   2.447
 1252SOL     OW 4654   2.070   5.405   0.035
 1252SOL    HW1 4655   2.140   5.456   0.085
 1252SOL    HW2 4656   2.110   5.364   6.979
 1253SOL     OW 4657   3.302   0.880   0.925
 1253SOL    HW1 4658   3.219   0.826   0.937
 1253SOL    HW2 4659   3.282   0.977   0.939
 1254SOL     OW 4660   6.244   1.261   2.478
 1254SOL    HW1 4661   6.219   1.331   2.411
 1254SOL    HW2 4662   6.340   1.235   2.464
 1255SOL     OW 4663   5.037   2.007   5.030
 1255SOL    HW1 4664   5.015   1.976   4.937
 1255SOL    HW2 4665   5.010   1.938   5.096
 1256SOL     OW 4666   0.120   5.769   4.195
 1256SOL    HW1 4667   0.157   5.706   4.128
 1256SOL    HW2 4668   0.135   5.863   4.164
 1257SOL     OW 4669   0.420   4.655   3.706
 1257SOL    HW1 4670   0.442   4.749   3.680
 1257SOL    HW2 4671   0.505   4.604   3.722
 1258SOL     OW 4672   3.246   6.520   4.450
 1258SOL    HW1 4673   3.330   6.469   4.469
 1258SOL    HW2 4674   3.180   6.460   4.405
 1259SOL     OW 4675   4.919   0.250   5.120
 1259SOL    HW1 4676   4.951   0.269   5.027
 1259SOL    HW2 4677   4.853   0.320   5.147
 1260SOL     OW 4678   1.706   0.313   2.383
 1260SOL    HW1 4679   1.729   0.373   2.308
 1260SOL    HW2 4680   1.779   0.315   2.452
 1261SOL     OW 4681   6.780   4.598   6.314
 1261SOL    HW1 4682   6.772   4.529   6.386
 1261SOL    HW2 4683   6.691   4.641   6.300
 1262SOL     OW 4684   5.065   5.323   1.034
 1262SOL    HW1 4685   4.979   5.278   1.060
 1262SOL    HW2 4686   5.070   5.413   1.076
 1263SOL     OW 4687   0.494   2.114   1.177
 1263SOL    HW1 4688   0.562   2.092   1.108
 1263SOL    HW2 4689   0.536   2.170   1.248
 1264SOL     OW 4690   0.925   3.335   3.024
 1264SOL    HW1 4691   1.023   3.346   3.039
 1264SOL    HW2 4692   0.884   3.287   3.101
 1265SOL     OW 4693   0.085   4.335   4.794
 1265SOL    HW1 4694   0.023   4.408   4.824
 1265SOL    HW2 4695   0.145   4.370   4.722
 1266SOL     OW 4696   3.103   1.847   5.137
 1266SOL    HW1 4697   3.169   1.827   5.065
 1266SOL    HW2 4698   3.010   1.842   5.100
 1267SOL     OW 4699   0.099   4.608   3.463
 1267SOL    HW1 4700   0.115   4.584   3.559
 1267SOL    HW2 4701   0.171   4.570   3.406
 1268SOL     OW 4702   5.423   2.898   6.087
 1268SOL    HW1 4703   5.371   2.946   6.158
 1268SOL    HW2 4704   5.382   2.914   5.998
 1269SOL     OW 4705   6.849   5.966   5.145
 1269SOL    HW1 4706   6.896   6.025   5.080
 1269SOL    HW2 4707   6.754   5.955   5.115
 1270SOL     OW 4708   2.183   3.798   4.701
 1270SOL    HW1 4709   2.181   3.812   4.602
 1270SOL    HW2 4710   2.143   3.709   4.722
 1271SOL     OW 4711   3.221   1.626   2.613
 1271SOL    HW1 4712   3.292   1.665   2.554
 1271SOL    HW2 4713   3.163   1.700   2.648
 1272SOL     OW 4714   6.546   5.392   1.023
 1272SOL    HW1 4715   6.621   5.420   1.082
 1272SOL    HW2 4716   6.461   5.436   1.054
 1273SOL     OW 4717   2.566   4.665   6.709
 1273SOL    HW1 4718   2.602   4.705   6.794
 1273SOL    HW2 4719   2.612   4.578   6.691
 1274SOL     OW 4720   6.952   2.712   1.711
 1274SOL    HW1 4721   6.970   2.781   1.640
 1274SOL    HW2 4722   6.892   2.641   1.674
 1275SOL     OW 4723   4.330   0.811   4.831
 1275SOL    HW1 4724   4.357   0.716   4.820
 1275SOL    HW2 4725   4.301   0.827   4.926
 1276SOL     OW 4726   0.049   0.402   2.030
 1276SOL    HW1 4727   7.012   0.336   2.071
 1276SOL    HW2 4728   0.049   0.487   2.082
 1277SOL     OW 4729   0.065   0.762   4.572
 1277SOL    HW1 4730   0.151   0.711   4.569
 1277SOL    HW2 4731   0.083   0.859   4.555
 1278SOL     OW 4732   1.900   1.916   5.502
 1278SOL    HW1 4733   1.876   1.983   5.432
 1278SOL    HW2 4734   1.828   1.847   5.508
 1279SOL     OW 4735   2.826   6.456   0.717
 1279SOL    HW1 4736   2.752   6.389   0.716
 1279SOL    HW2 4737   2.904   6.418   0.767
 1280SOL     OW 4738   2.160   6.930   3.108
 1280SOL    HW1 4739   2.067   6.962   3.093
 1280SOL    HW2 4740   2.205   6.913   3.020
 1281SOL     OW 4741   1.658   6.167   3.068
 1281SOL    HW1 4742   1.656   6.208   2.977
 1281SOL    HW2 4743   1.565   6.150   3.099
 1282SOL     OW 4744   0.811   1.311   0.974
 1282SOL    HW1 4745   0.872   1.342   1.047
 1282SOL    HW2 4746   0.778   1.390   0.922
 1283SOL     OW 4747   5.515   4.274   5.616
 1283SOL    HW1 4748   5.420   4.249   5.602
 1283SOL    HW2 4749   5.522   4.372   5.633
 1284SOL     OW 4750   2.699   2.611   1.776
 1284SOL    HW1 4751   2.620   2.560   1.811
 1284SOL    HW2 4752   2.783   2.570   1.811
 1285SOL     OW 4753   4.782   2.915   6.093
 1285SOL    HW1 4754   4.827   2.857   6.161
 1285SOL    HW2 4755   4.812   3.009   6.105
 1286SOL     OW 4756   5.496   4.161   2.211
 1286SOL    HW1 4757   5.596   4.168   2.214
 1286SOL    HW2 4758   5.465   4.104   2.287
 1287SOL     OW 4759   5.876   5.574   6.791
 1287SOL    HW1 4760   5.900   5.669   6.808
 1287SOL    HW2 4761   5.960   5.521   6.776
 1288SOL     OW 4762   0.535   2.576   6.954
 1288SOL    HW1 4763   0.472   2.504   6.983
 1288SOL    HW2 4764   0.628   2.539   6.952
 1289SOL     OW 4765   6.864   6.285   2.290
 1289SOL    HW1 4766   6.799   6.300   2.216
 1289SOL    HW2 4767   6.926   6.211   2.265
 1290SOL     OW 4768   0.280   0.413   6.618
 1290SOL    HW1 4769   0.182   0.400   6.597
 1290SOL    HW2 4770   0.297   0.508   6.643
 1291SOL     OW 4771   1.400   5.167   6.365
 1291SOL    HW1 4772   1.357   5.082   6.336
 1291SOL    HW2 4773   1.454   5.205   6.290
 1292SOL     OW 4774   7.006   4.683   1.384
 1292SOL    HW1 4775   6.962   4.747   1.321
 1292SOL    HW2 4776   6.939   4.650   1.450
 1293SOL     OW 4777   2.360   1.881   6.770
 1293SOL    HW1 4778   2.352   1.972   6.729
 1293SOL    HW2 4779   2.296   1.873   6.846
 1294SOL     OW 4780   0.515   3.433   2.357
 1294SOL    HW1 4781   0.430   3.451   2.406
 1294SOL    HW2 4782   0.576   3.378   2.414
 1295SOL     OW 4783   5.469   2.901   2.410
 1295SOL    HW1 4784   5.465   2.969   2.336
 1295SOL    HW2 4785   5.377   2.886   2.446
 1296SOL     OW 4786   3.716   2.263   6.166
 1296SOL    HW1 4787   3.803   2.294   6.127
 1296SOL    HW2 4788   3.672   2.339   6.214
 1297SOL     OW 4789   6.508   1.605   5.667
 1297SOL    HW1 4790   6.428   1.617   5.609
 1297SOL    HW2 4791   6.591   1.624   5.614
 1298SOL     OW 4792   5.447   3.409   2.980
 1298SOL    HW1 4793   5.382   3.357   3.036
 1298SOL    HW2 4794   5.515   3.452   3.040
 1299SOL     OW 4795   1.890   4.233   3.319
 1299SOL    HW1 4796   1.817   4.207   3.383
 1299SOL    HW2 4797   1.965   4.274   3.369
 1300SOL     OW 4798   2.974   3.377   1.760
 1300SOL    HW1 4799   3.004   3.282   1.766
 1300SOL    HW2 4800   2.880   3.383   1.794
 1301SOL     OW 4801   0.999   6.884   3.491
 1301SOL    HW1 4802   0.958   6.837   3.413
 1301SOL    HW2 4803   0.928   6.908   3.558
 1302SOL     OW 4804   2.128   6.379   5.417
 1302SOL    HW1 4805   2.141   6.407   5.512
 1302SOL    HW2 4806   2.197   6.311   5.393
 1303SOL     OW 4807   3.853   1.632   1.186
 1303SOL    HW1 4808   3.863   1.560   1.118
 1303SOL    HW2 4809   3.915   1.707   1.165
 1304SOL     OW 4810   1.531   0.414   6.312
 1304SOL    HW1 4811   1.558   0.428   6.407
 1304SOL    HW2 4812   1.574   0.332   6.276
 1305SOL     OW 4813   4.806   6.215   4.656
 1305SOL    HW1 4814   4.708   6.238   4.662
 1305SOL    HW2 4815   4.825   6.134   4.710
 1306SOL     OW 4816   1.365   4.288   4.837
 1306SOL    HW1 4817   1.389   4.202   4.793
 1306SOL    HW2 4818   1.388   4.284   4.934
 1307SOL     OW 4819   1.462   3.303   5.138
 1307SOL    HW1 4820   1.456   3.366   5.062
 1307SOL    HW2 4821   1.542   3.243   5.127
 1308SOL     OW 4822   4.317   5.568   4.087
 1308SOL    HW1 4823   4.292   5.599   3.995
 1308SOL    HW2 4824   4.415   5.545   4.089
 1309SOL     OW 4825   5.194   3.107   5.134
 1309SOL    HW1 4826   5.149   3.116   5.223
 1309SOL    HW2 4827   5.131   3.134   5.061
 1310SOL     OW 4828   6.096   4.123   4.404
 1310SOL    HW1 4829   6.005   4.139   4.366
 1310SOL    HW2 4830   6.142   4.210   4.419
 1311SOL     OW 4831   6.089   0.076   4.119
 1311SOL    HW1 4832   6.092   0.045   4.024
 1311SOL    HW2 4833   6.131   0.166   4.126
 1312SOL     OW 4834   0.697   0.452   6.900
 1312SOL    HW1 4835   0.780   0.402   6.924
 1312SOL    HW2 4836   0.640   0.462   6.981
 1313SOL     OW 4837   3.023   5.756   5.050
 1313SOL    HW1 4838   2.998   5.674   5.102
 1313SOL    HW2 4839   3.105   5.737   4.996
 1314SOL     OW 4840   1.193   1.572   5.782
 1314SOL    HW1 4841   1.142   1.489   5.757
 1314SOL    HW2 4842   1.200   1.578   5.882
 1315SOL     OW 4843   1.857   1.147   1.335
 1315SOL    HW1 4844   1.956   1.156   1.335
 1315SOL    HW2 4845   1.832   1.056   1.300
 1316SOL     OW 4846   2.216   0.243   3.405
 1316SOL    HW1 4847   2.182   0.327   3.362
 1316SOL    HW2 4848   2.224   0.257   3.504
 1317SOL     OW 4849   0.834   4.250   4.487
 1317SOL    HW1 4850   0.816   4.201   4.403
 1317SOL    HW2 4851   0.914   4.309   4.475
 1318SOL     OW 4852   0.272   1.032   0.385
 1318SOL    HW1 4853   0.224   1.120   0.388
 1318SOL    HW2 4854   0.213   0.964   0.340
 1319SOL     OW 4855   6.889   1.175   0.890
 1319SOL    HW1 4856   6.919   1.264   0.855
 1319SOL    HW2 4857   6.942   1.103   0.845
 1320SOL     OW 4858   5.840   4.396   6.427
 1320SOL    HW1 4859   5.785   4.349   6.358
 1320SOL    HW2 4860   5.810   4.368   6.519
 1321SOL     OW 4861   4.419   3.534   7.002
 1321SOL    HW1 4862   4.322   3.536   6.978
 1321SOL    HW2 4863   4.461   3.453   6.963
 1322SOL     OW 4864   6.138   0.961   3.592
 1322SOL    HW1 4865   6.045   0.951   3.627
 1322SOL    HW2 4866   6.150   0.900   3.514
 1323SOL     OW 4867   6.397   1.491   5.295
 1323SOL    HW1 4868   6.349   1.505   5.208
 1323SOL    HW2 4869   6.336   1.445   5.360
 1324SOL     OW 4870   1.746   2.553   1.547
 1324SOL    HW1 4871   1.760   2.647   1.576
 1324SOL    HW2 4872   1.649   2.538   1.527
 1325SOL     OW 4873   1.788   6.189   3.343
 1325SOL    HW1 4874   1.813   6.165   3.437
 1325SOL    HW2 4875   1.720   6.124   3.309
 1326SOL     OW 4876   4.991   2.500   4.585
 1326SOL    HW1 4877   5.050   2.541   4.655
 1326SOL    HW2 4878   5.045   2.436   4.530
 1327SOL     OW 4879   2.741   5.410   2.748
 1327SOL    HW1 4880   2.647   5.437   2.730
 1327SOL    HW2 4881   2.772   5.451   2.833
 1328SOL     OW 4882   1.834   2.313   6.164
 1328SOL    HW1 4883   1.879   2.235   6.121
 1328SOL    HW2 4884   1.902   2.367   6.213
 1329SOL     OW 4885   0.837   1.497   0.312
 1329SOL    HW1 4886   0.776   1.520   0.235
 1329SOL    HW2 4887   0.888   1.579   0.339
 1330SOL     OW 4888   6.572   0.615   1.048
 1330SOL    HW1 4889   6.608   0.589   1.138
 1330SOL    HW2 4890   6.590   0.541   0.983
 1331SOL     OW 4891   5.867   0.822   2.369
 1331SOL    HW1 4892   5.847   0.878   2.449
 1331SOL    HW2 4893   5.939   0.866   2.315
 1332SOL     OW 4894   4.239   2.093   1.568
 1332SOL    HW1 4895   4.153   2.144   1.568
 1332SOL    HW2 4896   4.255   2.054   1.658
 1333SOL     OW 4897   3.947   4.023   4.963
 1333SOL    HW1 4898   3.955   3.929   4.999
 1333SOL    HW2 4899   3.939   4.087   5.040
 1334SOL     OW 4900   1.490   3.913   4.957
 1334SOL    HW1 4901   1.497   3.844   5.029
 1334SOL    HW2 4902   1.556   3.986   4.974
 1335SOL     OW 4903   2.192   6.201   2.826
 1335SOL    HW1 4904   2.170   6.191   2.923
 1335SOL    HW2 4905   2.179   6.113   2.780
 1336SOL     OW 4906   1.367   1.724   6.682
 1336SOL    HW1 4907   1.338   1.813   6.647
 1336SOL    HW2 4908   1.367   1.726   6.782
 1337SOL     OW 4909   1.991   2.496   6.315
 1337SOL    HW1 4910   1.931   2.571   6.289
 1337SOL    HW2 4911   2.078   2.504   6.265
 1338SOL     OW 4912   4.416   4.379   6.409
 1338SOL    HW1 4913   4.461   4.309   6.463
 1338SOL    HW2 4914   4.444   4.470   6.443
 1339SOL     OW 4915   7.018   4.746   6.337
 1339SOL    HW1 4916   0.025   4.777   6.248
 1339SOL    HW2 4917   6.927   4.704   6.326
 1340SOL     OW 4918   1.260   2.307   0.345
 1340SOL    HW1 4919   1.312   2.377   0.393
 1340SOL    HW2 4920   1.163   2.333   0.342
 1341SOL     OW 4921   3.736   0.975   4.472
 1341SOL    HW1 4922   3.735   0.880   4.441
 1341SOL    HW2 4923   3.732   0.977   4.572
 1342SOL     OW 4924   1.079   6.344   6.433
 1342SOL    HW1 4925   1.142   6.289   6.378
 1342SOL    HW2 4926   1.120   6.363   6.522
 1343SOL     OW 4927   3.603   6.305   2.342
 1343SOL    HW1 4928   3.690   6.318   2.295
 1343SOL    HW2 4929   3.619   6.297   2.440
 1344SOL     OW 4930   6.435   1.876   2.709
 1344SOL    HW1 4931   6.418   1.874   2.807
 1344SOL    HW2 4932   6.367   1.935   2.664
 1345SOL     OW 4933   0.573   1.043   3.226
 1345SOL    HW1 4934   0.607   1.074   3.314
 1345SOL    HW2 4935   0.623   1.088   3.152
 1346SOL     OW 4936   0.259   6.761   3.617
 1346SOL    HW1 4937   0.269   6.661   3.621
 1346SOL    HW2 4938   0.274   6.792   3.523
 1347SOL     OW 4939   6.464   6.463   3.319
 1347SOL    HW1 4940   6.482   6.561   3.326
 1347SOL    HW2 4941   6.460   6.436   3.223
 1348SOL     OW 4942   5.664   4.765   4.083
 1348SOL    HW1 4943   5.761   4.761   4.107
 1348SOL    HW2 4944   5.643   4.695   4.016
 1349SOL     OW 4945   4.387   2.803   0.235
 1349SOL    HW1 4946   4.370   2.901   0.228
 1349SOL    HW2 4947   4.426   2.769   0.149
 1350SOL     OW 4948   3.121   5.730   6.617
 1350SOL    HW1 4949   3.046   5.773   6.667
 1350SOL    HW2 4950   3.202   5.724   6.675
 1351SOL     OW 4951   0.333   0.401   4.284
 1351SOL    HW1 4952   0.389   0.332   4.330
 1351SOL    HW2 4953   0.310   0.369   4.192
 1352SOL     OW 4954   6.952   0.749   2.971
 1352SOL    HW1 4955   6.944   0.817   3.044
 1352SOL    HW2 4956   6.886   0.770   2.898
 1353SOL     OW 4957   0.252   4.444   4.984
 1353SOL    HW1 4958   0.285   4.427   5.077
 1353SOL    HW2 4959   0.206   4.362   4.950
 1354SOL     OW 4960   0.310   0.599   1.165
 1354SOL    HW1 4961   0.395   0.647   1.187
 1354SOL    HW2 4962   0.273   0.557   1.248
 1355SOL     OW 4963   5.328   4.006   0.252
 1355SOL    HW1 4964   5.274   3.959   0.182
 1355SOL    HW2 4965   5.269   4.034   0.328
 1356SOL     OW 4966   3.453   4.144   2.764
 1356SOL    HW1 4967   3.531   4.099   2.720
 1356SOL    HW2 4968   3.451   4.119   2.861
 1357SOL     OW 4969   2.508   3.277   6.626
 1357SOL    HW1 4970   2.445   3.199   6.621
 1357SOL    HW2 4971   2.551   3.291   6.536
 1358SOL     OW 4972   2.351   2.780   6.465
 1358SOL    HW1 4973   2.384   2.862   6.510
 1358SOL    HW2 4974   2.300   2.724   6.530
 1359SOL     OW 4975   6.248   3.767   1.626
 1359SOL    HW1 4976   6.311   3.690   1.641
 1359SOL    HW2 4977   6.156   3.732   1.611
 1360SOL     OW 4978   3.561   3.626   3.391
 1360SOL    HW1 4979   3.469   3.629   3.352
 1360SOL    HW2 4980   3.618   3.562   3.338
 1361SOL     OW 4981   0.790   6.730   6.491
 1361SOL    HW1 4982   0.777   6.730   6.392
 1361SOL    HW2 4983   0.886   6.744   6.512
 1362SOL     OW 4984   3.111   3.484   5.763
 1362SOL    HW1 4985   3.059   3.529   5.690
 1362SOL    HW2 4986   3.134   3.550   5.834
 1363SOL     OW 4987   6.710   5.782   3.217
 1363SOL    HW1 4988   6.701   5.881   3.223
 1363SOL    HW2 4989   6.634   5.739   3.265
 1364SOL     OW 4990   0.009   3.398   0.753
 1364SOL    HW1 4991   7.019   3.366   0.847
 1364SOL    HW2 4992   7.011   3.326   0.689
 1365SOL     OW 4993   1.177   3.299   5.954
 1365SOL    HW1 4994   1.197   3.240   6.032
 1365SOL    HW2 4995   1.144   3.388   5.987
 1366SOL     OW 4996   0.044   2.606   0.967
 1366SOL    HW1 4997   0.023   2.511   0.987
 1366SOL    HW2 4998   0.139   2.614   0.937
 1367SOL     OW 4999   0.717   4.037   3.658
 1367SOL    HW1 5000   0.717   3.953   3.603
 1367SOL    HW2 5001   0.783   4.102   3.621
 1368SOL     OW 5002   6.603   0.014   4.499
 1368SOL    HW1 5003   6.671   0.088   4.498
 1368SOL    HW2 5004   6.576   7.018   4.405
 1369SOL     OW 5005   1.644   6.298   2.350
 1369SOL    HW1 5006   1.717   6.343   2.401
 1369SOL    HW2 5007   1.595   6.235   2.411
 1370SOL     OW 5008   6.906   2.338   4.209
 1370SOL    HW1 5009   6.829   2.402   4.216
 1370SOL    HW2 5010   6.991   2.385   4.233
 1371SOL     OW 5011   5.905   1.336   4.538
 1371SOL    HW1 5012   5.855   1.417   4.505
 1371SOL    HW2 5013   5.986   1.322   4.481
 1372SOL     OW 5014   6.340   3.047   0.266
 1372SOL    HW1 5015   6.359   3.073   0.360
 1372SOL    HW2 5016   6.243   3.023   0.257
 1373SOL     OW 5017   4.805   2.438   1.349
 1373SOL    HW1 5018   4.726   2.400   1.397
 1373SOL    HW2 5019   4.868   2.364   1.325
 1374SOL     OW 5020   5.036   3.626   0.939
 1374SOL    HW1 5021   4.978   3.705   0.917
 1374SOL    HW2 5022   5.018   3.596   1.032
 1375SOL     OW 5023   6.827   6.138   5.439
 1375SOL    HW1 5024   6.757   6.075   5.475
 1375SOL    HW2 5025   6.790   6.187   5.360
 1376SOL     OW 5026   3.008   5.115   6.468
 1376SOL    HW1 5027   2.995   5.019   6.443
 1376SOL    HW2 5028   2.919   5.158   6.483
 1377SOL     OW 5029   0.940   2.711   3.733
 1377SOL    HW1 5030   0.989   2.721   3.647
 1377SOL    HW2 5031   0.957   2.791   3.791
 1378SOL     OW 5032   4.303   2.243   4.659
 1378SOL    HW1 5033   4.234   2.287   4.716
 1378SOL    HW2 5034   4.315   2.295   4.574
 1379SOL     OW 5035   4.979   4.934   1.980
 1379SOL    HW1 5036   5.071   4.959   2.010
 1379SOL    HW2 5037   4.911   4.968   2.045
 1380SOL     OW 5038   6.449   6.312   1.382
 1380SOL    HW1 5039   6.419   6.407   1.382
 1380SOL    HW2 5040   6.396   6.261   1.450
 1381SOL     OW 5041   6.020   2.280   5.919
 1381SOL    HW1 5042   6.036   2.376   5.945
 1381SOL    HW2 5043   6.028   2.222   6.000
 1382SOL     OW 5044   4.654   2.570   1.536
 1382SOL    HW1 5045   4.565   2.596   1.574
 1382SOL    HW2 5046   4.669   2.472   1.551
 1383SOL     OW 5047   1.455   6.761   2.190
 1383SOL    HW1 5048   1.542   6.720   2.220
 1383SOL    HW2 5049   1.463   6.861   2.192
 1384SOL     OW 5050   4.780   0.442   0.398
 1384SOL    HW1 5051   4.740   0.352   0.417
 1384SOL    HW2 5052   4.714   0.513   0.421
 1385SOL     OW 5053   1.697   4.674   3.338
 1385SOL    HW1 5054   1.777   4.667   3.278
 1385SOL    HW2 5055   1.641   4.592   3.326
 1386SOL     OW 5056   3.034   6.434   3.962
 1386SOL    HW1 5057   2.998   6.344   3.984
 1386SOL    HW2 5058   2.963   6.503   3.975
 1387SOL     OW 5059   3.837   5.632   1.225
 1387SOL    HW1 5060   3.755   5.678   1.259
 1387SOL    HW2 5061   3.899   5.699   1.184
 1388SOL     OW 5062   5.770   0.427   1.594
 1388SOL    HW1 5063   5.689   0.396   1.643
 1388SOL    HW2 5064   5.758   0.523   1.567
 1389SOL     OW 5065   6.171   0.765   3.390
 1389SOL    HW1 5066   6.105   0.691   3.377
 1389SOL    HW2 5067   6.148   0.841   3.329
 1390SOL     OW 5068   1.235   3.314   6.682
 1390SOL    HW1 5069   1.167   3.388   6.690
 1390SOL    HW2 5070   1.284   3.304   6.769
 1391SOL     OW 5071   6.920   1.366   3.806
 1391SOL    HW1 5072   6.958   1.403   3.722
 1391SOL    HW2 5073   6.927   1.266   3.806
 1392SOL     OW 5074   5.555   5.170   6.386
 1392SOL    HW1 5075   5.578   5.093   6.327
 1392SOL    HW2 5076   5.577   5.147   6.481
 1393SOL     OW 5077   6.316   5.801   5.378
 1393SOL    HW1 5078   6.369   5.767   5.300
 1393SOL    HW2 5079   6.228   5.754   5.383
 1394SOL     OW 5080   2.871   5.712   5.308
 1394SOL    HW1 5081   2.797   5.775   5.286
 1394SOL    HW2 5082   2.865   5.632   5.249
 1395SOL     OW 5083   2.957   4.748   5.766
 1395SOL    HW1 5084   2.874   4.698   5.790
 1395SOL    HW2 5085   2.953   4.840   5.806
 1396SOL     OW 5086   1.268   0.374   3.902
 1396SOL    HW1 5087   1.283   0.370   4.001
 1396SOL    HW2 5088   1.300   0.289   3.860
 1397SOL     OW 5089   6.975   0.509   4.579
 1397SOL    HW1 5090   6.996   0.463   4.493
 1397SOL    HW2 5091   7.002   0.605   4.572
 1398SOL     OW 5092   1.748   0.636   5.613
 1398SOL    HW1 5093   1.725   0.682   5.527
 1398SOL    HW2 5094   1.688   0.557   5.625
 1399SOL     OW 5095   3.675   6.644   1.348
 1399SOL    HW1 5096   3.596   6.590   1.318
 1399SOL    HW2 5097   3.702   6.616   1.440
 1400SOL     OW 5098   0.393   2.016   2.594
 1400SOL    HW1 5099   0.399   2.044   2.690
 1400SOL    HW2 5100   0.406   1.917   2.587
 1401SOL     OW 5101   0.062   1.437   5.304
 1401SOL    HW1 5102   0.157   1.466   5.319
 1401SOL    HW2 5103   0.015   1.505   5.247
 1402SOL     OW 5104   0.127   3.842   6.850
 1402SOL    HW1 5105   0.208   3.890   6.882
 1402SOL    HW2 5106   0.089   3.890   6.771
 1403SOL     OW 5107   3.276   1.177   1.824
 1403SOL    HW1 5108   3.314   1.090   1.855
 1403SOL    HW2 5109   3.266   1.175   1.725
 1404SOL     OW 5110   5.748   0.405   0.275
 1404SOL    HW1 5111   5.674   0.434   0.214
 1404SOL    HW2 5112   5.715   0.331   0.334
 1405SOL     OW 5113   2.369   4.012   1.011
 1405SOL    HW1 5114   2.462   4.045   1.029
 1405SOL    HW2 5115   2.310   4.089   0.986
 1406SOL     OW 5116   1.633   5.352   1.954
 1406SOL    HW1 5117   1.658   5.355   1.857
 1406SOL    HW2 5118   1.700   5.298   2.004
 1407SOL     OW 5119   0.299   1.619   1.779
 1407SOL    HW1 5120   0.279   1.711   1.814
 1407SOL    HW2 5121   0.247   1.604   1.694
 1408SOL     OW 5122   5.274   0.796   5.974
 1408SOL    HW1 5123   5.287   0.730   5.900
 1408SOL    HW2 5124   5.328   0.769   6.053
 1409SOL     OW 5125   0.561   0.017   5.541
 1409SOL    HW1 5126   0.493   6.970   5.548
 1409SOL    HW2 5127   0.647   7.012   5.581
 1410SOL     OW 5128   2.076   3.784   6.520
 1410SOL    HW1 5129   2.065   3.760   6.424
 1410SOL    HW2 5130   2.169   3.818   6.535
 1411SOL     OW 5131   2.555   6.232   3.118
 1411SOL    HW1 5132   2.504   6.157   3.075
 1411SOL    HW2 5133   2.576   6.302   3.049
 1412SOL     OW 5134   0.476   2.089   0.096
 1412SOL    HW1 5135   0.559   2.105   0.150
 1412SOL    HW2 5136   0.500   2.049   0.008
 1413SOL     OW 5137   1.874   0.858   4.974
 1413SOL    HW1 5138   1.967   0.823   4.962
 1413SOL    HW2 5139   1.847   0.909   4.892
 1414SOL     OW 5140   2.808   1.157   1.708
 1414SOL    HW1 5141   2.711   1.171   1.730
 1414SOL    HW2 5142   2.865   1.213   1.768
 1415SOL     OW 5143   2.911   0.362   4.260
 1415SOL    HW1 5144   2.851   0.323   4.190
 1415SOL    HW2 5145   2.991   0.303   4.272
 1416SOL     OW 5146   4.589   4.667   3.677
 1416SOL    HW1 5147   4.579   4.659   3.578
 1416SOL    HW2 5148   4.523   4.733   3.712
 1417SOL     OW 5149   2.268   2.248   0.329
 1417SOL    HW1 5150   2.197   2.214   0.267
 1417SOL    HW2 5151   2.229   2.313   0.393
 1418SOL     OW 5152   2.915   3.298   3.383
 1418SOL    HW1 5153   2.925   3.393   3.412
 1418SOL    HW2 5154   2.853   3.250   3.445
 1419SOL     OW 5155   3.342   6.540   4.769
 1419SOL    HW1 5156   3.437   6.567   4.755
 1419SOL    HW2 5157   3.298   6.528   4.680
 1420SOL     OW 5158   2.022   6.213   1.824
 1420SOL    HW1 5159   2.025   6.171   1.915
 1420SOL    HW2 5160   1.939   6.184   1.777
 1421SOL     OW 5161   1.729   2.791   3.145
 1421SOL    HW1 5162   1.713   2.693   3.151
 1421SOL    HW2 5163   1.779   2.822   3.225
 1422SOL     OW 5164   2.547   4.539   1.917
 1422SOL    HW1 5165   2.560   4.469   1.847
 1422SOL    HW2 5166   2.636   4.574   1.945
 1423SOL     OW 5167   5.055   6.314   2.331
 1423SOL    HW1 5168   4.987   6.334   2.401
 1423SOL    HW2 5169   5.125   6.385   2.330
 1424SOL     OW 5170   6.629   4.061   4.973
 1424SOL    HW1 5171   6.620   4.116   5.056
 1424SOL    HW2 5172   6.722   4.073   4.936
 1425SOL     OW 5173   1.682   6.397   4.435
 1425SOL    HW1 5174   1.670   6.462   4.510
 1425SOL    HW2 5175   1.627   6.425   4.357
 1426SOL     OW 5176   0.911   2.781   5.613
 1426SOL    HW1 5177   0.984   2.752   5.551
 1426SOL    HW2 5178   0.949   2.792   5.705
 1427SOL     OW 5179   0.266   6.802   2.858
 1427SOL    HW1 5180   0.194   6.782   2.792
 1427SOL    HW2 5181   0.332   6.726   2.859
 1428SOL     OW 5182   5.712   2.404   0.927
 1428SOL    HW1 5183   5.656   2.484   0.906
 1428SOL    HW2 5184   5.702   2.382   1.024
 1429SOL     OW 5185   6.246   2.147   0.080
 1429SOL    HW1 5186   6.193   2.219   0.036
 1429SOL    HW2 5187   6.258   2.071   0.016
 1430SOL     OW 5188   2.008   4.443   3.870
 1430SOL    HW1 5189   1.953   4.507   3.817
 1430SOL    HW2 5190   2.055   4.491   3.943
 1431SOL     OW 5191   2.249   1.926   1.058
 1431SOL    HW1 5192   2.301   1.849   1.095
 1431SOL    HW2 5193   2.164   1.893   1.018
 1432SOL     OW 5194   2.825   1.489   3.144
 1432SOL    HW1 5195   2.855   1.549   3.070
 1432SOL    HW2 5196   2.727   1.472   3.135
 1433SOL     OW 5197   4.661   1.396   4.037
 1433SOL    HW1 5198   4.631   1.310   3.995
 1433SOL    HW2 5199   4.748   1.381   4.085
 1434SOL     OW 5200   6.710   0.765   5.642
 1434SOL    HW1 5201   6.788   0.822   5.669
 1434SOL    HW2 5202   6.724   0.730   5.550
 1435SOL     OW 5203   5.656   0.818   2.045
 1435SOL    HW1 5204   5.620   0.880   2.115
 1435SOL    HW2 5205   5.584   0.755   2.017
 1436SOL     OW 5206   5.153   4.131   0.466
 1436SOL    HW1 5207   5.189   4.140   0.559
 1436SOL    HW2 5208   5.101   4.213   0.442
 1437SOL     OW 5209   2.504   2.474   3.633
 1437SOL    HW1 5210   2.459   2.435   3.713
 1437SOL    HW2 5211   2.468   2.566   3.617
 1438SOL     OW 5212   3.263   6.353   1.443
 1438SOL    HW1 5213   3.312   6.311   1.519
 1438SOL    HW2 5214   3.176   6.391   1.475
 1439SOL     OW 5215   6.822   5.869   1.483
 1439SOL    HW1 5216   6.867   5.810   1.549
 1439SOL    HW2 5217   6.765   5.936   1.531
 1440SOL     OW 5218   3.199   3.703   1.335
 1440SOL    HW1 5219   3.242   3.661   1.414
 1440SOL    HW2 5220   3.100   3.709   1.350
 1441SOL     OW 5221   5.745   0.617   2.220
 1441SOL    HW1 5222   5.681   0.664   2.159
 1441SOL    HW2 5223   5.805   0.684   2.264
 1442SOL     OW 5224   6.507   5.654   0.097
 1442SOL    HW1 5225   6.469   5.570   0.136
 1442SOL    HW2 5226   6.519   5.722   0.170
 1443SOL     OW 5227   0.536   2.362   2.349
 1443SOL    HW1 5228   0.567   2.276   2.390
 1443SOL    HW2 5229   0.588   2.380   2.266
 1444SOL     OW 5230   5.685   0.223   0.531
 1444SOL    HW1 5231   5.628   0.238   0.612
 1444SOL    HW2 5232   5.651   0.145   0.480
 1445SOL     OW 5233   0.784   3.329   2.637
 1445SOL    HW1 5234   0.756   3.271   2.714
 1445SOL    HW2 5235   0.732   3.302   2.555
 1446SOL     OW 5236   6.883   0.675   6.481
 1446SOL    HW1 5237   6.926   0.648   6.395
 1446SOL    HW2 5238   6.815   0.747   6.464
 1447SOL     OW 5239   5.803   5.235   3.714
 1447SOL    HW1 5240   5.865   5.205   3.642
 1447SOL    HW2 5241   5.830   5.194   3.801
 1448SOL     OW 5242   6.558   2.615   4.864
 1448SOL    HW1 5243   6.657   2.624   4.874
 1448SOL    HW2 5244   6.533   2.627   4.768
 1449SOL     OW 5245   0.744   4.021   5.262
 1449SOL    HW1 5246   0.755   3.988   5.168
 1449SOL    HW2 5247   0.741   3.943   5.324
 1450SOL     OW 5248   1.000   2.810   6.222
 1450SOL    HW1 5249   1.051   2.724   6.218
 1450SOL    HW2 5250   0.926   2.808   6.155
 1451SOL     OW 5251   1.424   6.219   2.505
 1451SOL    HW1 5252   1.407   6.217   2.604
 1451SOL    HW2 5253   1.343   6.186   2.457
 1452SOL     OW 5254   4.332   2.679   5.305
 1452SOL    HW1 5255   4.258   2.635   5.255
 1452SOL    HW2 5256   4.333   2.646   5.400
 1453SOL     OW 5257   0.621   4.408   5.380
 1453SOL    HW1 5258   0.525   4.436   5.375
 1453SOL    HW2 5259   0.673   4.450   5.306
 1454SOL     OW 5260   1.932   2.350   3.023
 1454SOL    HW1 5261   2.016   2.387   3.062
 1454SOL    HW2 5262   1.883   2.422   2.974
 1455SOL     OW 5263   1.411   6.519   2.407
 1455SOL    HW1 5264   1.394   6.425   2.378
 1455SOL    HW2 5265   1.498   6.551   2.368
 1456SOL     OW 5266   6.176   6.052   5.853
 1456SOL    HW1 5267   6.263   6.037   5.900
 1456SOL    HW2 5268   6.119   5.970   5.861
 1457SOL     OW 5269   0.888   4.501   0.216
 1457SOL    HW1 5270   0.961   4.565   0.190
 1457SOL    HW2 5271   0.839   4.472   0.134
 1458SOL     OW 5272   5.249   5.369   5.448
 1458SOL    HW1 5273   5.192   5.287   5.451
 1458SOL    HW2 5274   5.332   5.350   5.397
 1459SOL     OW 5275   4.248   6.504   6.181
 1459SOL    HW1 5276   4.176   6.485   6.114
 1459SOL    HW2 5277   4.306   6.424   6.192
 1460SOL     OW 5278   1.869   0.028   4.798
 1460SOL    HW1 5279   1.884   0.119   4.836
 1460SOL    HW2 5280   1.772   0.005   4.803
 1461SOL     OW 5281   0.256   3.781   3.253
 1461SOL    HW1 5282   0.168   3.784   3.206
 1461SOL    HW2 5283   0.320   3.842   3.207
 1462SOL     OW 5284   1.196   0.745   6.714
 1462SOL    HW1 5285   1.106   0.767   6.675
 1462SOL    HW2 5286   1.227   0.821   6.772
 1463SOL     OW 5287   0.945   4.647   5.774
 1463SOL    HW1 5288   0.954   4.747   5.771
 1463SOL    HW2 5289   0.930   4.617   5.868
 1464SOL     OW 5290   6.921   4.428   3.435
 1464SOL    HW1 5291   6.903   4.512   3.486
 1464SOL    HW2 5292   7.014   4.432   3.398
 1465SOL     OW 5293   1.958   2.076   4.137
 1465SOL    HW1 5294   1.981   2.160   4.089
 1465SOL    HW2 5295   1.900   2.097   4.216
 1466SOL     OW 5296   4.152   2.212   2.299
 1466SOL    HW1 5297   4.098   2.264   2.233
 1466SOL    HW2 5298   4.093   2.182   2.374
 1467SOL     OW 5299   2.059   1.424   4.053
 1467SOL    HW1 5300   2.110   1.439   3.969
 1467SOL    HW2 5301   2.068   1.329   4.082
 1468SOL     OW 5302   1.823   5.207   1.792
 1468SOL    HW1 5303   1.893   5.278   1.794
 1468SOL    HW2 5304   1.819   5.162   1.881
 1469SOL     OW 5305   0.048   6.050   2.707
 1469SOL    HW1 5306   0.031   6.068   2.804
 1469SOL    HW2 5307   7.005   6.096   2.651
 1470SOL     OW 5308   0.105   2.250   1.380
 1470SOL    HW1 5309   0.010   2.281   1.388
 1470SOL    HW2 5310   0.119   2.172   1.441
 1471SOL     OW 5311   0.975   0.241   0.323
 1471SOL    HW1 5312   1.004   0.169   0.386
 1471SOL    HW2 5313   0.890   0.282   0.357
 1472SOL     OW 5314   2.833   6.034   0.021
 1472SOL    HW1 5315   2.919   5.984   0.008
 1472SOL    HW2 5316   2.828   6.109   6.981
 1473SOL     OW 5317   2.535   5.572   4.590
 1473SOL    HW1 5318   2.605   5.634   4.628
 1473SOL    HW2 5319   2.460   5.564   4.656
 1474SOL     OW 5320   4.006   4.619   1.586
 1474SOL    HW1 5321   4.077   4.670   1.538
 1474SOL    HW2 5322   4.018   4.521   1.572
 1475SOL     OW 5323   4.857   1.357   0.043
 1475SOL    HW1 5324   4.870   1.453   0.021
 1475SOL    HW2 5325   4.823   1.308   6.988
 1476SOL     OW 5326   2.831   1.095   1.311
 1476SOL    HW1 5327   2.895   1.171   1.307
 1476SOL    HW2 5328   2.738   1.130   1.315
 1477SOL     OW 5329   3.992   0.189   0.328
 1477SOL    HW1 5330   3.955   0.182   0.236
 1477SOL    HW2 5331   3.918   0.181   0.395
 1478SOL     OW 5332   5.316   6.471   5.516
 1478SOL    HW1 5333   5.353   6.392   5.565
 1478SOL    HW2 5334   5.303   6.547   5.579
 1479SOL     OW 5335   3.533   3.550   1.446
 1479SOL    HW1 5336   3.563   3.616   1.515
 1479SOL    HW2 5337   3.559   3.582   1.355
 1480SOL     OW 5338   2.274   7.024   6.343
 1480SOL    HW1 5339   2.197   0.062   6.335
 1480SOL    HW2 5340   2.359   0.050   6.340
 1481SOL     OW 5341   5.816   3.122   5.675
 1481SOL    HW1 5342   5.898   3.107   5.731
 1481SOL    HW2 5343   5.746   3.055   5.700
 1482SOL     OW 5344   4.491   0.650   0.796
 1482SOL    HW1 5345   4.449   0.626   0.883
 1482SOL    HW2 5346   4.488   0.570   0.735
 1483SOL     OW 5347   5.540   2.696   5.251
 1483SOL    HW1 5348   5.583   2.641   5.322
 1483SOL    HW2 5349   5.562   2.658   5.161
 1484SOL     OW 5350   4.433   5.238   3.804
 1484SOL    HW1 5351   4.525   5.272   3.822
 1484SOL    HW2 5352   4.439   5.146   3.765
 1485SOL     OW 5353   5.405   0.763   3.810
 1485SOL    HW1 5354   5.435   0.837   3.751
 1485SOL    HW2 5355   5.330   0.713   3.766
 1486SOL     OW 5356   5.109   0.068   3.526
 1486SOL    HW1 5357   5.190   0.045   3.580
 1486SOL    HW2 5358   5.041   0.111   3.585
 1487SOL     OW 5359   0.428   0.844   6.425
 1487SOL    HW1 5360   0.335   0.882   6.428
 1487SOL    HW2 5361   0.489   0.908   6.379
 1488SOL     OW 5362   5.887   0.387   3.216
 1488SOL    HW1 5363   5.880   0.287   3.220
 1488SOL    HW2 5364   5.827   0.421   3.144
 1489SOL     OW 5365   3.977   4.651   5.921
 1489SOL    HW1 5366   3.999   4.738   5.965
 1489SOL    HW2 5367   3.894   4.662   5.866
 1490SOL     OW 5368   0.435   2.965   1.051
 1490SOL    HW1 5369   0.485   3.044   1.015
 1490SOL    HW2 5370   0.396   2.913   0.976
 1491SOL     OW 5371   6.882   4.293   2.326
 1491SOL    HW1 5372   6.881   4.241   2.240
 1491SOL    HW2 5373   6.963   4.352   2.328
 1492SOL     OW 5374   6.472   0.180   1.877
 1492SOL    HW1 5375   6.564   0.216   1.858
 1492SOL    HW2 5376   6.406   0.255   1.873
 1493SOL     OW 5377   3.615   1.191   6.640
 1493SOL    HW1 5378   3.578   1.211   6.731
 1493SOL    HW2 5379   3.603   1.270   6.581
 1494SOL     OW 5380   5.456   3.041   6.672
 1494SOL    HW1 5381   5.407   2.958   6.645
 1494SOL    HW2 5382   5.432   3.065   6.766
 1495SOL     OW 5383   6.551   3.915   3.687
 1495SOL    HW1 5384   6.601   4.000   3.670
 1495SOL    HW2 5385   6.595   3.866   3.763
 1496SOL     OW 5386   6.954   0.230   0.084
 1496SOL    HW1 5387   6.896   0.263   0.010
 1496SOL    HW2 5388   6.907   0.156   0.133
 1497SOL     OW 5389   4.870   3.191   2.444
 1497SOL    HW1 5390   4.898   3.118   2.506
 1497SOL    HW2 5391   4.873   3.279   2.492
 1498SOL     OW 5392   2.834   4.791   0.836
 1498SOL    HW1 5393   2.789   4.716   0.787
 1498SOL    HW2 5394   2.792   4.801   0.926
 1499SOL     OW 5395   0.523   3.765   5.916
 1499SOL    HW1 5396   0.520   3.701   5.993
 1499SOL    HW2 5397   0.601   3.743   5.857
 1500SOL     OW 5398   1.174   5.936   6.578
 1500SOL    HW1 5399   1.216   5.988   6.652
 1500SOL    HW2 5400   1.246   5.905   6.515
 1501SOL     OW 5401   6.078   1.804   6.691
 1501SOL    HW1 5402   6.120   1.747   6.762
 1501SOL    HW2 5403   5.990   1.764   6.665
 1502SOL     OW 5404   5.657   1.793   6.122
 1502SOL    HW1 5405   5.566   1.824   6.148
 1502SOL    HW2 5406   5.726   1.848   6.170
 1503SOL     OW 5407   0.652   2.870   2.533
 1503SOL    HW1 5408   0.611   2.860   2.624
 1503SOL    HW2 5409   0.625   2.958   2.494
 1504SOL     OW 5410   0.678   0.178   3.537
 1504SOL    HW1 5411   0.663   0.237   3.616
 1504SOL    HW2 5412   0.596   0.124   3.519
 1505SOL     OW 5413   5.028   6.552   5.792
 1505SOL    HW1 5414   5.061   6.516   5.879
 1505SOL    HW2 5415   5.083   6.631   5.765
 1506SOL     OW 5416   1.463   0.406   0.552
 1506SOL    HW1 5417   1.542   0.381   0.608
 1506SOL    HW2 5418   1.389   0.438   0.611
 1507SOL     OW 5419   0.247   1.700   3.931
 1507SOL    HW1 5420   0.253   1.655   4.020
 1507SOL    HW2 5421   0.295   1.645   3.863
 1508SOL     OW 5422   0.267   1.482   0.918
 1508SOL    HW1 5423   0.208   1.539   0.975
 1508SOL    HW2 5424   0.362   1.493   0.948
 1509SOL     OW 5425   4.995   1.026   4.997
 1509SOL    HW1 5426   4.933   1.085   5.049
 1509SOL    HW2 5427   4.964   1.021   4.902
 1510SOL     OW 5428   4.601   0.067   4.166
 1510SOL    HW1 5429   4.670   0.139   4.157
 1510SOL    HW2 5430   4.647   7.003   4.168
 1511SOL     OW 5431   3.479   3.952   4.193
 1511SOL    HW1 5432   3.550   3.883   4.207
 1511SOL    HW2 5433   3.478   4.015   4.271
 1512SOL     OW 5434   5.843   5.472   1.443
 1512SOL    HW1 5435   5.936   5.508   1.443
 1512SOL    HW2 5436   5.846   5.372   1.437
 1513SOL     OW 5437   3.417   0.249   4.600
 1513SOL    HW1 5438   3.499   0.210   4.643
 1513SOL    HW2 5439   3.368   0.177   4.551
 1514SOL     OW 5440   3.511   2.167   5.798
 1514SOL    HW1 5441   3.537   2.110   5.876
 1514SOL    HW2 5442   3.531   2.118   5.713
 1515SOL     OW 5443   6.488   1.257   2.297
 1515SOL    HW1 5444   6.487   1.323   2.222
 1515SOL    HW2 5445   6.495   1.305   2.384
 1516SOL     OW 5446   5.955   5.447   5.174
 1516SOL    HW1 5447   6.047   5.469   5.205
 1516SOL    HW2 5448   5.932   5.353   5.198
 1517SOL     OW 5449   4.525   6.825   2.870
 1517SOL    HW1 5450   4.430   6.818   2.899
 1517SOL    HW2 5451   4.529   6.837   2.771
 1518SOL     OW 5452   6.260   3.131   0.718
 1518SOL    HW1 5453   6.189   3.175   0.772
 1518SOL    HW2 5454   6.254   3.163   0.623
 1519SOL     OW 5455   6.512   4.508   0.951
 1519SOL    HW1 5456   6.471   4.552   1.031
 1519SOL    HW2 5457   6.483   4.557   0.868
 1520SOL     OW 5458   1.004   4.734   1.909
 1520SOL    HW1 5459   0.904   4.733   1.910
 1520SOL    HW2 5460   1.037   4.678   1.833
 1521SOL     OW 5461   1.905   4.694   0.161
 1521SOL    HW1 5462   1.976   4.738   0.108
 1521SOL    HW2 5463   1.821   4.749   0.158
 1522SOL     OW 5464   5.334   5.316   4.270
 1522SOL    HW1 5465   5.411   5.299   4.331
 1522SOL    HW2 5466   5.329   5.243   4.201
 1523SOL     OW 5467   3.536   6.953   6.852
 1523SOL    HW1 5468   3.491   7.020   6.911
 1523SOL    HW2 5469   3.625   6.988   6.823
 1524SOL     OW 5470   2.934   1.832   2.262
 1524SOL    HW1 5471   2.838   1.804   2.256
 1524SOL    HW2 5472   2.940   1.931   2.272
 1525SOL     OW 5473   6.131   3.012   1.353
 1525SOL    HW1 5474   6.201   2.946   1.376
 1525SOL    HW2 5475   6.133   3.088   1.418
 1526SOL     OW 5476   0.399   1.061   6.219
 1526SOL    HW1 5477   0.351   0.974   6.228
 1526SOL    HW2 5478   0.356   1.116   6.148
 1527SOL     OW 5479   4.021   0.673   4.592
 1527SOL    HW1 5480   3.934   0.624   4.591
 1527SOL    HW2 5481   4.075   0.649   4.512
 1528SOL     OW 5482   3.851   4.966   1.140
 1528SOL    HW1 5483   3.786   4.913   1.085
 1528SOL    HW2 5484   3.843   5.063   1.116
 1529SOL     OW 5485   4.817   1.208   6.851
 1529SOL    HW1 5486   4.792   1.138   6.918
 1529SOL    HW2 5487   4.871   1.167   6.778
 1530SOL     OW 5488   3.153   0.934   1.464
 1530SOL    HW1 5489   3.077   0.926   1.528
 1530SOL    HW2 5490   3.140   0.870   1.388
 1531SOL     OW 5491   4.753   0.585   4.751
 1531SOL    HW1 5492   4.711   0.601   4.662
 1531SOL    HW2 5493   4.720   0.498   4.789
 1532SOL     OW 5494   3.605   4.389   5.584
 1532SOL    HW1 5495   3.633   4.469   5.531
 1532SOL    HW2 5496   3.571   4.318   5.522
 1533SOL     OW 5497   5.543   5.709   0.393
 1533SOL    HW1 5498   5.525   5.610   0.390
 1533SOL    HW2 5499   5.479   5.756   0.331
 1534SOL     OW 5500   3.831   5.443   6.900
 1534SOL    HW1 5501   3.803   5.535   6.870
 1534SOL    HW2 5502   3.930   5.442   6.915
 1535SOL     OW 5503   5.406   5.979   4.942
 1535SOL    HW1 5504   5.380   6.060   4.994
 1535SOL    HW2 5505   5.327   5.919   4.931
 1536SOL     OW 5506   3.909   4.963   0.124
 1536SOL    HW1 5507   4.006   4.988   0.117
 1536SOL    HW2 5508   3.867   4.964   0.034
 1537SOL     OW 5509   4.128   5.717   3.559
 1537SOL    HW1 5510   4.220   5.732   3.524
 1537SOL    HW2 5511   4.132   5.670   3.647
 1538SOL     OW 5512   3.111   0.910   0.160
 1538SOL    HW1 5513   3.172   0.979   0.122
 1538SOL    HW2 5514   3.016   0.939   0.148
 1539SOL     OW 5515   4.916   3.227   2.179
 1539SOL    HW1 5516   4.877   3.141   2.147
 1539SOL    HW2 5517   4.886   3.244   2.273
 1540SOL     OW 5518   0.830   6.764   5.402
 1540SOL    HW1 5519   0.738   6.783   5.437
 1540SOL    HW2 5520   0.834   6.670   5.367
 1541SOL     OW 5521   2.879   3.368   4.395
 1541SOL    HW1 5522   2.886   3.306   4.473
 1541SOL    HW2 5523   2.800   3.343   4.339
 1542SOL     OW 5524   6.409   0.002   2.097
 1542SOL    HW1 5525   6.346   0.063   2.144
 1542SOL    HW2 5526   6.414   0.027   2.000
 1543SOL     OW 5527   3.800   5.149   5.916
 1543SOL    HW1 5528   3.703   5.139   5.893
 1543SOL    HW2 5529   3.815   5.125   6.012
 1544SOL     OW 5530   2.976   3.936   3.664
 1544SOL    HW1 5531   3.065   3.980   3.676
 1544SOL    HW2 5532   2.912   3.970   3.732
 1545SOL     OW 5533   5.754   0.800   2.806
 1545SOL    HW1 5534   5.833   0.859   2.816
 1545SOL    HW2 5535   5.753   0.733   2.880
 1546SOL     OW 5536   5.521   6.025   6.101
 1546SOL    HW1 5537   5.482   5.998   6.189
 1546SOL    HW2 5538   5.568   5.947   6.060
 1547SOL     OW 5539   1.721   3.724   1.324
 1547SOL    HW1 5540   1.666   3.770   1.393
 1547SOL    HW2 5541   1.721   3.778   1.239
 1548SOL     OW 5542   5.478   3.657   0.289
 1548SOL    HW1 5543   5.419   3.593   0.338
 1548SOL    HW2 5544   5.536   3.607   0.225
 1549SOL     OW 5545   4.720   1.409   3.517
 1549SOL    HW1 5546   4.801   1.399   3.576
 1549SOL    HW2 5547   4.651   1.343   3.546
 1550SOL     OW 5548   3.123   3.375   1.306
 1550SOL    HW1 5549   3.160   3.374   1.399
 1550SOL    HW2 5550   3.049   3.442   1.301
 1551SOL     OW 5551   1.240   5.296   6.751
 1551SOL    HW1 5552   1.213   5.290   6.847
 1551SOL    HW2 5553   1.321   5.353   6.743
 1552SOL     OW 5554   1.722   5.531   0.652
 1552SOL    HW1 5555   1.797   5.471   0.623
 1552SOL    HW2 5556   1.724   5.615   0.598
 1553SOL     OW 5557   6.904   1.488   6.294
 1553SOL    HW1 5558   6.866   1.565   6.344
 1553SOL    HW2 5559   6.878   1.402   6.338
 1554SOL     OW 5560   2.998   2.150   3.379
 1554SOL    HW1 5561   3.091   2.127   3.351
 1554SOL    HW2 5562   2.957   2.212   3.312
 1555SOL     OW 5563   5.932   3.582   6.821
 1555SOL    HW1 5564   5.837   3.614   6.822
 1555SOL    HW2 5565   5.938   3.496   6.771
 1556SOL     OW 5566   1.988   1.443   5.957
 1556SOL    HW1 5567   1.987   1.525   5.899
 1556SOL    HW2 5568   1.941   1.368   5.910
 1557SOL     OW 5569   2.171   4.081   6.103
 1557SOL    HW1 5570   2.116   4.142   6.159
 1557SOL    HW2 5571   2.164   4.108   6.007
 1558SOL     OW 5572   6.430   0.735   4.084
 1558SOL    HW1 5573   6.509   0.794   4.067
 1558SOL    HW2 5574   6.401   0.745   4.180
 1559SOL     OW 5575   1.728   3.571   6.571
 1559SOL    HW1 5576   1.682   3.617   6.647
 1559SOL    HW2 5577   1.780   3.638   6.518
 1560SOL     OW 5578   0.307   0.450   6.291
 1560SOL    HW1 5579   0.294   0.421   6.196
 1560SOL    HW2 5580   0.396   0.493   6.301
 1561SOL     OW 5581   4.849   6.428   3.870
 1561SOL    HW1 5582   4.941   6.464   3.859
 1561SOL    HW2 5583   4.825   6.425   3.967
 1562SOL     OW 5584   4.922   6.017   2.597
 1562SOL    HW1 5585   4.968   6.060   2.675
 1562SOL    HW2 5586   4.834   6.061   2.582
 1563SOL     OW 5587   2.824   0.550   5.374
 1563SOL    HW1 5588   2.901   0.489   5.394
 1563SOL    HW2 5589   2.858   0.644   5.366
 1564SOL     OW 5590   1.121   0.496   3.151
 1564SOL    HW1 5591   1.046   0.471   3.212
 1564SOL    HW2 5592   1.150   0.590   3.172
 1565SOL     OW 5593   4.706   4.270   2.675
 1565SOL    HW1 5594   4.636   4.301   2.610
 1565SOL    HW2 5595   4.748   4.186   2.642
 1566SOL     OW 5596   5.634   3.805   3.196
 1566SOL    HW1 5597   5.730   3.832   3.189
 1566SOL    HW2 5598   5.589   3.818   3.107
 1567SOL     OW 5599   5.808   6.083   0.117
 1567SOL    HW1 5600   5.723   6.093   0.168
 1567SOL    HW2 5601   5.790   6.034   0.032
 1568SOL     OW 5602   1.595   6.908   0.532
 1568SOL    HW1 5603   1.579   6.949   0.621
 1568SOL    HW2 5604   1.519   6.930   0.470
 1569SOL     OW 5605   4.468   5.998   3.821
 1569SOL    HW1 5606   4.442   6.057   3.744
 1569SOL    HW2 5607   4.567   5.987   3.821
 1570SOL     OW 5608   2.680   0.832   0.870
 1570SOL    HW1 5609   2.731   0.846   0.954
 1570SOL    HW2 5610   2.743   0.827   0.792
 1571SOL     OW 5611   5.954   3.518   1.138
 1571SOL    HW1 5612   5.886   3.573   1.187
 1571SOL    HW2 5613   5.938   3.421   1.156
 1572SOL     OW 5614   0.495   0.669   2.724
 1572SOL    HW1 5615   0.459   0.587   2.768
 1572SOL    HW2 5616   0.503   0.742   2.791
 1573SOL     OW 5617   5.144   0.848   1.657
 1573SOL    HW1 5618   5.134   0.763   1.708
 1573SOL    HW2 5619   5.054   0.888   1.641
 1574SOL     OW 5620   0.396   1.960   1.434
 1574SOL    HW1 5621   0.435   2.038   1.484
 1574SOL    HW2 5622   0.442   1.876   1.462
 1575SOL     OW 5623   2.494   1.922   0.485
 1575SOL    HW1 5624   2.516   1.849   0.549
 1575SOL    HW2 5625   2.538   2.007   0.515
 1576SOL     OW 5626   6.042   6.378   4.252
 1576SOL    HW1 5627   6.138   6.380   4.224
 1576SOL    HW2 5628   6.023   6.290   4.297
 1577SOL     OW 5629   2.295   1.497   4.646
 1577SOL    HW1 5630   2.247   1.423   4.598
 1577SOL    HW2 5631   2.242   1.581   4.639
 1578SOL     OW 5632   5.981   3.520   5.444
 1578SOL    HW1 5633   5.997   3.422   5.447
 1578SOL    HW2 5634   5.943   3.545   5.355
 1579SOL     OW 5635   0.139   1.602   3.154
 1579SOL    HW1 5636   0.120   1.508   3.180
 1579SOL    HW2 5637   0.079   1.628   3.078
 1580SOL     OW 5638   2.684   4.078   5.324
 1580SOL    HW1 5639   2.751   4.106   5.256
 1580SOL    HW2 5640   2.614   4.021   5.281
 1581SOL     OW 5641   6.864   4.171   4.542
 1581SOL    HW1 5642   6.909   4.089   4.579
 1581SOL    HW2 5643   6.931   4.244   4.534
 1582SOL     OW 5644   1.058   5.269   4.622
 1582SOL    HW1 5645   1.043   5.314   4.534
 1582SOL    HW2 5646   1.045   5.170   4.611
 1583SOL     OW 5647   1.872   2.574   4.055
 1583SOL    HW1 5648   1.933   2.640   4.098
 1583SOL    HW2 5649   1.798   2.550   4.118
 1584SOL     OW 5650   2.168   6.965   4.878
 1584SOL    HW1 5651   2.166   6.930   4.784
 1584SOL    HW2 5652   2.077   6.955   4.919
 1585SOL     OW 5653   5.459   1.636   3.287
 1585SOL    HW1 5654   5.468   1.735   3.280
 1585SOL    HW2 5655   5.442   1.598   3.197
 1586SOL     OW 5656   4.093   3.800   2.133
 1586SOL    HW1 5657   4.182   3.760   2.156
 1586SOL    HW2 5658   4.093   3.828   2.037
 1587SOL     OW 5659   2.791   5.331   5.978
 1587SOL    HW1 5660   2.833   5.345   6.068
 1587SOL    HW2 5661   2.862   5.312   5.911
 1588SOL     OW 5662   4.898   1.560   3.062
 1588SOL    HW1 5663   4.995   1.539   3.071
 1588SOL    HW2 5664   4.868   1.615   3.140
 1589SOL     OW 5665   5.919   3.917   3.596
 1589SOL    HW1 5666   5.899   4.013   3.576
 1589SOL    HW2 5667   5.911   3.901   3.695
 1590SOL     OW 5668   1.642   6.508   6.748
 1590SOL    HW1 5669   1.654   6.445   6.825
 1590SOL    HW2 5670   1.708   6.582   6.755
 1591SOL     OW 5671   0.856   4.790   2.916
 1591SOL    HW1 5672   0.914   4.724   2.964
 1591SOL    HW2 5673   0.846   4.763   2.821
 1592SOL     OW 5674   2.919   3.687   1.343
 1592SOL    HW1 5675   2.929   3.645   1.433
 1592SOL    HW2 5676   2.906   3.616   1.274
 1593SOL     OW 5677   1.260   6.300   4.723
 1593SOL    HW1 5678   1.259   6.371   4.653
 1593SOL    HW2 5679   1.354   6.286   4.755
 1594SOL     OW 5680   0.167   5.451   3.275
 1594SOL    HW1 5681   0.145   5.465   3.178
 1594SOL    HW2 5682   0.156   5.355   3.298
 1595SOL     OW 5683   0.215   4.705   6.529
 1595SOL    HW1 5684   0.159   4.658   6.460
 1595SOL    HW2 5685   0.207   4.658   6.616
 1596SOL     OW 5686   1.444   4.309   5.123
 1596SOL    HW1 5687   1.537   4.303   5.088
 1596SOL    HW2 5688   1.412   4.403   5.119
 1597SOL     OW 5689   2.665   5.744   0.930
 1597SOL    HW1 5690   2.745   5.775   0.981
 1597SOL    HW2 5691   2.599   5.818   0.923
 1598SOL     OW 5692   0.464   3.986   0.311
 1598SOL    HW1 5693   0.369   3.994   0.340
 1598SOL    HW2 5694   0.469   3.938   0.223
 1599SOL     OW 5695   4.394   3.400   5.908
 1599SOL    HW1 5696   4.438   3.311   5.922
 1599SOL    HW2 5697   4.390   3.420   5.810
 1600SOL     OW 5698   5.373   1.392   4.795
 1600SOL    HW1 5699   5.427   1.447   4.858
 1600SOL    HW2 5700   5.276   1.403   4.815
 1601SOL     OW 5701   1.905   4.875   4.309
 1601SOL    HW1 5702   1.922   4.921   4.397
 1601SOL    HW2 5703   1.832   4.922   4.260
 1602SOL     OW 5704   1.529   5.673   3.444
 1602SOL    HW1 5705   1.600   5.610   3.412
 1602SOL    HW2 5706   1.557   5.714   3.530
 1603SOL     OW 5707   1.248   6.734   1.830
 1603SOL    HW1 5708   1.199   6.728   1.743
 1603SOL    HW2 5709   1.290   6.646   1.851
 1604SOL     OW 5710   6.001   5.180   6.690
 1604SOL    HW1 5711   5.937   5.249   6.656
 1604SOL    HW2 5712   5.993   5.097   6.634
 1605SOL     OW 5713   6.475   0.207   2.460
 1605SOL    HW1 5714   6.526   0.244   2.382
 1605SOL    HW2 5715   6.451   0.112   2.441
 1606SOL     OW 5716   4.437   0.840   5.615
 1606SOL    HW1 5717   4.479   0.778   5.681
 1606SOL    HW2 5718   4.505   0.906   5.583
 1607SOL     OW 5719   4.967   2.761   0.906
 1607SOL    HW1 5720   4.930   2.713   0.986
 1607SOL    HW2 5721   4.926   2.853   0.901
 1608SOL     OW 5722   1.170   0.358   6.387
 1608SOL    HW1 5723   1.223   0.389   6.308
 1608SOL    HW2 5724   1.231   0.337   6.463
 1609SOL     OW 5725   6.009   2.186   6.179
 1609SOL    HW1 5726   6.100   2.226   6.184
 1609SOL    HW2 5727   6.009   2.095   6.221
 1610SOL     OW 5728   5.619   4.140   4.813
 1610SOL    HW1 5729   5.643   4.060   4.758
 1610SOL    HW2 5730   5.694   4.161   4.875
 1611SOL     OW 5731   3.768   3.067   2.286
 1611SOL    HW1 5732   3.736   3.158   2.310
 1611SOL    HW2 5733   3.709   2.998   2.329
 1612SOL     OW 5734   2.379   1.575   5.559
 1612SOL    HW1 5735   2.471   1.560   5.594
 1612SOL    HW2 5736   2.316   1.509   5.599
 1613SOL     OW 5737   2.411   5.777   0.803
 1613SOL    HW1 5738   2.492   5.726   0.777
 1613SOL    HW2 5739   2.332   5.744   0.751
 1614SOL     OW 5740   6.807   3.344   0.512
 1614SOL    HW1 5741   6.818   3.269   0.577
 1614SOL    HW2 5742   6.881   3.339   0.444
 1615SOL     OW 5743   0.001   5.048   1.108
 1615SOL    HW1 5744   6.995   5.137   1.139
 1615SOL    HW2 5745   7.021   5.044   1.008
 1616SOL     OW 5746   4.443   2.416   6.498
 1616SOL    HW1 5747   4.397   2.503   6.482
 1616SOL    HW2 5748   4.393   2.364   6.567
 1617SOL     OW 5749   5.981   0.153   2.481
 1617SOL    HW1 5750   5.975   0.139   2.579
 1617SOL    HW2 5751   6.071   0.191   2.458
 1618SOL     OW 5752   0.035   3.656   1.557
 1618SOL    HW1 5753   0.045   3.754   1.540
 1618SOL    HW2 5754   0.019   3.608   1.470
 1619SOL     OW 5755   1.321   3.602   4.507
 1619SOL    HW1 5756   1.413   3.598   4.547
 1619SOL    HW2 5757   1.327   3.585   4.409
 1620SOL     OW 5758   2.032   5.951   0.642
 1620SOL    HW1 5759   1.963   5.944   0.713
 1620SOL    HW2 5760   2.046   6.047   0.617
 1621SOL     OW 5761   0.402   0.672   6.682
 1621SOL    HW1 5762   0.461   0.710   6.753
 1621SOL    HW2 5763   0.415   0.722   6.596
 1622SOL     OW 5764   1.530   2.371   4.610
 1622SOL    HW1 5765   1.564   2.278   4.620
 1622SOL    HW2 5766   1.484   2.399   4.694
 1623SOL     OW 5767   2.801   2.767   6.318
 1623SOL    HW1 5768   2.882   2.711   6.301
 1623SOL    HW2 5769   2.829   2.861   6.338
 1624SOL     OW 5770   2.338   0.666   6.789
 1624SOL    HW1 5771   2.332   0.765   6.797
 1624SOL    HW2 5772   2.264   0.633   6.731
 1625SOL     OW 5773   1.376   5.385   2.082
 1625SOL    HW1 5774   1.387   5.290   2.109
 1625SOL    HW2 5775   1.459   5.417   2.036
 1626SOL     OW 5776   2.312   2.367   6.975
 1626SOL    HW1 5777   2.259   2.284   6.994
 1626SOL    HW2 5778   2.401   2.342   6.937
 1627SOL     OW 5779   6.419   1.673   4.325
 1627SOL    HW1 5780   6.488   1.669   4.253
 1627SOL    HW2 5781   6.435   1.600   4.391
 1628SOL     OW 5782   3.429   4.903   0.275
 1628SOL    HW1 5783   3.373   4.968   0.224
 1628SOL    HW2 5784   3.521   4.941   0.287
 1629SOL     OW 5785   3.138   2.231   4.505
 1629SOL    HW1 5786   3.171   2.143   4.472
 1629SOL    HW2 5787   3.128   2.228   4.605
 1630SOL     OW 5788   0.903   5.810   5.290
 1630SOL    HW1 5789   0.833   5.754   5.335
 1630SOL    HW2 5790   0.993   5.783   5.323
 1631SOL     OW 5791   6.814   0.525   5.962
 1631SOL    HW1 5792   6.721   0.558   5.946
 1631SOL    HW2 5793   6.818   0.427   5.944
 1632SOL     OW 5794   0.375   1.097   6.801
 1632SOL    HW1 5795   0.277   1.080   6.792
 1632SOL    HW2 5796   0.391   1.192   6.826
 1633SOL     OW 5797   5.914   2.832   2.621
 1633SOL    HW1 5798   5.948   2.740   2.639
 1633SOL    HW2 5799   5.834   2.827   2.561
 1634SOL     OW 5800   4.352   5.578   6.273
 1634SOL    HW1 5801   4.353   5.478   6.275
 1634SOL    HW2 5802   4.394   5.610   6.189
 1635SOL     OW 5803   6.493   5.837   4.806
 1635SOL    HW1 5804   6.580   5.789   4.798
 1635SOL    HW2 5805   6.509   5.936   4.809
 1636SOL     OW 5806   2.510   4.830   1.504
 1636SOL    HW1 5807   2.608   4.831   1.486
 1636SOL    HW2 5808   2.493   4.801   1.598
 1637SOL     OW 5809   6.828   2.472   2.623
 1637SOL    HW1 5810   6.877   2.535   2.564
 1637SOL    HW2 5811   6.771   2.411   2.568
 1638SOL     OW 5812   6.913   2.993   4.079
 1638SOL    HW1 5813   6.894   3.021   3.985
 1638SOL    HW2 5814   6.940   3.073   4.132
 1639SOL     OW 5815   5.506   5.922   3.115
 1639SOL    HW1 5816   5.574   5.857   3.080
 1639SOL    HW2 5817   5.538   5.959   3.202
 1640SOL     OW 5818   5.954   2.123   0.361
 1640SOL    HW1 5819   5.859   2.105   0.337
 1640SOL    HW2 5820   5.990   2.195   0.302
 1641SOL     OW 5821   5.336   3.059   3.324
 1641SOL    HW1 5822   5.256   3.040   3.382
 1641SOL    HW2 5823   5.398   2.981   3.327
 1642SOL     OW 5824   6.992   3.484   0.141
 1642SOL    HW1 5825   7.011   3.428   0.061
 1642SOL    HW2 5826   6.929   3.558   0.117
 1643SOL     OW 5827   3.571   6.757   5.095
 1643SOL    HW1 5828   3.631   6.833   5.118
 1643SOL    HW2 5829   3.556   6.755   4.996
 1644SOL     OW 5830   2.866   2.521   1.512
 1644SOL    HW1 5831   2.823   2.463   1.443
 1644SOL    HW2 5832   2.802   2.536   1.588
 1645SOL     OW 5833   2.815   6.197   5.693
 1645SOL    HW1 5834   2.850   6.257   5.765
 1645SOL    HW2 5835   2.869   6.209   5.610
 1646SOL     OW 5836   2.800   5.024   1.226
 1646SOL    HW1 5837   2.704   5.052   1.237
 1646SOL    HW2 5838   2.847   5.089   1.166
 1647SOL     OW 5839   6.058   2.858   3.320
 1647SOL    HW1 5840   6.027   2.913   3.398
 1647SOL    HW2 5841   6.062   2.762   3.347
 1648SOL     OW 5842   5.353   6.414   2.269
 1648SOL    HW1 5843   5.335   6.332   2.322
 1648SOL    HW2 5844   5.439   6.403   2.219
 1649SOL     OW 5845   3.278   0.373   2.665
 1649SOL    HW1 5846   3.179   0.365   2.650
 1649SOL    HW2 5847   3.324   0.390   2.578
 1650SOL     OW 5848   2.848   7.021   4.052
 1650SOL    HW1 5849   2.755   0.020   4.080
 1650SOL    HW2 5850   2.914   0.044   4.109
 1651SOL     OW 5851   0.300   0.251   0.378
 1651SOL    HW1 5852   0.248   0.318   0.326
 1651SOL    HW2 5853   0.240   0.209   0.447
 1652SOL     OW 5854   2.592   1.881   0.980
 1652SOL    HW1 5855   2.558   1.809   1.041
 1652SOL    HW2 5856   2.682   1.911   1.011
 1653SOL     OW 5857   0.289   5.171   1.157
 1653SOL    HW1 5858   0.209   5.112   1.153
 1653SOL    HW2 5859   0.315   5.185   1.253
 1654SOL     OW 5860   6.840   2.929   2.428
 1654SOL    HW1 5861   6.757   2.965   2.471
 1654SOL    HW2 5862   6.869   2.990   2.354
 1655SOL     OW 5863   5.683   4.712   6.168
 1655SOL    HW1 5864   5.647   4.637   6.224
 1655SOL    HW2 5865   5.642   4.708   6.077
 1656SOL     OW 5866   1.724   3.990   3.540
 1656SOL    HW1 5867   1.785   4.020   3.614
 1656SOL    HW2 5868   1.697   3.895   3.554
 1657SOL     OW 5869   1.216   0.876   5.679
 1657SOL    HW1 5870   1.117   0.871   5.668
 1657SOL    HW2 5871   1.245   0.818   5.755
 1658SOL     OW 5872   6.404   6.341   3.085
 1658SOL    HW1 5873   6.392   6.247   3.055
 1658SOL    HW2 5874   6.489   6.378   3.048
 1659SOL     OW 5875   3.707   2.207   6.510
 1659SOL    HW1 5876   3.750   2.195   6.599
 1659SOL    HW2 5877   3.610   2.185   6.516
 1660SOL     OW 5878   0.612   5.336   3.568
 1660SOL    HW1 5879   0.691   5.397   3.569
 1660SOL    HW2 5880   0.598   5.301   3.475
 1661SOL     OW 5881   3.231   1.809   2.313
 1661SOL    HW1 5882   3.265   1.717   2.294
 1661SOL    HW2 5883   3.148   1.826   2.259
 1662SOL     OW 5884   6.497   1.714   3.061
 1662SOL    HW1 5885   6.569   1.756   3.006
 1662SOL    HW2 5886   6.414   1.769   3.056
 1663SOL     OW 5887   3.347   0.352   3.495
 1663SOL    HW1 5888   3.366   0.386   3.403
 1663SOL    HW2 5889   3.379   0.258   3.504
 1664SOL     OW 5890   1.692   0.165   4.187
 1664SOL    HW1 5891   1.646   0.175   4.099
 1664SOL    HW2 5892   1.743   0.249   4.208
 1665SOL     OW 5893   0.101   1.449   2.696
 1665SOL    HW1 5894   0.006   1.423   2.683
 1665SOL    HW2 5895   0.141   1.393   2.769
 1666SOL     OW 5896   6.010   3.297   6.663
 1666SOL    HW1 5897   5.979   3.300   6.568
 1666SOL    HW2 5898   5.932   3.280   6.723
 1667SOL     OW 5899   5.832   6.843   0.240
 1667SOL    HW1 5900   5.903   6.773   0.244
 1667SOL    HW2 5901   5.840   6.894   0.155
 1668SOL     OW 5902   4.808   0.154   4.749
 1668SOL    HW1 5903   4.819   0.056   4.764
 1668SOL    HW2 5904   4.896   0.199   4.763
 1669SOL     OW 5905   5.505   5.907   0.141
 1669SOL    HW1 5906   5.529   6.002   0.161
 1669SOL    HW2 5907   5.531   5.885   0.047
 1670SOL     OW 5908   6.433   5.535   6.039
 1670SOL    HW1 5909   6.462   5.497   6.127
 1670SOL    HW2 5910   6.430   5.463   5.971
 1671SOL     OW 5911   4.480   2.898   0.993
 1671SOL    HW1 5912   4.457   2.858   1.082
 1671SOL    HW2 5913   4.502   2.826   0.928
 1672SOL     OW 5914   2.015   4.244   2.719
 1672SOL    HW1 5915   2.108   4.208   2.714
 1672SOL    HW2 5916   2.015   4.330   2.769
 1673SOL     OW 5917   6.439   2.812   5.043
 1673SOL    HW1 5918   6.408   2.833   4.950
 1673SOL    HW2 5919   6.518   2.751   5.039
 1674SOL     OW 5920   1.274   4.232   1.037
 1674SOL    HW1 5921   1.332   4.178   1.099
 1674SOL    HW2 5922   1.273   4.189   0.947
 1675SOL     OW 5923   4.209   0.607   6.643
 1675SOL    HW1 5924   4.274   0.593   6.569
 1675SOL    HW2 5925   4.216   0.531   6.708
 1676SOL     OW 5926   2.242   1.165   2.425
 1676SOL    HW1 5927   2.341   1.154   2.419
 1676SOL    HW2 5928   2.197   1.093   2.372
 1677SOL     OW 5929   5.740   2.051   5.378
 1677SOL    HW1 5930   5.671   2.001   5.326
 1677SOL    HW2 5931   5.707   2.143   5.400
 1678SOL     OW 5932   5.629   5.331   3.420
 1678SOL    HW1 5933   5.599   5.303   3.511
 1678SOL    HW2 5934   5.728   5.345   3.421
 1679SOL     OW 5935   1.561   3.978   5.558
 1679SOL    HW1 5936   1.599   3.906   5.501
 1679SOL    HW2 5937   1.462   3.964   5.568
 1680SOL     OW 5938   0.838   1.755   4.002
 1680SOL    HW1 5939   0.773   1.681   3.985
 1680SOL    HW2 5940   0.839   1.817   3.924
 1681SOL     OW 5941   6.088   5.297   1.077
 1681SOL    HW1 5942   6.100   5.241   0.996
 1681SOL    HW2 5943   5.994   5.330   1.081
 1682SOL     OW 5944   0.380   3.383   4.726
 1682SOL    HW1 5945   0.476   3.353   4.726
 1682SOL    HW2 5946   0.326   3.320   4.671
 1683SOL     OW 5947   4.102   4.937   0.917
 1683SOL    HW1 5948   4.083   4.956   1.013
 1683SOL    HW2 5949   4.070   4.845   0.894
 1684SOL     OW 5950   0.743   6.449   4.883
 1684SOL    HW1 5951   0.757   6.367   4.829
 1684SOL    HW2 5952   0.832   6.490   4.905
 1685SOL     OW 5953   1.903   1.012   6.413
 1685SOL    HW1 5954   1.850   0.927   6.406
 1685SOL    HW2 5955   1.848   1.082   6.459
 1686SOL     OW 5956   1.640   5.559   5.653
 1686SOL    HW1 5957   1.679   5.572   5.744
 1686SOL    HW2 5958   1.541   5.544   5.661
 1687SOL     OW 5959   2.005   3.927   1.966
 1687SOL    HW1 5960   2.069   3.922   2.042
 1687SOL    HW2 5961   1.915   3.894   1.996
 1688SOL     OW 5962   1.349   1.789   3.064
 1688SOL    HW1 5963   1.257   1.767   3.097
 1688SOL    HW2 5964   1.371   1.731   2.986
 1689SOL     OW 5965   3.254   2.120   1.949
 1689SOL    HW1 5966   3.307   2.163   1.876
 1689SOL    HW2 5967   3.312   2.059   2.002
 1690SOL     OW 5968   1.565   1.996   3.065
 1690SOL    HW1 5969   1.663   2.008   3.082
 1690SOL    HW2 5970   1.533   1.912   3.110
 1691SOL     OW 5971   5.341   4.032   3.169
 1691SOL    HW1 5972   5.370   4.028   3.265
 1691SOL    HW2 5973   5.378   4.116   3.127
 1692SOL     OW 5974   6.770   0.074   1.219
 1692SOL    HW1 5975   6.695   0.042   1.160
 1692SOL    HW2 5976   6.743   0.067   1.315
 1693SOL     OW 5977   1.785   2.431   3.664
 1693SOL    HW1 5978   1.691   2.399   3.670
 1693SOL    HW2 5979   1.848   2.356   3.684
 1694SOL     OW 5980   4.306   6.232   4.944
 1694SOL    HW1 5981   4.230   6.168   4.953
 1694SOL    HW2 5982   4.391   6.188   4.972
 1695SOL     OW 5983   2.191   1.984   5.426
 1695SOL    HW1 5984   2.132   1.960   5.349
 1695SOL    HW2 5985   2.182   2.081   5.446
 1696SOL     OW 5986   5.138   5.523   0.159
 1696SOL    HW1 5987   5.095   5.434   0.172
 1696SOL    HW2 5988   5.153   5.567   0.248
 1697SOL     OW 5989   0.673   6.831   0.944
 1697SOL    HW1 5990   0.742   6.777   0.992
 1697SOL    HW2 5991   0.648   6.784   0.859
 1698SOL     OW 5992   4.914   1.709   1.197
 1698SOL    HW1 5993   4.900   1.630   1.256
 1698SOL    HW2 5994   4.901   1.682   1.101
 1699SOL     OW 5995   2.690   2.433   1.298
 1699SOL    HW1 5996   2.644   2.345   1.287
 1699SOL    HW2 5997   2.699   2.477   1.208
 1700SOL     OW 5998   6.648   2.706   3.568
 1700SOL    HW1 5999   6.660   2.622   3.620
 1700SOL    HW2 6000   6.682   2.693   3.475
 1701SOL     OW 6001   5.534   2.517   4.904
 1701SOL    HW1 6002   5.474   2.448   4.944
 1701SOL    HW2 6003   5.617   2.525   4.959
 1702SOL     OW 6004   6.650   3.832   1.370
 1702SOL    HW1 6005   6.553   3.848   1.356
 1702SOL    HW2 6006   6.672   3.842   1.467
 1703SOL     OW 6007   2.990   3.839   1.708
 1703SOL    HW1 6008   3.011   3.812   1.801
 1703SOL    HW2 6009   2.978   3.939   1.704
 1704SOL     OW 6010   0.740   1.278   0.464
 1704SOL    HW1 6011   0.790   1.360   0.436
 1704SOL    HW2 6012   0.799   1.199   0.457
 1705SOL     OW 6013   3.461   2.215   1.281
 1705SOL    HW1 6014   3.515   2.282   1.230
 1705SOL    HW2 6015   3.387   2.262   1.329
 1706SOL     OW 6016   4.279   0.512   1.509
 1706SOL    HW1 6017   4.378   0.500   1.518
 1706SOL    HW2 6018   4.233   0.425   1.526
 1707SOL     OW 6019   4.365   1.522   2.306
 1707SOL    HW1 6020   4.455   1.482   2.321
 1707SOL    HW2 6021   4.343   1.584   2.381
 1708SOL     OW 6022   6.738   5.940   2.791
 1708SOL    HW1 6023   6.698   6.009   2.731
 1708SOL    HW2 6024   6.816   5.980   2.840
 1709SOL     OW 6025   2.292   6.964   2.530
 1709SOL    HW1 6026   2.278   6.900   2.454
 1709SOL    HW2 6027   2.364   0.003   2.505
 1710SOL     OW 6028   0.144   3.914   3.531
 1710SOL    HW1 6029   0.143   3.977   3.609
 1710SOL    HW2 6030   0.175   3.963   3.450
 1711SOL     OW 6031   1.382   4.559   5.072
 1711SOL    HW1 6032   1.294   4.550   5.119
 1711SOL    HW2 6033   1.367   4.596   4.981
 1712SOL     OW 6034   0.793   4.146   6.576
 1712SOL    HW1 6035   0.740   4.101   6.649
 1712SOL    HW2 6036   0.891   4.141   6.599
 1713SOL     OW 6037   2.084   2.379   1.367
 1713SOL    HW1 6038   1.997   2.425   1.350
 1713SOL    HW2 6039   2.094   2.361   1.465
 1714SOL     OW 6040   3.698   1.947   6.929
 1714SOL    HW1 6041   3.627   1.899   6.878
 1714SOL    HW2 6042   3.656   1.994   7.007
 1715SOL     OW 6043   6.834   3.289   3.569
 1715SOL    HW1 6044   6.793   3.228   3.501
 1715SOL    HW2 6045   6.847   3.239   3.654
 1716SOL     OW 6046   5.801   0.123   1.238
 1716SOL    HW1 6047   5.831   0.218   1.244
 1716SOL    HW2 6048   5.844   0.070   1.311
 1717SOL     OW 6049   2.335   6.040   6.803
 1717SOL    HW1 6050   2.350   5.952   6.758
 1717SOL    HW2 6051   2.397   6.048   6.881
 1718SOL     OW 6052   2.344   3.172   0.362
 1718SOL    HW1 6053   2.357   3.121   0.277
 1718SOL    HW2 6054   2.270   3.130   0.415
 1719SOL     OW 6055   2.174   3.188   1.493
 1719SOL    HW1 6056   2.222   3.169   1.579
 1719SOL    HW2 6057   2.214   3.269   1.450
 1720SOL     OW 6058   6.622   2.219   0.809
 1720SOL    HW1 6059   6.625   2.192   0.906
 1720SOL    HW2 6060   6.546   2.171   0.765
 1721SOL     OW 6061   1.647   6.267   2.827
 1721SOL    HW1 6062   1.649   6.367   2.821
 1721SOL    HW2 6063   1.563   6.233   2.785
 1722SOL     OW 6064   5.615   0.082   2.755
 1722SOL    HW1 6065   5.557   0.008   2.720
 1722SOL    HW2 6066   5.584   0.169   2.716
 1723SOL     OW 6067   6.376   2.607   3.178
 1723SOL    HW1 6068   6.280   2.624   3.158
 1723SOL    HW2 6069   6.389   2.600   3.277
 1724SOL     OW 6070   5.967   1.089   0.335
 1724SOL    HW1 6071   6.006   1.169   0.291
 1724SOL    HW2 6072   5.885   1.060   0.285
 1725SOL     OW 6073   3.669   4.445   0.123
 1725SOL    HW1 6074   3.698   4.422   0.216
 1725SOL    HW2 6075   3.676   4.363   0.065
 1726SOL     OW 6076   6.855   4.595   4.537
 1726SOL    HW1 6077   6.767   4.572   4.495
 1726SOL    HW2 6078   6.885   4.520   4.596
 1727SOL     OW 6079   3.761   3.467   4.839
 1727SOL    HW1 6080   3.682   3.490   4.783
 1727SOL    HW2 6081   3.831   3.423   4.783
 1728SOL     OW 6082   4.886   4.565   4.379
 1728SOL    HW1 6083   4.899   4.585   4.282
 1728SOL    HW2 6084   4.828   4.484   4.388
 1729SOL     OW 6085   1.708   4.210   3.090
 1729SOL    HW1 6086   1.743   4.171   3.005
 1729SOL    HW2 6087   1.784   4.234   3.150
 1730SOL     OW 6088   6.558   1.148   4.958
 1730SOL    HW1 6089   6.558   1.134   5.057
 1730SOL    HW2 6090   6.636   1.205   4.932
 1731SOL     OW 6091   1.643   4.785   1.985
 1731SOL    HW1 6092   1.583   4.734   1.924
 1731SOL    HW2 6093   1.739   4.770   1.959
 1732SOL     OW 6094   2.244   4.531   7.022
 1732SOL    HW1 6095   2.286   4.495   6.939
 1732SOL    HW2 6096   2.182   4.463   0.035
 1733SOL     OW 6097   1.395   3.738   2.134
 1733SOL    HW1 6098   1.460   3.687   2.190
 1733SOL    HW2 6099   1.440   3.818   2.094
 1734SOL     OW 6100   4.694   2.780   1.351
 1734SOL    HW1 6101   4.712   2.699   1.406
 1734SOL    HW2 6102   4.682   2.859   1.412
 1735SOL     OW 6103   5.728   5.829   1.461
 1735SOL    HW1 6104   5.745   5.783   1.548
 1735SOL    HW2 6105   5.716   5.761   1.389
 1736SOL     OW 6106   4.740   2.590   6.955
 1736SOL    HW1 6107   4.798   2.565   6.878
 1736SOL    HW2 6108   4.664   2.524   6.962
 1737SOL     OW 6109   2.253   0.247   3.687
 1737SOL    HW1 6110   2.339   0.284   3.719
 1737SOL    HW2 6111   2.237   0.157   3.729
 1738SOL     OW 6112   2.153   2.842   3.420
 1738SOL    HW1 6113   2.121   2.799   3.335
 1738SOL    HW2 6114   2.202   2.926   3.397
 1739SOL     OW 6115   4.504   2.219   5.064
 1739SOL    HW1 6116   4.576   2.189   5.127
 1739SOL    HW2 6117   4.420   2.169   5.084
 1740SOL     OW 6118   6.850   1.007   6.538
 1740SOL    HW1 6119   6.831   0.942   6.465
 1740SOL    HW2 6120   6.877   1.095   6.497
 1741SOL     OW 6121   1.719   0.732   2.826
 1741SOL    HW1 6122   1.709   0.633   2.812
 1741SOL    HW2 6123   1.795   0.748   2.890
 1742SOL     OW 6124   4.662   6.654   6.316
 1742SOL    HW1 6125   4.657   6.751   6.295
 1742SOL    HW2 6126   4.607   6.602   6.250
 1743SOL     OW 6127   1.441   0.893   1.978
 1743SOL    HW1 6128   1.485   0.843   1.903
 1743SOL    HW2 6129   1.456   0.992   1.965
 1744SOL     OW 6130   2.059   0.261   1.726
 1744SOL    HW1 6131   2.141   0.311   1.754
 1744SOL    HW2 6132   2.039   0.282   1.630
 1745SOL     OW 6133   6.603   1.642   4.106
 1745SOL    HW1 6134   6.660   1.725   4.108
 1745SOL    HW2 6135   6.624   1.589   4.024
 1746SOL     OW 6136   2.839   5.888   6.026
 1746SOL    HW1 6137   2.849   5.973   5.976
 1746SOL    HW2 6138   2.781   5.903   6.106
 1747SOL     OW 6139   4.728   6.591   2.053
 1747SOL    HW1 6140   4.664   6.645   1.998
 1747SOL    HW2 6141   4.723   6.620   2.148
 1748SOL     OW 6142   6.343   1.856   3.635
 1748SOL    HW1 6143   6.360   1.918   3.559
 1748SOL    HW2 6144   6.298   1.905   3.709
 1749SOL     OW 6145   4.014   6.731   5.957
 1749SOL    HW1 6146   4.033   6.750   5.860
 1749SOL    HW2 6147   3.918   6.702   5.967
 1750SOL     OW 6148   5.344   1.251   2.727
 1750SOL    HW1 6149   5.432   1.250   2.775
 1750SOL    HW2 6150   5.288   1.175   2.760
 1751SOL     OW 6151   3.013   4.879   4.487
 1751SOL    HW1 6152   3.073   4.805   4.518
 1751SOL    HW2 6153   3.057   4.967   4.503
 1752SOL     OW 6154   6.561   2.584   0.904
 1752SOL    HW1 6155   6.568   2.531   0.820
 1752SOL    HW2 6156   6.653   2.610   0.934
 1753SOL     OW 6157   0.502   0.367   0.046
 1753SOL    HW1 6158   0.438   0.317   0.103
 1753SOL    HW2 6159   0.595   0.332   0.061
 1754SOL     OW 6160   3.736   3.725   1.051
 1754SOL    HW1 6161   3.675   3.804   1.050
 1754SOL    HW2 6162   3.681   3.641   1.054
 1755SOL     OW 6163   5.157   4.651   1.763
 1755SOL    HW1 6164   5.075   4.627   1.815
 1755SOL    HW2 6165   5.179   4.748   1.778
 1756SOL     OW 6166   5.958   4.878   4.774
 1756SOL    HW1 6167   5.984   4.866   4.870
 1756SOL    HW2 6168   5.869   4.836   4.758
 1757SOL     OW 6169   1.921   6.801   4.986
 1757SOL    HW1 6170   1.915   6.835   5.080
 1757SOL    HW2 6171   1.888   6.871   4.923
 1758SOL     OW 6172   2.707   1.088   3.203
 1758SOL    HW1 6173   2.758   1.004   3.184
 1758SOL    HW2 6174   2.737   1.127   3.290
 1759SOL     OW 6175   0.539   5.028   6.303
 1759SOL    HW1 6176   0.609   4.990   6.364
 1759SOL    HW2 6177   0.575   5.032   6.210
 1760SOL     OW 6178   6.301   1.896   1.312
 1760SOL    HW1 6179   6.266   1.977   1.264
 1760SOL    HW2 6180   6.394   1.877   1.279
 1761SOL     OW 6181   6.651   0.422   0.860
 1761SOL    HW1 6182   6.651   0.453   0.764
 1761SOL    HW2 6183   6.586   0.347   0.870
 1762SOL     OW 6184   6.374   1.936   5.172
 1762SOL    HW1 6185   6.369   2.027   5.132
 1762SOL    HW2 6186   6.375   1.867   5.100
 1763SOL     OW 6187   1.930   4.058   4.484
 1763SOL    HW1 6188   1.830   4.047   4.476
 1763SOL    HW2 6189   1.971   3.968   4.502
 1764SOL     OW 6190   1.921   4.069   2.291
 1764SOL    HW1 6191   1.926   4.152   2.347
 1764SOL    HW2 6192   1.896   3.992   2.350
 1765SOL     OW 6193   3.108   1.315   6.821
 1765SOL    HW1 6194   3.122   1.404   6.864
 1765SOL    HW2 6195   3.045   1.260   6.877
 1766SOL     OW 6196   5.572   2.634   4.460
 1766SOL    HW1 6197   5.490   2.607   4.410
 1766SOL    HW2 6198   5.569   2.596   4.552
 1767SOL     OW 6199   5.061   4.108   2.666
 1767SOL    HW1 6200   5.043   4.191   2.613
 1767SOL    HW2 6201   5.138   4.124   2.728
 1768SOL     OW 6202   4.347   0.154   4.859
 1768SOL    HW1 6203   4.408   0.107   4.795
 1768SOL    HW2 6204   4.257   0.111   4.858
 1769SOL     OW 6205   4.154   2.195   4.332
 1769SOL    HW1 6206   4.214   2.255   4.385
 1769SOL    HW2 6207   4.174   2.206   4.234
 1770SOL     OW 6208   1.513   5.458   4.666
 1770SOL    HW1 6209   1.611   5.472   4.684
 1770SOL    HW2 6210   1.465   5.545   4.671
 1771SOL     OW 6211   2.831   5.918   6.471
 1771SOL    HW1 6212   2.830   6.006   6.423
 1771SOL    HW2 6213   2.785   5.927   6.559
 1772SOL     OW 6214   3.826   0.304   4.025
 1772SOL    HW1 6215   3.803   0.265   4.115
 1772SOL    HW2 6216   3.887   0.382   4.037
 1773SOL     OW 6217   2.688   5.164   5.526
 1773SOL    HW1 6218   2.765   5.104   5.547
 1773SOL    HW2 6219   2.602   5.114   5.539
 1774SOL     OW 6220   4.321   5.763   1.881
 1774SOL    HW1 6221   4.408   5.740   1.925
 1774SOL    HW2 6222   4.339   5.821   1.801
 1775SOL     OW 6223   1.515   3.736   3.350
 1775SOL    HW1 6224   1.519   3.672   3.273
 1775SOL    HW2 6225   1.581   3.810   3.335
 1776SOL     OW 6226   3.712   6.375   4.571
 1776SOL    HW1 6227   3.765   6.402   4.652
 1776SOL    HW2 6228   3.769   6.385   4.490
 1777SOL     OW 6229   3.930   5.405   6.602
 1777SOL    HW1 6230   3.995   5.386   6.529
 1777SOL    HW2 6231   3.865   5.474   6.572
 1778SOL     OW 6232   4.562   3.529   5.676
 1778SOL    HW1 6233   4.581   3.598   5.605
 1778SOL    HW2 6234   4.484   3.474   5.649
 1779SOL     OW 6235   4.448   0.502   4.803
 1779SOL    HW1 6236   4.379   0.433   4.827
 1779SOL    HW2 6237   4.536   0.476   4.843
 1780SOL     OW 6238   3.800   2.950   6.920
 1780SOL    HW1 6239   3.865   2.894   6.869
 1780SOL    HW2 6240   3.711   2.903   6.924
 1781SOL     OW 6241   4.051   6.024   2.735
 1781SOL    HW1 6242   4.099   6.110   2.751
 1781SOL    HW2 6243   4.113   5.958   2.694
 1782SOL     OW 6244   2.984   1.555   2.932
 1782SOL    HW1 6245   2.926   1.575   2.853
 1782SOL    HW2 6246   3.043   1.477   2.911
 1783SOL     OW 6247   1.792   5.881   5.869
 1783SOL    HW1 6248   1.771   5.932   5.786
 1783SOL    HW2 6249   1.882   5.906   5.903
 1784SOL     OW 6250   3.971   1.365   6.416
 1784SOL    HW1 6251   3.955   1.284   6.359
 1784SOL    HW2 6252   4.069   1.372   6.437
 1785SOL     OW 6253   6.372   4.034   2.896
 1785SOL    HW1 6254   6.378   3.939   2.925
 1785SOL    HW2 6255   6.364   4.038   2.797
 1786SOL     OW 6256   2.225   2.816   0.044
 1786SOL    HW1 6257   2.156   2.757   0.086
 1786SOL    HW2 6258   2.186   2.907   0.031
 1787SOL     OW 6259   2.676   1.357   4.984
 1787SOL    HW1 6260   2.598   1.407   4.947
 1787SOL    HW2 6261   2.645   1.287   5.048
 1788SOL     OW 6262   2.884   3.476   6.978
 1788SOL    HW1 6263   2.907   3.416   6.901
 1788SOL    HW2 6264   2.964   3.529   7.004
 1789SOL     OW 6265   5.711   1.589   2.438
 1789SOL    HW1 6266   5.708   1.600   2.338
 1789SOL    HW2 6267   5.689   1.676   2.482
 1790SOL     OW 6268   4.278   6.435   3.975
 1790SOL    HW1 6269   4.316   6.443   3.883
 1790SOL    HW2 6270   4.217   6.356   3.979
 1791SOL     OW 6271   6.088   0.441   3.585
 1791SOL    HW1 6272   6.063   0.477   3.674
 1791SOL    HW2 6273   6.181   0.470   3.562
 1792SOL     OW 6274   6.237   3.410   5.280
 1792SOL    HW1 6275   6.261   3.505   5.260
 1792SOL    HW2 6276   6.166   3.379   5.217
 1793SOL     OW 6277   6.042   6.979   3.598
 1793SOL    HW1 6278   6.068   0.026   3.534
 1793SOL    HW2 6279   6.101   6.899   3.584
 1794SOL     OW 6280   5.025   6.380   5.244
 1794SOL    HW1 6281   4.995   6.414   5.155
 1794SOL    HW2 6282   4.952   6.327   5.286
 1795SOL     OW 6283   1.055   2.093   1.601
 1795SOL    HW1 6284   0.971   2.078   1.549
 1795SOL    HW2 6285   1.038   2.073   1.698
 1796SOL     OW 6286   2.559   0.911   5.271
 1796SOL    HW1 6287   2.564   0.925   5.369
 1796SOL    HW2 6288   2.577   0.997   5.223
 1797SOL     OW 6289   1.536   7.022   0.779
 1797SOL    HW1 6290   1.469   0.045   0.836
 1797SOL    HW2 6291   1.621   7.010   0.831
 1798SOL     OW 6292   4.731   2.244   3.802
 1798SOL    HW1 6293   4.816   2.266   3.756
 1798SOL    HW2 6294   4.676   2.327   3.812
 1799SOL     OW 6295   6.928   2.640   5.301
 1799SOL    HW1 6296   6.971   2.583   5.372
 1799SOL    HW2 6297   6.932   2.736   5.329
 1800SOL     OW 6298   4.253   4.649   1.921
 1800SOL    HW1 6299   4.198   4.705   1.983
 1800SOL    HW2 6300   4.266   4.697   1.834
 1801SOL     OW 6301   0.169   0.075   1.779
 1801SOL    HW1 6302   0.251   0.087   1.836
 1801SOL    HW2 6303   0.196   0.065   1.683
 1802SOL     OW 6304   5.115   5.440   4.152
 1802SOL    HW1 6305   5.212   5.427   4.173
 1802SOL    HW2 6306   5.060   5.411   4.230
 1803SOL     OW 6307   0.029   5.682   6.396
 1803SOL    HW1 6308   0.056   5.589   6.370
 1803SOL    HW2 6309   0.036   5.743   6.317
 1804SOL     OW 6310   2.446   3.729   5.342
 1804SOL    HW1 6311   2.515   3.688   5.401
 1804SOL    HW2 6312   2.480   3.815   5.304
 1805SOL     OW 6313   5.574   4.142   6.001
 1805SOL    HW1 6314   5.587   4.047   5.975
 1805SOL    HW2 6315   5.624   4.201   5.937
 1806SOL     OW 6316   0.471   0.033   6.870
 1806SOL    HW1 6317   0.411   0.063   6.945
 1806SOL    HW2 6318   0.499   0.112   6.817
 1807SOL     OW 6319   5.074   3.035   4.606
 1807SOL    HW1 6320   5.051   2.948   4.561
 1807SOL    HW2 6321   5.115   3.016   4.695
 1808SOL     OW 6322   0.328   4.316   5.759
 1808SOL    HW1 6323   0.361   4.377   5.831
 1808SOL    HW2 6324   0.251   4.262   5.793
 1809SOL     OW 6325   2.016   2.412   5.050
 1809SOL    HW1 6326   2.044   2.482   5.115
 1809SOL    HW2 6327   2.022   2.448   4.957
 1810SOL     OW 6328   2.767   6.778   3.790
 1810SOL    HW1 6329   2.678   6.823   3.796
 1810SOL    HW2 6330   2.805   6.790   3.699
 1811SOL     OW 6331   5.864   5.872   3.360
 1811SOL    HW1 6332   5.862   5.772   3.373
 1811SOL    HW2 6333   5.770   5.905   3.349
 1812SOL     OW 6334   4.285   5.820   4.757
 1812SOL    HW1 6335   4.302   5.890   4.688
 1812SOL    HW2 6336   4.188   5.799   4.761
 1813SOL     OW 6337   6.233   4.043   0.988
 1813SOL    HW1 6338   6.183   3.957   0.994
 1813SOL    HW2 6339   6.325   4.031   1.027
 1814SOL     OW 6340   5.443   0.063   2.404
 1814SOL    HW1 6341   5.519   0.066   2.338
 1814SOL    HW2 6342   5.358   0.044   2.356
 1815SOL     OW 6343   0.966   1.912   2.609
 1815SOL    HW1 6344   0.879   1.892   2.562
 1815SOL    HW2 6345   0.996   2.005   2.585
 1816SOL     OW 6346   2.907   3.504   1.095
 1816SOL    HW1 6347   2.969   3.482   1.019
 1816SOL    HW2 6348   2.837   3.432   1.103
 1817SOL     OW 6349   2.648   6.597   2.719
 1817SOL    HW1 6350   2.588   6.586   2.640
 1817SOL    HW2 6351   2.730   6.648   2.692
 1818SOL     OW 6352   1.277   0.026   3.054
 1818SOL    HW1 6353   1.300   0.123   3.046
 1818SOL    HW2 6354   1.305   7.004   2.971
 1819SOL     OW 6355   1.217   4.061   2.028
 1819SOL    HW1 6356   1.150   4.054   1.955
 1819SOL    HW2 6357   1.274   4.142   2.015
 1820SOL     OW 6358   3.675   1.040   2.848
 1820SOL    HW1 6359   3.747   1.079   2.907
 1820SOL    HW2 6360   3.664   1.096   2.767
 1821SOL     OW 6361   0.628   1.291   2.178
 1821SOL    HW1 6362   0.596   1.279   2.272
 1821SOL    HW2 6363   0.700   1.360   2.176
 1822SOL     OW 6364   3.171   2.250   1.169
 1822SOL    HW1 6365   3.081   2.274   1.131
 1822SOL    HW2 6366   3.175   2.277   1.265
 1823SOL     OW 6367   4.009   6.145   3.390
 1823SOL    HW1 6368   3.980   6.056   3.353
 1823SOL    HW2 6369   3.965   6.218   3.339
 1824SOL     OW 6370   3.943   2.160   1.108
 1824SOL    HW1 6371   3.901   2.215   1.180
 1824SOL    HW2 6372   4.040   2.146   1.128
 1825SOL     OW 6373   1.387   0.267   2.261
 1825SOL    HW1 6374   1.430   0.297   2.346
 1825SOL    HW2 6375   1.316   0.333   2.235
 1826SOL     OW 6376   3.390   1.407   1.487
 1826SOL    HW1 6377   3.314   1.410   1.552
 1826SOL    HW2 6378   3.408   1.312   1.461
 1827SOL     OW 6379   0.446   5.065   2.349
 1827SOL    HW1 6380   0.410   5.054   2.257
 1827SOL    HW2 6381   0.524   5.128   2.347
 1828SOL     OW 6382   0.391   2.326   0.022
 1828SOL    HW1 6383   0.401   2.236   0.065
 1828SOL    HW2 6384   0.310   2.325   6.988
 1829SOL     OW 6385   4.625   0.112   3.330
 1829SOL    HW1 6386   4.678   0.152   3.405
 1829SOL    HW2 6387   4.683   0.049   3.278
 1830SOL     OW 6388   5.436   5.814   3.917
 1830SOL    HW1 6389   5.345   5.835   3.881
 1830SOL    HW2 6390   5.492   5.774   3.845
 1831SOL     OW 6391   5.758   6.460   2.714
 1831SOL    HW1 6392   5.660   6.468   2.732
 1831SOL    HW2 6393   5.809   6.493   2.793
 1832SOL     OW 6394   5.338   2.112   0.714
 1832SOL    HW1 6395   5.429   2.153   0.723
 1832SOL    HW2 6396   5.334   2.028   0.770
 1833SOL     OW 6397   5.486   0.973   4.679
 1833SOL    HW1 6398   5.530   1.042   4.736
 1833SOL    HW2 6399   5.466   1.012   4.589
 1834SOL     OW 6400   3.370   4.094   6.998
 1834SOL    HW1 6401   3.398   4.008   6.955
 1834SOL    HW2 6402   3.451   4.144   0.002
 1835SOL     OW 6403   1.307   4.678   1.710
 1835SOL    HW1 6404   1.367   4.603   1.682
 1835SOL    HW2 6405   1.302   4.747   1.638
 1836SOL     OW 6406   6.934   2.100   1.055
 1836SOL    HW1 6407   6.923   2.046   0.971
 1836SOL    HW2 6408   6.999   2.054   1.116
 1837SOL     OW 6409   0.625   2.141   3.771
 1837SOL    HW1 6410   0.625   2.201   3.692
 1837SOL    HW2 6411   0.619   2.196   3.855
 1838SOL     OW 6412   0.243   1.747   3.510
 1838SOL    HW1 6413   0.193   1.796   3.439
 1838SOL    HW2 6414   0.219   1.785   3.600
 1839SOL     OW 6415   4.690   2.676   5.031
 1839SOL    HW1 6416   4.659   2.580   5.029
 1839SOL    HW2 6417   4.717   2.703   4.939
 1840SOL     OW 6418   3.205   6.096   1.595
 1840SOL    HW1 6419   3.136   6.026   1.614
 1840SOL    HW2 6420   3.274   6.096   1.668
 1841SOL     OW 6421   2.012   3.614   4.790
 1841SOL    HW1 6422   1.914   3.613   4.769
 1841SOL    HW2 6423   2.026   3.652   4.882
 1842SOL     OW 6424   0.721   5.714   0.453
 1842SOL    HW1 6425   0.804   5.769   0.445
 1842SOL    HW2 6426   0.647   5.771   0.490
 1843SOL     OW 6427   2.230   2.615   4.373
 1843SOL    HW1 6428   2.293   2.687   4.403
 1843SOL    HW2 6429   2.244   2.533   4.429
 1844SOL     OW 6430   3.813   1.425   5.561
 1844SOL    HW1 6431   3.912   1.413   5.554
 1844SOL    HW2 6432   3.767   1.353   5.508
 1845SOL     OW 6433   2.349   0.541   6.190
 1845SOL    HW1 6434   2.383   0.576   6.277
 1845SOL    HW2 6435   2.415   0.477   6.151
 1846SOL     OW 6436   4.145   1.999   6.778
 1846SOL    HW1 6437   4.224   1.963   6.829
 1846SOL    HW2 6438   4.076   1.927   6.770
 1847SOL     OW 6439   1.688   0.799   6.467
 1847SOL    HW1 6440   1.631   0.786   6.548
 1847SOL    HW2 6441   1.630   0.813   6.387
 1848SOL     OW 6442   1.945   5.865   2.812
 1848SOL    HW1 6443   2.041   5.877   2.840
 1848SOL    HW2 6444   1.904   5.954   2.797
 1849SOL     OW 6445   4.126   1.085   0.537
 1849SOL    HW1 6446   4.081   1.009   0.583
 1849SOL    HW2 6447   4.086   1.098   0.446
 1850SOL     OW 6448   6.293   2.091   2.603
 1850SOL    HW1 6449   6.207   2.138   2.625
 1850SOL    HW2 6450   6.353   2.153   2.552
 1851SOL     OW 6451   0.191   1.257   1.133
 1851SOL    HW1 6452   0.197   1.208   1.046
 1851SOL    HW2 6453   0.132   1.337   1.122
 1852SOL     OW 6454   4.604   3.944   1.009
 1852SOL    HW1 6455   4.642   3.982   1.092
 1852SOL    HW2 6456   4.527   3.884   1.032
 1853SOL     OW 6457   0.810   3.339   1.951
 1853SOL    HW1 6458   0.899   3.343   1.996
 1853SOL    HW2 6459   0.797   3.422   1.896
 1854SOL     OW 6460   2.963   6.077   3.984
 1854SOL    HW1 6461   2.912   6.008   4.035
 1854SOL    HW2 6462   3.028   6.032   3.922
 1855SOL     OW 6463   4.606   4.559   0.176
 1855SOL    HW1 6464   4.683   4.555   0.240
 1855SOL    HW2 6465   4.557   4.645   0.189
 1856SOL     OW 6466   6.211   3.279   5.642
 1856SOL    HW1 6467   6.236   3.339   5.717
 1856SOL    HW2 6468   6.138   3.218   5.671
 1857SOL     OW 6469   3.836   1.123   5.478
 1857SOL    HW1 6470   3.893   1.169   5.410
 1857SOL    HW2 6471   3.858   1.158   5.569
 1858SOL     OW 6472   5.952   2.973   3.553
 1858SOL    HW1 6473   5.983   3.028   3.631
 1858SOL    HW2 6474   5.889   2.903   3.586
 1859SOL     OW 6475   3.955   1.341   3.596
 1859SOL    HW1 6476   3.960   1.245   3.566
 1859SOL    HW2 6477   3.987   1.348   3.691
 1860SOL     OW 6478   6.818   1.072   3.357
 1860SOL    HW1 6479   6.785   1.000   3.418
 1860SOL    HW2 6480   6.740   1.128   3.327
 1861SOL     OW 6481   4.811   6.317   2.138
 1861SOL    HW1 6482   4.817   6.407   2.093
 1861SOL    HW2 6483   4.893   6.303   2.193
 1862SOL     OW 6484   2.231   6.707   6.779
 1862SOL    HW1 6485   2.168   6.756   6.840
 1862SOL    HW2 6486   2.235   6.754   6.691
 1863SOL     OW 6487   2.591   2.462   0.604
 1863SOL    HW1 6488   2.651   2.541   0.609
 1863SOL    HW2 6489   2.531   2.470   0.525
 1864SOL     OW 6490   0.869   0.276   5.313
 1864SOL    HW1 6491   0.866   0.365   5.359
 1864SOL    HW2 6492   0.903   0.289   5.220
 1865SOL     OW 6493   3.816   0.677   5.677
 1865SOL    HW1 6494   3.858   0.757   5.634
 1865SOL    HW2 6495   3.840   0.595   5.625
 1866SOL     OW 6496   4.673   4.643   2.218
 1866SOL    HW1 6497   4.691   4.570   2.151
 1866SOL    HW2 6498   4.647   4.602   2.305
 1867SOL     OW 6499   0.801   4.214   0.585
 1867SOL    HW1 6500   0.816   4.292   0.525
 1867SOL    HW2 6501   0.816   4.242   0.680
 1868SOL     OW 6502   5.380   4.804   0.125
 1868SOL    HW1 6503   5.357   4.723   0.070
 1868SOL    HW2 6504   5.341   4.885   0.082
 1869SOL     OW 6505   6.472   2.336   4.689
 1869SOL    HW1 6506   6.501   2.382   4.772
 1869SOL    HW2 6507   6.374   2.316   4.694
 1870SOL     OW 6508   1.981   4.449   5.662
 1870SOL    HW1 6509   2.004   4.382   5.592
 1870SOL    HW2 6510   2.062   4.505   5.682
 1871SOL     OW 6511   1.062   6.706   0.493
 1871SOL    HW1 6512   0.996   6.666   0.557
 1871SOL    HW2 6513   1.025   6.792   0.457
 1872SOL     OW 6514   3.652   4.239   6.875
 1872SOL    HW1 6515   3.636   4.148   6.836
 1872SOL    HW2 6516   3.735   4.277   6.836
 1873SOL     OW 6517   4.503   1.173   5.239
 1873SOL    HW1 6518   4.486   1.077   5.261
 1873SOL    HW2 6519   4.424   1.211   5.191
 1874SOL     OW 6520   2.695   1.489   1.181
 1874SOL    HW1 6521   2.640   1.572   1.185
 1874SOL    HW2 6522   2.650   1.421   1.123
 1875SOL     OW 6523   0.948   0.843   6.612
 1875SOL    HW1 6524   0.876   0.838   6.681
 1875SOL    HW2 6525   0.927   0.781   6.537
 1876SOL     OW 6526   3.429   0.768   5.688
 1876SOL    HW1 6527   3.459   0.863   5.698
 1876SOL    HW2 6528   3.418   0.747   5.591
 1877SOL     OW 6529   0.507   0.531   3.256
 1877SOL    HW1 6530   0.592   0.479   3.249
 1877SOL    HW2 6531   0.521   0.623   3.219
 1878SOL     OW 6532   6.687   2.077   3.716
 1878SOL    HW1 6533   6.654   1.985   3.736
 1878SOL    HW2 6534   6.784   2.073   3.693
 1879SOL     OW 6535   1.092   3.737   4.296
 1879SOL    HW1 6536   1.083   3.824   4.344
 1879SOL    HW2 6537   1.018   3.675   4.324
 1880SOL     OW 6538   6.919   0.999   4.950
 1880SOL    HW1 6539   6.860   1.043   4.882
 1880SOL    HW2 6540   7.014   1.026   4.934
 1881SOL     OW 6541   5.647   2.388   2.286
 1881SOL    HW1 6542   5.616   2.416   2.196
 1881SOL    HW2 6543   5.609   2.299   2.309
 1882SOL     OW 6544   1.117   4.371   6.499
 1882SOL    HW1 6545   1.207   4.399   6.532
 1882SOL    HW2 6546   1.080   4.441   6.438
 1883SOL     OW 6547   6.350   2.368   2.723
 1883SOL    HW1 6548   6.402   2.308   2.662
 1883SOL    HW2 6549   6.409   2.399   2.797
 1884SOL     OW 6550   1.102   2.001   0.883
 1884SOL    HW1 6551   1.157   1.978   0.964
 1884SOL    HW2 6552   1.103   1.924   0.820
 1885SOL     OW 6553   1.755   1.933   6.227
 1885SOL    HW1 6554   1.685   1.982   6.174
 1885SOL    HW2 6555   1.797   1.996   6.293
 1886SOL     OW 6556   1.769   0.055   1.875
 1886SOL    HW1 6557   1.864   0.064   1.905
 1886SOL    HW2 6558   1.748   6.984   1.860
 1887SOL     OW 6559   0.768   5.653   5.811
 1887SOL    HW1 6560   0.857   5.640   5.767
 1887SOL    HW2 6561   0.780   5.659   5.910
 1888SOL     OW 6562   3.104   1.964   6.648
 1888SOL    HW1 6563   3.133   2.001   6.559
 1888SOL    HW2 6564   3.184   1.950   6.705
 1889SOL     OW 6565   0.187   3.398   4.284
 1889SOL    HW1 6566   0.285   3.419   4.283
 1889SOL    HW2 6567   0.137   3.470   4.237
 1890SOL     OW 6568   0.891   5.649   3.832
 1890SOL    HW1 6569   0.874   5.734   3.883
 1890SOL    HW2 6570   0.964   5.665   3.766
 1891SOL     OW 6571   4.407   2.671   1.593
 1891SOL    HW1 6572   4.433   2.761   1.629
 1891SOL    HW2 6573   4.330   2.634   1.646
 1892SOL     OW 6574   0.275   0.365   1.881
 1892SOL    HW1 6575   0.204   0.380   1.949
 1892SOL    HW2 6576   0.291   0.450   1.830
 1893SOL     OW 6577   3.442   2.908   1.892
 1893SOL    HW1 6578   3.476   2.995   1.928
 1893SOL    HW2 6579   3.508   2.870   1.828
 1894SOL     OW 6580   3.655   3.724   4.115
 1894SOL    HW1 6581   3.686   3.717   4.210
 1894SOL    HW2 6582   3.714   3.788   4.066
 1895SOL     OW 6583   4.193   6.795   0.541
 1895SOL    HW1 6584   4.224   6.826   0.450
 1895SOL    HW2 6585   4.209   6.868   0.607
 1896SOL     OW 6586   5.995   1.438   0.733
 1896SOL    HW1 6587   6.057   1.391   0.671
 1896SOL    HW2 6588   5.931   1.373   0.773
 1897SOL     OW 6589   1.916   4.988   2.499
 1897SOL    HW1 6590   1.924   4.933   2.415
 1897SOL    HW2 6591   1.983   5.062   2.497
 1898SOL     OW 6592   2.314   4.518   2.694
 1898SOL    HW1 6593   2.276   4.557   2.610
 1898SOL    HW2 6594   2.254   4.445   2.726
 1899SOL     OW 6595   0.673   1.207   0.069
 1899SOL    HW1 6596   0.627   1.253   0.145
 1899SOL    HW2 6597   0.746   1.266   0.033
 1900SOL     OW 6598   2.371   0.603   0.014
 1900SOL    HW1 6599   2.464   0.568   0.024
 1900SOL    HW2 6600   2.356   0.634   6.946
 1901SOL     OW 6601   2.502   2.339   0.919
 1901SOL    HW1 6602   2.449   2.303   0.996
 1901SOL    HW2 6603   2.509   2.438   0.926
 1902SOL     OW 6604   2.809   0.556   4.480
 1902SOL    HW1 6605   2.811   0.517   4.388
 1902SOL    HW2 6606   2.789   0.654   4.474
 1903SOL     OW 6607   0.834   3.518   2.842
 1903SOL    HW1 6608   0.891   3.465   2.905
 1903SOL    HW2 6609   0.846   3.482   2.749
 1904SOL     OW 6610   5.588   5.190   3.009
 1904SOL    HW1 6611   5.536   5.156   3.087
 1904SOL    HW2 6612   5.686   5.184   3.029
 1905SOL     OW 6613   0.936   0.411   3.324
 1905SOL    HW1 6614   0.867   0.460   3.378
 1905SOL    HW2 6615   0.954   0.322   3.366
 1906SOL     OW 6616   2.886   0.775   6.019
 1906SOL    HW1 6617   2.974   0.814   5.992
 1906SOL    HW2 6618   2.893   0.675   6.023
 1907SOL     OW 6619   4.823   2.671   1.127
 1907SOL    HW1 6620   4.900   2.679   1.190
 1907SOL    HW2 6621   4.746   2.724   1.162
 1908SOL     OW 6622   3.870   6.493   6.272
 1908SOL    HW1 6623   3.932   6.542   6.334
 1908SOL    HW2 6624   3.783   6.542   6.266
 1909SOL     OW 6625   0.698   3.519   3.881
 1909SOL    HW1 6626   0.760   3.541   3.805
 1909SOL    HW2 6627   0.704   3.421   3.902
 1910SOL     OW 6628   6.778   6.366   5.283
 1910SOL    HW1 6629   6.772   6.437   5.354
 1910SOL    HW2 6630   6.717   6.388   5.208
 1911SOL     OW 6631   7.021   4.061   4.801
 1911SOL    HW1 6632   0.004   4.027   4.894
 1911SOL    HW2 6633   0.030   4.155   4.796
 1912SOL     OW 6634   2.738   5.532   2.510
 1912SOL    HW1 6635   2.734   5.503   2.606
 1912SOL    HW2 6636   2.661   5.593   2.491
 1913SOL     OW 6637   2.406   0.159   4.398
 1913SOL    HW1 6638   2.439   0.138   4.490
 1913SOL    HW2 6639   2.483   0.191   4.342
 1914SOL     OW 6640   3.984   3.734   0.061
 1914SOL    HW1 6641   3.991   3.711   0.158
 1914SOL    HW2 6642   3.999   3.832   0.049
 1915SOL     OW 6643   4.818   2.984   5.724
 1915SOL    HW1 6644   4.800   2.896   5.679
 1915SOL    HW2 6645   4.771   3.057   5.674
 1916SOL     OW 6646   4.475   6.321   1.157
 1916SOL    HW1 6647   4.508   6.368   1.239
 1916SOL    HW2 6648   4.439   6.231   1.182
 1917SOL     OW 6649   2.991   3.502   0.229
 1917SOL    HW1 6650   3.070   3.475   0.284
 1917SOL    HW2 6651   2.959   3.423   0.176
 1918SOL     OW 6652   0.924   1.036   4.652
 1918SOL    HW1 6653   0.983   1.096   4.599
 1918SOL    HW2 6654   0.853   1.090   4.697
 1919SOL     OW 6655   1.529   1.514   0.825
 1919SOL    HW1 6656   1.444   1.514   0.878
 1919SOL    HW2 6657   1.560   1.420   0.812
 1920SOL     OW 6658   6.081   2.822   2.343
 1920SOL    HW1 6659   6.151   2.828   2.272
 1920SOL    HW2 6660   5.991   2.813   2.300
 1921SOL     OW 6661   0.927   3.081   0.040
 1921SOL    HW1 6662   1.013   3.031   0.030
 1921SOL    HW2 6663   0.941   3.177   0.020
 1922SOL     OW 6664   3.296   3.232   1.965
 1922SOL    HW1 6665   3.394   3.217   1.977
 1922SOL    HW2 6666   3.252   3.146   1.938
 1923SOL     OW 6667   4.346   0.963   0.204
 1923SOL    HW1 6668   4.438   0.924   0.206
 1923SOL    HW2 6669   4.280   0.896   0.236
 1924SOL     OW 6670   4.543   6.980   0.799
 1924SOL    HW1 6671   4.503   7.008   0.886
 1924SOL    HW2 6672   4.634   7.020   0.789
 1925SOL     OW 6673   0.967   4.549   1.673
 1925SOL    HW1 6674   1.013   4.469   1.635
 1925SOL    HW2 6675   0.870   4.545   1.651
 1926SOL     OW 6676   3.366   0.140   2.031
 1926SOL    HW1 6677   3.380   0.128   1.933
 1926SOL    HW2 6678   3.293   0.207   2.047
 1927SOL     OW 6679   2.384   3.801   0.832
 1927SOL    HW1 6680   2.399   3.744   0.913
 1927SOL    HW2 6681   2.340   3.886   0.859
 1928SOL     OW 6682   4.956   4.888   4.158
 1928SOL    HW1 6683   4.917   4.951   4.226
 1928SOL    HW2 6684   4.883   4.830   4.121
 1929SOL     OW 6685   2.434   0.644   2.344
 1929SOL    HW1 6686   2.358   0.650   2.409
 1929SOL    HW2 6687   2.452   0.735   2.307
 1930SOL     OW 6688   5.218   3.562   6.776
 1930SOL    HW1 6689   5.291   3.494   6.782
 1930SOL    HW2 6690   5.130   3.517   6.767
 1931SOL     OW 6691   0.967   1.823   6.750
 1931SOL    HW1 6692   0.975   1.762   6.829
 1931SOL    HW2 6693   0.949   1.769   6.668
 1932SOL     OW 6694   4.592   2.644   3.334
 1932SOL    HW1 6695   4.599   2.602   3.424
 1932SOL    HW2 6696   4.524   2.595   3.279
 1933SOL     OW 6697   0.666   1.770   0.486
 1933SOL    HW1 6698   0.602   1.697   0.462
 1933SOL    HW2 6699   0.616   1.857   0.489
 1934SOL     OW 6700   0.495   0.423   5.366
 1934SOL    HW1 6701   0.557   0.436   5.443
 1934SOL    HW2 6702   0.450   0.334   5.375
 1935SOL     OW 6703   4.589   4.435   4.006
 1935SOL    HW1 6704   4.538   4.518   3.984
 1935SOL    HW2 6705   4.610   4.385   3.922
 1936SOL     OW 6706   5.279   3.774   3.831
 1936SOL    HW1 6707   5.374   3.790   3.860
 1936SOL    HW2 6708   5.245   3.856   3.785
 1937SOL     OW 6709   4.521   6.089   6.709
 1937SOL    HW1 6710   4.538   6.129   6.619
 1937SOL    HW2 6711   4.570   6.002   6.716
 1938SOL     OW 6712   1.395   2.888   6.896
 1938SOL    HW1 6713   1.425   2.794   6.879
 1938SOL    HW2 6714   1.408   2.943   6.814
 1939SOL     OW 6715   0.345   5.597   4.561
 1939SOL    HW1 6716   0.395   5.541   4.495
 1939SOL    HW2 6717   0.410   5.644   4.622
 1940SOL     OW 6718   5.856   4.600   2.112
 1940SOL    HW1 6719   5.832   4.587   2.015
 1940SOL    HW2 6720   5.909   4.684   2.121
 1941SOL     OW 6721   0.330   2.471   3.680
 1941SOL    HW1 6722   0.385   2.486   3.762
 1941SOL    HW2 6723   0.389   2.464   3.600
 1942SOL     OW 6724   5.457   3.799   2.640
 1942SOL    HW1 6725   5.439   3.896   2.660
 1942SOL    HW2 6726   5.533   3.767   2.696
 1943SOL     OW 6727   1.093   1.419   2.294
 1943SOL    HW1 6728   1.144   1.504   2.302
 1943SOL    HW2 6729   1.101   1.367   2.379
 1944SOL     OW 6730   6.879   3.641   0.610
 1944SOL    HW1 6731   6.896   3.549   0.576
 1944SOL    HW2 6732   6.961   3.676   0.655
 1945SOL     OW 6733   4.090   6.528   0.867
 1945SOL    HW1 6734   4.094   6.430   0.884
 1945SOL    HW2 6735   4.007   6.566   0.907
 1946SOL     OW 6736   5.951   6.247   1.287
 1946SOL    HW1 6737   6.040   6.269   1.247
 1946SOL    HW2 6738   5.960   6.165   1.344
 1947SOL     OW 6739   6.381   5.236   3.721
 1947SOL    HW1 6740   6.359   5.176   3.797
 1947SOL    HW2 6741   6.436   5.313   3.753
 1948SOL     OW 6742   6.066   3.870   2.760
 1948SOL    HW1 6743   6.113   3.796   2.807
 1948SOL    HW2 6744   5.977   3.885   2.801
 1949SOL     OW 6745   3.662   4.187   0.514
 1949SOL    HW1 6746   3.634   4.092   0.502
 1949SOL    HW2 6747   3.683   4.204   0.611
 1950SOL     OW 6748   3.935   3.548   4.055
 1950SOL    HW1 6749   3.891   3.459   4.070
 1950SOL    HW2 6750   3.963   3.586   4.143
 1951SOL     OW 6751   6.679   4.363   5.744
 1951SOL    HW1 6752   6.687   4.306   5.662
 1951SOL    HW2 6753   6.697   4.459   5.721
 1952SOL     OW 6754   4.979   4.148   1.340
 1952SOL    HW1 6755   5.039   4.081   1.297
 1952SOL    HW2 6756   5.033   4.226   1.371
 1953SOL     OW 6757   7.011   1.239   6.440
 1953SOL    HW1 6758   0.068   1.258   6.493
 1953SOL    HW2 6759   0.011   1.209   6.348
 1954SOL     OW 6760   5.343   1.033   1.694
 1954SOL    HW1 6761   5.343   1.042   1.793
 1954SOL    HW2 6762   5.270   0.972   1.665
 1955SOL     OW 6763   0.652   1.687   1.884
 1955SOL    HW1 6764   0.711   1.675   1.804
 1955SOL    HW2 6765   0.677   1.620   1.954
 1956SOL     OW 6766   5.469   0.858   2.770
 1956SOL    HW1 6767   5.568   0.846   2.770
 1956SOL    HW2 6768   5.447   0.955   2.760
 1957SOL     OW 6769   4.915   3.101   3.802
 1957SOL    HW1 6770   4.910   3.191   3.845
 1957SOL    HW2 6771   5.010   3.069   3.804
 1958SOL     OW 6772   4.586   1.544   0.952
 1958SOL    HW1 6773   4.550   1.458   0.987
 1958SOL    HW2 6774   4.521   1.584   0.888
 1959SOL     OW 6775   6.482   0.082   3.898
 1959SOL    HW1 6776   6.431   0.166   3.919
 1959SOL    HW2 6777   6.478   0.021   3.977
 1960SOL     OW 6778   6.130   2.575   2.995
 1960SOL    HW1 6779   6.058   2.637   2.965
 1960SOL    HW2 6780   6.219   2.613   2.969
 1961SOL     OW 6781   6.478   4.678   4.793
 1961SOL    HW1 6782   6.463   4.697   4.696
 1961SOL    HW2 6783   6.544   4.744   4.830
 1962SOL     OW 6784   1.382   6.142   2.800
 1962SOL    HW1 6785   1.393   6.169   2.895
 1962SOL    HW2 6786   1.284   6.127   2.780
 1963SOL     OW 6787   0.782   1.019   1.794
 1963SOL    HW1 6788   0.740   1.023   1.703
 1963SOL    HW2 6789   0.866   0.965   1.789
 1964SOL     OW 6790   5.428   4.614   1.737
 1964SOL    HW1 6791   5.330   4.632   1.739
 1964SOL    HW2 6792   5.461   4.599   1.830
 1965SOL     OW 6793   0.952   4.035   3.889
 1965SOL    HW1 6794   1.001   3.950   3.872
 1965SOL    HW2 6795   0.859   4.027   3.852
 1966SOL     OW 6796   1.557   4.944   1.128
 1966SOL    HW1 6797   1.525   5.033   1.094
 1966SOL    HW2 6798   1.478   4.889   1.155
 1967SOL     OW 6799   6.681   2.459   4.110
 1967SOL    HW1 6800   6.734   2.421   4.033
 1967SOL    HW2 6801   6.623   2.533   4.076
 1968SOL     OW 6802   2.543   0.934   5.548
 1968SOL    HW1 6803   2.461   0.877   5.556
 1968SOL    HW2 6804   2.520   1.028   5.570
 1969SOL     OW 6805   3.074   0.639   1.927
 1969SOL    HW1 6806   3.019   0.582   1.988
 1969SOL    HW2 6807   3.081   0.731   1.965
 1970SOL     OW 6808   6.411   6.766   5.226
 1970SOL    HW1 6809   6.320   6.792   5.194
 1970SOL    HW2 6810   6.481   6.819   5.177
 1971SOL     OW 6811   1.369   6.984   5.721
 1971SOL    HW1 6812   1.351   7.012   5.816
 1971SOL    HW2 6813   1.341   0.031   5.659
 1972SOL     OW 6814   5.940   2.749   1.303
 1972SOL    HW1 6815   5.939   2.782   1.397
 1972SOL    HW2 6816   6.028   2.704   1.285
 1973SOL     OW 6817   2.635   3.586   1.456
 1973SOL    HW1 6818   2.676   3.499   1.430
 1973SOL    HW2 6819   2.654   3.654   1.386
 1974SOL     OW 6820   4.100   6.397   4.569
 1974SOL    HW1 6821   4.197   6.397   4.544
 1974SOL    HW2 6822   4.065   6.491   4.568
 1975SOL     OW 6823   2.092   2.811   3.680
 1975SOL    HW1 6824   2.005   2.761   3.685
 1975SOL    HW2 6825   2.111   2.835   3.585
 1976SOL     OW 6826   6.391   0.037   6.827
 1976SOL    HW1 6827   6.376   0.009   6.922
 1976SOL    HW2 6828   6.345   0.125   6.811
 1977SOL     OW 6829   2.879   3.493   6.534
 1977SOL    HW1 6830   2.935   3.437   6.473
 1977SOL    HW2 6831   2.801   3.529   6.484
 1978SOL     OW 6832   2.564   6.122   2.678
 1978SOL    HW1 6833   2.522   6.210   2.701
 1978SOL    HW2 6834   2.651   6.112   2.725
 1979SOL     OW 6835   6.098   5.094   6.922
 1979SOL    HW1 6836   6.045   5.131   6.845
 1979SOL    HW2 6837   6.039   5.084   7.002
 1980SOL     OW 6838   2.648   0.511   2.170
 1980SOL    HW1 6839   2.562   0.548   2.206
 1980SOL    HW2 6840   2.634   0.416   2.140
 1981SOL     OW 6841   4.923   2.640   2.923
 1981SOL    HW1 6842   4.854   2.679   2.985
 1981SOL    HW2 6843   4.890   2.552   2.889
 1982SOL     OW 6844   6.322   3.507   3.920
 1982SOL    HW1 6845   6.418   3.481   3.926
 1982SOL    HW2 6846   6.312   3.586   3.860
 1983SOL     OW 6847   0.584   0.258   0.682
 1983SOL    HW1 6848   0.540   0.171   0.663
 1983SOL    HW2 6849   0.518   0.320   0.726
 1984SOL     OW 6850   5.068   2.683   5.102
 1984SOL    HW1 6851   4.993   2.749   5.097
 1984SOL    HW2 6852   5.151   2.729   5.133
 1985SOL     OW 6853   6.527   4.992   1.516
 1985SOL    HW1 6854   6.585   5.026   1.442
 1985SOL    HW2 6855   6.433   5.023   1.501
 1986SOL     OW 6856   2.961   0.804   6.514
 1986SOL    HW1 6857   2.935   0.740   6.442
 1986SOL    HW2 6858   2.991   0.890   6.474
 1987SOL     OW 6859   1.472   1.173   4.122
 1987SOL    HW1 6860   1.460   1.140   4.215
 1987SOL    HW2 6861   1.386   1.162   4.071
 1988SOL     OW 6862   0.678   1.473   1.247
 1988SOL    HW1 6863   0.615   1.395   1.251
 1988SOL    HW2 6864   0.772   1.439   1.254
 1989SOL     OW 6865   2.743   5.643   4.761
 1989SOL    HW1 6866   2.695   5.652   4.848
 1989SOL    HW2 6867   2.809   5.568   4.767
 1990SOL     OW 6868   4.199   0.485   0.142
 1990SOL    HW1 6869   4.252   0.484   0.227
 1990SOL    HW2 6870   4.224   0.565   0.087
 1991SOL     OW 6871   2.746   5.720   6.982
 1991SOL    HW1 6872   2.748   5.812   7.021
 1991SOL    HW2 6873   2.655   5.680   6.997
 1992SOL     OW 6874   6.698   6.317   0.053
 1992SOL    HW1 6875   6.678   6.287   6.986
 1992SOL    HW2 6876   6.791   6.290   0.078
 1993SOL     OW 6877   2.046   2.775   4.844
 1993SOL    HW1 6878   2.015   2.761   4.938
 1993SOL    HW2 6879   2.104   2.856   4.840
 1994SOL     OW 6880   4.326   3.258   0.587
 1994SOL    HW1 6881   4.264   3.182   0.604
 1994SOL    HW2 6882   4.273   3.341   0.568
 1995SOL     OW 6883   5.512   2.085   4.874
 1995SOL    HW1 6884   5.428   2.133   4.897
 1995SOL    HW2 6885   5.549   2.120   4.789
 1996SOL     OW 6886   3.214   2.012   1.048
 1996SOL    HW1 6887   3.202   2.107   1.075
 1996SOL    HW2 6888   3.247   1.959   1.127
 1997SOL     OW 6889   3.313   1.446   3.789
 1997SOL    HW1 6890   3.372   1.502   3.847
 1997SOL    HW2 6891   3.218   1.471   3.805
 1998SOL     OW 6892   1.331   3.223   1.297
 1998SOL    HW1 6893   1.321   3.236   1.396
 1998SOL    HW2 6894   1.245   3.189   1.259
 1999SOL     OW 6895   0.506   0.450   5.087
 1999SOL    HW1 6896   0.410   0.471   5.066
 1999SOL    HW2 6897   0.516   0.439   5.186
 2000SOL     OW 6898   3.983   3.556   6.278
 2000SOL    HW1 6899   4.019   3.649   6.284
 2000SOL    HW2 6900   3.896   3.557   6.229
 2001SOL     OW 6901   1.804   1.765   6.869
 2001SOL    HW1 6902   1.765   1.839   6.814
 2001SOL    HW2 6903   1.904   1.771   6.867
 2002SOL     OW 6904   0.296   5.601   1.014
 2002SOL    HW1 6905   0.268   5.679   0.959
 2002SOL    HW2 6906   0.306   5.630   1.110
 2003SOL     OW 6907   6.482   5.222   1.981
 2003SOL    HW1 6908   6.479   5.319   2.005
 2003SOL    HW2 6909   6.428   5.169   2.047
 2004SOL     OW 6910   3.706   0.440   3.506
 2004SOL    HW1 6911   3.717   0.410   3.411
 2004SOL    HW2 6912   3.769   0.388   3.565
 2005SOL     OW 6913   7.025   6.126   0.296
 2005SOL    HW1 6914   0.029   6.038   0.259
 2005SOL    HW2 6915   7.000   6.187   0.220
 2006SOL     OW 6916   5.380   0.365   4.076
 2006SOL    HW1 6917   5.419   0.330   4.161
 2006SOL    HW2 6918   5.423   0.452   4.053
 2007SOL     OW 6919   4.783   4.414   1.089
 2007SOL    HW1 6920   4.688   4.447   1.087
 2007SOL    HW2 6921   4.788   4.332   1.145
 2008SOL     OW 6922   2.122   3.964   3.809
 2008SOL    HW1 6923   2.119   4.006   3.900
 2008SOL    HW2 6924   2.206   3.992   3.762
 2009SOL     OW 6925   6.248   6.307   1.712
 2009SOL    HW1 6926   6.198   6.389   1.739
 2009SOL    HW2 6927   6.341   6.332   1.687
 2010SOL     OW 6928   1.496   2.508   1.475
 2010SOL    HW1 6929   1.466   2.419   1.442
 2010SOL    HW2 6930   1.429   2.577   1.448
 2011SOL     OW 6931   7.009   6.887   5.377
 2011SOL    HW1 6932   7.001   6.956   5.449
 2011SOL    HW2 6933   6.998   6.930   5.288
 2012SOL     OW 6934   1.587   3.592   2.258
 2012SOL    HW1 6935   1.635   3.548   2.183
 2012SOL    HW2 6936   1.646   3.593   2.339
 2013SOL     OW 6937   0.232   2.995   3.245
 2013SOL    HW1 6938   0.247   3.094   3.254
 2013SOL    HW2 6939   0.310   2.954   3.198
 2014SOL     OW 6940   3.110   0.505   3.578
 2014SOL    HW1 6941   3.012   0.489   3.586
 2014SOL    HW2 6942   3.154   0.422   3.542
 2015SOL     OW 6943   3.729   0.962   1.817
 2015SOL    HW1 6944   3.662   1.014   1.872
 2015SOL    HW2 6945   3.685   0.932   1.732
 2016SOL     OW 6946   1.606   6.199   5.482
 2016SOL    HW1 6947   1.641   6.239   5.397
 2016SOL    HW2 6948   1.511   6.173   5.470
 2017SOL     OW 6949   4.498   6.586   3.117
 2017SOL    HW1 6950   4.509   6.671   3.168
 2017SOL    HW2 6951   4.430   6.600   3.045
 2018SOL     OW 6952   0.123   2.408   3.370
 2018SOL    HW1 6953   0.134   2.369   3.279
 2018SOL    HW2 6954   0.079   2.498   3.363
 2019SOL     OW 6955   6.203   4.938   6.376
 2019SOL    HW1 6956   6.279   4.991   6.413
 2019SOL    HW2 6957   6.237   4.876   6.305
 2020SOL     OW 6958   1.664   6.320   5.738
 2020SOL    HW1 6959   1.651   6.250   5.808
 2020SOL    HW2 6960   1.641   6.283   5.648
 2021SOL     OW 6961   6.354   6.265   3.478
 2021SOL    HW1 6962   6.408   6.323   3.418
 2021SOL    HW2 6963   6.317   6.319   3.554
 2022SOL     OW 6964   2.075   4.104   4.997
 2022SOL    HW1 6965   2.154   4.059   5.039
 2022SOL    HW2 6966   1.993   4.086   5.052
 2023SOL     OW 6967   7.013   0.530   6.858
 2023SOL    HW1 6968   6.934   0.541   6.798
 2023SOL    HW2 6969   0.040   0.449   6.830
 2024SOL     OW 6970   0.350   5.588   4.126
 2024SOL    HW1 6971   0.370   5.534   4.208
 2024SOL    HW2 6972   0.325   5.527   4.051
 2025SOL     OW 6973   2.468   1.068   4.277
 2025SOL    HW1 6974   2.418   1.038   4.195
 2025SOL    HW2 6975   2.457   1.000   4.349
 2026SOL     OW 6976   5.669   1.097   6.413
 2026SOL    HW1 6977   5.630   1.036   6.482
 2026SOL    HW2 6978   5.606   1.173   6.396
 2027SOL     OW 6979   0.675   5.861   1.309
 2027SOL    HW1 6980   0.757   5.819   1.346
 2027SOL    HW2 6981   0.606   5.791   1.291
 2028SOL     OW 6982   3.778   6.057   2.694
 2028SOL    HW1 6983   3.719   5.978   2.681
 2028SOL    HW2 6984   3.871   6.027   2.715
 2029SOL     OW 6985   0.061   1.821   6.368
 2029SOL    HW1 6986   0.126   1.781   6.433
 2029SOL    HW2 6987   0.111   1.866   6.294
 2030SOL     OW 6988   3.327   6.234   3.146
 2030SOL    HW1 6989   3.259   6.171   3.185
 2030SOL    HW2 6990   3.301   6.328   3.166
 2031SOL     OW 6991   6.884   5.694   2.881
 2031SOL    HW1 6992   6.870   5.661   2.975
 2031SOL    HW2 6993   6.811   5.757   2.856
 2032SOL     OW 6994   3.405   1.522   6.768
 2032SOL    HW1 6995   3.445   1.454   6.829
 2032SOL    HW2 6996   3.338   1.577   6.818
 2033SOL     OW 6997   1.372   1.015   0.970
 2033SOL    HW1 6998   1.330   1.014   1.061
 2033SOL    HW2 6999   1.462   1.058   0.976
 2034SOL     OW 7000   1.272   5.347   5.594
 2034SOL    HW1 7001   1.343   5.303   5.648
 2034SOL    HW2 7002   1.188   5.354   5.648
 2035SOL     OW 7003   6.542   6.777   2.068
 2035SOL    HW1 7004   6.486   6.860   2.067
 2035SOL    HW2 7005   6.530   6.728   1.981
 2036SOL     OW 7006   1.200   3.454   2.664
 2036SOL    HW1 7007   1.186   3.550   2.641
 2036SOL    HW2 7008   1.216   3.445   2.762
 2037SOL     OW 7009   6.838   2.876   6.433
 2037SOL    HW1 7010   6.842   2.969   6.468
 2037SOL    HW2 7011   6.866   2.874   6.337
 2038SOL     OW 7012   2.690   1.389   0.107
 2038SOL    HW1 7013   2.642   1.426   0.187
 2038SOL    HW2 7014   2.765   1.452   0.082
 2039SOL     OW 7015   6.959   5.870   2.433
 2039SOL    HW1 7016   6.973   5.867   2.532
 2039SOL    HW2 7017   6.989   5.783   2.393
 2040SOL     OW 7018   2.465   2.660   0.177
 2040SOL    HW1 7019   2.505   2.630   0.091
 2040SOL    HW2 7020   2.385   2.717   0.157
 2041SOL     OW 7021   1.810   6.898   5.911
 2041SOL    HW1 7022   1.780   6.817   5.860
 2041SOL    HW2 7023   1.742   6.921   5.981
 2042SOL     OW 7024   4.636   0.416   6.418
 2042SOL    HW1 7025   4.658   0.322   6.442
 2042SOL    HW2 7026   4.684   0.441   6.334
 2043SOL     OW 7027   0.068   2.773   1.366
 2043SOL    HW1 7028   0.115   2.695   1.324
 2043SOL    HW2 7029   0.135   2.846   1.385
 2044SOL     OW 7030   5.378   1.503   0.772
 2044SOL    HW1 7031   5.374   1.550   0.684
 2044SOL    HW2 7032   5.378   1.571   0.845
 2045SOL     OW 7033   1.795   5.610   5.871
 2045SOL    HW1 7034   1.788   5.710   5.871
 2045SOL    HW2 7035   1.828   5.579   5.960
 2046SOL     OW 7036   0.833   1.473   5.449
 2046SOL    HW1 7037   0.838   1.393   5.390
 2046SOL    HW2 7038   0.862   1.554   5.398
 2047SOL     OW 7039   6.145   2.543   0.220
 2047SOL    HW1 7040   6.115   2.611   0.153
 2047SOL    HW2 7041   6.236   2.567   0.254
 2048SOL     OW 7042   0.797   1.398   4.104
 2048SOL    HW1 7043   0.873   1.436   4.157
 2048SOL    HW2 7044   0.772   1.308   4.140
 2049SOL     OW 7045   4.479   1.552   4.809
 2049SOL    HW1 7046   4.404   1.566   4.745
 2049SOL    HW2 7047   4.556   1.510   4.761
 2050SOL     OW 7048   0.674   1.558   3.933
 2050SOL    HW1 7049   0.611   1.507   3.874
 2050SOL    HW2 7050   0.710   1.497   4.004
 2051SOL     OW 7051   3.327   6.735   0.987
 2051SOL    HW1 7052   3.252   6.786   1.030
 2051SOL    HW2 7053   3.300   6.709   0.894
 2052SOL     OW 7054   1.911   4.102   0.053
 2052SOL    HW1 7055   1.813   4.090   0.040
 2052SOL    HW2 7056   1.961   4.045   7.012
 2053SOL     OW 7057   1.157   5.515   3.802
 2053SOL    HW1 7058   1.096   5.448   3.760
 2053SOL    HW2 7059   1.113   5.554   3.883
 2054SOL     OW 7060   3.183   3.367   2.858
 2054SOL    HW1 7061   3.139   3.291   2.907
 2054SOL    HW2 7062   3.114   3.421   2.811
 2055SOL     OW 7063   1.159   2.756   4.602
 2055SOL    HW1 7064   1.225   2.725   4.534
 2055SOL    HW2 7065   1.074   2.704   4.592
 2056SOL     OW 7066   3.707   5.119   0.800
 2056SOL    HW1 7067   3.772   5.177   0.751
 2056SOL    HW2 7068   3.697   5.032   0.751
 2057SOL     OW 7069   5.566   2.432   4.650
 2057SOL    HW1 7070   5.567   2.332   4.657
 2057SOL    HW2 7071   5.555   2.472   4.741
 2058SOL     OW 7072   1.028   0.024   3.177
 2058SOL    HW1 7073   1.113   0.036   3.126
 2058SOL    HW2 7074   1.024   6.956   3.213
 2059SOL     OW 7075   2.508   0.409   5.687
 2059SOL    HW1 7076   2.544   0.353   5.613
 2059SOL    HW2 7077   2.409   0.396   5.692
 2060SOL     OW 7078   1.343   3.363   0.239
 2060SOL    HW1 7079   1.336   3.275   0.191
 2060SOL    HW2 7080   1.417   3.417   0.200
 2061SOL     OW 7081   2.062   2.120   2.403
 2061SOL    HW1 7082   2.014   2.107   2.489
 2061SOL    HW2 7083   2.001   2.162   2.336
 2062SOL     OW 7084   6.428   5.759   5.120
 2062SOL    HW1 7085   6.357   5.719   5.061
 2062SOL    HW2 7086   6.503   5.694   5.131
 2063SOL     OW 7087   1.465   0.238   5.386
 2063SOL    HW1 7088   1.418   0.280   5.309
 2063SOL    HW2 7089   1.514   0.157   5.355
 2064SOL     OW 7090   0.642   3.149   4.149
 2064SOL    HW1 7091   0.550   3.158   4.185
 2064SOL    HW2 7092   0.682   3.062   4.179
 2065SOL     OW 7093   4.563   2.890   5.482
 2065SOL    HW1 7094   4.604   2.979   5.468
 2065SOL    HW2 7095   4.557   2.842   5.395
 2066SOL     OW 7096   5.645   3.326   5.637
 2066SOL    HW1 7097   5.590   3.306   5.556
 2066SOL    HW2 7098   5.712   3.253   5.652
 2067SOL     OW 7099   6.826   4.679   1.583
 2067SOL    HW1 7100   6.787   4.599   1.629
 2067SOL    HW2 7101   6.844   4.751   1.650
 2068SOL     OW 7102   4.050   0.867   3.691
 2068SOL    HW1 7103   4.120   0.809   3.732
 2068SOL    HW2 7104   4.013   0.822   3.610
 2069SOL     OW 7105   6.776   1.884   4.202
 2069SOL    HW1 7106   6.844   1.821   4.165
 2069SOL    HW2 7107   6.800   1.978   4.177
 2070SOL     OW 7108   1.060   3.487   1.835
 2070SOL    HW1 7109   1.063   3.436   1.921
 2070SOL    HW2 7110   1.152   3.516   1.810
 2071SOL     OW 7111   6.453   1.358   5.797
 2071SOL    HW1 7112   6.386   1.377   5.869
 2071SOL    HW2 7113   6.480   1.444   5.754
 2072SOL     OW 7114   3.921   4.630   5.364
 2072SOL    HW1 7115   4.008   4.661   5.326
 2072SOL    HW2 7116   3.931   4.613   5.462
 2073SOL     OW 7117   3.831   6.053   6.982
 2073SOL    HW1 7118   3.900   6.000   0.006
 2073SOL    HW2 7119   3.876   6.125   6.930
 2074SOL     OW 7120   1.850   3.824   5.897
 2074SOL    HW1 7121   1.894   3.886   5.832
 2074SOL    HW2 7122   1.844   3.733   5.856
 2075SOL     OW 7123   0.018   1.997   1.758
 2075SOL    HW1 7124   0.000   1.910   1.805
 2075SOL    HW2 7125   0.009   2.072   1.823
 2076SOL     OW 7126   5.446   6.508   4.860
 2076SOL    HW1 7127   5.534   6.533   4.901
 2076SOL    HW2 7128   5.463   6.460   4.773
 2077SOL     OW 7129   0.286   3.351   1.449
 2077SOL    HW1 7130   0.294   3.305   1.360
 2077SOL    HW2 7131   0.287   3.450   1.436
 2078SOL     OW 7132   2.472   4.859   5.730
 2078SOL    HW1 7133   2.510   4.776   5.689
 2078SOL    HW2 7134   2.409   4.835   5.804
 2079SOL     OW 7135   5.264   1.397   1.673
 2079SOL    HW1 7136   5.313   1.474   1.631
 2079SOL    HW2 7137   5.246   1.328   1.604
 2080SOL     OW 7138   2.806   2.370   5.295
 2080SOL    HW1 7139   2.880   2.422   5.338
 2080SOL    HW2 7140   2.844   2.311   5.224
 2081SOL     OW 7141   0.262   0.019   2.992
 2081SOL    HW1 7142   0.272   6.946   2.978
 2081SOL    HW2 7143   0.166   0.040   3.010
 2082SOL     OW 7144   0.377   5.726   2.401
 2082SOL    HW1 7145   0.463   5.777   2.404
 2082SOL    HW2 7146   0.356   5.692   2.493
 2083SOL     OW 7147   6.806   6.091   4.244
 2083SOL    HW1 7148   6.845   6.162   4.303
 2083SOL    HW2 7149   6.768   6.133   4.161
 2084SOL     OW 7150   0.842   1.653   2.310
 2084SOL    HW1 7151   0.848   1.731   2.248
 2084SOL    HW2 7152   0.871   1.570   2.262
 2085SOL     OW 7153   5.194   5.750   6.806
 2085SOL    HW1 7154   5.281   5.758   6.757
 2085SOL    HW2 7155   5.211   5.758   6.904
 2086SOL     OW 7156   4.744   0.290   6.877
 2086SOL    HW1 7157   4.716   0.353   6.805
 2086SOL    HW2 7158   4.841   0.268   6.866
 2087SOL     OW 7159   4.367   2.071   0.395
 2087SOL    HW1 7160   4.306   2.149   0.406
 2087SOL    HW2 7161   4.461   2.103   0.388
 2088SOL     OW 7162   0.126   5.724   5.410
 2088SOL    HW1 7163   0.040   5.773   5.419
 2088SOL    HW2 7164   0.180   5.765   5.336
 2089SOL     OW 7165   2.974   3.339   5.937
 2089SOL    HW1 7166   2.917   3.268   5.897
 2089SOL    HW2 7167   3.018   3.392   5.864
 2090SOL     OW 7168   4.470   3.456   5.307
 2090SOL    HW1 7169   4.551   3.494   5.261
 2090SOL    HW2 7170   4.497   3.375   5.359
 2091SOL     OW 7171   6.430   5.942   1.441
 2091SOL    HW1 7172   6.465   5.849   1.428
 2091SOL    HW2 7173   6.397   5.978   1.353
 2092SOL     OW 7174   4.611   3.610   1.177
 2092SOL    HW1 7175   4.574   3.654   1.259
 2092SOL    HW2 7176   4.563   3.644   1.096
 2093SOL     OW 7177   3.756   2.130   2.833
 2093SOL    HW1 7178   3.756   2.036   2.800
 2093SOL    HW2 7179   3.716   2.133   2.925
 2094SOL     OW 7180   5.524   3.016   0.177
 2094SOL    HW1 7181   5.522   2.941   0.243
 2094SOL    HW2 7182   5.538   3.102   0.225
 2095SOL     OW 7183   5.933   6.387   3.805
 2095SOL    HW1 7184   5.857   6.381   3.741
 2095SOL    HW2 7185   5.922   6.319   3.877
 2096SOL     OW 7186   4.387   6.285   2.146
 2096SOL    HW1 7187   4.413   6.372   2.103
 2096SOL    HW2 7188   4.466   6.224   2.147
 2097SOL     OW 7189   1.970   4.613   6.690
 2097SOL    HW1 7190   1.875   4.582   6.699
 2097SOL    HW2 7191   1.978   4.705   6.728
 2098SOL     OW 7192   3.802   6.307   3.290
 2098SOL    HW1 7193   3.739   6.263   3.226
 2098SOL    HW2 7194   3.750   6.346   3.366
 2099SOL     OW 7195   5.017   1.161   0.161
 2099SOL    HW1 7196   5.041   1.092   0.092
 2099SOL    HW2 7197   4.963   1.233   0.119
 2100SOL     OW 7198   5.573   1.159   0.412
 2100SOL    HW1 7199   5.617   1.153   0.502
 2100SOL    HW2 7200   5.570   1.255   0.383
 2101SOL     OW 7201   0.169   6.441   1.644
 2101SOL    HW1 7202   0.146   6.499   1.722
 2101SOL    HW2 7203   0.247   6.481   1.595
 2102SOL     OW 7204   4.141   3.553   1.148
 2102SOL    HW1 7205   4.177   3.485   1.085
 2102SOL    HW2 7206   4.185   3.542   1.237
 2103SOL     OW 7207   2.901   5.797   6.774
 2103SOL    HW1 7208   2.850   5.748   6.845
 2103SOL    HW2 7209   2.845   5.872   6.739
 2104SOL     OW 7210   0.880   4.858   3.192
 2104SOL    HW1 7211   0.885   4.957   3.192
 2104SOL    HW2 7212   0.858   4.826   3.099
 2105SOL     OW 7213   5.232   4.570   0.013
 2105SOL    HW1 7214   5.217   4.619   6.952
 2105SOL    HW2 7215   5.229   4.471   7.021
 2106SOL     OW 7216   4.875   3.574   2.316
 2106SOL    HW1 7217   4.906   3.524   2.397
 2106SOL    HW2 7218   4.835   3.509   2.250
 2107SOL     OW 7219   5.501   3.874   5.103
 2107SOL    HW1 7220   5.564   3.841   5.173
 2107SOL    HW2 7221   5.520   3.829   5.016
 2108SOL     OW 7222   6.053   6.786   5.826
 2108SOL    HW1 7223   5.958   6.768   5.801
 2108SOL    HW2 7224   6.076   6.737   5.910
 2109SOL     OW 7225   3.310   5.790   3.294
 2109SOL    HW1 7226   3.319   5.691   3.282
 2109SOL    HW2 7227   3.247   5.826   3.224
 2110SOL     OW 7228   3.454   0.701   6.729
 2110SOL    HW1 7229   3.513   0.781   6.717
 2110SOL    HW2 7230   3.369   0.714   6.678
 2111SOL     OW 7231   1.214   3.024   5.591
 2111SOL    HW1 7232   1.163   2.994   5.672
 2111SOL    HW2 7233   1.267   3.106   5.614
 2112SOL     OW 7234   0.386   1.572   0.691
 2112SOL    HW1 7235   0.320   1.544   0.760
 2112SOL    HW2 7236   0.434   1.654   0.722
 2113SOL     OW 7237   2.021   0.378   4.614
 2113SOL    HW1 7238   1.985   0.307   4.553
 2113SOL    HW2 7239   1.988   0.467   4.584
 2114SOL     OW 7240   1.671   2.764   6.816
 2114SOL    HW1 7241   1.756   2.818   6.815
 2114SOL    HW2 7242   1.617   2.786   6.735
 2115SOL     OW 7243   0.432   5.527   3.402
 2115SOL    HW1 7244   0.424   5.428   3.389
 2115SOL    HW2 7245   0.399   5.574   3.321
 2116SOL     OW 7246   0.813   2.196   0.080
 2116SOL    HW1 7247   0.817   2.146   0.166
 2116SOL    HW2 7248   0.832   2.134   0.004
 2117SOL     OW 7249   5.638   1.650   2.191
 2117SOL    HW1 7250   5.587   1.732   2.214
 2117SOL    HW2 7251   5.576   1.582   2.152
 2118SOL     OW 7252   6.421   3.215   2.373
 2118SOL    HW1 7253   6.456   3.300   2.333
 2118SOL    HW2 7254   6.321   3.221   2.380
 2119SOL     OW 7255   2.620   0.248   6.927
 2119SOL    HW1 7256   2.679   0.198   6.991
 2119SOL    HW2 7257   2.614   0.197   6.841
 2120SOL     OW 7258   5.867   1.696   0.941
 2120SOL    HW1 7259   5.926   1.714   0.862
 2120SOL    HW2 7260   5.913   1.725   1.024
 2121SOL     OW 7261   2.213   1.112   6.000
 2121SOL    HW1 7262   2.263   1.045   6.055
 2121SOL    HW2 7263   2.115   1.107   6.021
 2122SOL     OW 7264   5.993   0.359   5.317
 2122SOL    HW1 7265   6.059   0.358   5.392
 2122SOL    HW2 7266   6.036   0.399   5.236
 2123SOL     OW 7267   0.945   6.289   2.861
 2123SOL    HW1 7268   1.017   6.227   2.829
 2123SOL    HW2 7269   0.985   6.379   2.880
 2124SOL     OW 7270   3.112   2.861   5.602
 2124SOL    HW1 7271   3.134   2.958   5.604
 2124SOL    HW2 7272   3.090   2.829   5.694
 2125SOL     OW 7273   1.767   5.899   3.139
 2125SOL    HW1 7274   1.805   5.991   3.125
 2125SOL    HW2 7275   1.688   5.904   3.200
 2126SOL     OW 7276   3.719   3.645   6.776
 2126SOL    HW1 7277   3.755   3.556   6.806
 2126SOL    HW2 7278   3.626   3.635   6.743
 2127SOL     OW 7279   0.413   2.765   5.958
 2127SOL    HW1 7280   0.482   2.699   5.928
 2127SOL    HW2 7281   0.339   2.769   5.891
 2128SOL     OW 7282   5.212   3.343   1.954
 2128SOL    HW1 7283   5.187   3.390   1.869
 2128SOL    HW2 7284   5.204   3.245   1.942
 2129SOL     OW 7285   5.600   4.451   3.776
 2129SOL    HW1 7286   5.589   4.363   3.823
 2129SOL    HW2 7287   5.542   4.453   3.695
 2130SOL     OW 7288   1.782   0.787   2.544
 2130SOL    HW1 7289   1.708   0.757   2.483
 2130SOL    HW2 7290   1.770   0.745   2.634
 2131SOL     OW 7291   5.534   1.770   5.711
 2131SOL    HW1 7292   5.461   1.809   5.654
 2131SOL    HW2 7293   5.623   1.788   5.668
 2132SOL     OW 7294   2.587   1.775   6.689
 2132SOL    HW1 7295   2.628   1.863   6.665
 2132SOL    HW2 7296   2.494   1.790   6.722
 2133SOL     OW 7297   2.129   1.843   1.842
 2133SOL    HW1 7298   2.159   1.755   1.805
 2133SOL    HW2 7299   2.151   1.847   1.939
 2134SOL     OW 7300   0.912   6.391   4.614
 2134SOL    HW1 7301   0.953   6.464   4.670
 2134SOL    HW2 7302   0.966   6.308   4.622
 2135SOL     OW 7303   0.669   1.094   3.501
 2135SOL    HW1 7304   0.590   1.154   3.486
 2135SOL    HW2 7305   0.686   1.087   3.600
 2136SOL     OW 7306   0.599   3.282   4.512
 2136SOL    HW1 7307   0.629   3.351   4.579
 2136SOL    HW2 7308   0.543   3.326   4.442
 2137SOL     OW 7309   1.412   6.999   5.211
 2137SOL    HW1 7310   1.454   6.931   5.150
 2137SOL    HW2 7311   1.353   6.953   5.277
 2138SOL     OW 7312   0.152   2.551   0.514
 2138SOL    HW1 7313   0.243   2.592   0.517
 2138SOL    HW2 7314   0.104   2.581   0.432
 2139SOL     OW 7315   3.255   0.422   4.758
 2139SOL    HW1 7316   3.317   0.352   4.723
 2139SOL    HW2 7317   3.198   0.456   4.683
 2140SOL     OW 7318   2.279   6.112   3.877
 2140SOL    HW1 7319   2.332   6.055   3.940
 2140SOL    HW2 7320   2.322   6.112   3.787
 2141SOL     OW 7321   5.943   2.305   0.842
 2141SOL    HW1 7322   5.961   2.233   0.910
 2141SOL    HW2 7323   5.860   2.354   0.868
 2142SOL     OW 7324   1.977   1.971   3.824
 2142SOL    HW1 7325   1.956   1.921   3.740
 2142SOL    HW2 7326   1.921   1.935   3.899
 2143SOL     OW 7327   3.239   0.123   1.496
 2143SOL    HW1 7328   3.227   0.109   1.595
 2143SOL    HW2 7329   3.169   0.188   1.463
 2144SOL     OW 7330   0.987   0.948   3.282
 2144SOL    HW1 7331   1.008   1.005   3.203
 2144SOL    HW2 7332   1.037   0.861   3.274
 2145SOL     OW 7333   3.475   5.142   3.497
 2145SOL    HW1 7334   3.506   5.054   3.462
 2145SOL    HW2 7335   3.446   5.133   3.592
 2146SOL     OW 7336   3.187   2.881   1.882
 2146SOL    HW1 7337   3.287   2.880   1.880
 2146SOL    HW2 7338   3.152   2.797   1.838
 2147SOL     OW 7339   0.540   1.522   6.092
 2147SOL    HW1 7340   0.483   1.459   6.040
 2147SOL    HW2 7341   0.623   1.476   6.123
 2148SOL     OW 7342   4.932   3.673   3.374
 2148SOL    HW1 7343   4.878   3.659   3.290
 2148SOL    HW2 7344   5.029   3.663   3.354
 2149SOL     OW 7345   3.880   0.976   2.223
 2149SOL    HW1 7346   3.906   1.001   2.130
 2149SOL    HW2 7347   3.932   0.897   2.253
 2150SOL     OW 7348   3.307   2.053   3.591
 2150SOL    HW1 7349   3.323   2.078   3.496
 2150SOL    HW2 7350   3.233   2.108   3.629
 2151SOL     OW 7351   3.658   2.689   5.624
 2151SOL    HW1 7352   3.588   2.759   5.630
 2151SOL    HW2 7353   3.748   2.730   5.642
 2152SOL     OW 7354   6.273   6.648   2.139
 2152SOL    HW1 7355   6.255   6.601   2.226
 2152SOL    HW2 7356   6.366   6.630   2.109
 2153SOL     OW 7357   4.569   1.739   3.816
 2153SOL    HW1 7358   4.514   1.724   3.734
 2153SOL    HW2 7359   4.661   1.702   3.803
 2154SOL     OW 7360   2.715   5.886   4.659
 2154SOL    HW1 7361   2.717   5.793   4.697
 2154SOL    HW2 7362   2.652   5.942   4.712
 2155SOL     OW 7363   1.345   4.255   0.350
 2155SOL    HW1 7364   1.261   4.239   0.402
 2155SOL    HW2 7365   1.417   4.287   0.411
 2156SOL     OW 7366   1.435   0.591   2.714
 2156SOL    HW1 7367   1.338   0.594   2.738
 2156SOL    HW2 7368   1.489   0.636   2.784
 2157SOL     OW 7369   0.138   1.256   5.009
 2157SOL    HW1 7370   0.154   1.186   4.940
 2157SOL    HW2 7371   0.203   1.331   4.997
 2158SOL     OW 7372   4.156   6.919   1.109
 2158SOL    HW1 7373   4.074   6.862   1.111
 2158SOL    HW2 7374   4.237   6.863   1.127
 2159SOL     OW 7375   1.616   6.945   4.849
 2159SOL    HW1 7376   1.573   0.005   4.878
 2159SOL    HW2 7377   1.615   6.881   4.925
 2160SOL     OW 7378   3.111   4.689   1.061
 2160SOL    HW1 7379   3.117   4.784   1.032
 2160SOL    HW2 7380   3.202   4.655   1.083
 2161SOL     OW 7381   4.938   3.359   3.390
 2161SOL    HW1 7382   4.866   3.313   3.442
 2161SOL    HW2 7383   4.939   3.456   3.412
 2162SOL     OW 7384   2.023   0.907   6.788
 2162SOL    HW1 7385   1.996   0.831   6.730
 2162SOL    HW2 7386   2.122   0.919   6.784
 2163SOL     OW 7387   1.541   1.029   0.570
 2163SOL    HW1 7388   1.563   0.957   0.636
 2163SOL    HW2 7389   1.527   0.989   0.479
 2164SOL     OW 7390   1.996   0.686   6.575
 2164SOL    HW1 7391   2.082   0.730   6.548
 2164SOL    HW2 7392   1.962   0.630   6.500
 2165SOL     OW 7393   1.644   0.014   3.159
 2165SOL    HW1 7394   1.600   6.989   3.233
 2165SOL    HW2 7395   1.641   0.112   3.179
 2166SOL     OW 7396   1.469   2.552   5.052
 2166SOL    HW1 7397   1.473   2.488   4.976
 2166SOL    HW2 7398   1.549   2.539   5.111
 2167SOL     OW 7399   3.584   0.773   2.054
 2167SOL    HW1 7400   3.596   0.843   2.124
 2167SOL    HW2 7401   3.525   0.807   1.982
 2168SOL     OW 7402   5.836   3.653   4.254
 2168SOL    HW1 7403   5.868   3.629   4.346
 2168SOL    HW2 7404   5.758   3.596   4.230
 2169SOL     OW 7405   5.071   2.689   6.427
 2169SOL    HW1 7406   5.079   2.704   6.526
 2169SOL    HW2 7407   4.979   2.715   6.397
 2170SOL     OW 7408   4.790   4.942   4.885
 2170SOL    HW1 7409   4.756   4.998   4.960
 2170SOL    HW2 7410   4.841   4.864   4.922
 2171SOL     OW 7411   7.005   3.249   0.308
 2171SOL    HW1 7412   0.020   3.338   0.289
 2171SOL    HW2 7413   6.954   3.217   0.227
 2172SOL     OW 7414   3.022   0.867   0.969
 2172SOL    HW1 7415   2.940   0.845   1.022
 2172SOL    HW2 7416   2.995   0.905   0.880
 2173SOL     OW 7417   4.996   1.546   5.553
 2173SOL    HW1 7418   5.051   1.629   5.560
 2173SOL    HW2 7419   5.056   1.466   5.551
 2174SOL     OW 7420   6.690   4.858   4.857
 2174SOL    HW1 7421   6.781   4.817   4.863
 2174SOL    HW2 7422   6.686   4.919   4.778
 2175SOL     OW 7423   2.749   0.365   3.994
 2175SOL    HW1 7424   2.824   0.364   3.927
 2175SOL    HW2 7425   2.747   0.454   4.040
 2176SOL     OW 7426   2.102   2.630   3.271
 2176SOL    HW1 7427   2.106   2.549   3.213
 2176SOL    HW2 7428   2.073   2.605   3.363
 2177SOL     OW 7429   0.531   2.231   0.745
 2177SOL    HW1 7430   0.491   2.151   0.791
 2177SOL    HW2 7431   0.459   2.282   0.699
 2178SOL     OW 7432   0.910   4.189   0.223
 2178SOL    HW1 7433   0.914   4.280   0.263
 2178SOL    HW2 7434   0.992   4.138   0.247
 2179SOL     OW 7435   1.726   5.193   4.406
 2179SOL    HW1 7436   1.813   5.188   4.357
 2179SOL    HW2 7437   1.671   5.269   4.370
 2180SOL     OW 7438   3.177   4.018   2.747
 2180SOL    HW1 7439   3.266   4.049   2.781
 2180SOL    HW2 7440   3.185   3.998   2.649
 2181SOL     OW 7441   5.759   5.858   5.738
 2181SOL    HW1 7442   5.795   5.903   5.656
 2181SOL    HW2 7443   5.679   5.907   5.770
 2182SOL     OW 7444   6.967   3.133   6.208
 2182SOL    HW1 7445   6.960   3.141   6.307
 2182SOL    HW2 7446   0.027   3.175   6.177
 2183SOL     OW 7447   3.622   2.824   0.666
 2183SOL    HW1 7448   3.625   2.735   0.622
 2183SOL    HW2 7449   3.711   2.869   0.658
 2184SOL     OW 7450   4.083   2.326   6.262
 2184SOL    HW1 7451   4.128   2.283   6.184
 2184SOL    HW2 7452   4.056   2.256   6.328
 2185SOL     OW 7453   1.923   0.878   1.394
 2185SOL    HW1 7454   1.934   0.861   1.492
 2185SOL    HW2 7455   1.829   0.857   1.367
 2186SOL     OW 7456   0.397   5.658   3.139
 2186SOL    HW1 7457   0.314   5.617   3.102
 2186SOL    HW2 7458   0.458   5.685   3.065
 2187SOL     OW 7459   6.725   1.618   0.278
 2187SOL    HW1 7460   6.687   1.556   0.347
 2187SOL    HW2 7461   6.675   1.607   0.192
 2188SOL     OW 7462   5.691   6.909   3.358
 2188SOL    HW1 7463   5.594   6.903   3.338
 2188SOL    HW2 7464   5.705   6.973   3.434
 2189SOL     OW 7465   2.124   6.815   5.880
 2189SOL    HW1 7466   2.200   6.852   5.827
 2189SOL    HW2 7467   2.133   6.843   5.975
 2190SOL     OW 7468   5.693   2.193   1.650
 2190SOL    HW1 7469   5.636   2.148   1.718
 2190SOL    HW2 7470   5.658   2.285   1.632
 2191SOL     OW 7471   3.170   2.850   6.309
 2191SOL    HW1 7472   3.083   2.878   6.350
 2191SOL    HW2 7473   3.192   2.757   6.340
 2192SOL     OW 7474   4.616   5.472   5.238
 2192SOL    HW1 7475   4.668   5.554   5.261
 2192SOL    HW2 7476   4.524   5.497   5.209
 2193SOL     OW 7477   0.841   5.383   5.278
 2193SOL    HW1 7478   0.851   5.328   5.195
 2193SOL    HW2 7479   0.759   5.353   5.327
 2194SOL     OW 7480   2.309   6.652   0.967
 2194SOL    HW1 7481   2.356   6.589   0.906
 2194SOL    HW2 7482   2.257   6.601   1.035
 2195SOL     OW 7483   1.087   5.318   2.714
 2195SOL    HW1 7484   1.082   5.226   2.753
 2195SOL    HW2 7485   1.065   5.385   2.786
 2196SOL     OW 7486   3.606   2.011   6.108
 2196SOL    HW1 7487   3.632   2.102   6.140
 2196SOL    HW2 7488   3.658   1.988   6.026
 2197SOL     OW 7489   5.047   5.067   1.541
 2197SOL    HW1 7490   5.022   5.104   1.630
 2197SOL    HW2 7491   5.020   4.970   1.537
 2198SOL     OW 7492   6.680   3.759   0.481
 2198SOL    HW1 7493   6.603   3.778   0.541
 2198SOL    HW2 7494   6.750   3.709   0.533
 2199SOL     OW 7495   4.521   0.113   1.440
 2199SOL    HW1 7496   4.502   0.173   1.361
 2199SOL    HW2 7497   4.437   0.100   1.492
 2200SOL     OW 7498   3.757   0.717   4.396
 2200SOL    HW1 7499   3.773   0.667   4.481
 2200SOL    HW2 7500   3.759   0.653   4.319
 2201SOL     OW 7501   5.848   3.560   2.189
 2201SOL    HW1 7502   5.846   3.536   2.092
 2201SOL    HW2 7503   5.902   3.493   2.239
 2202SOL     OW 7504   4.370   5.728   3.867
 2202SOL    HW1 7505   4.362   5.686   3.776
 2202SOL    HW2 7506   4.344   5.824   3.861
 2203SOL     OW 7507   3.555   2.112   3.339
 2203SOL    HW1 7508   3.456   2.126   3.335
 2203SOL    HW2 7509   3.576   2.015   3.322
 2204SOL     OW 7510   3.138   2.466   0.480
 2204SOL    HW1 7511   3.039   2.455   0.480
 2204SOL    HW2 7512   3.177   2.434   0.394
 2205SOL     OW 7513   3.057   7.019   0.867
 2205SOL    HW1 7514   2.994   0.056   0.822
 2205SOL    HW2 7515   3.018   6.927   0.868
 2206SOL     OW 7516   2.692   2.920   6.974
 2206SOL    HW1 7517   2.716   3.006   7.019
 2206SOL    HW2 7518   2.753   2.905   6.896
 2207SOL     OW 7519   1.184   4.553   6.184
 2207SOL    HW1 7520   1.182   4.457   6.155
 2207SOL    HW2 7521   1.099   4.575   6.232
 2208SOL     OW 7522   0.082   3.485   1.988
 2208SOL    HW1 7523   0.028   3.463   1.907
 2208SOL    HW2 7524   0.179   3.486   1.965
 2209SOL     OW 7525   1.058   5.557   6.365
 2209SOL    HW1 7526   0.975   5.525   6.319
 2209SOL    HW2 7527   1.111   5.479   6.398
 2210SOL     OW 7528   0.916   6.126   4.217
 2210SOL    HW1 7529   0.844   6.174   4.167
 2210SOL    HW2 7530   0.943   6.044   4.167
 2211SOL     OW 7531   6.077   1.212   5.749
 2211SOL    HW1 7532   6.153   1.192   5.812
 2211SOL    HW2 7533   6.069   1.138   5.682
 2212SOL     OW 7534   1.310   0.509   6.174
 2212SOL    HW1 7535   1.398   0.487   6.217
 2212SOL    HW2 7536   1.315   0.490   6.076
 2213SOL     OW 7537   3.837   2.047   3.456
 2213SOL    HW1 7538   3.774   2.088   3.391
 2213SOL    HW2 7539   3.903   1.990   3.407
 2214SOL     OW 7540   5.230   0.097   4.933
 2214SOL    HW1 7541   5.318   0.139   4.955
 2214SOL    HW2 7542   5.204   0.119   4.839
 2215SOL     OW 7543   6.440   2.429   4.997
 2215SOL    HW1 7544   6.518   2.367   4.996
 2215SOL    HW2 7545   6.463   2.513   4.948
 2216SOL     OW 7546   1.566   6.463   1.286
 2216SOL    HW1 7547   1.629   6.414   1.346
 2216SOL    HW2 7548   1.485   6.406   1.269
 2217SOL     OW 7549   3.988   0.307   1.347
 2217SOL    HW1 7550   3.987   0.402   1.314
 2217SOL    HW2 7551   4.060   0.297   1.416
 2218SOL     OW 7552   0.444   5.708   6.793
 2218SOL    HW1 7553   0.357   5.727   6.747
 2218SOL    HW2 7554   0.476   5.618   6.766
 2219SOL     OW 7555   2.102   3.619   3.159
 2219SOL    HW1 7556   2.126   3.536   3.108
 2219SOL    HW2 7557   2.104   3.598   3.257
 2220SOL     OW 7558   0.387   1.371   5.931
 2220SOL    HW1 7559   0.471   1.331   5.896
 2220SOL    HW2 7560   0.339   1.304   5.988
 2221SOL     OW 7561   6.567   2.308   1.329
 2221SOL    HW1 7562   6.495   2.247   1.363
 2221SOL    HW2 7563   6.537   2.403   1.339
 2222SOL     OW 7564   4.804   6.925   2.590
 2222SOL    HW1 7565   4.827   6.937   2.686
 2222SOL    HW2 7566   4.736   6.993   2.563
 2223SOL     OW 7567   5.903   5.373   3.443
 2223SOL    HW1 7568   5.942   5.285   3.471
 2223SOL    HW2 7569   5.909   5.382   3.344
 2224SOL     OW 7570   1.666   4.726   1.322
 2224SOL    HW1 7571   1.610   4.802   1.288
 2224SOL    HW2 7572   1.613   4.641   1.319
 2225SOL     OW 7573   6.460   4.873   2.215
 2225SOL    HW1 7574   6.391   4.850   2.284
 2225SOL    HW2 7575   6.428   4.949   2.159
 2226SOL     OW 7576   3.629   3.952   0.850
 2226SOL    HW1 7577   3.548   3.926   0.903
 2226SOL    HW2 7578   3.672   4.032   0.891
 2227SOL     OW 7579   6.596   4.228   5.201
 2227SOL    HW1 7580   6.528   4.265   5.264
 2227SOL    HW2 7581   6.688   4.248   5.236
 2228SOL     OW 7582   3.483   4.559   5.997
 2228SOL    HW1 7583   3.548   4.483   5.989
 2228SOL    HW2 7584   3.517   4.638   5.946
 2229SOL     OW 7585   4.349   0.761   3.375
 2229SOL    HW1 7586   4.439   0.795   3.347
 2229SOL    HW2 7587   4.281   0.832   3.356
 2230SOL     OW 7588   1.153   6.553   6.218
 2230SOL    HW1 7589   1.073   6.602   6.184
 2230SOL    HW2 7590   1.124   6.484   6.285
 2231SOL     OW 7591   2.086   0.086   1.934
 2231SOL    HW1 7592   2.048   0.154   1.870
 2231SOL    HW2 7593   2.095   0.128   2.024
 2232SOL     OW 7594   6.204   2.567   2.332
 2232SOL    HW1 7595   6.164   2.641   2.386
 2232SOL    HW2 7596   6.220   2.488   2.390
 2233SOL     OW 7597   3.670   0.050   0.136
 2233SOL    HW1 7598   3.756   0.001   0.154
 2233SOL    HW2 7599   3.688   0.127   0.075
 2234SOL     OW 7600   3.784   1.292   0.763
 2234SOL    HW1 7601   3.861   1.286   0.828
 2234SOL    HW2 7602   3.763   1.388   0.745
 2235SOL     OW 7603   1.165   6.781   0.892
 2235SOL    HW1 7604   1.127   6.705   0.839
 2235SOL    HW2 7605   1.097   6.854   0.900
 2236SOL     OW 7606   0.750   3.896   1.190
 2236SOL    HW1 7607   0.710   3.862   1.105
 2236SOL    HW2 7608   0.833   3.948   1.169
 2237SOL     OW 7609   6.049   2.796   4.495
 2237SOL    HW1 7610   6.050   2.698   4.517
 2237SOL    HW2 7611   6.028   2.807   4.397
 2238SOL     OW 7612   0.685   5.703   1.886
 2238SOL    HW1 7613   0.676   5.684   1.788
 2238SOL    HW2 7614   0.648   5.627   1.939
 2239SOL     OW 7615   4.607   5.121   3.145
 2239SOL    HW1 7616   4.701   5.095   3.165
 2239SOL    HW2 7617   4.547   5.093   3.220
 2240SOL     OW 7618   5.602   4.960   2.343
 2240SOL    HW1 7619   5.524   5.022   2.350
 2240SOL    HW2 7620   5.571   4.866   2.359
 2241SOL     OW 7621   0.269   7.008   2.136
 2241SOL    HW1 7622   0.321   0.035   2.069
 2241SOL    HW2 7623   0.171   7.025   2.123
 2242SOL     OW 7624   4.951   2.080   2.961
 2242SOL    HW1 7625   4.873   2.081   3.023
 2242SOL    HW2 7626   5.006   2.162   2.975
 2243SOL     OW 7627   2.349   6.051   4.894
 2243SOL    HW1 7628   2.384   6.001   4.973
 2243SOL    HW2 7629   2.407   6.130   4.876
 2244SOL     OW 7630   2.815   0.879   4.438
 2244SOL    HW1 7631   2.776   0.863   4.347
 2244SOL    HW2 7632   2.908   0.845   4.440
 2245SOL     OW 7633   1.210   1.074   2.333
 2245SOL    HW1 7634   1.303   1.060   2.298
 2245SOL    HW2 7635   1.208   1.155   2.391
 2246SOL     OW 7636   0.807   4.098   5.910
 2246SOL    HW1 7637   0.815   4.184   5.859
 2246SOL    HW2 7638   0.744   4.037   5.862
 2247SOL     OW 7639   2.214   2.599   6.118
 2247SOL    HW1 7640   2.256   2.619   6.029
 2247SOL    HW2 7641   2.201   2.684   6.169
 2248SOL     OW 7642   4.774   3.801   5.662
 2248SOL    HW1 7643   4.726   3.886   5.641
 2248SOL    HW2 7644   4.780   3.745   5.579
 2249SOL     OW 7645   5.114   5.579   3.846
 2249SOL    HW1 7646   5.036   5.536   3.801
 2249SOL    HW2 7647   5.193   5.518   3.842
 2250SOL     OW 7648   0.126   4.470   0.615
 2250SOL    HW1 7649   0.174   4.407   0.554
 2250SOL    HW2 7650   0.117   4.429   0.705
 2251SOL     OW 7651   5.590   1.050   6.994
 2251SOL    HW1 7652   5.554   1.133   6.953
 2251SOL    HW2 7653   5.609   0.982   6.922
 2252SOL     OW 7654   4.713   2.719   5.636
 2252SOL    HW1 7655   4.665   2.638   5.669
 2252SOL    HW2 7656   4.657   2.766   5.568
 2253SOL     OW 7657   2.658   3.328   0.256
 2253SOL    HW1 7658   2.638   3.296   0.349
 2253SOL    HW2 7659   2.601   3.408   0.235
 2254SOL     OW 7660   2.787   3.868   6.297
 2254SOL    HW1 7661   2.860   3.936   6.306
 2254SOL    HW2 7662   2.722   3.898   6.227
 2255SOL     OW 7663   6.243   2.643   1.753
 2255SOL    HW1 7664   6.312   2.577   1.781
 2255SOL    HW2 7665   6.227   2.635   1.655
 2256SOL     OW 7666   4.599   4.816   1.714
 2256SOL    HW1 7667   4.665   4.750   1.750
 2256SOL    HW2 7668   4.642   4.905   1.706
 2257SOL     OW 7669   1.761   4.070   4.043
 2257SOL    HW1 7670   1.781   4.168   4.043
 2257SOL    HW2 7671   1.669   4.055   4.078
 2258SOL     OW 7672   1.572   5.406   4.285
 2258SOL    HW1 7673   1.616   5.489   4.317
 2258SOL    HW2 7674   1.473   5.413   4.297
 2259SOL     OW 7675   4.828   3.809   0.007
 2259SOL    HW1 7676   4.828   3.843   0.100
 2259SOL    HW2 7677   4.919   3.816   6.993
 2260SOL     OW 7678   5.491   5.266   1.558
 2260SOL    HW1 7679   5.586   5.236   1.563
 2260SOL    HW2 7680   5.435   5.193   1.519
 2261SOL     OW 7681   5.268   6.555   0.052
 2261SOL    HW1 7682   5.277   6.538   6.979
 2261SOL    HW2 7683   5.326   6.633   0.078
 2262SOL     OW 7684   4.634   2.194   3.508
 2262SOL    HW1 7685   4.655   2.189   3.605
 2262SOL    HW2 7686   4.719   2.201   3.456
 2263SOL     OW 7687   0.867   5.192   5.559
 2263SOL    HW1 7688   0.799   5.259   5.528
 2263SOL    HW2 7689   0.959   5.226   5.538
 2264SOL     OW 7690   3.613   3.268   4.316
 2264SOL    HW1 7691   3.560   3.243   4.397
 2264SOL    HW2 7692   3.556   3.256   4.235
 2265SOL     OW 7693   6.970   6.902   1.821
 2265SOL    HW1 7694   6.883   6.946   1.840
 2265SOL    HW2 7695   0.009   6.968   1.783
 2266SOL     OW 7696   5.882   0.389   0.638
 2266SOL    HW1 7697   5.807   0.358   0.578
 2266SOL    HW2 7698   5.967   0.347   0.608
 2267SOL     OW 7699   6.344   2.899   5.760
 2267SOL    HW1 7700   6.325   2.931   5.852
 2267SOL    HW2 7701   6.262   2.859   5.720
 2268SOL     OW 7702   7.006   6.191   6.440
 2268SOL    HW1 7703   7.013   6.176   6.341
 2268SOL    HW2 7704   6.943   6.125   6.479
 2269SOL     OW 7705   6.598   5.179   5.801
 2269SOL    HW1 7706   6.568   5.101   5.747
 2269SOL    HW2 7707   6.697   5.181   5.804
 2270SOL     OW 7708   4.183   3.242   1.973
 2270SOL    HW1 7709   4.180   3.342   1.983
 2270SOL    HW2 7710   4.274   3.209   1.998
 2271SOL     OW 7711   6.658   4.687   2.241
 2271SOL    HW1 7712   6.742   4.734   2.213
 2271SOL    HW2 7713   6.583   4.753   2.244
 2272SOL     OW 7714   5.973   1.944   5.978
 2272SOL    HW1 7715   5.959   1.955   6.077
 2272SOL    HW2 7716   5.908   1.876   5.942
 2273SOL     OW 7717   0.663   1.651   3.113
 2273SOL    HW1 7718   0.677   1.749   3.129
 2273SOL    HW2 7719   0.581   1.620   3.161
 2274SOL     OW 7720   0.859   3.324   4.215
 2274SOL    HW1 7721   0.896   3.266   4.288
 2274SOL    HW2 7722   0.778   3.280   4.176
 2275SOL     OW 7723   5.022   6.881   3.907
 2275SOL    HW1 7724   4.922   6.886   3.918
 2275SOL    HW2 7725   5.048   6.787   3.887
 2276SOL     OW 7726   4.192   4.905   1.994
 2276SOL    HW1 7727   4.208   4.898   1.896
 2276SOL    HW2 7728   4.278   4.889   2.043
 2277SOL     OW 7729   3.785   3.301   0.122
 2277SOL    HW1 7730   3.746   3.222   0.167
 2277SOL    HW2 7731   3.818   3.276   0.031
 2278SOL     OW 7732   5.339   5.819   1.433
 2278SOL    HW1 7733   5.304   5.812   1.340
 2278SOL    HW2 7734   5.408   5.892   1.438
 2279SOL     OW 7735   5.577   3.332   4.670
 2279SOL    HW1 7736   5.493   3.379   4.695
 2279SOL    HW2 7737   5.555   3.239   4.640
 2280SOL     OW 7738   5.913   6.521   6.510
 2280SOL    HW1 7739   5.996   6.527   6.566
 2280SOL    HW2 7740   5.931   6.562   6.421
 2281SOL     OW 7741   3.947   2.532   1.236
 2281SOL    HW1 7742   3.879   2.605   1.249
 2281SOL    HW2 7743   3.907   2.444   1.261
 2282SOL     OW 7744   4.571   6.015   2.760
 2282SOL    HW1 7745   4.599   5.944   2.695
 2282SOL    HW2 7746   4.629   6.095   2.748
 2283SOL     OW 7747   7.017   2.938   3.361
 2283SOL    HW1 7748   0.076   2.953   3.311
 2283SOL    HW2 7749   7.012   3.001   3.438
 2284SOL     OW 7750   2.014   2.486   1.747
 2284SOL    HW1 7751   2.036   2.401   1.699
 2284SOL    HW2 7752   2.026   2.563   1.685
 2285SOL     OW 7753   1.749   4.171   0.861
 2285SOL    HW1 7754   1.843   4.140   0.873
 2285SOL    HW2 7755   1.711   4.130   0.778
 2286SOL     OW 7756   6.661   6.437   5.022
 2286SOL    HW1 7757   6.718   6.409   4.944
 2286SOL    HW2 7758   6.636   6.534   5.011
 2287SOL     OW 7759   2.116   2.482   2.002
 2287SOL    HW1 7760   2.116   2.581   1.990
 2287SOL    HW2 7761   2.090   2.438   1.916
 2288SOL     OW 7762   6.889   6.187   3.811
 2288SOL    HW1 7763   6.985   6.171   3.833
 2288SOL    HW2 7764   6.869   6.145   3.722
 2289SOL     OW 7765   5.467   1.886   2.232
 2289SOL    HW1 7766   5.381   1.905   2.183
 2289SOL    HW2 7767   5.445   1.844   2.320
 2290SOL     OW 7768   3.063   3.099   2.724
 2290SOL    HW1 7769   2.994   3.068   2.658
 2290SOL    HW2 7770   3.021   3.107   2.814
 2291SOL     OW 7771   1.821   2.531   0.598
 2291SOL    HW1 7772   1.743   2.499   0.650
 2291SOL    HW2 7773   1.906   2.507   0.646
 2292SOL     OW 7774   4.359   2.228   3.412
 2292SOL    HW1 7775   4.306   2.206   3.494
 2292SOL    HW2 7776   4.456   2.217   3.432
 2293SOL     OW 7777   6.155   1.345   6.928
 2293SOL    HW1 7778   6.059   1.327   6.953
 2293SOL    HW2 7779   6.213   1.273   6.966
 2294SOL     OW 7780   0.900   2.331   6.213
 2294SOL    HW1 7781   0.916   2.331   6.312
 2294SOL    HW2 7782   0.950   2.406   6.171
 2295SOL     OW 7783   6.028   6.879   1.760
 2295SOL    HW1 7784   6.086   6.892   1.680
 2295SOL    HW2 7785   6.061   6.801   1.813
 2296SOL     OW 7786   2.844   5.681   3.900
 2296SOL    HW1 7787   2.942   5.669   3.885
 2296SOL    HW2 7788   2.807   5.602   3.949
 2297SOL     OW 7789   4.185   4.689   5.275
 2297SOL    HW1 7790   4.181   4.608   5.217
 2297SOL    HW2 7791   4.242   4.669   5.355
 2298SOL     OW 7792   3.748   3.697   4.986
 2298SOL    HW1 7793   3.711   3.762   4.920
 2298SOL    HW2 7794   3.753   3.606   4.945
 2299SOL     OW 7795   5.199   2.947   4.831
 2299SOL    HW1 7796   5.248   2.883   4.771
 2299SOL    HW2 7797   5.264   2.998   4.886
 2300SOL     OW 7798   3.796   6.317   1.916
 2300SOL    HW1 7799   3.879   6.373   1.918
 2300SOL    HW2 7800   3.817   6.226   1.881
 2301SOL     OW 7801   3.526   3.629   4.728
 2301SOL    HW1 7802   3.522   3.606   4.631
 2301SOL    HW2 7803   3.452   3.582   4.776
 2302SOL     OW 7804   4.880   2.110   0.311
 2302SOL    HW1 7805   4.853   2.109   0.407
 2302SOL    HW2 7806   4.863   2.020   0.271
 2303SOL     OW 7807   3.646   2.119   0.804
 2303SOL    HW1 7808   3.688   2.050   0.862
 2303SOL    HW2 7809   3.717   2.162   0.747
 2304SOL     OW 7810   6.007   6.171   1.889
 2304SOL    HW1 7811   5.960   6.147   1.804
 2304SOL    HW2 7812   6.048   6.089   1.929
 2305SOL     OW 7813   1.837   1.170   5.142
 2305SOL    HW1 7814   1.841   1.254   5.195
 2305SOL    HW2 7815   1.747   1.162   5.099
 2306SOL     OW 7816   2.075   5.235   3.519
 2306SOL    HW1 7817   2.102   5.277   3.606
 2306SOL    HW2 7818   2.074   5.306   3.447
 2307SOL     OW 7819   0.732   2.122   5.353
 2307SOL    HW1 7820   0.802   2.192   5.341
 2307SOL    HW2 7821   0.700   2.124   5.448
 2308SOL     OW 7822   2.545   4.395   1.471
 2308SOL    HW1 7823   2.586   4.423   1.557
 2308SOL    HW2 7824   2.464   4.451   1.453
 2309SOL     OW 7825   1.534   6.322   4.800
 2309SOL    HW1 7826   1.627   6.293   4.826
 2309SOL    HW2 7827   1.526   6.421   4.811
 2310SOL     OW 7828   4.599   6.792   1.604
 2310SOL    HW1 7829   4.690   6.799   1.643
 2310SOL    HW2 7830   4.599   6.832   1.512
 2311SOL     OW 7831   2.419   6.367   1.214
 2311SOL    HW1 7832   2.429   6.271   1.241
 2311SOL    HW2 7833   2.322   6.391   1.211
 2312SOL     OW 7834   3.634   4.861   2.876
 2312SOL    HW1 7835   3.733   4.861   2.870
 2312SOL    HW2 7836   3.595   4.891   2.789
 2313SOL     OW 7837   4.981   5.134   2.414
 2313SOL    HW1 7838   5.061   5.123   2.354
 2313SOL    HW2 7839   5.012   5.156   2.506
 2314SOL     OW 7840   2.799   5.870   4.103
 2314SOL    HW1 7841   2.777   5.817   4.021
 2314SOL    HW2 7842   2.748   5.832   4.181
 2315SOL     OW 7843   4.136   3.308   6.959
 2315SOL    HW1 7844   4.152   3.407   6.963
 2315SOL    HW2 7845   4.184   3.270   6.880
 2316SOL     OW 7846   5.525   2.862   3.071
 2316SOL    HW1 7847   5.595   2.860   3.142
 2316SOL    HW2 7848   5.545   2.790   3.004
 2317SOL     OW 7849   1.549   4.810   3.514
 2317SOL    HW1 7850   1.589   4.751   3.444
 2317SOL    HW2 7851   1.479   4.868   3.473
 2318SOL     OW 7852   0.076   1.088   3.631
 2318SOL    HW1 7853   0.159   1.052   3.674
 2318SOL    HW2 7854   0.073   1.060   3.535
 2319SOL     OW 7855   1.354   3.897   3.975
 2319SOL    HW1 7856   1.314   3.980   3.937
 2319SOL    HW2 7857   1.412   3.921   4.053
 2320SOL     OW 7858   0.014   3.013   4.591
 2320SOL    HW1 7859   0.033   2.923   4.553
 2320SOL    HW2 7860   6.945   3.016   4.623
 2321SOL     OW 7861   3.096   6.494   5.210
 2321SOL    HW1 7862   3.022   6.469   5.148
 2321SOL    HW2 7863   3.089   6.591   5.234
 2322SOL     OW 7864   2.108   0.409   5.059
 2322SOL    HW1 7865   2.091   0.445   5.151
 2322SOL    HW2 7866   2.155   0.479   5.004
 2323SOL     OW 7867   4.476   5.403   2.023
 2323SOL    HW1 7868   4.433   5.315   2.041
 2323SOL    HW2 7869   4.457   5.466   2.099
 2324SOL     OW 7870   0.072   5.175   3.326
 2324SOL    HW1 7871   0.057   5.077   3.313
 2324SOL    HW2 7872   0.140   5.189   3.398
 2325SOL     OW 7873   0.226   3.542   0.779
 2325SOL    HW1 7874   0.187   3.634   0.775
 2325SOL    HW2 7875   0.154   3.475   0.762
 2326SOL     OW 7876   1.514   5.401   6.790
 2326SOL    HW1 7877   1.575   5.465   6.743
 2326SOL    HW2 7878   1.567   5.343   6.852
 2327SOL     OW 7879   4.664   2.758   4.215
 2327SOL    HW1 7880   4.691   2.848   4.183
 2327SOL    HW2 7881   4.745   2.703   4.234
 2328SOL     OW 7882   4.515   0.324   3.579
 2328SOL    HW1 7883   4.551   0.232   3.565
 2328SOL    HW2 7884   4.586   0.391   3.559
 2329SOL     OW 7885   0.700   6.309   3.630
 2329SOL    HW1 7886   0.621   6.256   3.598
 2329SOL    HW2 7887   0.670   6.373   3.701
 2330SOL     OW 7888   0.610   4.159   2.925
 2330SOL    HW1 7889   0.575   4.214   3.001
 2330SOL    HW2 7890   0.630   4.218   2.847
 2331SOL     OW 7891   0.772   4.461   5.163
 2331SOL    HW1 7892   0.865   4.482   5.133
 2331SOL    HW2 7893   0.717   4.433   5.084
 2332SOL     OW 7894   5.476   2.493   5.935
 2332SOL    HW1 7895   5.513   2.419   5.879
 2332SOL    HW2 7896   5.489   2.580   5.888
 2333SOL     OW 7897   1.181   5.998   3.481
 2333SOL    HW1 7898   1.095   5.976   3.527
 2333SOL    HW2 7899   1.193   5.938   3.402
 2334SOL     OW 7900   3.134   6.823   6.818
 2334SOL    HW1 7901   3.224   6.816   6.775
 2334SOL    HW2 7902   3.144   6.856   6.912
 2335SOL     OW 7903   5.187   6.692   4.197
 2335SOL    HW1 7904   5.156   6.606   4.237
 2335SOL    HW2 7905   5.208   6.757   4.270
 2336SOL     OW 7906   5.474   1.546   5.878
 2336SOL    HW1 7907   5.536   1.523   5.952
 2336SOL    HW2 7908   5.506   1.628   5.830
 2337SOL     OW 7909   5.406   6.881   3.301
 2337SOL    HW1 7910   5.370   6.916   3.388
 2337SOL    HW2 7911   5.366   6.933   3.225
 2338SOL     OW 7912   0.750   6.674   0.004
 2338SOL    HW1 7913   0.820   6.624   6.979
 2338SOL    HW2 7914   0.668   6.618   0.012
 2339SOL     OW 7915   3.529   3.988   0.321
 2339SOL    HW1 7916   3.561   3.944   0.405
 2339SOL    HW2 7917   3.604   3.994   0.256
 2340SOL     OW 7918   3.332   5.447   4.474
 2340SOL    HW1 7919   3.257   5.388   4.505
 2340SOL    HW2 7920   3.417   5.394   4.473
 2341SOL     OW 7921   5.279   5.228   0.895
 2341SOL    HW1 7922   5.262   5.133   0.869
 2341SOL    HW2 7923   5.212   5.256   0.963
 2342SOL     OW 7924   6.202   0.340   5.521
 2342SOL    HW1 7925   6.258   0.266   5.557
 2342SOL    HW2 7926   6.158   0.388   5.598
 2343SOL     OW 7927   1.127   6.777   1.266
 2343SOL    HW1 7928   1.121   6.685   1.226
 2343SOL    HW2 7929   1.078   6.842   1.208
 2344SOL     OW 7930   2.280   2.335   2.864
 2344SOL    HW1 7931   2.362   2.300   2.818
 2344SOL    HW2 7932   2.278   2.434   2.857
 2345SOL     OW 7933   1.830   1.281   4.516
 2345SOL    HW1 7934   1.837   1.293   4.615
 2345SOL    HW2 7935   1.917   1.305   4.473
 2346SOL     OW 7936   5.422   3.811   5.769
 2346SOL    HW1 7937   5.359   3.886   5.786
 2346SOL    HW2 7938   5.428   3.793   5.671
 2347SOL     OW 7939   1.660   2.890   1.942
 2347SOL    HW1 7940   1.697   2.925   2.028
 2347SOL    HW2 7941   1.601   2.812   1.960
 2348SOL     OW 7942   2.534   6.615   2.471
 2348SOL    HW1 7943   2.618   6.664   2.449
 2348SOL    HW2 7944   2.500   6.568   2.389
 2349SOL     OW 7945   5.878   5.988   5.523
 2349SOL    HW1 7946   5.838   5.960   5.435
 2349SOL    HW2 7947   5.976   5.973   5.521
 2350SOL     OW 7948   2.411   0.063   6.026
 2350SOL    HW1 7949   2.427   0.062   5.927
 2350SOL    HW2 7950   2.446   7.005   6.066
 2351SOL     OW 7951   2.218   5.637   4.453
 2351SOL    HW1 7952   2.220   5.544   4.415
 2351SOL    HW2 7953   2.240   5.634   4.550
 2352SOL     OW 7954   0.458   3.145   2.594
 2352SOL    HW1 7955   0.457   3.097   2.682
 2352SOL    HW2 7956   0.384   3.111   2.536
 2353SOL     OW 7957   3.203   4.620   5.784
 2353SOL    HW1 7958   3.267   4.686   5.822
 2353SOL    HW2 7959   3.110   4.657   5.789
 2354SOL     OW 7960   3.916   2.170   0.793
 2354SOL    HW1 7961   3.979   2.240   0.759
 2354SOL    HW2 7962   3.929   2.159   0.892
 2355SOL     OW 7963   0.390   6.387   0.870
 2355SOL    HW1 7964   0.460   6.378   0.799
 2355SOL    HW2 7965   0.417   6.336   0.951
 2356SOL     OW 7966   2.579   4.970   3.628
 2356SOL    HW1 7967   2.669   4.933   3.654
 2356SOL    HW2 7968   2.576   4.981   3.529
 2357SOL     OW 7969   6.611   4.093   1.581
 2357SOL    HW1 7970   6.575   4.176   1.625
 2357SOL    HW2 7971   6.641   4.029   1.651
 2358SOL     OW 7972   3.973   2.379   5.952
 2358SOL    HW1 7973   4.049   2.340   6.005
 2358SOL    HW2 7974   3.924   2.305   5.905
 2359SOL     OW 7975   1.285   1.805   5.657
 2359SOL    HW1 7976   1.381   1.779   5.647
 2359SOL    HW2 7977   1.240   1.744   5.721
 2360SOL     OW 7978   3.762   4.620   0.679
 2360SOL    HW1 7979   3.687   4.556   0.690
 2360SOL    HW2 7980   3.844   4.572   0.647
 2361SOL     OW 7981   3.774   6.003   1.892
 2361SOL    HW1 7982   3.763   5.923   1.833
 2361SOL    HW2 7983   3.738   5.983   1.983
 2362SOL     OW 7984   4.119   6.210   3.960
 2362SOL    HW1 7985   4.117   6.171   3.868
 2362SOL    HW2 7986   4.168   6.148   4.021
 2363SOL     OW 7987   3.312   3.830   0.606
 2363SOL    HW1 7988   3.245   3.850   0.535
 2363SOL    HW2 7989   3.402   3.864   0.577
 2364SOL     OW 7990   4.628   1.604   1.808
 2364SOL    HW1 7991   4.579   1.518   1.824
 2364SOL    HW2 7992   4.702   1.588   1.743
 2365SOL     OW 7993   4.974   3.768   4.220
 2365SOL    HW1 7994   4.925   3.779   4.306
 2365SOL    HW2 7995   4.941   3.835   4.153
 2366SOL     OW 7996   2.608   4.544   5.184
 2366SOL    HW1 7997   2.706   4.529   5.187
 2366SOL    HW2 7998   2.571   4.542   5.277
 2367SOL     OW 7999   0.409   4.481   5.995
 2367SOL    HW1 8000   0.410   4.492   6.094
 2367SOL    HW2 8001   0.447   4.564   5.953
 2368SOL     OW 8002   5.724   6.550   4.380
 2368SOL    HW1 8003   5.728   6.465   4.434
 2368SOL    HW2 8004   5.685   6.530   4.290
 2369SOL     OW 8005   3.080   1.885   3.694
 2369SOL    HW1 8006   3.120   1.977   3.691
 2369SOL    HW2 8007   3.112   1.838   3.776
 2370SOL     OW 8008   5.484   2.411   1.626
 2370SOL    HW1 8009   5.562   2.447   1.676
 2370SOL    HW2 8010   5.406   2.401   1.687
 2371SOL     OW 8011   1.001   6.737   2.938
 2371SOL    HW1 8012   0.979   6.792   2.857
 2371SOL    HW2 8013   0.921   6.732   2.998
 2372SOL     OW 8014   6.586   1.125   5.976
 2372SOL    HW1 8015   6.554   1.109   5.883
 2372SOL    HW2 8016   6.571   1.221   6.001
 2373SOL     OW 8017   5.880   6.398   6.042
 2373SOL    HW1 8018   5.882   6.302   6.067
 2373SOL    HW2 8019   5.804   6.443   6.088
 2374SOL     OW 8020   5.871   5.964   2.428
 2374SOL    HW1 8021   5.885   5.999   2.335
 2374SOL    HW2 8022   5.773   5.967   2.450
 2375SOL     OW 8023   0.999   0.720   4.194
 2375SOL    HW1 8024   1.017   0.665   4.113
 2375SOL    HW2 8025   1.086   0.752   4.232
 2376SOL     OW 8026   6.084   1.612   3.001
 2376SOL    HW1 8027   6.069   1.638   2.906
 2376SOL    HW2 8028   6.050   1.685   3.061
 2377SOL     OW 8029   3.978   4.903   6.012
 2377SOL    HW1 8030   3.959   4.963   6.089
 2377SOL    HW2 8031   3.985   4.957   5.928
 2378SOL     OW 8032   6.965   1.029   0.341
 2378SOL    HW1 8033   7.004   1.121   0.349
 2378SOL    HW2 8034   0.013   0.962   0.341
 2379SOL     OW 8035   6.550   5.132   0.993
 2379SOL    HW1 8036   6.627   5.125   0.930
 2379SOL    HW2 8037   6.531   5.228   1.012
 2380SOL     OW 8038   4.944   4.731   4.964
 2380SOL    HW1 8039   4.999   4.719   5.047
 2380SOL    HW2 8040   5.003   4.719   4.884
 2381SOL     OW 8041   2.901   5.412   4.796
 2381SOL    HW1 8042   2.858   5.369   4.717
 2381SOL    HW2 8043   2.911   5.344   4.869
 2382SOL     OW 8044   1.097   6.190   1.380
 2382SOL    HW1 8045   1.050   6.194   1.292
 2382SOL    HW2 8046   1.086   6.099   1.419
 2383SOL     OW 8047   5.186   5.718   5.217
 2383SOL    HW1 8048   5.207   5.794   5.279
 2383SOL    HW2 8049   5.149   5.642   5.269
 2384SOL     OW 8050   0.654   2.027   1.875
 2384SOL    HW1 8051   0.715   2.000   1.801
 2384SOL    HW2 8052   0.677   2.120   1.905
 2385SOL     OW 8053   0.918   1.745   0.996
 2385SOL    HW1 8054   0.947   1.737   0.900
 2385SOL    HW2 8055   0.818   1.748   1.000
 2386SOL     OW 8056   4.617   5.984   4.574
 2386SOL    HW1 8057   4.631   5.932   4.658
 2386SOL    HW2 8058   4.519   5.998   4.559
 2387SOL     OW 8059   1.631   1.394   3.996
 2387SOL    HW1 8060   1.572   1.325   4.038
 2387SOL    HW2 8061   1.695   1.429   4.065
 2388SOL     OW 8062   6.602   1.878   5.348
 2388SOL    HW1 8063   6.606   1.962   5.401
 2388SOL    HW2 8064   6.527   1.883   5.282
 2389SOL     OW 8065   5.868   4.467   4.179
 2389SOL    HW1 8066   5.921   4.501   4.101
 2389SOL    HW2 8067   5.775   4.446   4.149
 2390SOL     OW 8068   4.797   4.243   5.915
 2390SOL    HW1 8069   4.858   4.316   5.946
 2390SOL    HW2 8070   4.797   4.169   5.982
 2391SOL     OW 8071   3.618   3.834   6.452
 2391SOL    HW1 8072   3.529   3.877   6.470
 2391SOL    HW2 8073   3.611   3.736   6.471
 2392SOL     OW 8074   3.333   5.668   4.650
 2392SOL    HW1 8075   3.239   5.665   4.683
 2392SOL    HW2 8076   3.353   5.585   4.597
 2393SOL     OW 8077   3.043   5.007   1.370
 2393SOL    HW1 8078   2.963   5.024   1.313
 2393SOL    HW2 8079   3.065   4.909   1.367
 2394SOL     OW 8080   0.796   2.547   3.084
 2394SOL    HW1 8081   0.783   2.589   2.994
 2394SOL    HW2 8082   0.743   2.463   3.089
 2395SOL     OW 8083   0.243   2.499   5.319
 2395SOL    HW1 8084   0.298   2.470   5.398
 2395SOL    HW2 8085   0.301   2.502   5.238
 2396SOL     OW 8086   6.584   1.073   5.223
 2396SOL    HW1 8087   6.677   1.038   5.237
 2396SOL    HW2 8088   6.526   1.046   5.299
 2397SOL     OW 8089   0.351   5.224   4.949
 2397SOL    HW1 8090   0.429   5.286   4.955
 2397SOL    HW2 8091   0.317   5.222   4.855
 2398SOL     OW 8092   3.158   5.796   3.986
 2398SOL    HW1 8093   3.148   5.697   3.976
 2398SOL    HW2 8094   3.130   5.823   4.077
 2399SOL     OW 8095   2.878   2.270   3.819
 2399SOL    HW1 8096   2.794   2.296   3.866
 2399SOL    HW2 8097   2.894   2.172   3.831
 2400SOL     OW 8098   1.269   3.789   0.385
 2400SOL    HW1 8099   1.366   3.786   0.362
 2400SOL    HW2 8100   1.255   3.760   0.480
 2401SOL     OW 8101   3.558   0.401   5.718
 2401SOL    HW1 8102   3.465   0.365   5.706
 2401SOL    HW2 8103   3.560   0.462   5.797
 2402SOL     OW 8104   0.840   2.966   2.029
 2402SOL    HW1 8105   0.872   3.028   1.958
 2402SOL    HW2 8106   0.833   3.016   2.116
 2403SOL     OW 8107   3.402   4.080   3.024
 2403SOL    HW1 8108   3.304   4.065   3.033
 2403SOL    HW2 8109   3.446   4.068   3.114
 2404SOL     OW 8110   6.742   1.585   0.926
 2404SOL    HW1 8111   6.780   1.564   0.835
 2404SOL    HW2 8112   6.652   1.627   0.916
 2405SOL     OW 8113   2.569   3.912   0.663
 2405SOL    HW1 8114   2.546   3.907   0.566
 2405SOL    HW2 8115   2.501   3.862   0.716
 2406SOL     OW 8116   2.629   6.930   5.157
 2406SOL    HW1 8117   2.529   6.936   5.153
 2406SOL    HW2 8118   2.661   6.866   5.087
 2407SOL     OW 8119   3.621   1.081   3.794
 2407SOL    HW1 8120   3.627   1.180   3.805
 2407SOL    HW2 8121   3.559   1.060   3.718
 2408SOL     OW 8122   2.499   6.315   4.893
 2408SOL    HW1 8123   2.447   6.334   4.976
 2408SOL    HW2 8124   2.445   6.341   4.813
 2409SOL     OW 8125   2.586   2.637   0.965
 2409SOL    HW1 8126   2.544   2.702   1.028
 2409SOL    HW2 8127   2.677   2.613   0.998
 2410SOL     OW 8128   6.826   3.944   5.878
 2410SOL    HW1 8129   6.827   4.040   5.906
 2410SOL    HW2 8130   6.906   3.925   5.822
 2411SOL     OW 8131   2.543   3.555   0.180
 2411SOL    HW1 8132   2.576   3.595   0.095
 2411SOL    HW2 8133   2.443   3.557   0.183
 2412SOL     OW 8134   2.979   1.727   6.563
 2412SOL    HW1 8135   2.995   1.818   6.601
 2412SOL    HW2 8136   3.066   1.690   6.529
 2413SOL     OW 8137   0.415   2.376   6.534
 2413SOL    HW1 8138   0.497   2.431   6.548
 2413SOL    HW2 8139   0.431   2.312   6.459
 2414SOL     OW 8140   5.955   2.607   4.815
 2414SOL    HW1 8141   6.043   2.594   4.861
 2414SOL    HW2 8142   5.956   2.557   4.728
 2415SOL     OW 8143   2.870   6.035   0.802
 2415SOL    HW1 8144   2.851   5.946   0.844
 2415SOL    HW2 8145   2.953   6.073   0.841
 2416SOL     OW 8146   6.742   3.280   3.056
 2416SOL    HW1 8147   6.785   3.214   3.118
 2416SOL    HW2 8148   6.686   3.232   2.989
 2417SOL     OW 8149   3.999   3.723   1.001
 2417SOL    HW1 8150   3.901   3.713   1.020
 2417SOL    HW2 8151   4.051   3.660   1.058
 2418SOL     OW 8152   4.859   4.206   5.642
 2418SOL    HW1 8153   4.871   4.217   5.741
 2418SOL    HW2 8154   4.793   4.274   5.609
 2419SOL     OW 8155   1.973   6.231   4.105
 2419SOL    HW1 8156   1.983   6.142   4.150
 2419SOL    HW2 8157   2.060   6.280   4.111
 2420SOL     OW 8158   2.795   4.763   2.760
 2420SOL    HW1 8159   2.702   4.732   2.780
 2420SOL    HW2 8160   2.812   4.757   2.662
 2421SOL     OW 8161   3.297   6.785   4.381
 2421SOL    HW1 8162   3.269   6.813   4.289
 2421SOL    HW2 8163   3.265   6.692   4.399
 2422SOL     OW 8164   4.341   6.321   1.463
 2422SOL    HW1 8165   4.413   6.308   1.532
 2422SOL    HW2 8166   4.291   6.405   1.484
 2423SOL     OW 8167   2.002   4.804   2.298
 2423SOL    HW1 8168   1.918   4.782   2.250
 2423SOL    HW2 8169   2.080   4.766   2.248
 2424SOL     OW 8170   5.000   1.197   6.204
 2424SOL    HW1 8171   5.010   1.138   6.284
 2424SOL    HW2 8172   4.931   1.267   6.222
 2425SOL     OW 8173   4.435   5.366   5.636
 2425SOL    HW1 8174   4.512   5.338   5.579
 2425SOL    HW2 8175   4.363   5.296   5.631
 2426SOL     OW 8176   1.232   4.852   5.843
 2426SOL    HW1 8177   1.293   4.929   5.861
 2426SOL    HW2 8178   1.255   4.813   5.753
 2427SOL     OW 8179   5.047   0.845   6.345
 2427SOL    HW1 8180   5.010   0.825   6.254
 2427SOL    HW2 8181   5.114   0.919   6.338
 2428SOL     OW 8182   0.429   0.856   3.363
 2428SOL    HW1 8183   0.476   0.933   3.320
 2428SOL    HW2 8184   0.384   0.802   3.292
 2429SOL     OW 8185   5.593   5.538   2.461
 2429SOL    HW1 8186   5.501   5.500   2.475
 2429SOL    HW2 8187   5.585   5.625   2.412
 2430SOL     OW 8188   6.369   3.234   7.016
 2430SOL    HW1 8189   6.339   3.223   0.086
 2430SOL    HW2 8190   6.290   3.257   6.959
 2431SOL     OW 8191   6.910   1.901   0.847
 2431SOL    HW1 8192   6.822   1.892   0.800
 2431SOL    HW2 8193   6.974   1.950   0.787
 2432SOL     OW 8194   3.946   5.154   2.092
 2432SOL    HW1 8195   3.846   5.157   2.101
 2432SOL    HW2 8196   3.979   5.063   2.116
 2433SOL     OW 8197   6.793   4.125   0.148
 2433SOL    HW1 8198   6.708   4.142   0.197
 2433SOL    HW2 8199   6.868   4.174   0.192
 2434SOL     OW 8200   3.963   1.898   2.821
 2434SOL    HW1 8201   3.873   1.889   2.778
 2434SOL    HW2 8202   3.959   1.865   2.915
 2435SOL     OW 8203   5.218   0.144   6.688
 2435SOL    HW1 8204   5.246   0.087   6.765
 2435SOL    HW2 8205   5.265   0.115   6.605
 2436SOL     OW 8206   2.087   1.585   0.994
 2436SOL    HW1 8207   2.027   1.657   1.030
 2436SOL    HW2 8208   2.045   1.496   1.010
 2437SOL     OW 8209   6.803   6.096   1.861
 2437SOL    HW1 8210   6.894   6.126   1.891
 2437SOL    HW2 8211   6.810   6.056   1.770
 2438SOL     OW 8212   3.068   1.547   4.769
 2438SOL    HW1 8213   3.097   1.551   4.673
 2438SOL    HW2 8214   3.039   1.454   4.791
 2439SOL     OW 8215   0.299   5.639   0.221
 2439SOL    HW1 8216   0.375   5.688   0.178
 2439SOL    HW2 8217   0.321   5.621   0.317
 2440SOL     OW 8218   4.299   1.202   5.068
 2440SOL    HW1 8219   4.317   1.300   5.054
 2440SOL    HW2 8220   4.200   1.188   5.076
 2441SOL     OW 8221   5.882   0.263   6.571
 2441SOL    HW1 8222   5.817   0.235   6.641
 2441SOL    HW2 8223   5.969   0.214   6.584
 2442SOL     OW 8224   4.850   3.828   2.191
 2442SOL    HW1 8225   4.857   3.773   2.108
 2442SOL    HW2 8226   4.838   3.767   2.270
 2443SOL     OW 8227   2.203   1.947   0.564
 2443SOL    HW1 8228   2.298   1.972   0.578
 2443SOL    HW2 8229   2.188   1.854   0.597
 2444SOL     OW 8230   3.288   5.730   0.780
 2444SOL    HW1 8231   3.282   5.645   0.833
 2444SOL    HW2 8232   3.292   5.808   0.841
 2445SOL     OW 8233   0.723   2.011   0.727
 2445SOL    HW1 8234   0.691   1.939   0.789
 2445SOL    HW2 8235   0.786   1.972   0.660
 2446SOL     OW 8236   1.536   3.808   1.514
 2446SOL    HW1 8237   1.448   3.854   1.504
 2446SOL    HW2 8238   1.534   3.722   1.463
 2447SOL     OW 8239   2.423   0.563   1.285
 2447SOL    HW1 8240   2.405   0.537   1.380
 2447SOL    HW2 8241   2.354   0.521   1.225
 2448SOL     OW 8242   6.213   1.708   4.054
 2448SOL    HW1 8243   6.232   1.689   3.958
 2448SOL    HW2 8244   6.295   1.745   4.098
 2449SOL     OW 8245   1.639   4.358   2.040
 2449SOL    HW1 8246   1.689   4.398   1.964
 2449SOL    HW2 8247   1.585   4.429   2.086
 2450SOL     OW 8248   2.144   5.531   6.666
 2450SOL    HW1 8249   2.070   5.501   6.727
 2450SOL    HW2 8250   2.115   5.613   6.616
 2451SOL     OW 8251   0.823   7.023   4.361
 2451SOL    HW1 8252   0.898   7.007   4.425
 2451SOL    HW2 8253   0.766   6.941   4.357
 2452SOL     OW 8254   2.617   2.314   3.302
 2452SOL    HW1 8255   2.688   2.282   3.240
 2452SOL    HW2 8256   2.654   2.322   3.395
 2453SOL     OW 8257   0.309   1.690   6.967
 2453SOL    HW1 8258   0.231   1.637   6.934
 2453SOL    HW2 8259   0.387   1.630   6.981
 2454SOL     OW 8260   3.790   5.225   1.064
 2454SOL    HW1 8261   3.707   5.273   1.094
 2454SOL    HW2 8262   3.778   5.195   0.969
 2455SOL     OW 8263   3.970   0.870   0.554
 2455SOL    HW1 8264   4.006   0.829   0.638
 2455SOL    HW2 8265   3.899   0.936   0.578
 2456SOL     OW 8266   1.140   4.566   6.907
 2456SOL    HW1 8267   1.122   4.523   6.819
 2456SOL    HW2 8268   1.184   4.500   6.968
 2457SOL     OW 8269   5.413   1.618   5.457
 2457SOL    HW1 8270   5.349   1.686   5.493
 2457SOL    HW2 8271   5.472   1.661   5.388
 2458SOL     OW 8272   0.873   6.960   2.836
 2458SOL    HW1 8273   0.843   6.955   2.741
 2458SOL    HW2 8274   0.857   0.026   2.872
 2459SOL     OW 8275   2.480   6.124   0.366
 2459SOL    HW1 8276   2.541   6.094   0.293
 2459SOL    HW2 8277   2.501   6.219   0.390
 2460SOL     OW 8278   1.612   1.015   6.829
 2460SOL    HW1 8279   1.579   1.100   6.871
 2460SOL    HW2 8280   1.685   1.037   6.763
 2461SOL     OW 8281   4.018   0.311   4.240
 2461SOL    HW1 8282   4.052   0.364   4.163
 2461SOL    HW2 8283   4.074   0.329   4.321
 2462SOL     OW 8284   0.662   5.463   1.061
 2462SOL    HW1 8285   0.726   5.451   0.985
 2462SOL    HW2 8286   0.577   5.415   1.040
 2463SOL     OW 8287   6.797   0.951   0.114
 2463SOL    HW1 8288   6.853   0.992   0.185
 2463SOL    HW2 8289   6.765   1.022   0.051
 2464SOL     OW 8290   0.018   2.199   2.508
 2464SOL    HW1 8291   0.072   2.281   2.490
 2464SOL    HW2 8292   0.062   2.120   2.465
 2465SOL     OW 8293   0.244   5.164   5.909
 2465SOL    HW1 8294   0.298   5.222   5.970
 2465SOL    HW2 8295   0.286   5.163   5.818
 2466SOL     OW 8296   1.510   1.636   2.054
 2466SOL    HW1 8297   1.557   1.599   1.974
 2466SOL    HW2 8298   1.459   1.562   2.099
 2467SOL     OW 8299   4.651   1.799   6.225
 2467SOL    HW1 8300   4.747   1.785   6.250
 2467SOL    HW2 8301   4.624   1.729   6.159
 2468SOL     OW 8302   3.629   0.504   6.448
 2468SOL    HW1 8303   3.646   0.533   6.542
 2468SOL    HW2 8304   3.688   0.556   6.386
 2469SOL     OW 8305   4.364   2.599   5.590
 2469SOL    HW1 8306   4.421   2.517   5.594
 2469SOL    HW2 8307   4.301   2.601   5.668
 2470SOL     OW 8308   4.009   4.794   6.455
 2470SOL    HW1 8309   4.074   4.721   6.429
 2470SOL    HW2 8310   3.927   4.787   6.399
 2471SOL     OW 8311   3.642   6.626   0.848
 2471SOL    HW1 8312   3.652   6.725   0.843
 2471SOL    HW2 8313   3.588   6.594   0.771
 2472SOL     OW 8314   4.565   2.661   3.960
 2472SOL    HW1 8315   4.631   2.703   3.898
 2472SOL    HW2 8316   4.585   2.687   4.054
 2473SOL     OW 8317   0.994   4.174   5.171
 2473SOL    HW1 8318   0.947   4.202   5.255
 2473SOL    HW2 8319   1.055   4.098   5.191
 2474SOL     OW 8320   1.044   5.563   0.519
 2474SOL    HW1 8321   1.037   5.652   0.474
 2474SOL    HW2 8322   0.964   5.548   0.577
 2475SOL     OW 8323   4.860   0.445   0.731
 2475SOL    HW1 8324   4.951   0.485   0.720
 2475SOL    HW2 8325   4.813   0.444   0.643
 2476SOL     OW 8326   5.601   0.694   2.465
 2476SOL    HW1 8327   5.643   0.626   2.404
 2476SOL    HW2 8328   5.670   0.763   2.490
 2477SOL     OW 8329   3.873   0.275   3.624
 2477SOL    HW1 8330   3.941   0.235   3.563
 2477SOL    HW2 8331   3.920   0.328   3.695
 2478SOL     OW 8332   3.890   1.209   2.947
 2478SOL    HW1 8333   3.962   1.219   3.015
 2478SOL    HW2 8334   3.865   1.299   2.911
 2479SOL     OW 8335   0.515   2.645   1.717
 2479SOL    HW1 8336   0.447   2.653   1.644
 2479SOL    HW2 8337   0.560   2.556   1.712
 2480SOL     OW 8338   3.795   2.689   1.436
 2480SOL    HW1 8339   3.720   2.623   1.433
 2480SOL    HW2 8340   3.761   2.780   1.413
 2481SOL     OW 8341   3.183   0.240   1.853
 2481SOL    HW1 8342   3.140   0.289   1.777
 2481SOL    HW2 8343   3.118   0.175   1.892
 2482SOL     OW 8344   4.933   3.975   0.235
 2482SOL    HW1 8345   4.857   4.026   0.274
 2482SOL    HW2 8346   4.992   4.037   0.182
 2483SOL     OW 8347   1.053   2.315   0.017
 2483SOL    HW1 8348   1.089   2.276   6.958
 2483SOL    HW2 8349   1.001   2.246   0.067
 2484SOL     OW 8350   3.614   0.871   1.587
 2484SOL    HW1 8351   3.669   0.900   1.508
 2484SOL    HW2 8352   3.543   0.808   1.556
 2485SOL     OW 8353   5.597   2.293   7.000
 2485SOL    HW1 8354   5.509   2.305   0.020
 2485SOL    HW2 8355   5.583   2.282   6.902
 2486SOL     OW 8356   0.506   5.333   5.268
 2486SOL    HW1 8357   0.467   5.413   5.222
 2486SOL    HW2 8358   0.580   5.295   5.212
 2487SOL     OW 8359   3.998   6.287   0.815
 2487SOL    HW1 8360   3.978   6.194   0.845
 2487SOL    HW2 8361   3.935   6.313   0.742
 2488SOL     OW 8362   0.638   3.835   1.747
 2488SOL    HW1 8363   0.658   3.795   1.837
 2488SOL    HW2 8364   0.568   3.780   1.701
 2489SOL     OW 8365   0.664   6.554   3.771
 2489SOL    HW1 8366   0.756   6.561   3.732
 2489SOL    HW2 8367   0.600   6.605   3.714
 2490SOL     OW 8368   0.989   5.771   0.892
 2490SOL    HW1 8369   0.900   5.746   0.854
 2490SOL    HW2 8370   1.042   5.818   0.821
 2491SOL     OW 8371   4.169   4.020   1.477
 2491SOL    HW1 8372   4.099   4.011   1.406
 2491SOL    HW2 8373   4.128   3.999   1.566
 2492SOL     OW 8374   5.195   3.810   1.630
 2492SOL    HW1 8375   5.229   3.891   1.676
 2492SOL    HW2 8376   5.181   3.737   1.696
 2493SOL     OW 8377   6.990   0.380   0.981
 2493SOL    HW1 8378   7.018   0.310   1.047
 2493SOL    HW2 8379   6.912   0.347   0.929
 2494SOL     OW 8380   6.242   3.940   1.842
 2494SOL    HW1 8381   6.240   3.898   1.751
 2494SOL    HW2 8382   6.164   3.908   1.896
 2495SOL     OW 8383   5.116   6.078   3.515
 2495SOL    HW1 8384   5.135   6.176   3.518
 2495SOL    HW2 8385   5.041   6.057   3.577
 2496SOL     OW 8386   0.413   3.546   6.986
 2496SOL    HW1 8387   0.477   3.587   0.025
 2496SOL    HW2 8388   0.463   3.509   6.908
 2497SOL     OW 8389   0.543   0.150   0.342
 2497SOL    HW1 8390   0.539   0.106   0.432
 2497SOL    HW2 8391   0.469   0.218   0.336
 2498SOL     OW 8392   3.117   2.141   5.725
 2498SOL    HW1 8393   3.190   2.085   5.685
 2498SOL    HW2 8394   3.116   2.231   5.682
 2499SOL     OW 8395   5.997   2.565   2.130
 2499SOL    HW1 8396   6.012   2.563   2.031
 2499SOL    HW2 8397   6.083   2.583   2.177
 2500SOL     OW 8398   3.936   3.302   6.590
 2500SOL    HW1 8399   4.014   3.247   6.618
 2500SOL    HW2 8400   3.855   3.274   6.643
 2501SOL     OW 8401   5.256   5.766   0.044
 2501SOL    HW1 8402   5.342   5.809   0.070
 2501SOL    HW2 8403   5.234   5.693   0.109
 2502SOL     OW 8404   2.109   6.823   4.662
 2502SOL    HW1 8405   2.103   6.731   4.700
 2502SOL    HW2 8406   2.203   6.842   4.634
 2503SOL     OW 8407   3.467   6.684   5.345
 2503SOL    HW1 8408   3.513   6.718   5.262
 2503SOL    HW2 8409   3.442   6.588   5.332
 2504SOL     OW 8410   3.706   5.187   2.723
 2504SOL    HW1 8411   3.762   5.105   2.733
 2504SOL    HW2 8412   3.655   5.203   2.807
 2505SOL     OW 8413   0.595   5.811   2.976
 2505SOL    HW1 8414   0.563   5.871   2.903
 2505SOL    HW2 8415   0.656   5.862   3.037
 2506SOL     OW 8416   6.507   3.693   6.137
 2506SOL    HW1 8417   6.502   3.621   6.067
 2506SOL    HW2 8418   6.559   3.659   6.215
 2507SOL     OW 8419   0.313   3.679   0.417
 2507SOL    HW1 8420   0.270   3.608   0.472
 2507SOL    HW2 8421   0.304   3.657   0.320
 2508SOL     OW 8422   2.728   1.875   4.337
 2508SOL    HW1 8423   2.629   1.869   4.347
 2508SOL    HW2 8424   2.772   1.804   4.392
 2509SOL     OW 8425   6.757   4.668   0.387
 2509SOL    HW1 8426   6.799   4.620   0.464
 2509SOL    HW2 8427   6.819   4.740   0.356
 2510SOL     OW 8428   3.551   4.463   0.661
 2510SOL    HW1 8429   3.537   4.456   0.562
 2510SOL    HW2 8430   3.462   4.465   0.707
 2511SOL     OW 8431   1.844   1.264   4.804
 2511SOL    HW1 8432   1.771   1.242   4.868
 2511SOL    HW2 8433   1.891   1.181   4.776
 2512SOL     OW 8434   4.365   4.282   5.481
 2512SOL    HW1 8435   4.298   4.221   5.437
 2512SOL    HW2 8436   4.378   4.363   5.425
 2513SOL     OW 8437   2.096   5.481   4.878
 2513SOL    HW1 8438   2.102   5.419   4.801
 2513SOL    HW2 8439   2.097   5.429   4.964
 2514SOL     OW 8440   0.637   3.512   4.192
 2514SOL    HW1 8441   0.717   3.455   4.176
 2514SOL    HW2 8442   0.605   3.551   4.105
 2515SOL     OW 8443   1.858   6.640   1.240
 2515SOL    HW1 8444   1.879   6.598   1.152
 2515SOL    HW2 8445   1.942   6.673   1.283
 2516SOL     OW 8446   5.134   1.151   2.071
 2516SOL    HW1 8447   5.223   1.125   2.034
 2516SOL    HW2 8448   5.079   1.195   2.000
 2517SOL     OW 8449   1.296   0.384   5.928
 2517SOL    HW1 8450   1.388   0.348   5.937
 2517SOL    HW2 8451   1.271   0.389   5.831
 2518SOL     OW 8452   1.283   5.587   0.631
 2518SOL    HW1 8453   1.296   5.545   0.721
 2518SOL    HW2 8454   1.198   5.554   0.590
 2519SOL     OW 8455   3.585   1.124   1.988
 2519SOL    HW1 8456   3.548   1.169   2.069
 2519SOL    HW2 8457   3.523   1.051   1.959
 2520SOL     OW 8458   3.455   1.777   0.118
 2520SOL    HW1 8459   3.513   1.735   0.048
 2520SOL    HW2 8460   3.403   1.705   0.165
 2521SOL     OW 8461   2.944   1.625   5.381
 2521SOL    HW1 8462   2.878   1.568   5.430
 2521SOL    HW2 8463   3.003   1.672   5.446
 2522SOL     OW 8464   1.557   1.214   5.817
 2522SOL    HW1 8465   1.570   1.257   5.728
 2522SOL    HW2 8466   1.646   1.204   5.862
 2523SOL     OW 8467   1.426   3.418   1.136
 2523SOL    HW1 8468   1.506   3.438   1.192
 2523SOL    HW2 8469   1.374   3.343   1.178
 2524SOL     OW 8470   7.017   6.702   4.416
 2524SOL    HW1 8471   0.039   6.674   4.499
 2524SOL    HW2 8472   6.984   6.795   4.426
 2525SOL     OW 8473   1.649   2.744   4.699
 2525SOL    HW1 8474   1.704   2.821   4.666
 2525SOL    HW2 8475   1.566   2.779   4.744
 2526SOL     OW 8476   1.934   4.525   6.239
 2526SOL    HW1 8477   1.878   4.507   6.159
 2526SOL    HW2 8478   1.877   4.560   6.313
 2527SOL     OW 8479   5.851   6.216   5.334
 2527SOL    HW1 8480   5.913   6.241   5.408
 2527SOL    HW2 8481   5.760   6.253   5.353
 2528SOL     OW 8482   5.709   4.345   5.860
 2528SOL    HW1 8483   5.641   4.363   5.789
 2528SOL    HW2 8484   5.777   4.418   5.860
 2529SOL     OW 8485   0.166   6.782   0.041
 2529SOL    HW1 8486   0.261   6.775   0.009
 2529SOL    HW2 8487   0.155   6.867   0.093
 2530SOL     OW 8488   2.518   6.239   5.283
 2530SOL    HW1 8489   2.459   6.297   5.227
 2530SOL    HW2 8490   2.467   6.205   5.362
 2531SOL     OW 8491   6.170   6.014   5.200
 2531SOL    HW1 8492   6.176   6.097   5.144
 2531SOL    HW2 8493   6.259   5.994   5.240
 2532SOL     OW 8494   6.949   6.247   0.957
 2532SOL    HW1 8495   6.986   6.311   1.025
 2532SOL    HW2 8496   7.018   6.230   0.887
 2533SOL     OW 8497   4.914   0.609   3.515
 2533SOL    HW1 8498   4.929   0.649   3.605
 2533SOL    HW2 8499   4.947   0.515   3.514
 2534SOL     OW 8500   3.440   1.611   1.339
 2534SOL    HW1 8501   3.419   1.528   1.389
 2534SOL    HW2 8502   3.524   1.651   1.374
 2535SOL     OW 8503   3.888   2.703   6.510
 2535SOL    HW1 8504   3.865   2.607   6.497
 2535SOL    HW2 8505   3.828   2.760   6.454
 2536SOL     OW 8506   1.532   0.787   6.690
 2536SOL    HW1 8507   1.475   0.711   6.722
 2536SOL    HW2 8508   1.569   0.836   6.769
 2537SOL     OW 8509   3.404   6.850   6.427
 2537SOL    HW1 8510   3.497   6.874   6.397
 2537SOL    HW2 8511   3.398   6.856   6.527
 2538SOL     OW 8512   0.360   3.359   3.955
 2538SOL    HW1 8513   0.418   3.434   3.986
 2538SOL    HW2 8514   0.288   3.395   3.895
 2539SOL     OW 8515   5.110   1.282   4.052
 2539SOL    HW1 8516   5.109   1.182   4.051
 2539SOL    HW2 8517   5.071   1.316   3.966
 2540SOL     OW 8518   4.201   1.727   2.760
 2540SOL    HW1 8519   4.130   1.795   2.777
 2540SOL    HW2 8520   4.223   1.680   2.846
 2541SOL     OW 8521   3.250   0.189   5.316
 2541SOL    HW1 8522   3.265   0.271   5.260
 2541SOL    HW2 8523   3.216   0.115   5.259
 2542SOL     OW 8524   3.690   3.484   6.494
 2542SOL    HW1 8525   3.670   3.419   6.568
 2542SOL    HW2 8526   3.786   3.510   6.497
 2543SOL     OW 8527   0.364   0.658   4.194
 2543SOL    HW1 8528   0.365   0.572   4.244
 2543SOL    HW2 8529   0.270   0.688   4.180
 2544SOL     OW 8530   0.077   5.871   0.212
 2544SOL    HW1 8531   0.004   5.868   0.144
 2544SOL    HW2 8532   0.133   5.788   0.204
 2545SOL     OW 8533   1.701   6.414   1.932
 2545SOL    HW1 8534   1.728   6.420   1.836
 2545SOL    HW2 8535   1.782   6.411   1.989
 2546SOL     OW 8536   0.160   1.870   1.352
 2546SOL    HW1 8537   0.257   1.881   1.370
 2546SOL    HW2 8538   0.147   1.818   1.267
 2547SOL     OW 8539   0.690   4.281   0.096
 2547SOL    HW1 8540   0.765   4.222   0.125
 2547SOL    HW2 8541   0.704   4.312   0.002
 2548SOL     OW 8542   0.892   6.925   4.705
 2548SOL    HW1 8543   0.945   6.939   4.789
 2548SOL    HW2 8544   0.945   6.958   4.627
 2549SOL     OW 8545   0.859   0.329   1.396
 2549SOL    HW1 8546   0.783   0.394   1.405
 2549SOL    HW2 8547   0.938   0.375   1.355
 2550SOL     OW 8548   6.040   6.702   0.300
 2550SOL    HW1 8549   6.106   6.736   0.234
 2550SOL    HW2 8550   6.071   6.723   0.393
 2551SOL     OW 8551   3.307   4.397   0.164
 2551SOL    HW1 8552   3.322   4.494   0.149
 2551SOL    HW2 8553   3.356   4.344   0.094
 2552SOL     OW 8554   2.032   5.977   4.186
 2552SOL    HW1 8555   1.947   5.926   4.172
 2552SOL    HW2 8556   2.099   5.919   4.233
 2553SOL     OW 8557   3.788   3.557   6.077
 2553SOL    HW1 8558   3.829   3.608   6.001
 2553SOL    HW2 8559   3.702   3.517   6.047
 2554SOL     OW 8560   2.684   0.547   0.739
 2554SOL    HW1 8561   2.724   0.456   0.731
 2554SOL    HW2 8562   2.589   0.539   0.770
 2555SOL     OW 8563   5.747   1.795   4.328
 2555SOL    HW1 8564   5.839   1.764   4.303
 2555SOL    HW2 8565   5.687   1.790   4.248
 2556SOL     OW 8566   4.500   6.174   0.434
 2556SOL    HW1 8567   4.575   6.177   0.500
 2556SOL    HW2 8568   4.413   6.167   0.484
 2557SOL     OW 8569   1.636   3.625   0.848
 2557SOL    HW1 8570   1.716   3.680   0.826
 2557SOL    HW2 8571   1.644   3.535   0.805
 2558SOL     OW 8572   4.719   1.168   5.088
 2558SOL    HW1 8573   4.715   1.256   5.042
 2558SOL    HW2 8574   4.657   1.169   5.167
 2559SOL     OW 8575   1.188   4.191   5.522
 2559SOL    HW1 8576   1.104   4.226   5.480
 2559SOL    HW2 8577   1.266   4.240   5.484
 2560SOL     OW 8578   6.080   2.834   5.744
 2560SOL    HW1 8579   6.108   2.804   5.653
 2560SOL    HW2 8580   6.025   2.762   5.787
 2561SOL     OW 8581   2.711   4.861   4.914
 2561SOL    HW1 8582   2.701   4.931   4.985
 2561SOL    HW2 8583   2.744   4.776   4.956
 2562SOL     OW 8584   2.203   4.946   1.058
 2562SOL    HW1 8585   2.216   4.899   0.971
 2562SOL    HW2 8586   2.217   4.882   1.133
 2563SOL     OW 8587   3.829   1.163   1.059
 2563SOL    HW1 8588   3.747   1.217   1.078
 2563SOL    HW2 8589   3.808   1.092   0.992
 2564SOL     OW 8590   1.684   5.652   6.985
 2564SOL    HW1 8591   1.635   5.615   6.906
 2564SOL    HW2 8592   1.722   5.577   0.014
 2565SOL     OW 8593   1.687   0.641   0.021
 2565SOL    HW1 8594   1.618   0.569   0.033
 2565SOL    HW2 8595   1.720   0.639   6.952
 2566SOL     OW 8596   2.403   6.787   1.775
 2566SOL    HW1 8597   2.381   6.882   1.756
 2566SOL    HW2 8598   2.401   6.771   1.874
 2567SOL     OW 8599   1.227   0.468   0.683
 2567SOL    HW1 8600   1.184   0.380   0.703
 2567SOL    HW2 8601   1.162   0.528   0.636
 2568SOL     OW 8602   4.673   2.019   6.672
 2568SOL    HW1 8603   4.751   2.060   6.624
 2568SOL    HW2 8604   4.622   1.961   6.609
 2569SOL     OW 8605   3.239   0.619   2.833
 2569SOL    HW1 8606   3.253   0.547   2.764
 2569SOL    HW2 8607   3.145   0.615   2.866
 2570SOL     OW 8608   5.391   0.764   5.551
 2570SOL    HW1 8609   5.458   0.739   5.481
 2570SOL    HW2 8610   5.404   0.859   5.577
 2571SOL     OW 8611   1.888   4.813   3.880
 2571SOL    HW1 8612   1.882   4.821   3.780
 2571SOL    HW2 8613   1.853   4.897   3.922
 2572SOL     OW 8614   2.789   5.426   2.240
 2572SOL    HW1 8615   2.737   5.344   2.213
 2572SOL    HW2 8616   2.741   5.472   2.315
 2573SOL     OW 8617   0.652   1.831   0.963
 2573SOL    HW1 8618   0.665   1.813   1.060
 2573SOL    HW2 8619   0.557   1.859   0.947
 2574SOL     OW 8620   5.183   3.743   1.379
 2574SOL    HW1 8621   5.281   3.728   1.364
 2574SOL    HW2 8622   5.168   3.766   1.476
 2575SOL     OW 8623   5.733   5.703   6.549
 2575SOL    HW1 8624   5.773   5.654   6.627
 2575SOL    HW2 8625   5.635   5.716   6.565
 2576SOL     OW 8626   4.308   6.021   4.558
 2576SOL    HW1 8627   4.338   6.116   4.557
 2576SOL    HW2 8628   4.209   6.017   4.547
 2577SOL     OW 8629   3.291   5.136   1.785
 2577SOL    HW1 8630   3.237   5.195   1.845
 2577SOL    HW2 8631   3.230   5.083   1.726
 2578SOL     OW 8632   3.767   1.540   3.611
 2578SOL    HW1 8633   3.752   1.573   3.704
 2578SOL    HW2 8634   3.844   1.475   3.611
 2579SOL     OW 8635   1.514   6.426   4.168
 2579SOL    HW1 8636   1.458   6.343   4.173
 2579SOL    HW2 8637   1.599   6.405   4.119
 2580SOL     OW 8638   2.661   4.687   6.992
 2580SOL    HW1 8639   2.734   4.639   6.945
 2580SOL    HW2 8640   2.661   4.662   0.063
 2581SOL     OW 8641   2.172   5.605   0.975
 2581SOL    HW1 8642   2.136   5.619   0.882
 2581SOL    HW2 8643   2.102   5.633   1.041
 2582SOL     OW 8644   0.014   3.995   1.861
 2582SOL    HW1 8645   0.034   4.063   1.931
 2582SOL    HW2 8646   0.093   3.934   1.850
 2583SOL     OW 8647   0.622   1.105   6.668
 2583SOL    HW1 8648   0.626   1.143   6.576
 2583SOL    HW2 8649   0.527   1.091   6.694
 2584SOL     OW 8650   4.215   4.999   5.782
 2584SOL    HW1 8651   4.124   4.967   5.755
 2584SOL    HW2 8652   4.253   4.939   5.852
 2585SOL     OW 8653   2.747   4.163   0.165
 2585SOL    HW1 8654   2.806   4.240   0.140
 2585SOL    HW2 8655   2.654   4.196   0.177
 2586SOL     OW 8656   2.766   1.472   5.574
 2586SOL    HW1 8657   2.704   1.527   5.518
 2586SOL    HW2 8658   2.759   1.376   5.546
 2587SOL     OW 8659   6.397   1.305   3.353
 2587SOL    HW1 8660   6.422   1.208   3.353
 2587SOL    HW2 8661   6.399   1.340   3.260
 2588SOL     OW 8662   4.017   2.426   5.538
 2588SOL    HW1 8663   4.019   2.526   5.530
 2588SOL    HW2 8664   3.935   2.391   5.494
 2589SOL     OW 8665   1.127   0.046   6.566
 2589SOL    HW1 8666   1.039   0.063   6.521
 2589SOL    HW2 8667   1.115   7.000   6.635
 2590SOL     OW 8668   2.944   4.785   0.189
 2590SOL    HW1 8669   2.859   4.734   0.208
 2590SOL    HW2 8670   2.988   4.810   0.275
 2591SOL     OW 8671   6.891   5.413   3.322
 2591SOL    HW1 8672   6.988   5.391   3.332
 2591SOL    HW2 8673   6.855   5.368   3.240
 2592SOL     OW 8674   3.047   4.353   6.493
 2592SOL    HW1 8675   2.968   4.301   6.459
 2592SOL    HW2 8676   3.015   4.426   6.553
 2593SOL     OW 8677   3.109   5.613   0.501
 2593SOL    HW1 8678   3.122   5.617   0.600
 2593SOL    HW2 8679   3.012   5.597   0.481
 2594SOL     OW 8680   3.050   4.363   5.919
 2594SOL    HW1 8681   3.060   4.383   5.822
 2594SOL    HW2 8682   2.973   4.416   5.956
 2595SOL     OW 8683   0.020   1.863   4.043
 2595SOL    HW1 8684   7.023   1.949   3.996
 2595SOL    HW2 8685   0.102   1.824   4.001
 2596SOL     OW 8686   2.276   3.067   0.903
 2596SOL    HW1 8687   2.221   2.985   0.889
 2596SOL    HW2 8688   2.216   3.146   0.915
 2597SOL     OW 8689   6.998   5.209   6.513
 2597SOL    HW1 8690   0.010   5.211   6.606
 2597SOL    HW2 8691   7.006   5.116   6.476
 2598SOL     OW 8692   6.605   1.520   1.711
 2598SOL    HW1 8693   6.558   1.432   1.715
 2598SOL    HW2 8694   6.609   1.551   1.616
 2599SOL     OW 8695   1.443   6.011   0.776
 2599SOL    HW1 8696   1.479   6.058   0.695
 2599SOL    HW2 8697   1.394   5.928   0.749
 2600SOL     OW 8698   5.961   2.746   3.987
 2600SOL    HW1 8699   5.923   2.828   3.945
 2600SOL    HW2 8700   5.946   2.750   4.086
 2601SOL     OW 8701   1.342   2.011   1.492
 2601SOL    HW1 8702   1.343   2.003   1.592
 2601SOL    HW2 8703   1.283   1.940   1.454
 2602SOL     OW 8704   1.666   4.912   4.815
 2602SOL    HW1 8705   1.686   4.999   4.769
 2602SOL    HW2 8706   1.633   4.846   4.748
 2603SOL     OW 8707   2.237   0.778   2.621
 2603SOL    HW1 8708   2.313   0.832   2.585
 2603SOL    HW2 8709   2.272   0.693   2.660
 2604SOL     OW 8710   5.405   1.767   2.459
 2604SOL    HW1 8711   5.372   1.680   2.495
 2604SOL    HW2 8712   5.329   1.832   2.454
 2605SOL     OW 8713   1.580   3.537   2.618
 2605SOL    HW1 8714   1.590   3.599   2.696
 2605SOL    HW2 8715   1.512   3.575   2.555
 2606SOL     OW 8716   5.707   5.127   1.621
 2606SOL    HW1 8717   5.754   5.182   1.690
 2606SOL    HW2 8718   5.714   5.031   1.645
 2607SOL     OW 8719   1.570   1.845   1.171
 2607SOL    HW1 8720   1.593   1.795   1.087
 2607SOL    HW2 8721   1.631   1.924   1.180
 2608SOL     OW 8722   2.509   5.530   6.470
 2608SOL    HW1 8723   2.573   5.572   6.405
 2608SOL    HW2 8724   2.528   5.432   6.476
 2609SOL     OW 8725   0.002   1.325   1.465
 2609SOL    HW1 8726   6.989   1.233   1.475
 2609SOL    HW2 8727   0.101   1.318   1.454
 2610SOL     OW 8728   1.101   4.608   3.846
 2610SOL    HW1 8729   1.123   4.678   3.778
 2610SOL    HW2 8730   1.078   4.652   3.933
 2611SOL     OW 8731   4.381   6.236   0.098
 2611SOL    HW1 8732   4.295   6.260   0.143
 2611SOL    HW2 8733   4.418   6.152   0.139
 2612SOL     OW 8734   5.437   6.857   4.357
 2612SOL    HW1 8735   5.415   6.926   4.288
 2612SOL    HW2 8736   5.537   6.848   4.364
 2613SOL     OW 8737   1.955   4.963   6.216
 2613SOL    HW1 8738   2.014   4.922   6.286
 2613SOL    HW2 8739   2.006   4.973   6.131
 2614SOL     OW 8740   5.763   0.977   6.178
 2614SOL    HW1 8741   5.713   1.054   6.137
 2614SOL    HW2 8742   5.766   0.988   6.277
 2615SOL     OW 8743   1.052   2.993   1.797
 2615SOL    HW1 8744   1.024   2.923   1.731
 2615SOL    HW2 8745   1.029   2.962   1.889
 2616SOL     OW 8746   1.026   1.466   5.059
 2616SOL    HW1 8747   0.930   1.468   5.030
 2616SOL    HW2 8748   1.035   1.518   5.144
 2617SOL     OW 8749   4.915   0.777   0.716
 2617SOL    HW1 8750   4.947   0.683   0.731
 2617SOL    HW2 8751   4.904   0.823   0.804
 2618SOL     OW 8752   1.161   5.449   4.824
 2618SOL    HW1 8753   1.156   5.409   4.733
 2618SOL    HW2 8754   1.167   5.376   4.892
 2619SOL     OW 8755   4.397   1.745   1.848
 2619SOL    HW1 8756   4.475   1.689   1.821
 2619SOL    HW2 8757   4.331   1.689   1.899
 2620SOL     OW 8758   6.109   6.665   1.911
 2620SOL    HW1 8759   6.077   6.578   1.873
 2620SOL    HW2 8760   6.171   6.648   1.987
 2621SOL     OW 8761   0.729   5.329   2.846
 2621SOL    HW1 8762   0.807   5.280   2.885
 2621SOL    HW2 8763   0.762   5.412   2.800
 2622SOL     OW 8764   3.103   2.801   5.876
 2622SOL    HW1 8765   3.176   2.837   5.934
 2622SOL    HW2 8766   3.085   2.706   5.899
 2623SOL     OW 8767   0.439   0.015   3.659
 2623SOL    HW1 8768   0.342   7.014   3.651
 2623SOL    HW2 8769   0.490   6.966   3.701
 2624SOL     OW 8770   6.816   2.514   4.596
 2624SOL    HW1 8771   6.873   2.436   4.622
 2624SOL    HW2 8772   6.722   2.485   4.582
 2625SOL     OW 8773   2.152   5.207   5.670
 2625SOL    HW1 8774   2.096   5.204   5.587
 2625SOL    HW2 8775   2.234   5.152   5.656
 2626SOL     OW 8776   6.376   0.157   5.579
 2626SOL    HW1 8777   6.463   0.144   5.626
 2626SOL    HW2 8778   6.374   0.104   5.495
 2627SOL     OW 8779   0.796   0.657   6.444
 2627SOL    HW1 8780   0.743   0.593   6.499
 2627SOL    HW2 8781   0.884   0.616   6.421
 2628SOL     OW 8782   1.708   3.318   3.769
 2628SOL    HW1 8783   1.622   3.282   3.734
 2628SOL    HW2 8784   1.752   3.375   3.699
 2629SOL     OW 8785   3.313   3.602   2.924
 2629SOL    HW1 8786   3.283   3.508   2.912
 2629SOL    HW2 8787   3.255   3.663   2.869
 2630SOL     OW 8788   3.358   0.774   3.159
 2630SOL    HW1 8789   3.382   0.841   3.229
 2630SOL    HW2 8790   3.438   0.758   3.100
 2631SOL     OW 8791   5.423   0.555   6.384
 2631SOL    HW1 8792   5.477   0.573   6.466
 2631SOL    HW2 8793   5.331   0.591   6.396
 2632SOL     OW 8794   5.341   4.900   1.771
 2632SOL    HW1 8795   5.343   4.989   1.816
 2632SOL    HW2 8796   5.434   4.867   1.758
 2633SOL     OW 8797   6.664   2.913   5.509
 2633SOL    HW1 8798   6.675   2.900   5.411
 2633SOL    HW2 8799   6.719   2.845   5.558
 2634SOL     OW 8800   7.009   6.015   4.437
 2634SOL    HW1 8801   0.074   6.031   4.397
 2634SOL    HW2 8802   6.945   5.991   4.364
 2635SOL     OW 8803   5.359   5.457   3.951
 2635SOL    HW1 8804   5.414   5.528   3.909
 2635SOL    HW2 8805   5.300   5.496   4.021
 2636SOL     OW 8806   3.522   1.212   6.167
 2636SOL    HW1 8807   3.587   1.210   6.092
 2636SOL    HW2 8808   3.510   1.306   6.199
 2637SOL     OW 8809   0.081   1.873   3.348
 2637SOL    HW1 8810   7.019   1.888   3.394
 2637SOL    HW2 8811   0.066   1.823   3.263
 2638SOL     OW 8812   0.831   0.281   4.820
 2638SOL    HW1 8813   0.763   0.216   4.853
 2638SOL    HW2 8814   0.920   0.235   4.811
 2639SOL     OW 8815   5.227   4.968   4.974
 2639SOL    HW1 8816   5.176   5.023   4.909
 2639SOL    HW2 8817   5.181   4.970   5.063
 2640SOL     OW 8818   0.637   0.089   5.279
 2640SOL    HW1 8819   0.620   0.032   5.359
 2640SOL    HW2 8820   0.719   0.144   5.294
 2641SOL     OW 8821   5.377   2.835   0.450
 2641SOL    HW1 8822   5.295   2.778   0.452
 2641SOL    HW2 8823   5.350   2.931   0.449
 2642SOL     OW 8824   6.947   1.060   3.848
 2642SOL    HW1 8825   6.994   1.046   3.761
 2642SOL    HW2 8826   6.906   0.974   3.878
 2643SOL     OW 8827   0.722   3.254   3.909
 2643SOL    HW1 8828   0.687   3.208   3.990
 2643SOL    HW2 8829   0.781   3.192   3.857
 2644SOL     OW 8830   4.708   5.378   4.970
 2644SOL    HW1 8831   4.643   5.344   4.902
 2644SOL    HW2 8832   4.659   5.409   5.051
 2645SOL     OW 8833   4.939   5.203   3.561
 2645SOL    HW1 8834   5.016   5.159   3.515
 2645SOL    HW2 8835   4.882   5.134   3.604
 2646SOL     OW 8836   0.474   3.862   6.460
 2646SOL    HW1 8837   0.547   3.917   6.421
 2646SOL    HW2 8838   0.511   3.774   6.491
 2647SOL     OW 8839   5.013   6.948   1.910
 2647SOL    HW1 8840   5.096   7.002   1.899
 2647SOL    HW2 8841   5.002   6.923   2.006
 2648SOL     OW 8842   0.689   0.300   3.811
 2648SOL    HW1 8843   0.773   0.249   3.793
 2648SOL    HW2 8844   0.663   0.290   3.907
 2649SOL     OW 8845   5.214   3.081   1.934
 2649SOL    HW1 8846   5.133   3.023   1.929
 2649SOL    HW2 8847   5.288   3.040   1.880
 2650SOL     OW 8848   3.006   5.978   4.713
 2650SOL    HW1 8849   3.003   5.964   4.812
 2650SOL    HW2 8850   2.923   5.940   4.671
 2651SOL     OW 8851   3.567   1.772   6.270
 2651SOL    HW1 8852   3.504   1.780   6.348
 2651SOL    HW2 8853   3.569   1.858   6.220
 2652SOL     OW 8854   4.531   3.675   5.463
 2652SOL    HW1 8855   4.526   3.763   5.415
 2652SOL    HW2 8856   4.493   3.603   5.405
 2653SOL     OW 8857   3.393   5.822   5.890
 2653SOL    HW1 8858   3.323   5.822   5.961
 2653SOL    HW2 8859   3.359   5.869   5.809
 2654SOL     OW 8860   5.011   6.856   0.462
 2654SOL    HW1 8861   5.043   6.787   0.397
 2654SOL    HW2 8862   4.915   6.876   0.445
 2655SOL     OW 8863   4.839   6.041   3.633
 2655SOL    HW1 8864   4.836   5.941   3.647
 2655SOL    HW2 8865   4.837   6.086   3.722
 2656SOL     OW 8866   3.804   6.052   3.904
 2656SOL    HW1 8867   3.874   6.018   3.967
 2656SOL    HW2 8868   3.848   6.083   3.819
 2657SOL     OW 8869   1.866   3.971   0.594
 2657SOL    HW1 8870   1.927   4.043   0.628
 2657SOL    HW2 8871   1.772   4.003   0.599
 2658SOL     OW 8872   4.246   4.140   6.167
 2658SOL    HW1 8873   4.233   4.212   6.235
 2658SOL    HW2 8874   4.222   4.051   6.207
 2659SOL     OW 8875   5.512   2.368   5.147
 2659SOL    HW1 8876   5.605   2.333   5.148
 2659SOL    HW2 8877   5.449   2.300   5.186
 2660SOL     OW 8878   0.980   1.129   0.878
 2660SOL    HW1 8879   1.021   1.162   0.793
 2660SOL    HW2 8880   0.903   1.189   0.903
 2661SOL     OW 8881   1.500   0.721   1.746
 2661SOL    HW1 8882   1.540   0.806   1.713
 2661SOL    HW2 8883   1.427   0.691   1.684
 2662SOL     OW 8884   3.204   0.942   3.483
 2662SOL    HW1 8885   3.209   0.844   3.462
 2662SOL    HW2 8886   3.288   0.971   3.527
 2663SOL     OW 8887   3.186   6.765   5.787
 2663SOL    HW1 8888   3.267   6.819   5.813
 2663SOL    HW2 8889   3.117   6.826   5.746
 2664SOL     OW 8890   3.728   2.497   5.476
 2664SOL    HW1 8891   3.820   2.529   5.457
 2664SOL    HW2 8892   3.676   2.570   5.521
 2665SOL     OW 8893   2.266   3.475   5.268
 2665SOL    HW1 8894   2.319   3.390   5.269
 2665SOL    HW2 8895   2.321   3.549   5.307
 2666SOL     OW 8896   1.724   3.335   2.693
 2666SOL    HW1 8897   1.798   3.385   2.738
 2666SOL    HW2 8898   1.655   3.400   2.659
 2667SOL     OW 8899   6.371   4.250   3.913
 2667SOL    HW1 8900   6.460   4.215   3.885
 2667SOL    HW2 8901   6.303   4.176   3.906
 2668SOL     OW 8902   5.514   1.820   4.923
 2668SOL    HW1 8903   5.544   1.768   4.843
 2668SOL    HW2 8904   5.520   1.918   4.903
 2669SOL     OW 8905   2.249   6.244   0.061
 2669SOL    HW1 8906   2.333   6.191   0.055
 2669SOL    HW2 8907   2.260   6.329   0.010
 2670SOL     OW 8908   6.653   1.749   5.086
 2670SOL    HW1 8909   6.698   1.661   5.103
 2670SOL    HW2 8910   6.649   1.801   5.172
 2671SOL     OW 8911   4.091   5.645   6.423
 2671SOL    HW1 8912   4.142   5.661   6.507
 2671SOL    HW2 8913   4.155   5.626   6.348
 2672SOL     OW 8914   3.488   1.246   2.215
 2672SOL    HW1 8915   3.581   1.271   2.242
 2672SOL    HW2 8916   3.423   1.285   2.280
 2673SOL     OW 8917   4.798   6.846   2.867
 2673SOL    HW1 8918   4.743   6.918   2.909
 2673SOL    HW2 8919   4.750   6.758   2.876
 2674SOL     OW 8920   1.339   5.280   3.533
 2674SOL    HW1 8921   1.277   5.335   3.477
 2674SOL    HW2 8922   1.376   5.336   3.607
 2675SOL     OW 8923   6.709   6.203   4.002
 2675SOL    HW1 8924   6.785   6.204   3.937
 2675SOL    HW2 8925   6.622   6.204   3.952
 2676SOL     OW 8926   3.193   3.968   2.459
 2676SOL    HW1 8927   3.257   4.045   2.461
 2676SOL    HW2 8928   3.202   3.918   2.373
 2677SOL     OW 8929   2.412   4.398   0.942
 2677SOL    HW1 8930   2.471   4.451   0.881
 2677SOL    HW2 8931   2.379   4.457   1.016
 2678SOL     OW 8932   6.598   1.963   2.488
 2678SOL    HW1 8933   6.644   2.051   2.482
 2678SOL    HW2 8934   6.534   1.964   2.565
 2679SOL     OW 8935   1.475   5.626   2.547
 2679SOL    HW1 8936   1.443   5.570   2.471
 2679SOL    HW2 8937   1.575   5.622   2.552
 2680SOL     OW 8938   1.323   2.378   6.844
 2680SOL    HW1 8939   1.416   2.395   6.812
 2680SOL    HW2 8940   1.324   2.356   6.941
 2681SOL     OW 8941   1.107   2.968   5.335
 2681SOL    HW1 8942   1.155   3.014   5.409
 2681SOL    HW2 8943   1.092   2.872   5.359
 2682SOL     OW 8944   4.802   4.134   2.042
 2682SOL    HW1 8945   4.781   4.036   2.041
 2682SOL    HW2 8946   4.719   4.186   2.023
 2683SOL     OW 8947   2.389   4.529   3.076
 2683SOL    HW1 8948   2.342   4.447   3.044
 2683SOL    HW2 8949   2.349   4.610   3.031
 2684SOL     OW 8950   5.563   6.260   2.458
 2684SOL    HW1 8951   5.623   6.301   2.389
 2684SOL    HW2 8952   5.618   6.219   2.530
 2685SOL     OW 8953   6.988   5.289   4.862
 2685SOL    HW1 8954   6.992   5.229   4.942
 2685SOL    HW2 8955   0.033   5.261   4.796
 2686SOL     OW 8956   1.531   1.226   4.715
 2686SOL    HW1 8957   1.497   1.188   4.629
 2686SOL    HW2 8958   1.565   1.319   4.699
 2687SOL     OW 8959   4.080   1.339   1.800
 2687SOL    HW1 8960   4.075   1.433   1.767
 2687SOL    HW2 8961   4.111   1.339   1.895
 2688SOL     OW 8962   3.570   2.141   0.056
 2688SOL    HW1 8963   3.487   2.194   0.072
 2688SOL    HW2 8964   3.647   2.204   0.041
 2689SOL     OW 8965   0.544   3.916   2.769
 2689SOL    HW1 8966   0.466   3.958   2.723
 2689SOL    HW2 8967   0.567   3.970   2.850
 2690SOL     OW 8968   3.050   2.125   6.267
 2690SOL    HW1 8969   3.043   2.137   6.168
 2690SOL    HW2 8970   3.020   2.209   6.313
 2691SOL     OW 8971   0.493   4.331   4.321
 2691SOL    HW1 8972   0.507   4.246   4.270
 2691SOL    HW2 8973   0.499   4.312   4.419
 2692SOL     OW 8974   2.854   5.991   2.997
 2692SOL    HW1 8975   2.863   5.931   2.917
 2692SOL    HW2 8976   2.841   5.935   3.079
 2693SOL     OW 8977   1.892   5.458   3.646
 2693SOL    HW1 8978   1.949   5.523   3.595
 2693SOL    HW2 8979   1.805   5.445   3.599
 2694SOL     OW 8980   4.025   6.351   3.121
 2694SOL    HW1 8981   3.964   6.353   3.200
 2694SOL    HW2 8982   3.994   6.419   3.054
 2695SOL     OW 8983   6.631   6.835   2.626
 2695SOL    HW1 8984   6.547   6.852   2.678
 2695SOL    HW2 8985   6.607   6.808   2.533
 2696SOL     OW 8986   4.613   3.995   6.584
 2696SOL    HW1 8987   4.640   4.084   6.621
 2696SOL    HW2 8988   4.531   3.964   6.631
 2697SOL     OW 8989   4.469   1.324   1.040
 2697SOL    HW1 8990   4.396   1.256   1.034
 2697SOL    HW2 8991   4.557   1.279   1.051
 2698SOL     OW 8992   1.141   4.830   6.108
 2698SOL    HW1 8993   1.114   4.752   6.164
 2698SOL    HW2 8994   1.150   4.801   6.013
 2699SOL     OW 8995   2.906   5.961   2.216
 2699SOL    HW1 8996   2.992   5.925   2.181
 2699SOL    HW2 8997   2.900   6.059   2.193
 2700SOL     OW 8998   2.712   1.940   1.275
 2700SOL    HW1 8999   2.781   1.924   1.204
 2700SOL    HW2 9000   2.643   1.867   1.271
 2701SOL     OW 9001   5.253   2.654   4.521
 2701SOL    HW1 9002   5.291   2.702   4.442
 2701SOL    HW2 9003   5.226   2.561   4.494
 2702SOL     OW 9004   2.304   1.734   4.039
 2702SOL    HW1 9005   2.360   1.778   3.969
 2702SOL    HW2 9006   2.246   1.802   4.083
 2703SOL     OW 9007   1.737   5.727   1.301
 2703SOL    HW1 9008   1.812   5.791   1.314
 2703SOL    HW2 9009   1.668   5.741   1.372
 2704SOL     OW 9010   6.730   5.483   3.558
 2704SOL    HW1 9011   6.773   5.435   3.482
 2704SOL    HW2 9012   6.690   5.569   3.527
 2705SOL     OW 9013   0.399   1.146   5.428
 2705SOL    HW1 9014   0.480   1.174   5.479
 2705SOL    HW2 9015   0.345   1.227   5.404
 2706SOL     OW 9016   6.349   4.525   4.334
 2706SOL    HW1 9017   6.397   4.566   4.411
 2706SOL    HW2 9018   6.410   4.522   4.255
 2707SOL     OW 9019   3.814   6.769   2.807
 2707SOL    HW1 9020   3.831   6.858   2.849
 2707SOL    HW2 9021   3.805   6.779   2.708
 2708SOL     OW 9022   5.789   3.055   0.636
 2708SOL    HW1 9023   5.842   3.135   0.607
 2708SOL    HW2 9024   5.800   3.042   0.734
 2709SOL     OW 9025   5.048   0.172   6.247
 2709SOL    HW1 9026   5.085   0.128   6.328
 2709SOL    HW2 9027   4.976   0.114   6.207
 2710SOL     OW 9028   1.415   3.431   4.267
 2710SOL    HW1 9029   1.367   3.397   4.186
 2710SOL    HW2 9030   1.467   3.356   4.308
 2711SOL     OW 9031   3.690   1.827   3.565
 2711SOL    HW1 9032   3.742   1.892   3.509
 2711SOL    HW2 9033   3.705   1.735   3.531
 2712SOL     OW 9034   3.567   5.417   2.430
 2712SOL    HW1 9035   3.516   5.467   2.501
 2712SOL    HW2 9036   3.507   5.347   2.390
 2713SOL     OW 9037   4.995   4.649   6.289
 2713SOL    HW1 9038   5.082   4.639   6.337
 2713SOL    HW2 9039   4.920   4.638   6.354
 2714SOL     OW 9040   3.434   3.584   6.736
 2714SOL    HW1 9041   3.404   3.489   6.733
 2714SOL    HW2 9042   3.391   3.635   6.661
 2715SOL     OW 9043   5.559   1.526   1.337
 2715SOL    HW1 9044   5.642   1.540   1.283
 2715SOL    HW2 9045   5.483   1.573   1.293
 2716SOL     OW 9046   4.017   2.172   2.812
 2716SOL    HW1 9047   3.918   2.187   2.820
 2716SOL    HW2 9048   4.036   2.074   2.810
 2717SOL     OW 9049   0.800   0.608   1.946
 2717SOL    HW1 9050   0.786   0.671   2.021
 2717SOL    HW2 9051   0.862   0.535   1.974
 2718SOL     OW 9052   0.662   0.996   6.045
 2718SOL    HW1 9053   0.752   0.967   6.012
 2718SOL    HW2 9054   0.669   1.026   6.140
 2719SOL     OW 9055   1.705   4.583   2.619
 2719SOL    HW1 9056   1.801   4.577   2.646
 2719SOL    HW2 9057   1.689   4.524   2.540
 2720SOL     OW 9058   1.376   0.240   5.112
 2720SOL    HW1 9059   1.313   0.309   5.076
 2720SOL    HW2 9060   1.325   0.165   5.154
 2721SOL     OW 9061   2.797   6.138   1.544
 2721SOL    HW1 9062   2.861   6.209   1.573
 2721SOL    HW2 9063   2.784   6.072   1.618
 2722SOL     OW 9064   4.637   5.841   6.691
 2722SOL    HW1 9065   4.666   5.816   6.599
 2722SOL    HW2 9066   4.584   5.765   6.731
 2723SOL     OW 9067   3.422   6.650   6.989
 2723SOL    HW1 9068   3.441   6.654   6.891
 2723SOL    HW2 9069   3.498   6.689   0.014
 2724SOL     OW 9070   1.304   6.098   6.795
 2724SOL    HW1 9071   1.397   6.062   6.800
 2724SOL    HW2 9072   1.306   6.197   6.800
 2725SOL     OW 9073   5.367   3.588   4.099
 2725SOL    HW1 9074   5.330   3.631   4.016
 2725SOL    HW2 9075   5.411   3.657   4.156
 2726SOL     OW 9076   0.773   1.794   1.630
 2726SOL    HW1 9077   0.800   1.872   1.573
 2726SOL    HW2 9078   0.673   1.789   1.633
 2727SOL     OW 9079   2.032   4.071   4.058
 2727SOL    HW1 9080   2.079   4.144   4.109
 2727SOL    HW2 9081   1.936   4.096   4.047
 2728SOL     OW 9082   5.424   5.663   6.404
 2728SOL    HW1 9083   5.429   5.665   6.305
 2728SOL    HW2 9084   5.436   5.569   6.437
 2729SOL     OW 9085   5.320   6.542   6.810
 2729SOL    HW1 9086   5.234   6.550   6.760
 2729SOL    HW2 9087   5.382   6.615   6.781
 2730SOL     OW 9088   0.433   5.332   1.763
 2730SOL    HW1 9089   0.380   5.275   1.701
 2730SOL    HW2 9090   0.373   5.370   1.833
 2731SOL     OW 9091   3.096   3.213   3.712
 2731SOL    HW1 9092   3.064   3.177   3.799
 2731SOL    HW2 9093   3.174   3.273   3.726
 2732SOL     OW 9094   4.694   1.172   1.000
 2732SOL    HW1 9095   4.759   1.247   0.992
 2732SOL    HW2 9096   4.735   1.098   1.055
 2733SOL     OW 9097   6.809   0.995   5.798
 2733SOL    HW1 9098   6.765   1.083   5.784
 2733SOL    HW2 9099   6.768   0.949   5.877
 2734SOL     OW 9100   3.542   5.954   1.549
 2734SOL    HW1 9101   3.534   5.866   1.596
 2734SOL    HW2 9102   3.552   6.027   1.616
 2735SOL     OW 9103   1.150   2.269   0.805
 2735SOL    HW1 9104   1.115   2.177   0.816
 2735SOL    HW2 9105   1.087   2.334   0.848
 2736SOL     OW 9106   5.525   6.125   3.887
 2736SOL    HW1 9107   5.470   6.043   3.904
 2736SOL    HW2 9108   5.590   6.107   3.813
 2737SOL     OW 9109   2.833   1.904   6.378
 2737SOL    HW1 9110   2.898   1.964   6.332
 2737SOL    HW2 9111   2.881   1.853   6.450
 2738SOL     OW 9112   5.721   0.693   1.666
 2738SOL    HW1 9113   5.666   0.775   1.650
 2738SOL    HW2 9114   5.808   0.719   1.707
 2739SOL     OW 9115   1.256   5.543   1.268
 2739SOL    HW1 9116   1.200   5.497   1.337
 2739SOL    HW2 9117   1.198   5.584   1.199
 2740SOL     OW 9118   0.278   5.369   2.705
 2740SOL    HW1 9119   0.231   5.348   2.619
 2740SOL    HW2 9120   0.366   5.320   2.708
 2741SOL     OW 9121   1.213   2.527   4.080
 2741SOL    HW1 9122   1.158   2.496   4.157
 2741SOL    HW2 9123   1.178   2.485   3.996
 2742SOL     OW 9124   3.438   4.559   1.604
 2742SOL    HW1 9125   3.498   4.480   1.592
 2742SOL    HW2 9126   3.469   4.613   1.682
 2743SOL     OW 9127   6.930   4.532   2.131
 2743SOL    HW1 9128   6.916   4.626   2.099
 2743SOL    HW2 9129   7.001   4.488   2.076
 2744SOL     OW 9130   3.326   3.379   2.496
 2744SOL    HW1 9131   3.336   3.444   2.421
 2744SOL    HW2 9132   3.297   3.427   2.578
 2745SOL     OW 9133   6.503   1.775   5.900
 2745SOL    HW1 9134   6.519   1.719   5.818
 2745SOL    HW2 9135   6.459   1.720   5.970
 2746SOL     OW 9136   0.637   1.149   4.181
 2746SOL    HW1 9137   0.707   1.163   4.251
 2746SOL    HW2 9138   0.598   1.057   4.191
 2747SOL     OW 9139   3.776   5.725   6.923
 2747SOL    HW1 9140   3.710   5.799   6.921
 2747SOL    HW2 9141   3.769   5.676   7.010
 2748SOL     OW 9142   4.260   0.357   1.157
 2748SOL    HW1 9143   4.192   0.326   1.223
 2748SOL    HW2 9144   4.213   0.402   1.080
 2749SOL     OW 9145   1.107   3.478   0.274
 2749SOL    HW1 9146   1.196   3.437   0.255
 2749SOL    HW2 9147   1.105   3.572   0.238
 2750SOL     OW 9148   2.542   5.310   2.172
 2750SOL    HW1 9149   2.551   5.288   2.269
 2750SOL    HW2 9150   2.545   5.226   2.118
 2751SOL     OW 9151   2.033   1.996   1.345
 2751SOL    HW1 9152   2.113   2.002   1.406
 2751SOL    HW2 9153   1.956   2.044   1.385
 2752SOL     OW 9154   4.145   4.397   5.962
 2752SOL    HW1 9155   4.185   4.366   5.875
 2752SOL    HW2 9156   4.092   4.480   5.947
 2753SOL     OW 9157   6.093   6.462   4.986
 2753SOL    HW1 9158   6.051   6.479   5.074
 2753SOL    HW2 9159   6.035   6.500   4.913
 2754SOL     OW 9160   0.171   6.404   6.799
 2754SOL    HW1 9161   0.142   6.454   6.880
 2754SOL    HW2 9162   0.259   6.359   6.817
 2755SOL     OW 9163   2.891   6.725   2.683
 2755SOL    HW1 9164   2.892   6.685   2.592
 2755SOL    HW2 9165   2.928   6.818   2.679
 2756SOL     OW 9166   4.703   6.150   0.649
 2756SOL    HW1 9167   4.745   6.241   0.647
 2756SOL    HW2 9168   4.624   6.151   0.710
 2757SOL     OW 9169   1.645   5.157   0.437
 2757SOL    HW1 9170   1.648   5.076   0.495
 2757SOL    HW2 9171   1.609   5.235   0.489
 2758SOL     OW 9172   5.450   0.248   4.982
 2758SOL    HW1 9173   5.463   0.346   4.995
 2758SOL    HW2 9174   5.466   0.200   5.068
 2759SOL     OW 9175   5.091   6.533   4.512
 2759SOL    HW1 9176   5.125   6.451   4.559
 2759SOL    HW2 9177   5.102   6.612   4.572
 2760SOL     OW 9178   1.746   5.293   2.443
 2760SOL    HW1 9179   1.705   5.250   2.524
 2760SOL    HW2 9180   1.674   5.335   2.387
 2761SOL     OW 9181   1.603   5.159   3.766
 2761SOL    HW1 9182   1.604   5.246   3.816
 2761SOL    HW2 9183   1.605   5.083   3.830
 2762SOL     OW 9184   0.822   0.477   5.517
 2762SOL    HW1 9185   0.891   0.448   5.583
 2762SOL    HW2 9186   0.736   0.496   5.565
 2763SOL     OW 9187   5.604   2.308   3.835
 2763SOL    HW1 9188   5.572   2.367   3.762
 2763SOL    HW2 9189   5.697   2.277   3.815
 2764SOL     OW 9190   5.436   0.126   1.487
 2764SOL    HW1 9191   5.362   0.165   1.432
 2764SOL    HW2 9192   5.499   0.077   1.428
 2765SOL     OW 9193   5.254   0.799   1.375
 2765SOL    HW1 9194   5.232   0.880   1.429
 2765SOL    HW2 9195   5.205   0.720   1.411
 2766SOL     OW 9196   5.852   1.582   0.551
 2766SOL    HW1 9197   5.768   1.534   0.527
 2766SOL    HW2 9198   5.901   1.532   0.622
 2767SOL     OW 9199   6.650   4.920   6.950
 2767SOL    HW1 9200   6.557   4.910   6.985
 2767SOL    HW2 9201   6.691   4.829   6.937
 2768SOL     OW 9202   6.092   1.316   0.223
 2768SOL    HW1 9203   6.180   1.288   0.261
 2768SOL    HW2 9204   6.074   1.412   0.247
 2769SOL     OW 9205   6.299   4.130   3.459
 2769SOL    HW1 9206   6.247   4.129   3.544
 2769SOL    HW2 9207   6.328   4.037   3.436
 2770SOL     OW 9208   1.294   5.509   0.261
 2770SOL    HW1 9209   1.245   5.441   0.316
 2770SOL    HW2 9210   1.360   5.557   0.319
 2771SOL     OW 9211   4.997   1.340   1.128
 2771SOL    HW1 9212   5.061   1.354   1.052
 2771SOL    HW2 9213   5.011   1.250   1.167
 2772SOL     OW 9214   4.696   2.421   0.255
 2772SOL    HW1 9215   4.696   2.514   0.292
 2772SOL    HW2 9216   4.610   2.404   0.207
 2773SOL     OW 9217   3.967   3.075   6.005
 2773SOL    HW1 9218   3.889   3.015   5.987
 2773SOL    HW2 9219   3.951   3.164   5.963
 2774SOL     OW 9220   6.254   2.604   2.676
 2774SOL    HW1 9221   6.287   2.515   2.707
 2774SOL    HW2 9222   6.157   2.613   2.698
 2775SOL     OW 9223   6.705   5.864   0.777
 2775SOL    HW1 9224   6.693   5.867   0.876
 2775SOL    HW2 9225   6.617   5.877   0.732
 2776SOL     OW 9226   4.057   5.529   5.415
 2776SOL    HW1 9227   4.157   5.532   5.419
 2776SOL    HW2 9228   4.025   5.445   5.458
 2777SOL     OW 9229   3.361   1.087   2.724
 2777SOL    HW1 9230   3.401   1.084   2.816
 2777SOL    HW2 9231   3.283   1.149   2.724
 2778SOL     OW 9232   1.625   1.287   5.577
 2778SOL    HW1 9233   1.581   1.335   5.502
 2778SOL    HW2 9234   1.618   1.188   5.562
 2779SOL     OW 9235   4.476   0.148   0.570
 2779SOL    HW1 9236   4.543   0.153   0.496
 2779SOL    HW2 9237   4.493   0.065   0.624
 2780SOL     OW 9238   6.009   5.400   6.086
 2780SOL    HW1 9239   6.073   5.397   6.163
 2780SOL    HW2 9240   6.059   5.395   6.000
 2781SOL     OW 9241   6.418   5.549   1.737
 2781SOL    HW1 9242   6.487   5.597   1.791
 2781SOL    HW2 9243   6.461   5.472   1.690
 2782SOL     OW 9244   3.215   2.795   6.652
 2782SOL    HW1 9245   3.242   2.872   6.709
 2782SOL    HW2 9246   3.297   2.749   6.618
 2783SOL     OW 9247   5.854   3.367   4.706
 2783SOL    HW1 9248   5.763   3.328   4.690
 2783SOL    HW2 9249   5.903   3.373   4.619
 2784SOL     OW 9250   2.349   2.173   1.097
 2784SOL    HW1 9251   2.330   2.079   1.069
 2784SOL    HW2 9252   2.265   2.227   1.091
 2785SOL     OW 9253   6.290   1.141   0.024
 2785SOL    HW1 9254   6.251   1.051   0.040
 2785SOL    HW2 9255   6.356   1.136   6.974
 2786SOL     OW 9256   3.476   0.256   1.323
 2786SOL    HW1 9257   3.496   0.192   1.249
 2786SOL    HW2 9258   3.412   0.213   1.387
 2787SOL     OW 9259   2.598   3.824   6.780
 2787SOL    HW1 9260   2.638   3.776   6.859
 2787SOL    HW2 9261   2.535   3.763   6.733
 2788SOL     OW 9262   2.323   4.470   0.358
 2788SOL    HW1 9263   2.227   4.466   0.330
 2788SOL    HW2 9264   2.330   4.462   0.457
 2789SOL     OW 9265   1.266   1.918   4.155
 2789SOL    HW1 9266   1.304   2.011   4.150
 2789SOL    HW2 9267   1.247   1.895   4.251
 2790SOL     OW 9268   3.400   5.518   2.626
 2790SOL    HW1 9269   3.356   5.431   2.649
 2790SOL    HW2 9270   3.443   5.556   2.707
 2791SOL     OW 9271   2.075   4.487   5.012
 2791SOL    HW1 9272   2.145   4.424   5.046
 2791SOL    HW2 9273   2.110   4.537   4.932
 2792SOL     OW 9274   1.614   0.092   5.078
 2792SOL    HW1 9275   1.552   0.051   5.145
 2792SOL    HW2 9276   1.589   0.187   5.062
 2793SOL     OW 9277   4.981   1.611   2.220
 2793SOL    HW1 9278   5.018   1.655   2.302
 2793SOL    HW2 9279   5.002   1.513   2.223
 2794SOL     OW 9280   0.037   2.650   0.288
 2794SOL    HW1 9281   7.017   2.703   0.217
 2794SOL    HW2 9282   0.106   2.591   0.245
 2795SOL     OW 9283   3.113   4.093   1.216
 2795SOL    HW1 9284   3.040   4.055   1.273
 2795SOL    HW2 9285   3.083   4.181   1.179
 2796SOL     OW 9286   6.639   4.177   2.483
 2796SOL    HW1 9287   6.669   4.091   2.524
 2796SOL    HW2 9288   6.717   4.238   2.471
 2797SOL     OW 9289   5.271   5.609   4.712
 2797SOL    HW1 9290   5.246   5.638   4.619
 2797SOL    HW2 9291   5.315   5.520   4.708
 2798SOL     OW 9292   0.896   4.088   2.744
 2798SOL    HW1 9293   0.820   4.151   2.734
 2798SOL    HW2 9294   0.926   4.087   2.839
 2799SOL     OW 9295   0.249   5.739   6.605
 2799SOL    HW1 9296   0.324   5.769   6.545
 2799SOL    HW2 9297   0.176   5.700   6.550
 2800SOL     OW 9298   4.713   4.213   6.715
 2800SOL    HW1 9299   4.790   4.276   6.708
 2800SOL    HW2 9300   4.721   4.161   6.800
 2801SOL     OW 9301   4.287   6.116   3.375
 2801SOL    HW1 9302   4.192   6.141   3.392
 2801SOL    HW2 9303   4.319   6.159   3.291
 2802SOL     OW 9304   4.298   2.902   6.160
 2802SOL    HW1 9305   4.274   2.923   6.065
 2802SOL    HW2 9306   4.216   2.871   6.209
 2803SOL     OW 9307   2.192   6.118   5.673
 2803SOL    HW1 9308   2.096   6.143   5.684
 2803SOL    HW2 9309   2.243   6.145   5.755
 2804SOL     OW 9310   6.805   4.695   3.484
 2804SOL    HW1 9311   6.758   4.680   3.571
 2804SOL    HW2 9312   6.738   4.701   3.410
 2805SOL     OW 9313   4.567   3.722   1.407
 2805SOL    HW1 9314   4.535   3.740   1.500
 2805SOL    HW2 9315   4.667   3.726   1.405
 2806SOL     OW 9316   6.104   5.195   3.259
 2806SOL    HW1 9317   6.133   5.141   3.180
 2806SOL    HW2 9318   6.153   5.282   3.260
 2807SOL     OW 9319   5.781   4.751   3.746
 2807SOL    HW1 9320   5.688   4.789   3.745
 2807SOL    HW2 9321   5.811   4.734   3.652
 2808SOL     OW 9322   4.326   1.281   2.958
 2808SOL    HW1 9323   4.293   1.301   2.866
 2808SOL    HW2 9324   4.412   1.330   2.975
 2809SOL     OW 9325   6.816   2.458   1.680
 2809SOL    HW1 9326   6.854   2.410   1.601
 2809SOL    HW2 9327   6.717   2.448   1.681
 2810SOL     OW 9328   3.604   6.633   4.774
 2810SOL    HW1 9329   3.701   6.622   4.797
 2810SOL    HW2 9330   3.596   6.692   4.693
 2811SOL     OW 9331   0.811   0.730   2.500
 2811SOL    HW1 9332   0.713   0.715   2.497
 2811SOL    HW2 9333   0.835   0.808   2.443
 2812SOL     OW 9334   4.928   3.457   2.059
 2812SOL    HW1 9335   5.022   3.484   2.076
 2812SOL    HW2 9336   4.911   3.366   2.098
 2813SOL     OW 9337   5.870   0.049   5.864
 2813SOL    HW1 9338   5.915   0.041   5.775
 2813SOL    HW2 9339   5.835   0.141   5.876
 2814SOL     OW 9340   4.359   3.116   6.772
 2814SOL    HW1 9341   4.419   3.089   6.847
 2814SOL    HW2 9342   4.381   3.209   6.744
 2815SOL     OW 9343   6.855   1.201   4.394
 2815SOL    HW1 9344   6.784   1.175   4.459
 2815SOL    HW2 9345   6.906   1.279   4.431
 2816SOL     OW 9346   6.275   6.573   3.866
 2816SOL    HW1 9347   6.344   6.613   3.806
 2816SOL    HW2 9348   6.240   6.488   3.826
 2817SOL     OW 9349   1.655   0.201   1.474
 2817SOL    HW1 9350   1.703   0.287   1.454
 2817SOL    HW2 9351   1.719   0.134   1.509
 2818SOL     OW 9352   6.813   5.217   6.820
 2818SOL    HW1 9353   6.783   5.202   6.725
 2818SOL    HW2 9354   6.770   5.149   6.879
 2819SOL     OW 9355   0.123   2.109   0.798
 2819SOL    HW1 9356   0.170   2.078   0.715
 2819SOL    HW2 9357   0.049   2.170   0.773
 2820SOL     OW 9358   0.497   2.598   2.484
 2820SOL    HW1 9359   0.438   2.665   2.438
 2820SOL    HW2 9360   0.542   2.541   2.415
 2821SOL     OW 9361   2.911   4.581   6.599
 2821SOL    HW1 9362   2.898   4.597   6.697
 2821SOL    HW2 9363   2.942   4.666   6.555
 2822SOL     OW 9364   3.879   2.727   0.564
 2822SOL    HW1 9365   3.853   2.726   0.468
 2822SOL    HW2 9366   3.978   2.739   0.572
 2823SOL     OW 9367   2.096   6.778   1.412
 2823SOL    HW1 9368   2.097   6.862   1.466
 2823SOL    HW2 9369   2.178   6.725   1.431
 2824SOL     OW 9370   2.375   1.121   4.925
 2824SOL    HW1 9371   2.367   1.148   4.829
 2824SOL    HW2 9372   2.284   1.100   4.961
 2825SOL     OW 9373   6.510   7.024   0.485
 2825SOL    HW1 9374   6.546   6.962   0.416
 2825SOL    HW2 9375   6.499   0.090   0.445
 2826SOL     OW 9376   5.527   2.065   6.169
 2826SOL    HW1 9377   5.456   2.093   6.105
 2826SOL    HW2 9378   5.501   1.978   6.212
 2827SOL     OW 9379   6.831   0.945   5.249
 2827SOL    HW1 9380   6.876   0.967   5.163
 2827SOL    HW2 9381   6.863   1.007   5.321
 2828SOL     OW 9382   3.236   1.145   6.147
 2828SOL    HW1 9383   3.328   1.111   6.164
 2828SOL    HW2 9384   3.201   1.107   6.061
 2829SOL     OW 9385   4.162   4.321   6.370
 2829SOL    HW1 9386   4.111   4.405   6.355
 2829SOL    HW2 9387   4.259   4.341   6.375
 2830SOL     OW 9388   6.815   4.671   6.745
 2830SOL    HW1 9389   6.899   4.681   6.796
 2830SOL    HW2 9390   6.823   4.593   6.682
 2831SOL     OW 9391   6.933   6.388   4.558
 2831SOL    HW1 9392   6.931   6.404   4.459
 2831SOL    HW2 9393   6.910   6.293   4.577
 2832SOL     OW 9394   0.689   1.506   1.565
 2832SOL    HW1 9395   0.596   1.501   1.528
 2832SOL    HW2 9396   0.732   1.592   1.539
 2833SOL     OW 9397   5.399   1.518   2.103
 2833SOL    HW1 9398   5.306   1.542   2.073
 2833SOL    HW2 9399   5.445   1.467   2.031
 2834SOL     OW 9400   2.678   0.871   6.617
 2834SOL    HW1 9401   2.751   0.843   6.555
 2834SOL    HW2 9402   2.609   0.923   6.567
 2835SOL     OW 9403   0.353   6.728   1.860
 2835SOL    HW1 9404   0.418   6.802   1.878
 2835SOL    HW2 9405   0.261   6.765   1.852
 2836SOL     OW 9406   6.815   0.247   1.601
 2836SOL    HW1 9407   6.901   0.257   1.651
 2836SOL    HW2 9408   6.807   0.154   1.565
 2837SOL     OW 9409   5.667   3.379   3.181
 2837SOL    HW1 9410   5.638   3.473   3.199
 2837SOL    HW2 9411   5.766   3.372   3.188
 2838SOL     OW 9412   2.218   4.230   1.520
 2838SOL    HW1 9413   2.248   4.167   1.592
 2838SOL    HW2 9414   2.277   4.218   1.440
 2839SOL     OW 9415   6.073   1.318   1.987
 2839SOL    HW1 9416   6.101   1.412   2.001
 2839SOL    HW2 9417   6.014   1.289   2.063
 2840SOL     OW 9418   0.063   1.029   4.515
 2840SOL    HW1 9419   0.120   1.038   4.597
 2840SOL    HW2 9420   0.073   1.111   4.459
 2841SOL     OW 9421   0.101   0.265   6.392
 2841SOL    HW1 9422   0.057   0.214   6.318
 2841SOL    HW2 9423   0.177   0.318   6.354
 2842SOL     OW 9424   0.104   2.418   3.928
 2842SOL    HW1 9425   0.167   2.456   3.996
 2842SOL    HW2 9426   0.144   2.429   3.836
 2843SOL     OW 9427   3.370   1.698   4.206
 2843SOL    HW1 9428   3.322   1.753   4.275
 2843SOL    HW2 9429   3.326   1.608   4.198
 2844SOL     OW 9430   1.074   3.741   0.179
 2844SOL    HW1 9431   0.994   3.782   0.134
 2844SOL    HW2 9432   1.098   3.795   0.260
 2845SOL     OW 9433   0.926   3.434   0.743
 2845SOL    HW1 9434   0.927   3.501   0.817
 2845SOL    HW2 9435   0.979   3.354   0.771
 2846SOL     OW 9436   4.459   1.592   0.071
 2846SOL    HW1 9437   4.539   1.595   0.131
 2846SOL    HW2 9438   4.481   1.637   7.010
 2847SOL     OW 9439   5.393   3.394   3.367
 2847SOL    HW1 9440   5.326   3.345   3.423
 2847SOL    HW2 9441   5.403   3.348   3.279
 2848SOL     OW 9442   0.546   4.423   6.258
 2848SOL    HW1 9443   0.455   4.440   6.297
 2848SOL    HW2 9444   0.605   4.384   6.329
 2849SOL     OW 9445   3.574   0.507   1.148
 2849SOL    HW1 9446   3.522   0.444   1.205
 2849SOL    HW2 9447   3.510   0.564   1.096
 2850SOL     OW 9448   3.342   0.914   1.921
 2850SOL    HW1 9449   3.282   0.889   1.997
 2850SOL    HW2 9450   3.321   0.856   1.842
 2851SOL     OW 9451   0.955   4.337   5.419
 2851SOL    HW1 9452   0.876   4.304   5.469
 2851SOL    HW2 9453   0.926   4.407   5.353
 2852SOL     OW 9454   5.648   4.181   6.867
 2852SOL    HW1 9455   5.680   4.172   6.961
 2852SOL    HW2 9456   5.702   4.122   6.807
 2853SOL     OW 9457   2.841   2.305   6.822
 2853SOL    HW1 9458   2.926   2.260   6.850
 2853SOL    HW2 9459   2.842   2.319   6.723
 2854SOL     OW 9460   3.066   1.331   4.030
 2854SOL    HW1 9461   3.111   1.298   3.948
 2854SOL    HW2 9462   3.042   1.253   4.088
 2855SOL     OW 9463   1.745   0.692   5.878
 2855SOL    HW1 9464   1.670   0.759   5.881
 2855SOL    HW2 9465   1.755   0.658   5.785
 2856SOL     OW 9466   2.233   2.827   5.874
 2856SOL    HW1 9467   2.206   2.855   5.782
 2856SOL    HW2 9468   2.330   2.846   5.888
 2857SOL     OW 9469   2.947   1.540   1.645
 2857SOL    HW1 9470   2.851   1.520   1.666
 2857SOL    HW2 9471   2.958   1.638   1.629
 2858SOL     OW 9472   5.998   3.330   2.034
 2858SOL    HW1 9473   6.049   3.399   2.086
 2858SOL    HW2 9474   6.054   3.299   1.956
 2859SOL     OW 9475   5.369   1.876   0.187
 2859SOL    HW1 9476   5.397   1.891   0.282
 2859SOL    HW2 9477   5.290   1.933   0.166
 2860SOL     OW 9478   4.304   1.767   1.214
 2860SOL    HW1 9479   4.341   1.841   1.270
 2860SOL    HW2 9480   4.343   1.772   1.122
 2861SOL     OW 9481   4.754   5.412   5.836
 2861SOL    HW1 9482   4.721   5.319   5.850
 2861SOL    HW2 9483   4.798   5.419   5.747
 2862SOL     OW 9484   5.876   1.609   3.299
 2862SOL    HW1 9485   5.966   1.569   3.290
 2862SOL    HW2 9486   5.806   1.537   3.298
 2863SOL     OW 9487   5.913   1.270   0.018
 2863SOL    HW1 9488   5.965   1.280   0.103
 2863SOL    HW2 9489   5.815   1.282   0.038
 2864SOL     OW 9490   3.976   6.898   0.821
 2864SOL    HW1 9491   4.041   6.929   0.753
 2864SOL    HW2 9492   4.013   6.914   0.913
 2865SOL     OW 9493   5.064   4.386   5.112
 2865SOL    HW1 9494   5.128   4.458   5.086
 2865SOL    HW2 9495   5.033   4.337   5.031
 2866SOL     OW 9496   6.548   6.884   0.241
 2866SOL    HW1 9497   6.474   6.818   0.227
 2866SOL    HW2 9498   6.607   6.885   0.159
 2867SOL     OW 9499   5.775   4.222   2.344
 2867SOL    HW1 9500   5.827   4.139   2.365
 2867SOL    HW2 9501   5.779   4.239   2.245
 2868SOL     OW 9502   0.672   3.571   5.532
 2868SOL    HW1 9503   0.725   3.486   5.528
 2868SOL    HW2 9504   0.576   3.550   5.546
 2869SOL     OW 9505   6.125   0.968   3.210
 2869SOL    HW1 9506   6.106   1.063   3.236
 2869SOL    HW2 9507   6.043   0.928   3.168
 2870SOL     OW 9508   6.878   1.463   4.505
 2870SOL    HW1 9509   6.818   1.463   4.424
 2870SOL    HW2 9510   6.836   1.518   4.577
 2871SOL     OW 9511   2.005   1.855   6.556
 2871SOL    HW1 9512   2.091   1.845   6.506
 2871SOL    HW2 9513   1.934   1.801   6.511
 2872SOL     OW 9514   3.011   1.531   3.863
 2872SOL    HW1 9515   3.060   1.612   3.894
 2872SOL    HW2 9516   3.025   1.456   3.929
 2873SOL     OW 9517   0.648   5.210   3.316
 2873SOL    HW1 9518   0.656   5.278   3.242
 2873SOL    HW2 9519   0.737   5.167   3.331
 2874SOL     OW 9520   5.191   5.274   2.141
 2874SOL    HW1 9521   5.244   5.197   2.105
 2874SOL    HW2 9522   5.222   5.359   2.097
 2875SOL     OW 9523   4.256   6.279   6.446
 2875SOL    HW1 9524   4.343   6.246   6.482
 2875SOL    HW2 9525   4.238   6.237   6.357
 2876SOL     OW 9526   0.695   0.254   1.998
 2876SOL    HW1 9527   0.658   0.315   2.068
 2876SOL    HW2 9528   0.723   0.308   1.919
 2877SOL     OW 9529   3.450   2.732   5.424
 2877SOL    HW1 9530   3.403   2.757   5.339
 2877SOL    HW2 9531   3.433   2.636   5.444
 2878SOL     OW 9532   3.396   4.890   4.418
 2878SOL    HW1 9533   3.357   4.941   4.341
 2878SOL    HW2 9534   3.343   4.910   4.501
 2879SOL     OW 9535   4.990   5.250   0.183
 2879SOL    HW1 9536   4.992   5.242   0.283
 2879SOL    HW2 9537   5.020   5.165   0.142
 2880SOL     OW 9538   6.190   6.349   0.361
 2880SOL    HW1 9539   6.283   6.318   0.381
 2880SOL    HW2 9540   6.151   6.291   0.289
 2881SOL     OW 9541   5.779   6.348   0.674
 2881SOL    HW1 9542   5.847   6.353   0.747
 2881SOL    HW2 9543   5.706   6.414   0.692
 2882SOL     OW 9544   0.882   3.540   2.515
 2882SOL    HW1 9545   0.869   3.444   2.538
 2882SOL    HW2 9546   0.819   3.596   2.569
 2883SOL     OW 9547   4.506   6.596   3.493
 2883SOL    HW1 9548   4.525   6.582   3.591
 2883SOL    HW2 9549   4.537   6.687   3.466
 2884SOL     OW 9550   0.608   6.209   3.263
 2884SOL    HW1 9551   0.622   6.300   3.303
 2884SOL    HW2 9552   0.667   6.198   3.183
 2885SOL     OW 9553   0.156   2.617   3.065
 2885SOL    HW1 9554   0.211   2.540   3.034
 2885SOL    HW2 9555   0.181   2.700   3.014
 2886SOL     OW 9556   2.154   3.095   6.657
 2886SOL    HW1 9557   2.199   3.010   6.630
 2886SOL    HW2 9558   2.059   3.094   6.623
 2887SOL     OW 9559   2.335   6.943   5.091
 2887SOL    HW1 9560   2.291   6.928   5.180
 2887SOL    HW2 9561   2.264   6.953   5.021
 2888SOL     OW 9562   0.117   4.985   6.415
 2888SOL    HW1 9563   0.106   4.967   6.317
 2888SOL    HW2 9564   0.128   4.898   6.463
 2889SOL     OW 9565   1.453   0.998   2.249
 2889SOL    HW1 9566   1.448   0.917   2.307
 2889SOL    HW2 9567   1.445   0.971   2.153
 2890SOL     OW 9568   2.876   0.497   1.532
 2890SOL    HW1 9569   2.788   0.532   1.564
 2890SOL    HW2 9570   2.908   0.553   1.455
 2891SOL     OW 9571   2.649   4.677   3.378
 2891SOL    HW1 9572   2.575   4.732   3.339
 2891SOL    HW2 9573   2.613   4.587   3.404
 2892SOL     OW 9574   4.852   4.323   0.219
 2892SOL    HW1 9575   4.905   4.367   0.292
 2892SOL    HW2 9576   4.787   4.259   0.259
 2893SOL     OW 9577   1.860   6.498   5.637
 2893SOL    HW1 9578   1.960   6.489   5.642
 2893SOL    HW2 9579   1.818   6.431   5.698
 2894SOL     OW 9580   3.022   2.621   6.582
 2894SOL    HW1 9581   3.061   2.529   6.581
 2894SOL    HW2 9582   3.094   2.688   6.599
 2895SOL     OW 9583   4.094   3.086   6.654
 2895SOL    HW1 9584   4.053   2.995   6.644
 2895SOL    HW2 9585   4.182   3.077   6.701
 2896SOL     OW 9586   2.558   5.300   6.273
 2896SOL    HW1 9587   2.529   5.259   6.360
 2896SOL    HW2 9588   2.655   5.278   6.257
 2897SOL     OW 9589   2.240   6.329   4.027
 2897SOL    HW1 9590   2.264   6.255   3.965
 2897SOL    HW2 9591   2.322   6.382   4.050
 2898SOL     OW 9592   4.908   4.726   2.889
 2898SOL    HW1 9593   4.967   4.651   2.918
 2898SOL    HW2 9594   4.954   4.780   2.818
 2899SOL     OW 9595   0.165   0.913   6.448
 2899SOL    HW1 9596   0.098   0.942   6.517
 2899SOL    HW2 9597   0.127   0.838   6.394
 2900SOL     OW 9598   1.255   4.689   5.623
 2900SOL    HW1 9599   1.328   4.709   5.558
 2900SOL    HW2 9600   1.168   4.687   5.575
 2901SOL     OW 9601   1.308   0.230   2.767
 2901SOL    HW1 9602   1.302   0.275   2.677
 2901SOL    HW2 9603   1.283   0.134   2.758
 2902SOL     OW 9604   5.415   6.692   0.593
 2902SOL    HW1 9605   5.458   6.781   0.578
 2902SOL    HW2 9606   5.475   6.636   0.650
 2903SOL     OW 9607   3.078   6.850   2.158
 2903SOL    HW1 9608   3.173   6.857   2.130
 2903SOL    HW2 9609   3.055   6.755   2.176
 2904SOL     OW 9610   2.412   3.247   5.331
 2904SOL    HW1 9611   2.429   3.155   5.295
 2904SOL    HW2 9612   2.437   3.250   5.428
 2905SOL     OW 9613   1.316   1.676   2.791
 2905SOL    HW1 9614   1.222   1.705   2.774
 2905SOL    HW2 9615   1.379   1.746   2.758
 2906SOL     OW 9616   5.258   4.974   2.062
 2906SOL    HW1 9617   5.281   4.928   2.148
 2906SOL    HW2 9618   5.342   4.993   2.012
 2907SOL     OW 9619   6.222   0.912   4.835
 2907SOL    HW1 9620   6.243   0.975   4.909
 2907SOL    HW2 9621   6.175   0.832   4.871
 2908SOL     OW 9622   3.996   6.552   4.165
 2908SOL    HW1 9623   3.973   6.644   4.133
 2908SOL    HW2 9624   4.016   6.493   4.086
 2909SOL     OW 9625   0.655   4.750   4.523
 2909SOL    HW1 9626   0.668   4.654   4.548
 2909SOL    HW2 9627   0.678   4.808   4.601
 2910SOL     OW 9628   3.546   6.312   4.879
 2910SOL    HW1 9629   3.500   6.240   4.828
 2910SOL    HW2 9630   3.550   6.396   4.824
 2911SOL     OW 9631   2.418   5.410   3.864
 2911SOL    HW1 9632   2.503   5.370   3.829
 2911SOL    HW2 9633   2.412   5.505   3.835
 2912SOL     OW 9634   2.872   6.125   0.481
 2912SOL    HW1 9635   2.889   6.091   0.574
 2912SOL    HW2 9636   2.799   6.072   0.439
 2913SOL     OW 9637   1.991   4.627   2.620
 2913SOL    HW1 9638   2.007   4.571   2.701
 2913SOL    HW2 9639   2.071   4.624   2.561
 2914SOL     OW 9640   5.876   4.949   6.133
 2914SOL    HW1 9641   5.813   4.956   6.210
 2914SOL    HW2 9642   5.951   5.014   6.146
 2915SOL     OW 9643   4.635   1.751   4.117
 2915SOL    HW1 9644   4.575   1.748   4.037
 2915SOL    HW2 9645   4.626   1.840   4.161
 2916SOL     OW 9646   6.213   4.771   5.900
 2916SOL    HW1 9647   6.286   4.740   5.839
 2916SOL    HW2 9648   6.223   4.869   5.916
 2917SOL     OW 9649   3.665   0.410   1.443
 2917SOL    HW1 9650   3.723   0.350   1.498
 2917SOL    HW2 9651   3.600   0.354   1.390
 2918SOL     OW 9652   6.739   3.055   3.426
 2918SOL    HW1 9653   6.818   2.994   3.422
 2918SOL    HW2 9654   6.684   3.043   3.343
 2919SOL     OW 9655   6.105   0.245   0.579
 2919SOL    HW1 9656   6.107   0.179   0.504
 2919SOL    HW2 9657   6.176   0.314   0.565
 2920SOL     OW 9658   3.583   1.979   2.475
 2920SOL    HW1 9659   3.515   2.043   2.511
 2920SOL    HW2 9660   3.638   2.026   2.405
 2921SOL     OW 9661   0.197   1.242   2.870
 2921SOL    HW1 9662   0.190   1.145   2.846
 2921SOL    HW2 9663   0.194   1.252   2.969
 2922SOL     OW 9664   5.660   6.617   0.015
 2922SOL    HW1 9665   5.584   6.650   0.069
 2922SOL    HW2 9666   5.743   6.666   0.040
 2923SOL     OW 9667   0.056   5.371   2.515
 2923SOL    HW1 9668   0.014   5.385   2.605
 2923SOL    HW2 9669   0.102   5.282   2.514
 2924SOL     OW 9670   0.182   1.816   6.011
 2924SOL    HW1 9671   0.264   1.761   6.027
 2924SOL    HW2 9672   0.101   1.762   6.031
 2925SOL     OW 9673   5.670   1.084   3.147
 2925SOL    HW1 9674   5.616   1.001   3.135
 2925SOL    HW2 9675   5.766   1.065   3.128
 2926SOL     OW 9676   7.001   1.592   4.922
 2926SOL    HW1 9677   6.992   1.492   4.926
 2926SOL    HW2 9678   0.048   1.617   4.858
 2927SOL     OW 9679   1.296   2.119   2.027
 2927SOL    HW1 9680   1.390   2.107   2.059
 2927SOL    HW2 9681   1.267   2.214   2.041
 2928SOL     OW 9682   6.577   1.821   6.720
 2928SOL    HW1 9683   6.581   1.834   6.819
 2928SOL    HW2 9684   6.497   1.765   6.697
 2929SOL     OW 9685   0.930   0.971   5.951
 2929SOL    HW1 9686   0.902   1.004   5.861
 2929SOL    HW2 9687   1.027   0.989   5.965
 2930SOL     OW 9688   4.728   6.466   5.213
 2930SOL    HW1 9689   4.785   6.391   5.246
 2930SOL    HW2 9690   4.657   6.430   5.152
 2931SOL     OW 9691   5.010   5.731   6.612
 2931SOL    HW1 9692   5.069   5.735   6.532
 2931SOL    HW2 9693   5.062   5.753   6.694
 2932SOL     OW 9694   1.733   4.735   2.258
 2932SOL    HW1 9695   1.678   4.779   2.329
 2932SOL    HW2 9696   1.703   4.766   2.168
 2933SOL     OW 9697   5.310   2.690   3.909
 2933SOL    HW1 9698   5.275   2.775   3.948
 2933SOL    HW2 9699   5.407   2.701   3.888
 2934SOL     OW 9700   3.813   0.798   0.988
 2934SOL    HW1 9701   3.755   0.876   0.964
 2934SOL    HW2 9702   3.764   0.740   1.054
 2935SOL     OW 9703   6.555   2.938   1.586
 2935SOL    HW1 9704   6.611   2.979   1.515
 2935SOL    HW2 9705   6.559   2.995   1.668
 2936SOL     OW 9706   4.836   5.682   1.591
 2936SOL    HW1 9707   4.868   5.748   1.660
 2936SOL    HW2 9708   4.849   5.589   1.626
 2937SOL     OW 9709   3.041   5.052   0.431
 2937SOL    HW1 9710   3.101   5.124   0.396
 2937SOL    HW2 9711   2.950   5.090   0.448
 2938SOL     OW 9712   4.802   4.757   5.354
 2938SOL    HW1 9713   4.824   4.781   5.448
 2938SOL    HW2 9714   4.826   4.662   5.336
 2939SOL     OW 9715   0.379   6.220   4.792
 2939SOL    HW1 9716   0.448   6.241   4.723
 2939SOL    HW2 9717   0.289   6.248   4.758
 2940SOL     OW 9718   5.584   0.067   5.174
 2940SOL    HW1 9719   5.672   0.096   5.211
 2940SOL    HW2 9720   5.527   0.031   5.248
 2941SOL     OW 9721   1.554   2.631   5.841
 2941SOL    HW1 9722   1.575   2.695   5.767
 2941SOL    HW2 9723   1.632   2.571   5.857
 2942SOL     OW 9724   2.453   0.768   2.090
 2942SOL    HW1 9725   2.457   0.711   2.007
 2942SOL    HW2 9726   2.509   0.850   2.076
 2943SOL     OW 9727   5.151   3.492   2.812
 2943SOL    HW1 9728   5.225   3.501   2.745
 2943SOL    HW2 9729   5.164   3.408   2.865
 2944SOL     OW 9730   3.369   5.411   5.485
 2944SOL    HW1 9731   3.306   5.445   5.415
 2944SOL    HW2 9732   3.383   5.482   5.554
 2945SOL     OW 9733   4.066   3.657   2.854
 2945SOL    HW1 9734   4.043   3.745   2.894
 2945SOL    HW2 9735   4.070   3.587   2.925
 2946SOL     OW 9736   6.730   5.902   5.578
 2946SOL    HW1 9737   6.658   5.834   5.588
 2946SOL    HW2 9738   6.798   5.889   5.650
 2947SOL     OW 9739   0.797   3.937   0.245
 2947SOL    HW1 9740   0.808   3.887   0.331
 2947SOL    HW2 9741   0.799   4.035   0.262
 2948SOL     OW 9742   6.219   3.902   5.419
 2948SOL    HW1 9743   6.286   3.849   5.471
 2948SOL    HW2 9744   6.128   3.889   5.458
 2949SOL     OW 9745   1.699   6.182   1.235
 2949SOL    HW1 9746   1.737   6.136   1.315
 2949SOL    HW2 9747   1.758   6.165   1.155
 2950SOL     OW 9748   5.596   3.598   4.460
 2950SOL    HW1 9749   5.615   3.566   4.367
 2950SOL    HW2 9750   5.682   3.601   4.512
 2951SOL     OW 9751   6.983   2.272   0.020
 2951SOL    HW1 9752   7.009   2.179   7.023
 2951SOL    HW2 9753   7.017   2.295   0.112
 2952SOL     OW 9754   1.327   4.887   3.844
 2952SOL    HW1 9755   1.398   4.938   3.892
 2952SOL    HW2 9756   1.277   4.948   3.783
 2953SOL     OW 9757   5.237   2.445   2.403
 2953SOL    HW1 9758   5.229   2.516   2.332
 2953SOL    HW2 9759   5.248   2.488   2.492
 2954SOL     OW 9760   1.174   6.147   2.388
 2954SOL    HW1 9761   1.102   6.204   2.426
 2954SOL    HW2 9762   1.168   6.147   2.289
 2955SOL     OW 9763   0.454   2.906   0.238
 2955SOL    HW1 9764   0.359   2.913   0.207
 2955SOL    HW2 9765   0.483   2.994   0.276
 2956SOL     OW 9766   0.116   5.791   2.763
 2956SOL    HW1 9767   0.105   5.886   2.734
 2956SOL    HW2 9768   0.027   5.754   2.790
 2957SOL     OW 9769   0.020   3.526   1.299
 2957SOL    HW1 9770   6.979   3.547   1.228
 2957SOL    HW2 9771   0.039   3.428   1.299
 2958SOL     OW 9772   2.457   4.514   4.945
 2958SOL    HW1 9773   2.442   4.608   4.917
 2958SOL    HW2 9774   2.514   4.512   5.027
 2959SOL     OW 9775   5.117   4.679   6.826
 2959SOL    HW1 9776   5.045   4.745   6.846
 2959SOL    HW2 9777   5.136   4.678   6.728
 2960SOL     OW 9778   2.998   1.145   0.061
 2960SOL    HW1 9779   3.006   1.213   0.134
 2960SOL    HW2 9780   2.902   1.128   0.041
 2961SOL     OW 9781   5.372   2.977   4.424
 2961SOL    HW1 9782   5.443   2.984   4.494
 2961SOL    HW2 9783   5.405   2.920   4.349
 2962SOL     OW 9784   4.632   0.846   3.761
 2962SOL    HW1 9785   4.704   0.827   3.829
 2962SOL    HW2 9786   4.547   0.802   3.790
 2963SOL     OW 9787   1.895   1.736   5.998
 2963SOL    HW1 9788   1.962   1.739   6.071
 2963SOL    HW2 9789   1.938   1.702   5.914
 2964SOL     OW 9790   1.696   0.058   2.208
 2964SOL    HW1 9791   1.707   0.092   2.114
 2964SOL    HW2 9792   1.711   0.133   2.272
 2965SOL     OW 9793   0.266   0.933   5.159
 2965SOL    HW1 9794   0.312   0.998   5.220
 2965SOL    HW2 9795   0.280   0.840   5.194
 2966SOL     OW 9796   5.924   4.517   3.914
 2966SOL    HW1 9797   5.896   4.428   3.878
 2966SOL    HW2 9798   5.888   4.589   3.855
 2967SOL     OW 9799   5.730   2.813   3.506
 2967SOL    HW1 9800   5.723   2.743   3.577
 2967SOL    HW2 9801   5.685   2.780   3.422
 2968SOL     OW 9802   0.665   3.858   5.691
 2968SOL    HW1 9803   0.590   3.920   5.713
 2968SOL    HW2 9804   0.742   3.910   5.656
 2969SOL     OW 9805   5.584   1.691   5.263
 2969SOL    HW1 9806   5.553   1.778   5.225
 2969SOL    HW2 9807   5.679   1.699   5.293
 2970SOL     OW 9808   1.048   4.193   6.899
 2970SOL    HW1 9809   1.113   4.186   6.824
 2970SOL    HW2 9810   1.086   4.150   6.981
 2971SOL     OW 9811   5.754   2.851   4.424
 2971SOL    HW1 9812   5.821   2.816   4.360
 2971SOL    HW2 9813   5.697   2.776   4.458
 2972SOL     OW 9814   6.408   4.389   0.232
 2972SOL    HW1 9815   6.346   4.359   0.159
 2972SOL    HW2 9816   6.378   4.479   0.265
 2973SOL     OW 9817   5.494   0.621   4.024
 2973SOL    HW1 9818   5.478   0.661   4.114
 2973SOL    HW2 9819   5.455   0.680   3.953
 2974SOL     OW 9820   6.128   3.769   3.508
 2974SOL    HW1 9821   6.211   3.813   3.541
 2974SOL    HW2 9822   6.048   3.821   3.539
 2975SOL     OW 9823   0.411   1.719   5.080
 2975SOL    HW1 9824   0.448   1.712   4.988
 2975SOL    HW2 9825   0.382   1.813   5.098
 2976SOL     OW 9826   3.715   1.483   2.897
 2976SOL    HW1 9827   3.670   1.438   2.973
 2976SOL    HW2 9828   3.665   1.464   2.812
 2977SOL     OW 9829   2.617   0.136   4.091
 2977SOL    HW1 9830   2.650   0.223   4.053
 2977SOL    HW2 9831   2.630   0.136   4.190
 2978SOL     OW 9832   4.415   4.775   0.224
 2978SOL    HW1 9833   4.413   4.861   0.274
 2978SOL    HW2 9834   4.423   4.792   0.126
 2979SOL     OW 9835   4.048   0.038   3.941
 2979SOL    HW1 9836   4.031   6.966   3.953
 2979SOL    HW2 9837   3.963   0.085   3.919
 2980SOL     OW 9838   1.355   6.151   4.191
 2980SOL    HW1 9839   1.279   6.214   4.205
 2980SOL    HW2 9840   1.410   6.146   4.274
 2981SOL     OW 9841   0.542   0.258   6.100
 2981SOL    HW1 9842   0.627   0.212   6.074
 2981SOL    HW2 9843   0.474   0.189   6.127
 2982SOL     OW 9844   4.645   6.345   3.200
 2982SOL    HW1 9845   4.597   6.426   3.168
 2982SOL    HW2 9846   4.684   6.362   3.291
 2983SOL     OW 9847   0.800   0.543   3.831
 2983SOL    HW1 9848   0.739   0.600   3.886
 2983SOL    HW2 9849   0.761   0.451   3.823
 2984SOL     OW 9850   5.249   6.133   1.255
 2984SOL    HW1 9851   5.302   6.218   1.256
 2984SOL    HW2 9852   5.160   6.150   1.298
 2985SOL     OW 9853   0.725   1.936   4.475
 2985SOL    HW1 9854   0.627   1.925   4.490
 2985SOL    HW2 9855   0.748   2.034   4.478
 2986SOL     OW 9856   2.815   4.190   5.795
 2986SOL    HW1 9857   2.815   4.145   5.706
 2986SOL    HW2 9858   2.909   4.193   5.831
 2987SOL     OW 9859   4.897   1.405   4.194
 2987SOL    HW1 9860   4.972   1.356   4.149
 2987SOL    HW2 9861   4.912   1.503   4.188
 2988SOL     OW 9862   0.463   0.255   2.222
 2988SOL    HW1 9863   0.471   0.210   2.311
 2988SOL    HW2 9864   0.397   0.206   2.165
 2989SOL     OW 9865   5.812   5.372   1.067
 2989SOL    HW1 9866   5.798   5.299   1.000
 2989SOL    HW2 9867   5.770   5.457   1.034
 2990SOL     OW 9868   3.957   0.910   3.118
 2990SOL    HW1 9869   4.027   0.961   3.068
 2990SOL    HW2 9870   3.892   0.870   3.054
 2991SOL     OW 9871   0.118   3.799   0.715
 2991SOL    HW1 9872   0.215   3.819   0.727
 2991SOL    HW2 9873   0.069   3.884   0.698
 2992SOL     OW 9874   2.547   5.503   5.543
 2992SOL    HW1 9875   2.626   5.463   5.590
 2992SOL    HW2 9876   2.508   5.575   5.600
 2993SOL     OW 9877   1.276   4.930   1.909
 2993SOL    HW1 9878   1.180   4.952   1.929
 2993SOL    HW2 9879   1.280   4.854   1.845
 2994SOL     OW 9880   4.616   0.826   0.267
 2994SOL    HW1 9881   4.580   0.744   0.223
 2994SOL    HW2 9882   4.629   0.808   0.365
 2995SOL     OW 9883   0.941   2.902   6.731
 2995SOL    HW1 9884   0.967   2.893   6.635
 2995SOL    HW2 9885   0.932   2.811   6.771
 2996SOL     OW 9886   3.183   6.321   4.762
 2996SOL    HW1 9887   3.243   6.396   4.792
 2996SOL    HW2 9888   3.237   6.239   4.746
 2997SOL     OW 9889   4.940   6.092   1.900
 2997SOL    HW1 9890   4.992   6.148   1.837
 2997SOL    HW2 9891   4.992   6.078   1.984
 2998SOL     OW 9892   4.945   5.771   4.850
 2998SOL    HW1 9893   5.039   5.791   4.879
 2998SOL    HW2 9894   4.948   5.708   4.772
 2999SOL     OW 9895   3.987   6.197   3.680
 2999SOL    HW1 9896   3.949   6.288   3.696
 2999SOL    HW2 9897   3.990   6.179   3.581
 3000SOL     OW 9898   1.844   4.036   6.256
 3000SOL    HW1 9899   1.796   4.084   6.183
 3000SOL    HW2 9900   1.910   3.973   6.217
 3001SOL     OW 9901   4.915   6.967   6.892
 3001SOL    HW1 9902   4.947   0.036   6.882
 3001SOL    HW2 9903   4.988   6.911   6.931
 3002SOL     OW 9904   3.811   0.387   5.242
 3002SOL    HW1 9905   3.759   0.373   5.326
 3002SOL    HW2 9906   3.889   0.324   5.239
 3003SOL     OW 9907   2.969   6.485   6.113
 3003SOL    HW1 9908   2.876   6.466   6.146
 3003SOL    HW2 9909   3.035   6.431   6.165
 3004SOL     OW 9910   6.776   4.327   3.946
 3004SOL    HW1 9911   6.876   4.327   3.942
 3004SOL    HW2 9912   6.742   4.420   3.929
 3005SOL     OW 9913   3.302   3.232   1.127
 3005SOL    HW1 9914   3.262   3.320   1.151
 3005SOL    HW2 9915   3.398   3.230   1.154
 3006SOL     OW 9916   6.384   1.821   0.655
 3006SOL    HW1 9917   6.393   1.920   0.666
 3006SOL    HW2 9918   6.409   1.795   0.562
 3007SOL     OW 9919   6.099   5.414   2.331
 3007SOL    HW1 9920   6.146   5.336   2.372
 3007SOL    HW2 9921   6.001   5.406   2.348
 3008SOL     OW 9922   3.531   0.300   6.317
 3008SOL    HW1 9923   3.588   0.369   6.362
 3008SOL    HW2 9924   3.466   0.345   6.256
 3009SOL     OW 9925   0.487   6.381   2.648
 3009SOL    HW1 9926   0.424   6.305   2.632
 3009SOL    HW2 9927   0.566   6.371   2.588
 3010SOL     OW 9928   3.911   5.928   3.282
 3010SOL    HW1 9929   3.948   5.835   3.275
 3010SOL    HW2 9930   3.904   5.968   3.191
 3011SOL     OW 9931   5.530   0.910   6.560
 3011SOL    HW1 9932   5.462   0.906   6.634
 3011SOL    HW2 9933   5.483   0.921   6.473
 3012SOL     OW 9934   0.435   3.464   4.381
 3012SOL    HW1 9935   0.413   3.534   4.449
 3012SOL    HW2 9936   0.510   3.498   4.323
 3013SOL     OW 9937   5.185   6.144   3.849
 3013SOL    HW1 9938   5.229   6.054   3.844
 3013SOL    HW2 9939   5.091   6.133   3.880
 3014SOL     OW 9940   5.318   2.327   4.183
 3014SOL    HW1 9941   5.294   2.276   4.101
 3014SOL    HW2 9942   5.393   2.282   4.230
 3015SOL     OW 9943   3.218   2.343   6.844
 3015SOL    HW1 9944   3.193   2.436   6.873
 3015SOL    HW2 9945   3.202   2.333   6.746
 3016SOL     OW 9946   3.211   5.926   4.493
 3016SOL    HW1 9947   3.285   5.873   4.534
 3016SOL    HW2 9948   3.139   5.941   4.562
 3017SOL     OW 9949   1.352   5.800   1.009
 3017SOL    HW1 9950   1.423   5.738   1.041
 3017SOL    HW2 9951   1.332   5.867   1.081
 3018SOL     OW 9952   3.234   0.515   6.453
 3018SOL    HW1 9953   3.284   0.541   6.371
 3018SOL    HW2 9954   3.255   0.580   6.526
 3019SOL     OW 9955   3.323   6.237   1.111
 3019SOL    HW1 9956   3.404   6.243   1.170
 3019SOL    HW2 9957   3.333   6.157   1.051
 3020SOL     OW 9958   3.931   3.541   1.423
 3020SOL    HW1 9959   3.891   3.489   1.499
 3020SOL    HW2 9960   3.982   3.479   1.363
 3021SOL     OW 9961   2.192   2.114   6.971
 3021SOL    HW1 9962   2.121   2.096   6.903
 3021SOL    HW2 9963   2.206   2.033   0.002
 3022SOL     OW 9964   4.075   6.285   2.446
 3022SOL    HW1 9965   4.094   6.188   2.437
 3022SOL    HW2 9966   4.013   6.314   2.373
 3023SOL     OW 9967   3.602   6.205   3.125
 3023SOL    HW1 9968   3.622   6.142   3.049
 3023SOL    HW2 9969   3.504   6.226   3.126
 3024SOL     OW 9970   2.887   0.679   6.283
 3024SOL    HW1 9971   2.861   0.595   6.236
 3024SOL    HW2 9972   2.886   0.756   6.219
 3025SOL     OW 9973   3.340   2.688   0.516
 3025SOL    HW1 9974   3.269   2.642   0.570
 3025SOL    HW2 9975   3.425   2.636   0.523
 3026SOL     OW 9976   1.644   3.377   0.744
 3026SOL    HW1 9977   1.575   3.304   0.743
 3026SOL    HW2 9978   1.671   3.398   0.650
 3027SOL     OW 9979   4.094   1.345   2.066
 3027SOL    HW1 9980   4.122   1.249   2.072
 3027SOL    HW2 9981   4.025   1.364   2.135
 3028SOL     OW 9982   0.968   4.558   6.338
 3028SOL    HW1 9983   1.006   4.643   6.375
 3028SOL    HW2 9984   0.879   4.540   6.380
 3029SOL     OW 9985   6.771   5.345   5.045
 3029SOL    HW1 9986   6.843   5.336   4.977
 3029SOL    HW2 9987   6.691   5.291   5.018
 3030SOL     OW 9988   0.941   1.644   5.248
 3030SOL    HW1 9989   0.873   1.687   5.188
 3030SOL    HW2 9990   1.001   1.715   5.285
 3031SOL     OW 9991   0.749   3.396   0.526
 3031SOL    HW1 9992   0.799   3.414   0.611
 3031SOL    HW2 9993   0.654   3.373   0.548
 3032SOL     OW 9994   5.381   0.405   0.386
 3032SOL    HW1 9995   5.312   0.471   0.357
 3032SOL    HW2 9996   5.433   0.444   0.462
 3033SOL     OW 9997   0.761   2.414   6.938
 3033SOL    HW1 9998   0.761   2.371   6.848
 3033SOL    HW2 9999   0.783   2.346   7.008
 3034SOL     OW10000   1.821   6.082   3.620
 3034SOL    HW110001   1.741   6.128   3.659
 3034SOL    HW210002   1.902   6.107   3.672
 3035SOL     OW10003   6.429   2.086   0.528
 3035SOL    HW110004   6.392   2.115   0.440
 3035SOL    HW210005   6.528   2.074   0.520
 3036SOL     OW10006   2.007   3.756   0.225
 3036SOL    HW110007   2.098   3.771   0.264
 3036SOL    HW210008   2.015   3.733   0.128
 3037SOL     OW10009   6.013   6.003   4.026
 3037SOL    HW110010   6.072   6.023   4.104
 3037SOL    HW210011   5.950   6.079   4.011
 3038SOL     OW10012   5.733   7.019   6.524
 3038SOL    HW110013   5.634   0.005   6.527
 3038SOL    HW210014   5.777   0.079   6.552
 3039SOL     OW10015   6.892   4.676   2.766
 3039SOL    HW110016   6.966   4.738   2.740
 3039SOL    HW210017   6.929   4.587   2.790
 3040SOL     OW10018   4.931   3.834   6.348
 3040SOL    HW110019   4.946   3.832   6.447
 3040SOL    HW210020   4.952   3.925   6.313
 3041SOL     OW10021   1.604   2.452   6.113
 3041SOL    HW110022   1.672   2.411   6.173
 3041SOL    HW210023   1.618   2.420   6.019
 3042SOL     OW10024   5.164   6.416   2.041
 3042SOL    HW110025   5.255   6.458   2.045
 3042SOL    HW210026   5.162   6.336   2.101
 3043SOL     OW10027   6.990   5.615   0.829
 3043SOL    HW110028   6.989   5.697   0.773
 3043SOL    HW210029   6.945   5.540   0.780
 3044SOL     OW10030   3.174   4.124   5.715
 3044SOL    HW110031   3.230   4.088   5.790
 3044SOL    HW210032   3.178   4.223   5.715
 3045SOL     OW10033   4.559   0.643   2.436
 3045SOL    HW110034   4.607   0.558   2.413
 3045SOL    HW210035   4.572   0.664   2.533
 3046SOL     OW10036   1.434   3.491   5.518
 3046SOL    HW110037   1.497   3.430   5.469
 3046SOL    HW210038   1.486   3.546   5.583
 3047SOL     OW10039   5.313   5.571   2.082
 3047SOL    HW110040   5.266   5.611   2.004
 3047SOL    HW210041   5.411   5.565   2.063
 3048SOL     OW10042   4.014   3.295   1.246
 3048SOL    HW110043   4.051   3.209   1.281
 3048SOL    HW210044   3.926   3.278   1.202
 3049SOL     OW10045   0.908   6.116   1.162
 3049SOL    HW110046   0.816   6.102   1.126
 3049SOL    HW210047   0.969   6.047   1.124
 3050SOL     OW10048   3.521   0.137   3.494
 3050SOL    HW110049   3.611   0.160   3.456
 3050SOL    HW210050   3.484   0.057   3.446
 3051SOL     OW10051   2.802   3.906   0.099
 3051SOL    HW110052   2.792   4.000   0.131
 3051SOL    HW210053   2.783   3.843   0.174
 3052SOL     OW10054   4.060   0.621   2.891
 3052SOL    HW110055   4.130   0.622   2.820
 3052SOL    HW210056   4.100   0.590   2.977
 3053SOL     OW10057   5.998   0.507   6.984
 3053SOL    HW110058   6.039   0.541   0.043
 3053SOL    HW210059   5.979   0.584   6.923
 3054SOL     OW10060   0.185   2.338   6.881
 3054SOL    HW110061   0.174   2.407   6.810
 3054SOL    HW210062   0.097   2.292   6.898
 3055SOL     OW10063   5.174   0.606   3.733
 3055SOL    HW110064   5.199   0.512   3.711
 3055SOL    HW210065   5.101   0.606   3.801
 3056SOL     OW10066   6.697   0.222   6.920
 3056SOL    HW110067   6.653   0.306   6.888
 3056SOL    HW210068   6.670   0.204   7.014
 3057SOL     OW10069   4.261   5.668   2.838
 3057SOL    HW110070   4.250   5.588   2.779
 3057SOL    HW210071   4.293   5.745   2.783
 3058SOL     OW10072   6.108   5.746   1.194
 3058SOL    HW110073   6.092   5.677   1.265
 3058SOL    HW210074   6.066   5.715   1.109
 3059SOL     OW10075   1.753   3.246   5.079
 3059SOL    HW110076   1.741   3.179   5.005
 3059SOL    HW210077   1.784   3.199   5.161
 3060SOL     OW10078   0.115   6.466   0.333
 3060SOL    HW110079   0.203   6.439   0.371
 3060SOL    HW210080   0.041   6.433   0.391
 3061SOL     OW10081   7.021   0.762   5.085
 3061SOL    HW110082   0.073   0.706   5.056
 3061SOL    HW210083   7.025   0.850   5.039
 3062SOL     OW10084   1.697   6.865   1.339
 3062SOL    HW110085   1.764   6.793   1.319
 3062SOL    HW210086   1.607   6.836   1.306
 3063SOL     OW10087   2.572   5.288   2.451
 3063SOL    HW110088   2.478   5.275   2.480
 3063SOL    HW210089   2.617   5.355   2.510
 3064SOL     OW10090   5.704   3.255   3.644
 3064SOL    HW110091   5.675   3.187   3.576
 3064SOL    HW210092   5.630   3.319   3.660
 3065SOL     OW10093   2.101   0.426   6.339
 3065SOL    HW110094   2.006   0.458   6.337
 3065SOL    HW210095   2.153   0.472   6.268
 3066SOL     OW10096   5.878   4.201   0.390
 3066SOL    HW110097   5.822   4.195   0.308
 3066SOL    HW210098   5.974   4.184   0.366
 3067SOL     OW10099   3.297   1.255   4.424
 3067SOL    HW110100   3.351   1.300   4.495
 3067SOL    HW210101   3.219   1.208   4.466
 3068SOL     OW10102   5.615   6.169   0.433
 3068SOL    HW110103   5.597   6.162   0.334
 3068SOL    HW210104   5.638   6.079   0.469
 3069SOL     OW10105   6.713   5.517   1.203
 3069SOL    HW110106   6.727   5.508   1.301
 3069SOL    HW210107   6.709   5.614   1.179
 3070SOL     OW10108   2.080   1.032   2.225
 3070SOL    HW110109   2.075   0.940   2.263
 3070SOL    HW210110   2.008   1.089   2.264
 3071SOL     OW10111   6.560   6.836   3.593
 3071SOL    HW110112   6.660   6.844   3.599
 3071SOL    HW210113   6.519   6.920   3.627
 3072SOL     OW10114   0.801   6.439   0.946
 3072SOL    HW110115   0.786   6.534   0.974
 3072SOL    HW210116   0.895   6.413   0.969
 3073SOL     OW10117   0.935   3.741   4.923
 3073SOL    HW110118   0.848   3.791   4.921
 3073SOL    HW210119   0.932   3.673   4.997
 3074SOL     OW10120   5.456   2.990   0.929
 3074SOL    HW110121   5.388   3.029   0.991
 3074SOL    HW210122   5.481   2.899   0.959
 3075SOL     OW10123   1.832   6.134   1.505
 3075SOL    HW110124   1.853   6.231   1.491
 3075SOL    HW210125   1.844   6.110   1.601
 3076SOL     OW10126   6.699   0.509   4.542
 3076SOL    HW110127   6.677   0.587   4.600
 3076SOL    HW210128   6.793   0.480   4.559
 3077SOL     OW10129   5.793   4.821   2.653
 3077SOL    HW110130   5.740   4.888   2.704
 3077SOL    HW210131   5.850   4.868   2.585
 3078SOL     OW10132   2.225   3.657   1.397
 3078SOL    HW110133   2.159   3.678   1.469
 3078SOL    HW210134   2.303   3.608   1.436
 3079SOL     OW10135   2.067   2.500   4.796
 3079SOL    HW110136   1.971   2.473   4.799
 3079SOL    HW210137   2.074   2.600   4.805
 3080SOL     OW10138   5.535   5.017   1.989
 3080SOL    HW110139   5.552   5.086   1.919
 3080SOL    HW210140   5.609   5.021   2.057
 3081SOL     OW10141   0.758   4.495   6.086
 3081SOL    HW110142   0.842   4.498   6.140
 3081SOL    HW210143   0.697   4.425   6.124
 3082SOL     OW10144   3.852   6.751   3.554
 3082SOL    HW110145   3.885   6.834   3.510
 3082SOL    HW210146   3.829   6.771   3.649
 3083SOL     OW10147   4.114   6.780   2.361
 3083SOL    HW110148   4.077   6.688   2.347
 3083SOL    HW210149   4.088   6.812   2.452
 3084SOL     OW10150   5.170   4.378   4.429
 3084SOL    HW110151   5.162   4.478   4.427
 3084SOL    HW210152   5.266   4.353   4.432
 3085SOL     OW10153   0.174   4.380   3.234
 3085SOL    HW110154   0.246   4.438   3.271
 3085SOL    HW210155   0.168   4.296   3.288
 3086SOL     OW10156   4.203   1.576   1.966
 3086SOL    HW110157   4.136   1.646   1.941
 3086SOL    HW210158   4.159   1.507   2.023
 3087SOL     OW10159   0.125   4.598   4.270
 3087SOL    HW110160   0.065   4.579   4.193
 3087SOL    HW210161   0.217   4.561   4.252
 3088SOL     OW10162   2.996   5.121   5.197
 3088SOL    HW110163   3.001   5.021   5.197
 3088SOL    HW210164   3.088   5.158   5.209
 3089SOL     OW10165   1.327   3.353   6.946
 3089SOL    HW110166   1.340   3.268   6.997
 3089SOL    HW210167   1.376   3.427   6.992
 3090SOL     OW10168   1.529   1.446   1.536
 3090SOL    HW110169   1.551   1.349   1.540
 3090SOL    HW210170   1.583   1.490   1.464
 3091SOL     OW10171   3.022   6.394   0.345
 3091SOL    HW110172   3.063   6.376   0.255
 3091SOL    HW210173   2.928   6.361   0.347
 3092SOL     OW10174   4.987   0.142   0.178
 3092SOL    HW110175   5.005   0.046   0.158
 3092SOL    HW210176   5.033   0.168   0.262
 3093SOL     OW10177   5.770   5.400   5.797
 3093SOL    HW110178   5.696   5.362   5.742
 3093SOL    HW210179   5.813   5.475   5.747
 3094SOL     OW10180   3.256   6.948   4.794
 3094SOL    HW110181   3.232   6.876   4.860
 3094SOL    HW210182   3.189   7.022   4.800
 3095SOL     OW10183   2.400   4.591   4.280
 3095SOL    HW110184   2.374   4.538   4.360
 3095SOL    HW210185   2.393   4.534   4.198
 3096SOL     OW10186   7.017   0.308   4.359
 3096SOL    HW110187   0.047   0.225   4.364
 3096SOL    HW210188   0.032   0.371   4.293
 3097SOL     OW10189   0.925   2.336   0.378
 3097SOL    HW110190   0.860   2.341   0.454
 3097SOL    HW210191   0.949   2.429   0.348
 3098SOL     OW10192   2.245   3.384   1.315
 3098SOL    HW110193   2.162   3.438   1.316
 3098SOL    HW210194   2.314   3.428   1.373
 3099SOL     OW10195   0.298   5.759   4.961
 3099SOL    HW110196   0.302   5.673   4.910
 3099SOL    HW210197   0.295   5.835   4.897
 3100SOL     OW10198   6.657   0.033   4.818
 3100SOL    HW110199   6.683   6.972   4.777
 3100SOL    HW210200   6.559   0.049   4.806
 3101SOL     OW10201   4.351   6.203   5.552
 3101SOL    HW110202   4.418   6.271   5.525
 3101SOL    HW210203   4.324   6.218   5.648
 3102SOL     OW10204   0.950   5.009   1.373
 3102SOL    HW110205   1.001   5.087   1.410
 3102SOL    HW210206   0.982   4.925   1.418
 3103SOL     OW10207   3.452   1.488   0.768
 3103SOL    HW110208   3.545   1.522   0.749
 3103SOL    HW210209   3.426   1.513   0.861
 3104SOL     OW10210   5.891   6.237   4.033
 3104SOL    HW110211   5.946   6.295   4.093
 3104SOL    HW210212   5.794   6.252   4.053
 3105SOL     OW10213   6.234   5.468   3.660
 3105SOL    HW110214   6.181   5.488   3.742
 3105SOL    HW210215   6.269   5.375   3.664
 3106SOL     OW10216   6.871   1.968   2.696
 3106SOL    HW110217   6.921   1.932   2.617
 3106SOL    HW210218   6.890   2.066   2.706
 3107SOL     OW10219   3.776   0.160   4.587
 3107SOL    HW110220   3.843   0.199   4.651
 3107SOL    HW210221   3.786   0.061   4.583
 3108SOL     OW10222   1.783   1.031   4.391
 3108SOL    HW110223   1.789   1.107   4.456
 3108SOL    HW210224   1.824   0.949   4.431
 3109SOL     OW10225   5.926   5.932   2.731
 3109SOL    HW110226   5.980   5.848   2.734
 3109SOL    HW210227   5.911   5.958   2.636
 3110SOL     OW10228   0.386   2.052   3.683
 3110SOL    HW110229   0.325   2.129   3.662
 3110SOL    HW210230   0.463   2.085   3.737
 3111SOL     OW10231   6.078   5.562   3.858
 3111SOL    HW110232   5.980   5.542   3.866
 3111SOL    HW210233   6.115   5.579   3.949
 3112SOL     OW10234   4.968   2.726   5.827
 3112SOL    HW110235   4.901   2.775   5.882
 3112SOL    HW210236   4.922   2.660   5.768
 3113SOL     OW10237   2.306   0.364   4.034
 3113SOL    HW110238   2.276   0.363   4.130
 3113SOL    HW210239   2.334   0.272   4.007
 3114SOL     OW10240   5.222   3.813   0.061
 3114SOL    HW110241   5.177   3.826   6.998
 3114SOL    HW210242   5.253   3.718   0.068
 3115SOL     OW10243   4.487   3.659   0.219
 3115SOL    HW110244   4.571   3.644   0.271
 3115SOL    HW210245   4.485   3.599   0.140
 3116SOL     OW10246   0.058   3.329   6.971
 3116SOL    HW110247   0.036   3.332   6.873
 3116SOL    HW210248   0.143   3.279   6.985
 3117SOL     OW10249   4.556   3.923   5.358
 3117SOL    HW110250   4.462   3.937   5.326
 3117SOL    HW210251   4.568   3.969   5.446
 3118SOL     OW10252   6.749   4.414   6.542
 3118SOL    HW110253   6.686   4.351   6.587
 3118SOL    HW210254   6.841   4.401   6.579
 3119SOL     OW10255   1.802   4.104   5.191
 3119SOL    HW110256   1.823   4.051   5.273
 3119SOL    HW210257   1.799   4.201   5.213
 3120SOL     OW10258   2.331   6.421   4.701
 3120SOL    HW110259   2.243   6.467   4.693
 3120SOL    HW210260   2.370   6.408   4.610
 3121SOL     OW10261   0.236   1.047   2.247
 3121SOL    HW110262   0.210   1.141   2.228
 3121SOL    HW210263   0.332   1.033   2.223
 3122SOL     OW10264   3.407   5.531   5.937
 3122SOL    HW110265   3.386   5.628   5.930
 3122SOL    HW210266   3.502   5.515   5.909
 3123SOL     OW10267   3.230   6.754   3.778
 3123SOL    HW110268   3.184   6.739   3.866
 3123SOL    HW210269   3.162   6.780   3.709
 3124SOL     OW10270   4.074   0.657   5.313
 3124SOL    HW110271   4.013   0.705   5.375
 3124SOL    HW210272   4.157   0.630   5.362
 3125SOL     OW10273   6.290   2.135   6.130
 3125SOL    HW110274   6.350   2.057   6.150
 3125SOL    HW210275   6.314   2.174   6.041
 3126SOL     OW10276   4.826   4.683   6.600
 3126SOL    HW110277   4.819   4.765   6.657
 3126SOL    HW210278   4.765   4.692   6.521
 3127SOL     OW10279   0.976   2.294   3.081
 3127SOL    HW110280   0.880   2.319   3.095
 3127SOL    HW210281   0.983   2.194   3.077
 3128SOL     OW10282   1.643   0.368   0.754
 3128SOL    HW110283   1.743   0.364   0.766
 3128SOL    HW210284   1.608   0.275   0.740
 3129SOL     OW10285   0.745   4.772   6.104
 3129SOL    HW110286   0.727   4.674   6.096
 3129SOL    HW210287   0.658   4.823   6.103
 3130SOL     OW10288   2.468   4.517   2.297
 3130SOL    HW110289   2.564   4.493   2.313
 3130SOL    HW210290   2.463   4.588   2.226
 3131SOL     OW10291   1.052   2.725   3.117
 3131SOL    HW110292   1.010   2.663   3.182
 3131SOL    HW210293   1.116   2.786   3.165
 3132SOL     OW10294   5.390   6.466   5.250
 3132SOL    HW110295   5.332   6.538   5.213
 3132SOL    HW210296   5.378   6.461   5.349
 3133SOL     OW10297   2.354   2.203   4.119
 3133SOL    HW110298   2.331   2.300   4.112
 3133SOL    HW210299   2.350   2.175   4.215
 3134SOL     OW10300   5.182   3.573   2.087
 3134SOL    HW110301   5.221   3.485   2.061
 3134SOL    HW210302   5.200   3.640   2.014
 3135SOL     OW10303   3.977   1.807   4.899
 3135SOL    HW110304   4.075   1.802   4.916
 3135SOL    HW210305   3.958   1.875   4.828
 3136SOL     OW10306   6.355   6.563   5.876
 3136SOL    HW110307   6.329   6.570   5.780
 3136SOL    HW210308   6.416   6.485   5.888
 3137SOL     OW10309   5.020   1.374   3.553
 3137SOL    HW110310   5.005   1.285   3.511
 3137SOL    HW210311   5.112   1.407   3.529
 3138SOL     OW10312   6.011   1.878   4.484
 3138SOL    HW110313   5.949   1.845   4.413
 3138SOL    HW210314   6.092   1.919   4.442
 3139SOL     OW10315   5.205   6.550   6.414
 3139SOL    HW110316   5.181   6.570   6.509
 3139SOL    HW210317   5.124   6.515   6.366
 3140SOL     OW10318   6.345   6.176   6.454
 3140SOL    HW110319   6.293   6.128   6.525
 3140SOL    HW210320   6.287   6.245   6.411
 3141SOL     OW10321   0.562   6.636   6.654
 3141SOL    HW110322   0.523   6.728   6.651
 3141SOL    HW210323   0.656   6.638   6.620
 3142SOL     OW10324   4.753   6.253   0.193
 3142SOL    HW110325   4.697   6.331   0.220
 3142SOL    HW210326   4.781   6.202   0.274
 3143SOL     OW10327   6.868   2.021   6.405
 3143SOL    HW110328   6.878   2.114   6.369
 3143SOL    HW210329   6.949   1.967   6.382
 3144SOL     OW10330   2.125   3.590   1.045
 3144SOL    HW110331   2.205   3.565   0.991
 3144SOL    HW210332   2.146   3.670   1.102
 3145SOL     OW10333   2.929   5.794   2.808
 3145SOL    HW110334   2.976   5.814   2.722
 3145SOL    HW210335   2.968   5.711   2.848
 3146SOL     OW10336   1.362   6.559   3.062
 3146SOL    HW110337   1.338   6.560   3.159
 3146SOL    HW210338   1.426   6.633   3.043
 3147SOL     OW10339   4.008   5.283   0.200
 3147SOL    HW110340   4.091   5.231   0.220
 3147SOL    HW210341   3.978   5.262   0.107
 3148SOL     OW10342   4.220   5.230   4.118
 3148SOL    HW110343   4.312   5.261   4.142
 3148SOL    HW210344   4.177   5.189   4.199
 3149SOL     OW10345   3.305   0.869   5.450
 3149SOL    HW110346   3.254   0.849   5.533
 3149SOL    HW210347   3.332   0.783   5.406
 3150SOL     OW10348   5.497   5.959   4.510
 3150SOL    HW110349   5.521   5.958   4.607
 3150SOL    HW210350   5.568   6.008   4.459
 3151SOL     OW10351   4.421   1.454   6.567
 3151SOL    HW110352   4.485   1.418   6.635
 3151SOL    HW210353   4.357   1.517   6.612
 3152SOL     OW10354   0.660   5.167   1.820
 3152SOL    HW110355   0.598   5.244   1.804
 3152SOL    HW210356   0.746   5.201   1.859
 3153SOL     OW10357   6.035   4.367   1.392
 3153SOL    HW110358   6.117   4.313   1.373
 3153SOL    HW210359   5.986   4.386   1.307
 3154SOL     OW10360   6.340   2.256   0.339
 3154SOL    HW110361   6.307   2.344   0.374
 3154SOL    HW210362   6.325   2.251   0.240
 3155SOL     OW10363   0.505   4.565   1.349
 3155SOL    HW110364   0.447   4.628   1.401
 3155SOL    HW210365   0.497   4.586   1.252
 3156SOL     OW10366   3.863   3.720   3.785
 3156SOL    HW110367   3.796   3.676   3.725
 3156SOL    HW210368   3.917   3.650   3.832
 3157SOL     OW10369   1.934   3.333   4.676
 3157SOL    HW110370   1.956   3.410   4.735
 3157SOL    HW210371   1.835   3.318   4.676
 3158SOL     OW10372   4.900   6.773   1.751
 3158SOL    HW110373   4.946   6.824   1.824
 3158SOL    HW210374   4.929   6.807   1.662
 3159SOL     OW10375   4.894   6.085   6.385
 3159SOL    HW110376   4.901   6.181   6.357
 3159SOL    HW210377   4.935   6.074   6.476
 3160SOL     OW10378   6.180   4.233   6.379
 3160SOL    HW110379   6.091   4.192   6.359
 3160SOL    HW210380   6.252   4.166   6.360
 3161SOL     OW10381   1.681   1.211   3.025
 3161SOL    HW110382   1.671   1.221   3.125
 3161SOL    HW210383   1.679   1.302   2.983
 3162SOL     OW10384   6.804   5.488   0.152
 3162SOL    HW110385   6.878   5.553   0.131
 3162SOL    HW210386   6.756   5.465   0.067
 3163SOL     OW10387   3.969   2.801   6.770
 3163SOL    HW110388   4.064   2.772   6.763
 3163SOL    HW210389   3.917   2.763   6.693
 3164SOL     OW10390   5.076   4.467   1.585
 3164SOL    HW110391   5.132   4.544   1.618
 3164SOL    HW210392   5.111   4.382   1.623
 3165SOL     OW10393   0.743   7.010   1.972
 3165SOL    HW110394   0.676   6.969   1.911
 3165SOL    HW210395   0.722   0.082   1.983
 3166SOL     OW10396   4.948   3.027   6.542
 3166SOL    HW110397   4.855   3.050   6.569
 3166SOL    HW210398   4.976   3.085   6.466
 3167SOL     OW10399   0.151   4.499   2.022
 3167SOL    HW110400   0.226   4.562   2.007
 3167SOL    HW210401   0.143   4.437   1.944
 3168SOL     OW10402   5.731   3.092   0.910
 3168SOL    HW110403   5.752   3.018   0.974
 3168SOL    HW210404   5.633   3.089   0.887
 3169SOL     OW10405   0.751   3.601   5.797
 3169SOL    HW110406   0.723   3.516   5.842
 3169SOL    HW210407   0.720   3.600   5.702
 3170SOL     OW10408   4.569   0.563   0.219
 3170SOL    HW110409   4.499   0.522   0.277
 3170SOL    HW210410   4.616   0.491   0.168
 3171SOL     OW10411   6.451   0.134   1.561
 3171SOL    HW110412   6.365   0.147   1.611
 3171SOL    HW210413   6.521   0.193   1.601
 3172SOL     OW10414   6.460   6.286   5.129
 3172SOL    HW110415   6.541   6.325   5.085
 3172SOL    HW210416   6.468   6.187   5.132
 3173SOL     OW10417   2.045   0.307   2.468
 3173SOL    HW110418   2.103   0.225   2.467
 3173SOL    HW210419   2.032   0.340   2.374
 3174SOL     OW10420   2.819   2.845   5.813
 3174SOL    HW110421   2.914   2.818   5.825
 3174SOL    HW210422   2.771   2.775   5.760
 3175SOL     OW10423   0.847   6.033   6.741
 3175SOL    HW110424   0.886   6.101   6.678
 3175SOL    HW210425   0.749   6.024   6.723
 3176SOL     OW10426   1.440   4.683   6.329
 3176SOL    HW110427   1.456   4.656   6.234
 3176SOL    HW210428   1.372   4.622   6.370
 3177SOL     OW10429   5.656   4.819   5.686
 3177SOL    HW110430   5.630   4.868   5.603
 3177SOL    HW210431   5.746   4.850   5.716
 3178SOL     OW10432   0.719   4.073   1.669
 3178SOL    HW110433   0.636   4.115   1.632
 3178SOL    HW210434   0.701   3.978   1.693
 3179SOL     OW10435   1.915   2.249   2.193
 3179SOL    HW110436   1.951   2.228   2.102
 3179SOL    HW210437   1.915   2.348   2.208
 3180SOL     OW10438   4.650   1.049   5.599
 3180SOL    HW110439   4.714   1.042   5.675
 3180SOL    HW210440   4.689   1.006   5.517
 3181SOL     OW10441   0.570   0.718   3.635
 3181SOL    HW110442   0.587   0.622   3.655
 3181SOL    HW210443   0.581   0.734   3.537
 3182SOL     OW10444   0.346   0.419   5.723
 3182SOL    HW110445   0.373   0.416   5.819
 3182SOL    HW210446   0.251   0.451   5.716
 3183SOL     OW10447   4.052   5.089   1.405
 3183SOL    HW110448   4.009   5.074   1.494
 3183SOL    HW210449   3.981   5.102   1.336
 3184SOL     OW10450   2.407   1.651   2.275
 3184SOL    HW110451   2.379   1.556   2.285
 3184SOL    HW210452   2.419   1.692   2.366
 3185SOL     OW10453   0.312   0.050   5.201
 3185SOL    HW110454   0.225   0.020   5.240
 3185SOL    HW210455   0.354   0.117   5.261
 3186SOL     OW10456   3.635   1.145   2.621
 3186SOL    HW110457   3.542   1.126   2.651
 3186SOL    HW210458   3.647   1.114   2.527
 3187SOL     OW10459   3.910   3.853   6.807
 3187SOL    HW110460   3.935   3.802   6.725
 3187SOL    HW210461   3.890   3.789   6.881
 3188SOL     OW10462   3.315   5.857   2.890
 3188SOL    HW110463   3.375   5.836   2.966
 3188SOL    HW210464   3.369   5.892   2.813
 3189SOL     OW10465   1.231   0.712   3.256
 3189SOL    HW110466   1.290   0.792   3.243
 3189SOL    HW210467   1.220   0.694   3.354
 3190SOL     OW10468   1.483   6.253   1.640
 3190SOL    HW110469   1.559   6.315   1.659
 3190SOL    HW210470   1.449   6.269   1.547
 3191SOL     OW10471   3.827   0.613   1.342
 3191SOL    HW110472   3.795   0.566   1.424
 3191SOL    HW210473   3.825   0.550   1.264
 3192SOL     OW10474   0.837   2.345   1.469
 3192SOL    HW110475   0.828   2.444   1.480
 3192SOL    HW210476   0.933   2.320   1.477
 3193SOL     OW10477   4.662   2.356   6.666
 3193SOL    HW110478   4.615   2.330   6.581
 3193SOL    HW210479   4.655   2.280   6.731
 3194SOL     OW10480   1.525   4.069   6.747
 3194SOL    HW110481   1.599   4.009   6.778
 3194SOL    HW210482   1.501   4.047   6.652
 3195SOL     OW10483   1.391   2.890   3.811
 3195SOL    HW110484   1.479   2.843   3.821
 3195SOL    HW210485   1.331   2.864   3.886
 3196SOL     OW10486   0.031   0.148   4.630
 3196SOL    HW110487   0.117   0.096   4.634
 3196SOL    HW210488   0.051   0.244   4.609
 3197SOL     OW10489   1.264   5.922   3.205
 3197SOL    HW110490   1.262   5.919   3.105
 3197SOL    HW210491   1.323   5.849   3.240
 3198SOL     OW10492   6.933   1.704   6.058
 3198SOL    HW110493   6.879   1.658   6.129
 3198SOL    HW210494   6.904   1.799   6.051
 3199SOL     OW10495   5.036   1.474   1.806
 3199SOL    HW110496   4.971   1.514   1.741
 3199SOL    HW210497   5.123   1.458   1.761
 3200SOL     OW10498   0.259   2.330   0.635
 3200SOL    HW110499   0.242   2.249   0.579
 3200SOL    HW210500   0.201   2.405   0.604
 3201SOL     OW10501   5.542   4.054   3.658
 3201SOL    HW110502   5.465   4.036   3.596
 3201SOL    HW210503   5.552   3.978   3.722
 3202SOL     OW10504   1.901   4.666   1.892
 3202SOL    HW110505   1.913   4.582   1.946
 3202SOL    HW210506   1.900   4.643   1.795
 3203SOL     OW10507   6.812   1.174   1.203
 3203SOL    HW110508   6.780   1.194   1.111
 3203SOL    HW210509   6.848   1.257   1.245
 3204SOL     OW10510   6.562   5.693   1.530
 3204SOL    HW110511   6.529   5.598   1.528
 3204SOL    HW210512   6.616   5.708   1.612
 3205SOL     OW10513   6.662   3.746   5.771
 3205SOL    HW110514   6.563   3.751   5.758
 3205SOL    HW210515   6.691   3.818   5.835
 3206SOL     OW10516   0.412   6.824   5.540
 3206SOL    HW110517   0.469   6.745   5.557
 3206SOL    HW210518   0.335   6.798   5.481
 3207SOL     OW10519   1.075   1.134   5.032
 3207SOL    HW110520   0.981   1.169   5.041
 3207SOL    HW210521   1.140   1.207   5.053
 3208SOL     OW10522   4.483   5.373   4.789
 3208SOL    HW110523   4.442   5.308   4.725
 3208SOL    HW210524   4.461   5.466   4.759
 3209SOL     OW10525   2.982   0.054   3.809
 3209SOL    HW110526   2.927   0.037   3.891
 3209SOL    HW210527   2.974   7.001   3.748
 3210SOL     OW10528   0.032   4.104   2.630
 3210SOL    HW110529   0.118   4.055   2.615
 3210SOL    HW210530   0.042   4.198   2.596
 3211SOL     OW10531   2.262   4.480   1.174
 3211SOL    HW110532   2.262   4.483   1.274
 3211SOL    HW210533   2.168   4.489   1.141
 3212SOL     OW10534   4.489   2.510   6.919
 3212SOL    HW110535   4.397   2.548   6.911
 3212SOL    HW210536   4.513   2.464   6.833
 3213SOL     OW10537   5.769   5.798   3.077
 3213SOL    HW110538   5.809   5.787   3.169
 3213SOL    HW210539   5.823   5.864   3.025
 3214SOL     OW10540   4.250   6.201   6.762
 3214SOL    HW110541   4.162   6.156   6.747
 3214SOL    HW210542   4.243   6.297   6.734
 3215SOL     OW10543   6.588   2.602   7.015
 3215SOL    HW110544   6.639   2.616   6.930
 3215SOL    HW210545   6.490   2.613   6.998
 3216SOL     OW10546   5.606   6.594   3.758
 3216SOL    HW110547   5.681   6.568   3.818
 3216SOL    HW210548   5.529   6.532   3.772
 3217SOL     OW10549   0.417   4.253   2.551
 3217SOL    HW110550   0.353   4.189   2.594
 3217SOL    HW210551   0.392   4.266   2.455
 3218SOL     OW10552   3.863   0.012   2.895
 3218SOL    HW110553   3.960   0.036   2.898
 3218SOL    HW210554   3.809   0.085   2.936
 3219SOL     OW10555   0.534   0.123   3.048
 3219SOL    HW110556   0.439   0.118   3.016
 3219SOL    HW210557   0.560   0.219   3.059
 3220SOL     OW10558   6.985   4.829   4.885
 3220SOL    HW110559   6.985   4.924   4.853
 3220SOL    HW210560   0.052   4.801   4.909
 3221SOL     OW10561   2.529   6.926   3.722
 3221SOL    HW110562   2.516   6.958   3.816
 3221SOL    HW210563   2.467   6.850   3.704
 3222SOL     OW10564   5.114   1.661   2.698
 3222SOL    HW110565   5.095   1.737   2.760
 3222SOL    HW210566   5.123   1.577   2.751
 3223SOL     OW10567   2.554   5.276   5.733
 3223SOL    HW110568   2.621   5.263   5.661
 3223SOL    HW210569   2.595   5.328   5.808
 3224SOL     OW10570   4.184   5.470   0.045
 3224SOL    HW110571   4.135   5.405   0.103
 3224SOL    HW210572   4.181   5.438   6.976
 3225SOL     OW10573   3.672   3.069   0.279
 3225SOL    HW110574   3.588   3.120   0.295
 3225SOL    HW210575   3.654   2.971   0.287
 3226SOL     OW10576   2.045   0.840   4.163
 3226SOL    HW110577   2.044   0.858   4.262
 3226SOL    HW210578   2.124   0.782   4.141
 3227SOL     OW10579   3.662   1.685   5.827
 3227SOL    HW110580   3.747   1.635   5.814
 3227SOL    HW210581   3.597   1.628   5.877
 3228SOL     OW10582   5.380   3.309   4.170
 3228SOL    HW110583   5.399   3.389   4.113
 3228SOL    HW210584   5.434   3.314   4.254
 3229SOL     OW10585   4.067   2.063   5.643
 3229SOL    HW110586   4.063   1.966   5.667
 3229SOL    HW210587   3.997   2.112   5.694
 3230SOL     OW10588   0.435   0.730   3.048
 3230SOL    HW110589   0.464   0.800   2.983
 3230SOL    HW210590   0.342   0.700   3.026
 3231SOL     OW10591   5.241   5.825   0.898
 3231SOL    HW110592   5.143   5.842   0.898
 3231SOL    HW210593   5.290   5.912   0.905
 3232SOL     OW10594   2.809   5.255   4.578
 3232SOL    HW110595   2.813   5.166   4.624
 3232SOL    HW210596   2.716   5.291   4.583
 3233SOL     OW10597   0.421   3.637   1.385
 3233SOL    HW110598   0.384   3.675   1.300
 3233SOL    HW210599   0.484   3.562   1.364
 3234SOL     OW10600   0.168   1.958   6.733
 3234SOL    HW110601   0.250   1.901   6.726
 3234SOL    HW210602   0.176   2.036   6.670
 3235SOL     OW10603   5.470   6.767   2.956
 3235SOL    HW110604   5.409   6.826   3.009
 3235SOL    HW210605   5.560   6.766   2.999
 3236SOL     OW10606   0.971   2.899   2.915
 3236SOL    HW110607   0.910   2.828   2.881
 3236SOL    HW210608   1.009   2.871   3.003
 3237SOL     OW10609   3.869   6.340   4.790
 3237SOL    HW110610   3.968   6.331   4.776
 3237SOL    HW210611   3.841   6.284   4.867
 3238SOL     OW10612   0.118   5.788   6.144
 3238SOL    HW110613   0.193   5.825   6.199
 3238SOL    HW210614   0.094   5.854   6.072
 3239SOL     OW10615   6.373   0.422   5.854
 3239SOL    HW110616   6.392   0.435   5.952
 3239SOL    HW210617   6.447   0.462   5.800
 3240SOL     OW10618   1.102   0.163   4.756
 3240SOL    HW110619   1.178   0.103   4.781
 3240SOL    HW210620   1.135   0.256   4.745
 3241SOL     OW10621   5.052   1.009   4.054
 3241SOL    HW110622   4.962   0.975   4.028
 3241SOL    HW210623   5.112   1.010   3.974
 3242SOL     OW10624   3.822   6.138   6.523
 3242SOL    HW110625   3.862   6.085   6.448
 3242SOL    HW210626   3.756   6.204   6.485
 3243SOL     OW10627   4.268   5.223   0.201
 3243SOL    HW110628   4.310   5.313   0.212
 3243SOL    HW210629   4.338   5.157   0.175
 3244SOL     OW10630   3.635   5.871   5.640
 3244SOL    HW110631   3.671   5.854   5.732
 3244SOL    HW210632   3.588   5.959   5.638
 3245SOL     OW10633   4.110   2.849   6.340
 3245SOL    HW110634   4.074   2.874   6.430
 3245SOL    HW210635   4.108   2.749   6.331
 3246SOL     OW10636   5.510   6.390   2.999
 3246SOL    HW110637   5.411   6.397   3.012
 3246SOL    HW210638   5.536   6.438   2.915
 3247SOL     OW10639   6.793   3.147   3.811
 3247SOL    HW110640   6.780   3.049   3.798
 3247SOL    HW210641   6.708   3.187   3.846
 3248SOL     OW10642   6.198   2.930   2.124
 3248SOL    HW110643   6.287   2.974   2.115
 3248SOL    HW210644   6.182   2.871   2.045
 3249SOL     OW10645   3.091   4.969   4.855
 3249SOL    HW110646   3.001   4.967   4.811
 3249SOL    HW210647   3.095   4.899   4.927
 3250SOL     OW10648   4.506   6.865   2.618
 3250SOL    HW110649   4.524   6.956   2.581
 3250SOL    HW210650   4.558   6.797   2.565
 3251SOL     OW10651   3.467   2.108   2.711
 3251SOL    HW110652   3.540   2.177   2.712
 3251SOL    HW210653   3.451   2.075   2.804
 3252SOL     OW10654   2.938   1.134   2.851
 3252SOL    HW110655   2.846   1.118   2.887
 3252SOL    HW210656   2.933   1.194   2.771
 3253SOL     OW10657   5.231   2.925   1.422
 3253SOL    HW110658   5.158   2.932   1.490
 3253SOL    HW210659   5.288   2.846   1.443
 3254SOL     OW10660   4.227   4.667   3.439
 3254SOL    HW110661   4.141   4.620   3.456
 3254SOL    HW210662   4.212   4.742   3.374
 3255SOL     OW10663   4.294   5.838   0.347
 3255SOL    HW110664   4.335   5.777   0.414
 3255SOL    HW210665   4.195   5.827   0.346
 3256SOL     OW10666   5.066   6.709   6.069
 3256SOL    HW110667   5.065   6.773   5.992
 3256SOL    HW210668   5.158   6.670   6.078
 3257SOL     OW10669   1.411   2.213   0.895
 3257SOL    HW110670   1.434   2.128   0.847
 3257SOL    HW210671   1.321   2.244   0.865
 3258SOL     OW10672   5.238   6.700   1.520
 3258SOL    HW110673   5.319   6.758   1.518
 3258SOL    HW210674   5.156   6.756   1.508
 3259SOL     OW10675   4.158   5.643   4.526
 3259SOL    HW110676   4.085   5.577   4.544
 3259SOL    HW210677   4.126   5.711   4.460
 3260SOL     OW10678   2.076   1.573   6.998
 3260SOL    HW110679   2.113   1.523   6.919
 3260SOL    HW210680   1.988   1.533   7.024
 3261SOL     OW10681   4.687   6.500   0.759
 3261SOL    HW110682   4.716   6.595   0.766
 3261SOL    HW210683   4.594   6.491   0.797
 3262SOL     OW10684   3.715   1.870   2.710
 3262SOL    HW110685   3.648   1.820   2.765
 3262SOL    HW210686   3.675   1.891   2.621
 3263SOL     OW10687   4.400   6.678   1.756
 3263SOL    HW110688   4.470   6.730   1.708
 3263SOL    HW210689   4.363   6.608   1.695
 3264SOL     OW10690   6.907   5.221   0.223
 3264SOL    HW110691   6.813   5.206   0.192
 3264SOL    HW210692   6.921   5.318   0.242
 3265SOL     OW10693   4.957   1.263   6.492
 3265SOL    HW110694   4.965   1.334   6.562
 3265SOL    HW210695   4.915   1.304   6.410
 3266SOL     OW10696   0.675   2.203   6.462
 3266SOL    HW110697   0.723   2.263   6.398
 3266SOL    HW210698   0.607   2.149   6.413
 3267SOL     OW10699   3.380   1.773   0.895
 3267SOL    HW110700   3.336   1.855   0.934
 3267SOL    HW210701   3.438   1.800   0.819
 3268SOL     OW10702   0.856   3.960   6.922
 3268SOL    HW110703   0.905   4.030   6.870
 3268SOL    HW210704   0.828   3.999   7.011
 3269SOL     OW10705   4.187   4.436   1.017
 3269SOL    HW110706   4.227   4.495   1.088
 3269SOL    HW210707   4.219   4.342   1.029
 3270SOL     OW10708   0.717   5.456   3.965
 3270SOL    HW110709   0.803   5.483   4.008
 3270SOL    HW210710   0.657   5.536   3.957
 3271SOL     OW10711   6.525   2.803   1.186
 3271SOL    HW110712   6.582   2.863   1.130
 3271SOL    HW210713   6.539   2.708   1.157
 3272SOL     OW10714   3.819   0.616   0.760
 3272SOL    HW110715   3.730   0.608   0.715
 3272SOL    HW210716   3.812   0.682   0.836
 3273SOL     OW10717   0.682   6.416   2.422
 3273SOL    HW110718   0.686   6.406   2.322
 3273SOL    HW210719   0.669   6.512   2.445
 3274SOL     OW10720   2.343   1.997   5.777
 3274SOL    HW110721   2.345   2.016   5.875
 3274SOL    HW210722   2.413   2.051   5.731
 3275SOL     OW10723   2.197   0.376   0.089
 3275SOL    HW110724   2.248   0.456   0.057
 3275SOL    HW210725   2.230   0.294   0.042
 3276SOL     OW10726   3.259   5.999   6.288
 3276SOL    HW110727   3.358   6.000   6.304
 3276SOL    HW210728   3.211   5.989   6.375
 3277SOL     OW10729   0.137   6.043   5.424
 3277SOL    HW110730   0.163   6.029   5.329
 3277SOL    HW210731   0.042   6.015   5.437
 3278SOL     OW10732   1.214   0.730   5.928
 3278SOL    HW110733   1.191   0.790   6.005
 3278SOL    HW210734   1.165   0.643   5.938
 3279SOL     OW10735   0.383   6.904   1.001
 3279SOL    HW110736   0.314   6.833   0.989
 3279SOL    HW210737   0.474   6.862   1.004
 3280SOL     OW10738   2.119   5.033   5.995
 3280SOL    HW110739   2.079   5.119   5.962
 3280SOL    HW210740   2.210   5.051   6.034
 3281SOL     OW10741   2.368   5.617   0.010
 3281SOL    HW110742   2.397   5.593   6.943
 3281SOL    HW210743   2.393   5.543   0.073
 3282SOL     OW10744   2.723   5.312   3.847
 3282SOL    HW110745   2.748   5.361   3.931
 3282SOL    HW210746   2.667   5.232   3.870
 3283SOL     OW10747   2.620   0.637   3.123
 3283SOL    HW110748   2.669   0.550   3.124
 3283SOL    HW210749   2.685   0.712   3.126
 3284SOL     OW10750   6.653   5.519   6.935
 3284SOL    HW110751   6.619   5.477   6.851
 3284SOL    HW210752   6.581   5.576   6.975
 3285SOL     OW10753   0.394   2.088   2.868
 3285SOL    HW110754   0.434   2.125   2.952
 3285SOL    HW210755   0.317   2.029   2.890
 3286SOL     OW10756   3.141   3.745   4.687
 3286SOL    HW110757   3.155   3.840   4.717
 3286SOL    HW210758   3.060   3.741   4.627
 3287SOL     OW10759   1.902   5.523   0.320
 3287SOL    HW110760   1.963   5.576   0.262
 3287SOL    HW210761   1.824   5.491   0.267
 3288SOL     OW10762   0.679   5.884   6.229
 3288SOL    HW110763   0.703   5.902   6.324
 3288SOL    HW210764   0.582   5.902   6.214
 3289SOL     OW10765   0.644   6.234   5.456
 3289SOL    HW110766   0.652   6.139   5.426
 3289SOL    HW210767   0.719   6.256   5.517
 3290SOL     OW10768   6.538   5.416   1.503
 3290SOL    HW110769   6.549   5.368   1.416
 3290SOL    HW210770   6.547   5.351   1.578
 3291SOL     OW10771   1.603   5.997   6.846
 3291SOL    HW110772   1.585   5.965   6.940
 3291SOL    HW210773   1.687   6.051   6.846
 3292SOL     OW10774   7.014   6.834   5.827
 3292SOL    HW110775   0.037   6.773   5.764
 3292SOL    HW210776   0.036   6.835   5.915
 3293SOL     OW10777   6.618   1.110   2.824
 3293SOL    HW110778   6.611   1.107   2.923
 3293SOL    HW210779   6.531   1.140   2.785
 3294SOL     OW10780   6.907   0.562   6.210
 3294SOL    HW110781   6.874   0.564   6.115
 3294SOL    HW210782   6.883   0.475   6.252
 3295SOL     OW10783   1.917   3.030   0.943
 3295SOL    HW110784   1.835   2.994   0.897
 3295SOL    HW210785   1.898   3.123   0.976
 3296SOL     OW10786   2.111   6.543   2.492
 3296SOL    HW110787   2.182   6.587   2.546
 3296SOL    HW210788   2.046   6.497   2.552
 3297SOL     OW10789   3.052   2.523   5.939
 3297SOL    HW110790   3.104   2.440   5.923
 3297SOL    HW210791   2.955   2.507   5.918
 3298SOL     OW10792   6.761   3.276   2.632
 3298SOL    HW110793   6.748   3.177   2.642
 3298SOL    HW210794   6.672   3.322   2.640
 3299SOL     OW10795   1.871   0.010   5.160
 3299SOL    HW110796   1.862   6.960   5.225
 3299SOL    HW210797   1.781   0.030   5.120
 3300SOL     OW10798   6.313   6.574   4.845
 3300SOL    HW110799   6.363   6.496   4.884
 3300SOL    HW210800   6.227   6.542   4.806
 3301SOL     OW10801   0.292   3.502   3.186
 3301SOL    HW110802   0.284   3.598   3.210
 3301SOL    HW210803   0.289   3.492   3.087
 3302SOL     OW10804   1.513   4.660   3.776
 3302SOL    HW110805   1.447   4.729   3.806
 3302SOL    HW210806   1.530   4.670   3.678
 3303SOL     OW10807   3.795   3.898   3.977
 3303SOL    HW110808   3.794   3.847   3.891
 3303SOL    HW210809   3.883   3.883   4.024
 3304SOL     OW10810   0.676   6.251   4.167
 3304SOL    HW110811   0.651   6.345   4.143
 3304SOL    HW210812   0.700   6.246   4.264
 3305SOL     OW10813   1.870   1.110   2.390
 3305SOL    HW110814   1.840   1.073   2.478
 3305SOL    HW210815   1.798   1.170   2.353
 3306SOL     OW10816   2.181   4.078   3.311
 3306SOL    HW110817   2.244   4.057   3.386
 3306SOL    HW210818   2.114   4.145   3.341
 3307SOL     OW10819   6.459   5.884   0.596
 3307SOL    HW110820   6.429   5.912   0.505
 3307SOL    HW210821   6.447   5.785   0.605
 3308SOL     OW10822   4.983   5.890   0.867
 3308SOL    HW110823   5.001   5.988   0.860
 3308SOL    HW210824   4.898   5.875   0.918
 3309SOL     OW10825   0.401   5.126   3.348
 3309SOL    HW110826   0.493   5.164   3.338
 3309SOL    HW210827   0.355   5.128   3.260
 3310SOL     OW10828   0.647   5.025   3.007
 3310SOL    HW110829   0.676   4.967   2.931
 3310SOL    HW210830   0.716   5.094   3.024
 3311SOL     OW10831   4.386   6.781   1.125
 3311SOL    HW110832   4.395   6.743   1.217
 3311SOL    HW210833   4.408   6.711   1.058
 3312SOL     OW10834   3.461   3.483   6.116
 3312SOL    HW110835   3.537   3.438   6.164
 3312SOL    HW210836   3.419   3.550   6.177
 3313SOL     OW10837   0.409   5.111   3.779
 3313SOL    HW110838   0.312   5.135   3.791
 3313SOL    HW210839   0.458   5.131   3.864
 3314SOL     OW10840   1.866   3.603   5.515
 3314SOL    HW110841   1.920   3.534   5.467
 3314SOL    HW210842   1.819   3.661   5.448
 3315SOL     OW10843   6.947   2.057   3.649
 3315SOL    HW110844   7.022   1.991   3.639
 3315SOL    HW210845   6.944   2.117   3.569
 3316SOL     OW10846   4.876   2.275   6.290
 3316SOL    HW110847   4.956   2.305   6.238
 3316SOL    HW210848   4.849   2.184   6.260
 3317SOL     OW10849   4.304   2.552   1.131
 3317SOL    HW110850   4.243   2.557   1.051
 3317SOL    HW210851   4.360   2.634   1.135
 3318SOL     OW10852   2.457   5.863   5.072
 3318SOL    HW110853   2.511   5.782   5.046
 3318SOL    HW210854   2.416   5.848   5.162
 3319SOL     OW10855   0.991   6.033   4.478
 3319SOL    HW110856   0.974   6.043   4.380
 3319SOL    HW210857   1.086   6.059   4.497
 3320SOL     OW10858   6.022   1.020   5.537
 3320SOL    HW110859   6.009   0.972   5.451
 3320SOL    HW210860   6.111   0.996   5.576
 3321SOL     OW10861   3.116   3.135   3.240
 3321SOL    HW110862   3.179   3.112   3.314
 3321SOL    HW210863   3.043   3.193   3.275
 3322SOL     OW10864   4.122   1.901   0.861
 3322SOL    HW110865   4.157   1.940   0.776
 3322SOL    HW210866   4.199   1.862   0.913
 3323SOL     OW10867   2.112   4.820   6.816
 3323SOL    HW110868   2.086   4.833   6.911
 3323SOL    HW210869   2.176   4.744   6.809
 3324SOL     OW10870   0.880   3.276   0.323
 3324SOL    HW110871   0.951   3.335   0.283
 3324SOL    HW210872   0.840   3.322   0.402
 3325SOL     OW10873   1.669   2.682   0.933
 3325SOL    HW110874   1.618   2.600   0.908
 3325SOL    HW210875   1.717   2.668   1.019
 3326SOL     OW10876   6.484   1.651   0.861
 3326SOL    HW110877   6.439   1.663   0.950
 3326SOL    HW210878   6.449   1.719   0.796
 3327SOL     OW10879   3.195   6.446   2.085
 3327SOL    HW110880   3.218   6.353   2.114
 3327SOL    HW210881   3.257   6.511   2.128
 3328SOL     OW10882   4.955   0.831   2.102
 3328SOL    HW110883   4.874   0.779   2.131
 3328SOL    HW210884   4.962   0.913   2.158
 3329SOL     OW10885   4.702   0.907   5.365
 3329SOL    HW110886   4.647   0.885   5.285
 3329SOL    HW210887   4.795   0.872   5.353
 3330SOL     OW10888   5.840   6.490   2.237
 3330SOL    HW110889   5.844   6.586   2.212
 3330SOL    HW210890   5.889   6.476   2.323
 3331SOL     OW10891   2.107   3.335   3.045
 3331SOL    HW110892   2.153   3.331   3.134
 3331SOL    HW210893   2.038   3.262   3.040
 3332SOL     OW10894   4.162   5.544   0.473
 3332SOL    HW110895   4.122   5.457   0.504
 3332SOL    HW210896   4.208   5.589   0.549
 3333SOL     OW10897   4.014   3.731   1.595
 3333SOL    HW110898   4.001   3.820   1.553
 3333SOL    HW210899   3.974   3.660   1.537
 3334SOL     OW10900   1.807   2.119   2.654
 3334SOL    HW110901   1.850   2.123   2.744
 3334SOL    HW210902   1.816   2.208   2.609
 3335SOL     OW10903   3.858   4.221   5.117
 3335SOL    HW110904   3.834   4.263   5.030
 3335SOL    HW210905   3.778   4.174   5.155
 3336SOL     OW10906   4.265   6.392   3.682
 3336SOL    HW110907   4.268   6.427   3.588
 3336SOL    HW210908   4.309   6.303   3.686
 3337SOL     OW10909   3.132   3.991   3.094
 3337SOL    HW110910   3.077   4.074   3.105
 3337SOL    HW210911   3.090   3.931   3.026
 3338SOL     OW10912   2.150   1.183   1.914
 3338SOL    HW110913   2.103   1.270   1.926
 3338SOL    HW210914   2.211   1.189   1.835
 3339SOL     OW10915   2.470   0.734   6.019
 3339SOL    HW110916   2.509   0.649   5.985
 3339SOL    HW210917   2.460   0.730   6.119
 3340SOL     OW10918   4.218   1.147   4.222
 3340SOL    HW110919   4.158   1.080   4.266
 3340SOL    HW210920   4.196   1.153   4.125
 3341SOL     OW10921   2.529   4.647   2.799
 3341SOL    HW110922   2.566   4.608   2.884
 3341SOL    HW210923   2.471   4.579   2.754
 3342SOL     OW10924   6.513   0.209   3.036
 3342SOL    HW110925   6.590   0.161   3.078
 3342SOL    HW210926   6.472   0.152   2.965
 3343SOL     OW10927   4.915   5.531   6.414
 3343SOL    HW110928   4.950   5.614   6.372
 3343SOL    HW210929   4.860   5.554   6.495
 3344SOL     OW10930   6.962   2.961   1.583
 3344SOL    HW110931   6.942   3.014   1.500
 3344SOL    HW210932   6.922   3.008   1.662
 3345SOL     OW10933   0.058   4.928   0.583
 3345SOL    HW110934   7.020   5.004   0.572
 3345SOL    HW210935   0.110   4.915   0.498
 3346SOL     OW10936   1.935   1.053   7.024
 3346SOL    HW110937   1.953   0.987   6.951
 3346SOL    HW210938   2.016   1.061   0.057
 3347SOL     OW10939   0.904   3.147   6.146
 3347SOL    HW110940   0.971   3.185   6.209
 3347SOL    HW210941   0.853   3.074   6.190
 3348SOL     OW10942   3.946   3.920   6.002
 3348SOL    HW110943   3.955   4.016   5.977
 3348SOL    HW210944   4.036   3.877   6.002
 3349SOL     OW10945   2.798   4.800   3.599
 3349SOL    HW110946   2.867   4.864   3.565
 3349SOL    HW210947   2.759   4.748   3.523
 3350SOL     OW10948   0.106   4.065   5.299
 3350SOL    HW110949   0.181   3.999   5.290
 3350SOL    HW210950   0.143   4.153   5.332
 3351SOL     OW10951   5.349   1.223   0.715
 3351SOL    HW110952   5.369   1.207   0.618
 3351SOL    HW210953   5.381   1.314   0.741
 3352SOL     OW10954   5.253   3.041   6.272
 3352SOL    HW110955   5.237   3.114   6.207
 3352SOL    HW210956   5.270   3.080   6.363
 3353SOL     OW10957   3.000   1.270   1.869
 3353SOL    HW110958   3.064   1.337   1.907
 3353SOL    HW210959   3.044   1.222   1.793
 3354SOL     OW10960   3.718   2.969   6.043
 3354SOL    HW110961   3.694   3.065   6.027
 3354SOL    HW210962   3.643   2.924   6.093
 3355SOL     OW10963   2.318   0.554   4.893
 3355SOL    HW110964   2.398   0.612   4.910
 3355SOL    HW210965   2.341   0.486   4.824
 3356SOL     OW10966   1.579   6.984   5.526
 3356SOL    HW110967   1.599   6.899   5.476
 3356SOL    HW210968   1.511   6.965   5.597
 3357SOL     OW10969   3.606   3.302   1.529
 3357SOL    HW110970   3.689   3.337   1.571
 3357SOL    HW210971   3.557   3.376   1.485
 3358SOL     OW10972   6.394   0.514   2.606
 3358SOL    HW110973   6.336   0.454   2.660
 3358SOL    HW210974   6.351   0.604   2.597
 3359SOL     OW10975   6.599   5.380   3.881
 3359SOL    HW110976   6.680   5.439   3.883
 3359SOL    HW210977   6.627   5.284   3.888
 3360SOL     OW10978   7.025   2.892   5.424
 3360SOL    HW110979   0.082   2.856   5.381
 3360SOL    HW210980   0.004   2.992   5.427
 3361SOL     OW10981   0.283   0.574   4.605
 3361SOL    HW110982   0.289   0.539   4.699
 3361SOL    HW210983   0.356   0.534   4.550
 3362SOL     OW10984   3.753   1.609   3.901
 3362SOL    HW110985   3.757   1.559   3.987
 3362SOL    HW210986   3.814   1.688   3.906
 3363SOL     OW10987   5.892   3.359   1.585
 3363SOL    HW110988   5.853   3.303   1.658
 3363SOL    HW210989   5.970   3.312   1.543
 3364SOL     OW10990   2.272   4.204   3.096
 3364SOL    HW110991   2.242   4.152   3.177
 3364SOL    HW210992   2.198   4.264   3.066
 3365SOL     OW10993   2.065   3.525   4.456
 3365SOL    HW110994   2.072   3.552   4.552
 3365SOL    HW210995   1.982   3.471   4.442
 3366SOL     OW10996   6.053   3.643   4.095
 3366SOL    HW110997   6.117   3.580   4.139
 3366SOL    HW210998   5.976   3.662   4.156
 3367SOL     OW10999   3.888   3.067   4.479
 3367SOL    HW111000   3.947   3.126   4.424
 3367SOL    HW211001   3.915   3.073   4.575
 3368SOL     OW11002   1.795   5.914   0.270
 3368SOL    HW111003   1.869   5.851   0.246
 3368SOL    HW211004   1.726   5.914   0.197
 3369SOL     OW11005   4.079   2.504   0.982
 3369SOL    HW111006   3.994   2.521   0.933
 3369SOL    HW211007   4.062   2.501   1.080
 3370SOL     OW11008   0.517   5.487   2.024
 3370SOL    HW111009   0.573   5.411   2.059
 3370SOL    HW211010   0.422   5.472   2.050
 3371SOL     OW11011   2.465   2.471   3.122
 3371SOL    HW111012   2.436   2.558   3.161
 3371SOL    HW211013   2.522   2.422   3.189
 3372SOL     OW11014   6.418   3.141   1.321
 3372SOL    HW111015   6.353   3.210   1.352
 3372SOL    HW211016   6.370   3.055   1.304
 3373SOL     OW11017   0.213   2.127   1.171
 3373SOL    HW111018   0.313   2.129   1.172
 3373SOL    HW211019   0.177   2.184   1.245
 3374SOL     OW11020   0.477   0.448   3.716
 3374SOL    HW111021   0.400   0.457   3.778
 3374SOL    HW211022   0.549   0.393   3.758
 3375SOL     OW11023   6.843   4.906   6.479
 3375SOL    HW111024   6.827   4.845   6.557
 3375SOL    HW211025   6.906   4.862   6.415
 3376SOL     OW11026   2.450   3.438   5.592
 3376SOL    HW111027   2.517   3.511   5.583
 3376SOL    HW211028   2.379   3.465   5.657
 3377SOL     OW11029   5.814   4.388   3.003
 3377SOL    HW111030   5.806   4.289   2.991
 3377SOL    HW211031   5.907   4.411   3.034
 3378SOL     OW11032   1.229   6.508   6.920
 3378SOL    HW111033   1.314   6.526   6.970
 3378SOL    HW211034   1.173   6.443   6.972
 3379SOL     OW11035   0.454   3.903   3.811
 3379SOL    HW111036   0.501   3.991   3.822
 3379SOL    HW211037   0.506   3.845   3.748
 3380SOL     OW11038   3.920   4.232   6.027
 3380SOL    HW111039   4.018   4.250   6.038
 3380SOL    HW211040   3.894   4.247   5.932
 3381SOL     OW11041   1.659   3.474   1.270
 3381SOL    HW111042   1.716   3.417   1.211
 3381SOL    HW211043   1.683   3.570   1.258
 3382SOL     OW11044   6.887   2.365   1.003
 3382SOL    HW111045   6.914   2.270   1.017
 3382SOL    HW211046   6.788   2.371   0.998
 3383SOL     OW11047   5.246   5.059   0.061
 3383SOL    HW111048   5.283   5.119   7.016
 3383SOL    HW211049   5.287   5.082   0.149
 3384SOL     OW11050   2.347   4.285   0.647
 3384SOL    HW111051   2.426   4.259   0.702
 3384SOL    HW211052   2.315   4.206   0.595
 3385SOL     OW11053   0.503   2.089   3.153
 3385SOL    HW111054   0.423   2.076   3.211
 3385SOL    HW211055   0.584   2.055   3.201
 3386SOL     OW11056   6.589   4.895   6.636
 3386SOL    HW111057   6.624   4.920   6.726
 3386SOL    HW211058   6.554   4.801   6.638
 3387SOL     OW11059   6.475   0.254   3.418
 3387SOL    HW111060   6.465   0.166   3.465
 3387SOL    HW211061   6.463   0.240   3.320
 3388SOL     OW11062   6.129   2.922   1.751
 3388SOL    HW111063   6.169   2.830   1.757
 3388SOL    HW211064   6.041   2.917   1.704
 3389SOL     OW11065   6.183   5.893   0.750
 3389SOL    HW111066   6.192   5.943   0.836
 3389SOL    HW211067   6.264   5.909   0.693
 3390SOL     OW11068   4.035   6.448   6.053
 3390SOL    HW111069   4.028   6.520   5.985
 3390SOL    HW211070   3.967   6.462   6.124
 3391SOL     OW11071   5.494   2.734   3.357
 3391SOL    HW111072   5.421   2.689   3.407
 3391SOL    HW211073   5.474   2.730   3.259
 3392SOL     OW11074   4.300   6.929   5.847
 3392SOL    HW111075   4.263   6.936   5.940
 3392SOL    HW211076   4.235   6.968   5.782
 3393SOL     OW11077   5.414   6.606   1.314
 3393SOL    HW111078   5.429   6.677   1.245
 3393SOL    HW211079   5.345   6.638   1.379
 3394SOL     OW11080   2.900   5.628   1.673
 3394SOL    HW111081   2.939   5.682   1.748
 3394SOL    HW211082   2.846   5.687   1.613
 3395SOL     OW11083   4.103   0.319   3.037
 3395SOL    HW111084   4.054   0.310   2.951
 3395SOL    HW211085   4.127   0.415   3.052
 3396SOL     OW11086   4.265   1.750   3.953
 3396SOL    HW111087   4.289   1.836   3.998
 3396SOL    HW211088   4.228   1.686   4.021
 3397SOL     OW11089   2.431   5.783   6.700
 3397SOL    HW111090   2.412   5.776   6.602
 3397SOL    HW211091   2.457   5.693   6.735
 3398SOL     OW11092   6.964   2.061   4.818
 3398SOL    HW111093   6.961   2.094   4.913
 3398SOL    HW211094   6.916   1.973   4.812
 3399SOL     OW11095   0.109   4.875   2.591
 3399SOL    HW111096   0.130   4.870   2.688
 3399SOL    HW211097   0.161   4.804   2.542
 3400SOL     OW11098   5.905   2.182   5.667
 3400SOL    HW111099   5.928   2.216   5.757
 3400SOL    HW211100   5.923   2.083   5.663
 3401SOL     OW11101   6.950   3.484   5.278
 3401SOL    HW111102   6.866   3.508   5.326
 3401SOL    HW211103   0.003   3.504   5.337
 3402SOL     OW11104   0.054   4.311   1.406
 3402SOL    HW111105   0.055   4.218   1.368
 3402SOL    HW211106   7.003   4.362   1.366
 3403SOL     OW11107   4.094   6.657   6.727
 3403SOL    HW111108   4.015   6.706   6.765
 3403SOL    HW211109   4.062   6.590   6.660
 3404SOL     OW11110   5.467   3.456   5.223
 3404SOL    HW111111   5.507   3.544   5.246
 3404SOL    HW211112   5.524   3.409   5.155
 3405SOL     OW11113   5.810   6.167   5.794
 3405SOL    HW111114   5.876   6.242   5.781
 3405SOL    HW211115   5.860   6.083   5.816
 3406SOL     OW11116   2.083   3.940   1.693
 3406SOL    HW111117   2.171   3.987   1.686
 3406SOL    HW211118   2.051   3.943   1.788
 3407SOL     OW11119   1.773   3.864   0.335
 3407SOL    HW111120   1.807   3.871   0.429
 3407SOL    HW211121   1.846   3.833   0.275
 3408SOL     OW11122   4.913   2.455   3.962
 3408SOL    HW111123   4.989   2.441   3.899
 3408SOL    HW211124   4.886   2.368   4.003
 3409SOL     OW11125   4.664   0.932   0.600
 3409SOL    HW111126   4.743   0.977   0.558
 3409SOL    HW211127   4.617   0.997   0.661
 3410SOL     OW11128   5.253   0.329   2.198
 3410SOL    HW111129   5.235   0.235   2.226
 3410SOL    HW211130   5.166   0.373   2.172
 3411SOL     OW11131   6.866   2.249   0.445
 3411SOL    HW111132   6.785   2.306   0.434
 3411SOL    HW211133   6.941   2.286   0.390
 3412SOL     OW11134   5.748   3.216   1.747
 3412SOL    HW111135   5.653   3.244   1.741
 3412SOL    HW211136   5.765   3.174   1.836
 3413SOL     OW11137   0.263   1.975   5.832
 3413SOL    HW111138   0.207   2.052   5.863
 3413SOL    HW211139   0.259   1.901   5.900
 3414SOL     OW11140   3.846   3.126   0.911
 3414SOL    HW111141   3.917   3.191   0.887
 3414SOL    HW211142   3.756   3.170   0.906
 3415SOL     OW11143   2.113   2.632   5.233
 3415SOL    HW111144   2.038   2.689   5.198
 3415SOL    HW211145   2.200   2.667   5.197
 3416SOL     OW11146   6.227   0.180   6.420
 3416SOL    HW111147   6.261   0.122   6.494
 3416SOL    HW211148   6.265   0.272   6.430
 3417SOL     OW11149   6.631   6.492   2.981
 3417SOL    HW111150   6.689   6.557   3.030
 3417SOL    HW211151   6.685   6.447   2.910
 3418SOL     OW11152   4.777   4.845   1.452
 3418SOL    HW111153   4.840   4.837   1.530
 3418SOL    HW211154   4.818   4.802   1.372
 3419SOL     OW11155   3.043   6.165   5.875
 3419SOL    HW111156   3.017   6.261   5.880
 3419SOL    HW211157   3.058   6.140   5.779
 3420SOL     OW11158   4.252   2.374   3.922
 3420SOL    HW111159   4.189   2.345   3.994
 3420SOL    HW211160   4.236   2.318   3.840
 3421SOL     OW11161   5.365   2.201   3.201
 3421SOL    HW111162   5.438   2.266   3.184
 3421SOL    HW211163   5.384   2.150   3.284
 3422SOL     OW11164   1.899   6.985   1.160
 3422SOL    HW111165   1.981   6.943   1.199
 3422SOL    HW211166   1.821   6.971   1.221
 3423SOL     OW11167   1.002   4.628   5.509
 3423SOL    HW111168   0.926   4.654   5.450
 3423SOL    HW211169   0.969   4.617   5.603
 3424SOL     OW11170   4.889   0.160   1.549
 3424SOL    HW111171   4.977   0.154   1.597
 3424SOL    HW211172   4.816   0.178   1.616
 3425SOL     OW11173   5.799   4.303   1.531
 3425SOL    HW111174   5.713   4.327   1.484
 3425SOL    HW211175   5.875   4.353   1.490
 3426SOL     OW11176   5.562   3.483   6.975
 3426SOL    HW111177   5.581   3.563   6.917
 3426SOL    HW211178   5.620   3.487   0.031
 3427SOL     OW11179   1.090   2.645   0.379
 3427SOL    HW111180   1.134   2.583   0.445
 3427SOL    HW211181   1.103   2.739   0.408
 3428SOL     OW11182   5.407   6.191   5.629
 3428SOL    HW111183   5.336   6.181   5.699
 3428SOL    HW211184   5.408   6.110   5.570
 3429SOL     OW11185   6.978   0.609   1.499
 3429SOL    HW111186   7.000   0.563   1.413
 3429SOL    HW211187   6.897   0.567   1.540
 3430SOL     OW11188   2.171   4.900   5.558
 3430SOL    HW111189   2.139   4.884   5.465
 3430SOL    HW211190   2.247   4.965   5.557
 3431SOL     OW11191   2.395   5.901   2.661
 3431SOL    HW111192   2.461   5.975   2.671
 3431SOL    HW211193   2.438   5.824   2.616
 3432SOL     OW11194   2.175   4.242   0.960
 3432SOL    HW111195   2.269   4.271   0.939
 3432SOL    HW211196   2.153   4.267   1.054
 3433SOL     OW11197   2.449   0.964   6.468
 3433SOL    HW111198   2.402   1.034   6.522
 3433SOL    HW211199   2.474   1.001   6.379
 3434SOL     OW11200   2.750   1.989   1.526
 3434SOL    HW111201   2.837   2.036   1.540
 3434SOL    HW211202   2.742   1.961   1.431
 3435SOL     OW11203   2.197   0.758   0.202
 3435SOL    HW111204   2.112   0.724   0.241
 3435SOL    HW211205   2.251   0.682   0.167
 3436SOL     OW11206   3.120   6.125   0.386
 3436SOL    HW111207   3.122   6.183   0.304
 3436SOL    HW211208   3.027   6.126   0.424
 3437SOL     OW11209   1.173   6.412   6.671
 3437SOL    HW111210   1.273   6.403   6.670
 3437SOL    HW211211   1.144   6.446   6.760
 3438SOL     OW11212   1.196   4.116   1.324
 3438SOL    HW111213   1.234   4.024   1.322
 3438SOL    HW211214   1.099   4.112   1.349
 3439SOL     OW11215   2.122   5.584   2.128
 3439SOL    HW111216   2.162   5.500   2.164
 3439SOL    HW211217   2.024   5.585   2.145
 3440SOL     OW11218   4.092   3.687   4.508
 3440SOL    HW111219   4.056   3.603   4.549
 3440SOL    HW211220   4.093   3.678   4.409
 3441SOL     OW11221   5.868   5.630   5.627
 3441SOL    HW111222   5.915   5.685   5.559
 3441SOL    HW211223   5.830   5.689   5.698
 3442SOL     OW11224   3.780   3.082   1.189
 3442SOL    HW111225   3.799   2.997   1.239
 3442SOL    HW211226   3.838   3.087   1.108
 3443SOL     OW11227   2.132   6.107   2.159
 3443SOL    HW111228   2.096   6.031   2.212
 3443SOL    HW211229   2.107   6.193   2.203
 3444SOL     OW11230   5.747   3.670   1.288
 3444SOL    HW111231   5.736   3.710   1.379
 3444SOL    HW211232   5.753   3.743   1.220
 3445SOL     OW11233   6.384   4.306   3.217
 3445SOL    HW111234   6.343   4.257   3.294
 3445SOL    HW211235   6.475   4.267   3.198
 3446SOL     OW11236   5.011   1.067   1.242
 3446SOL    HW111237   5.023   1.010   1.323
 3446SOL    HW211238   4.951   1.021   1.177
 3447SOL     OW11239   4.928   0.819   0.243
 3447SOL    HW111240   4.834   0.843   0.218
 3447SOL    HW211241   4.938   0.719   0.244
 3448SOL     OW11242   1.599   6.012   4.706
 3448SOL    HW111243   1.512   6.041   4.747
 3448SOL    HW211244   1.613   5.915   4.721
 3449SOL     OW11245   6.234   4.141   5.539
 3449SOL    HW111246   6.199   4.130   5.632
 3449SOL    HW211247   6.240   4.051   5.495
 3450SOL     OW11248   1.156   6.001   0.543
 3450SOL    HW111249   1.175   5.956   0.631
 3450SOL    HW211250   1.207   5.954   0.471
 3451SOL     OW11251   2.199   6.881   1.169
 3451SOL    HW111252   2.264   6.824   1.118
 3451SOL    HW211253   2.165   6.829   1.247
 3452SOL     OW11254   4.853   0.407   5.672
 3452SOL    HW111255   4.949   0.384   5.687
 3452SOL    HW211256   4.819   0.358   5.592
 3453SOL     OW11257   5.011   6.411   5.572
 3453SOL    HW111258   5.011   6.449   5.664
 3453SOL    HW211259   5.106   6.394   5.543
 3454SOL     OW11260   1.119   2.863   2.061
 3454SOL    HW111261   1.181   2.932   2.098
 3454SOL    HW211262   1.039   2.855   2.122
 3455SOL     OW11263   1.163   3.599   6.038
 3455SOL    HW111264   1.096   3.672   6.026
 3455SOL    HW211265   1.229   3.603   5.963
 3456SOL     OW11266   5.064   3.993   2.303
 3456SOL    HW111267   4.988   3.947   2.256
 3456SOL    HW211268   5.144   3.995   2.243
 3457SOL     OW11269   3.852   5.657   5.292
 3457SOL    HW111270   3.922   5.593   5.324
 3457SOL    HW211271   3.833   5.639   5.195
 3458SOL     OW11272   4.445   1.652   3.005
 3458SOL    HW111273   4.494   1.608   2.929
 3458SOL    HW211274   4.498   1.642   3.089
 3459SOL     OW11275   4.107   0.239   3.421
 3459SOL    HW111276   4.170   0.290   3.480
 3459SOL    HW211277   4.159   0.189   3.352
 3460SOL     OW11278   4.128   1.968   5.393
 3460SOL    HW111279   4.107   2.001   5.485
 3460SOL    HW211280   4.072   2.017   5.327
 3461SOL     OW11281   5.743   4.884   6.386
 3461SOL    HW111282   5.699   4.833   6.459
 3461SOL    HW211283   5.742   4.830   6.301
 3462SOL     OW11284   2.304   3.987   6.715
 3462SOL    HW111285   2.290   3.933   6.632
 3462SOL    HW211286   2.358   3.934   6.781
 3463SOL     OW11287   6.231   4.187   1.292
 3463SOL    HW111288   6.157   4.135   1.250
 3463SOL    HW211289   6.279   4.239   1.221
 3464SOL     OW11290   0.272   4.512   6.274
 3464SOL    HW111291   0.289   4.599   6.227
 3464SOL    HW211292   0.200   4.462   6.227
 3465SOL     OW11293   1.941   0.561   1.741
 3465SOL    HW111294   1.974   0.481   1.792
 3465SOL    HW211295   1.843   0.552   1.724
 3466SOL     OW11296   6.497   3.948   5.238
 3466SOL    HW111297   6.568   4.014   5.262
 3466SOL    HW211298   6.417   3.995   5.202
 3467SOL     OW11299   1.875   2.080   6.420
 3467SOL    HW111300   1.916   2.010   6.478
 3467SOL    HW211301   1.871   2.167   6.469
 3468SOL     OW11302   3.233   0.476   3.924
 3468SOL    HW111303   3.308   0.466   3.858
 3468SOL    HW211304   3.215   0.573   3.941
 3469SOL     OW11305   5.770   2.534   3.220
 3469SOL    HW111306   5.855   2.482   3.230
 3469SOL    HW211307   5.793   2.628   3.192
 3470SOL     OW11308   6.982   5.727   1.088
 3470SOL    HW111309   7.013   5.822   1.096
 3470SOL    HW211310   6.971   5.703   0.992
 3471SOL     OW11311   4.080   6.044   5.292
 3471SOL    HW111312   4.019   5.998   5.357
 3471SOL    HW211313   4.148   5.979   5.259
 3472SOL     OW11314   2.794   1.215   5.517
 3472SOL    HW111315   2.808   1.142   5.583
 3472SOL    HW211316   2.817   1.183   5.425
 3473SOL     OW11317   5.287   0.997   6.241
 3473SOL    HW111318   5.363   0.937   6.216
 3473SOL    HW211319   5.298   1.085   6.193
 3474SOL     OW11320   4.254   5.252   1.499
 3474SOL    HW111321   4.189   5.197   1.447
 3474SOL    HW211322   4.210   5.337   1.529
 3475SOL     OW11323   1.516   6.132   4.420
 3475SOL    HW111324   1.555   6.050   4.462
 3475SOL    HW211325   1.569   6.212   4.447
 3476SOL     OW11326   4.695   0.933   4.510
 3476SOL    HW111327   4.678   0.880   4.593
 3476SOL    HW211328   4.614   0.986   4.487
 3477SOL     OW11329   3.591   6.008   0.985
 3477SOL    HW111330   3.651   6.011   1.065
 3477SOL    HW211331   3.615   6.082   0.922
 3478SOL     OW11332   3.508   5.371   0.060
 3478SOL    HW111333   3.536   5.312   0.136
 3478SOL    HW211334   3.563   5.454   0.061
 3479SOL     OW11335   1.027   0.377   1.643
 3479SOL    HW111336   1.085   0.361   1.564
 3479SOL    HW211337   0.936   0.339   1.627
 3480SOL     OW11338   0.439   1.333   3.199
 3480SOL    HW111339   0.486   1.398   3.258
 3480SOL    HW211340   0.452   1.359   3.103
 3481SOL     OW11341   2.315   6.476   6.938
 3481SOL    HW111342   2.404   6.499   6.977
 3481SOL    HW211343   2.274   6.558   6.898
 3482SOL     OW11344   0.616   2.425   0.178
 3482SOL    HW111345   0.707   2.389   0.159
 3482SOL    HW211346   0.550   2.384   0.114
 3483SOL     OW11347   2.723   0.219   1.204
 3483SOL    HW111348   2.765   0.148   1.147
 3483SOL    HW211349   2.681   0.289   1.146
 3484SOL     OW11350   4.088   3.825   3.661
 3484SOL    HW111351   4.002   3.780   3.685
 3484SOL    HW211352   4.074   3.880   3.579
 3485SOL     OW11353   1.151   2.813   4.864
 3485SOL    HW111354   1.176   2.909   4.869
 3485SOL    HW211355   1.168   2.779   4.771
 3486SOL     OW11356   4.592   1.987   1.855
 3486SOL    HW111357   4.580   1.889   1.846
 3486SOL    HW211358   4.505   2.030   1.879
 3487SOL     OW11359   6.186   1.462   6.536
 3487SOL    HW111360   6.098   1.424   6.565
 3487SOL    HW211361   6.227   1.401   6.468
 3488SOL     OW11362   5.395   3.129   3.633
 3488SOL    HW111363   5.464   3.116   3.563
 3488SOL    HW211364   5.333   3.203   3.605
 3489SOL     OW11365   3.439   0.653   1.434
 3489SOL    HW111366   3.379   0.719   1.388
 3489SOL    HW211367   3.496   0.606   1.367
 3490SOL     OW11368   4.474   3.988   0.277
 3490SOL    HW111369   4.433   3.955   0.192
 3490SOL    HW211370   4.414   3.966   0.354
 3491SOL     OW11371   0.281   3.075   5.127
 3491SOL    HW111372   0.323   3.096   5.215
 3491SOL    HW211373   0.231   3.155   5.094
 3492SOL     OW11374   6.600   4.567   6.870
 3492SOL    HW111375   6.687   4.611   6.849
 3492SOL    HW211376   6.615   4.469   6.885
 3493SOL     OW11377   6.272   4.374   0.756
 3493SOL    HW111378   6.369   4.372   0.729
 3493SOL    HW211379   6.215   4.366   0.674
 3494SOL     OW11380   3.180   0.401   1.170
 3494SOL    HW111381   3.165   0.470   1.241
 3494SOL    HW211382   3.184   0.310   1.213
 3495SOL     OW11383   4.448   4.914   1.328
 3495SOL    HW111384   4.480   4.899   1.234
 3495SOL    HW211385   4.527   4.930   1.388
 3496SOL     OW11386   2.099   2.609   0.935
 3496SOL    HW111387   2.043   2.585   0.856
 3496SOL    HW211388   2.192   2.632   0.905
 3497SOL     OW11389   4.416   0.694   3.858
 3497SOL    HW111390   4.357   0.645   3.794
 3497SOL    HW211391   4.481   0.630   3.899
 3498SOL     OW11392   2.348   1.644   1.838
 3498SOL    HW111393   2.408   1.564   1.843
 3498SOL    HW211394   2.401   1.726   1.858
 3499SOL     OW11395   6.609   2.966   4.419
 3499SOL    HW111396   6.614   3.014   4.332
 3499SOL    HW211397   6.683   2.899   4.425
 3500SOL     OW11398   6.001   3.965   6.945
 3500SOL    HW111399   6.063   4.040   6.967
 3500SOL    HW211400   6.019   3.933   6.852
 3501SOL     OW11401   1.837   4.704   4.629
 3501SOL    HW111402   1.789   4.618   4.650
 3501SOL    HW211403   1.919   4.684   4.575
 3502SOL     OW11404   1.211   2.505   1.297
 3502SOL    HW111405   1.219   2.424   1.239
 3502SOL    HW211406   1.224   2.587   1.242
 3503SOL     OW11407   5.025   5.978   5.169
 3503SOL    HW111408   5.034   6.050   5.100
 3503SOL    HW211409   4.994   5.894   5.125
 3504SOL     OW11410   2.299   3.213   1.753
 3504SOL    HW111411   2.295   3.303   1.798
 3504SOL    HW211412   2.394   3.192   1.730
 3505SOL     OW11413   5.298   5.635   5.911
 3505SOL    HW111414   5.275   5.549   5.956
 3505SOL    HW211415   5.278   5.628   5.813
 3506SOL     OW11416   4.648   5.529   3.198
 3506SOL    HW111417   4.603   5.539   3.286
 3506SOL    HW211418   4.665   5.620   3.159
 3507SOL     OW11419   0.690   0.171   6.346
 3507SOL    HW111420   0.728   0.246   6.292
 3507SOL    HW211421   0.601   0.199   6.383
 3508SOL     OW11422   5.688   3.831   0.224
 3508SOL    HW111423   5.603   3.785   0.250
 3508SOL    HW211424   5.733   3.868   0.305
 3509SOL     OW11425   6.429   6.448   0.116
 3509SOL    HW111426   6.455   6.521   0.179
 3509SOL    HW211427   6.510   6.399   0.086
 3510SOL     OW11428   2.325   2.358   2.129
 3510SOL    HW111429   2.247   2.411   2.097
 3510SOL    HW211430   2.292   2.272   2.168
 3511SOL     OW11431   0.620   1.938   6.941
 3511SOL    HW111432   0.693   2.007   6.936
 3511SOL    HW211433   0.648   1.865   7.003
 3512SOL     OW11434   2.538   2.960   0.970
 3512SOL    HW111435   2.449   3.001   0.954
 3512SOL    HW211436   2.592   2.963   0.886
 3513SOL     OW11437   6.687   4.337   1.060
 3513SOL    HW111438   6.632   4.418   1.037
 3513SOL    HW211439   6.637   4.281   1.126
 3514SOL     OW11440   0.680   6.015   1.052
 3514SOL    HW111441   0.628   5.965   0.983
 3514SOL    HW211442   0.674   5.967   1.140
 3515SOL     OW11443   3.353   6.482   3.296
 3515SOL    HW111444   3.386   6.457   3.387
 3515SOL    HW211445   3.357   6.581   3.285
 3516SOL     OW11446   3.233   1.136   0.919
 3516SOL    HW111447   3.141   1.174   0.931
 3516SOL    HW211448   3.281   1.189   0.849
 3517SOL     OW11449   1.326   1.404   6.591
 3517SOL    HW111450   1.387   1.413   6.512
 3517SOL    HW211451   1.239   1.364   6.561
 3518SOL     OW11452   4.217   2.987   5.909
 3518SOL    HW111453   4.260   3.068   5.868
 3518SOL    HW211454   4.131   3.013   5.953
 3519SOL     OW11455   2.240   6.564   6.426
 3519SOL    HW111456   2.272   6.507   6.502
 3519SOL    HW211457   2.166   6.624   6.458
 3520SOL     OW11458   3.460   5.592   1.043
 3520SOL    HW111459   3.501   5.640   0.965
 3520SOL    HW211460   3.433   5.659   1.112
 3521SOL     OW11461   6.196   2.647   1.494
 3521SOL    HW111462   6.183   2.588   1.414
 3521SOL    HW211463   6.248   2.729   1.467
 3522SOL     OW11464   3.521   4.945   2.363
 3522SOL    HW111465   3.478   4.969   2.276
 3522SOL    HW211466   3.614   4.911   2.346
 3523SOL     OW11467   2.239   4.656   4.790
 3523SOL    HW111468   2.278   4.704   4.869
 3523SOL    HW211469   2.311   4.607   4.741
 3524SOL     OW11470   2.614   0.391   1.015
 3524SOL    HW111471   2.693   0.446   1.041
 3524SOL    HW211472   2.630   0.350   0.925
 3525SOL     OW11473   0.658   3.224   2.441
 3525SOL    HW111474   0.671   3.195   2.346
 3525SOL    HW211475   0.577   3.179   2.479
 3526SOL     OW11476   1.424   0.821   2.504
 3526SOL    HW111477   1.324   0.825   2.509
 3526SOL    HW211478   1.454   0.728   2.527
 3527SOL     OW11479   5.173   3.161   6.022
 3527SOL    HW111480   5.133   3.129   5.936
 3527SOL    HW211481   5.142   3.255   6.040
 3528SOL     OW11482   0.517   6.336   4.568
 3528SOL    HW111483   0.530   6.426   4.609
 3528SOL    HW211484   0.605   6.298   4.540
 3529SOL     OW11485   4.158   5.990   5.945
 3529SOL    HW111486   4.102   5.951   6.018
 3529SOL    HW211487   4.130   5.951   5.857
 3530SOL     OW11488   2.438   5.386   3.052
 3530SOL    HW111489   2.442   5.437   3.137
 3530SOL    HW211490   2.386   5.438   2.984
 3531SOL     OW11491   5.704   4.094   0.127
 3531SOL    HW111492   5.704   3.998   0.153
 3531SOL    HW211493   5.612   4.132   0.136
 3532SOL     OW11494   2.035   0.018   0.049
 3532SOL    HW111495   2.124   0.060   0.063
 3532SOL    HW211496   1.967   0.090   0.031
 3533SOL     OW11497   0.816   1.421   3.520
 3533SOL    HW111498   0.845   1.348   3.459
 3533SOL    HW211499   0.893   1.482   3.539
 3534SOL     OW11500   4.878   0.959   4.746
 3534SOL    HW111501   4.783   0.973   4.719
 3534SOL    HW211502   4.932   1.040   4.722
 3535SOL     OW11503   5.227   5.189   6.310
 3535SOL    HW111504   5.310   5.235   6.278
 3535SOL    HW211505   5.146   5.237   6.274
 3536SOL     OW11506   1.596   3.706   2.838
 3536SOL    HW111507   1.690   3.676   2.855
 3536SOL    HW211508   1.590   3.805   2.846
 3537SOL     OW11509   2.067   5.239   1.050
 3537SOL    HW111510   1.969   5.219   1.058
 3537SOL    HW211511   2.113   5.162   1.004
 3538SOL     OW11512   2.727   0.642   3.735
 3538SOL    HW111513   2.813   0.635   3.787
 3538SOL    HW211514   2.729   0.725   3.680
 3539SOL     OW11515   4.820   5.076   5.875
 3539SOL    HW111516   4.918   5.056   5.879
 3539SOL    HW211517   4.793   5.096   5.780
 3540SOL     OW11518   3.450   3.325   0.111
 3540SOL    HW111519   3.492   3.330   0.202
 3540SOL    HW211520   3.401   3.410   0.092
 3541SOL     OW11521   3.342   2.141   0.818
 3541SOL    HW111522   3.440   2.126   0.808
 3541SOL    HW211523   3.310   2.097   0.901
 3542SOL     OW11524   5.752   2.248   6.078
 3542SOL    HW111525   5.845   2.220   6.102
 3542SOL    HW211526   5.689   2.174   6.099
 3543SOL     OW11527   1.321   2.794   3.566
 3543SOL    HW111528   1.396   2.811   3.502
 3543SOL    HW211529   1.348   2.823   3.658
 3544SOL     OW11530   2.744   4.581   5.857
 3544SOL    HW111531   2.695   4.507   5.810
 3544SOL    HW211532   2.757   4.556   5.953
 3545SOL     OW11533   3.614   0.143   0.892
 3545SOL    HW111534   3.524   0.101   0.907
 3545SOL    HW211535   3.602   0.241   0.873
 3546SOL     OW11536   0.124   3.319   3.288
 3546SOL    HW111537   0.050   3.377   3.320
 3546SOL    HW211538   0.196   3.375   3.247
 3547SOL     OW11539   0.061   3.571   5.988
 3547SOL    HW111540   0.061   3.557   6.087
 3547SOL    HW211541   0.110   3.496   5.944
 3548SOL     OW11542   5.772   0.538   5.233
 3548SOL    HW111543   5.844   0.606   5.243
 3548SOL    HW211544   5.810   0.452   5.199
 3549SOL     OW11545   2.668   5.956   6.230
 3549SOL    HW111546   2.645   5.860   6.212
 3549SOL    HW211547   2.640   5.980   6.323
 3550SOL     OW11548   5.134   1.148   5.269
 3550SOL    HW111549   5.131   1.208   5.188
 3550SOL    HW211550   5.204   1.078   5.255
 3551SOL     OW11551   4.213   1.950   4.661
 3551SOL    HW111552   4.227   2.049   4.673
 3551SOL    HW211553   4.258   1.902   4.737
 3552SOL     OW11554   0.300   6.145   3.001
 3552SOL    HW111555   0.311   6.208   3.078
 3552SOL    HW211556   0.251   6.064   3.033
 3553SOL     OW11557   4.125   5.431   6.808
 3553SOL    HW111558   4.171   5.342   6.805
 3553SOL    HW211559   4.058   5.437   6.733
 3554SOL     OW11560   4.888   3.267   1.601
 3554SOL    HW111561   4.911   3.232   1.691
 3554SOL    HW211562   4.845   3.357   1.609
 3555SOL     OW11563   2.688   2.083   4.661
 3555SOL    HW111564   2.649   2.120   4.746
 3555SOL    HW211565   2.772   2.033   4.683
 3556SOL     OW11566   4.496   0.880   5.920
 3556SOL    HW111567   4.478   0.975   5.896
 3556SOL    HW211568   4.577   0.874   5.978
 3557SOL     OW11569   6.437   1.439   1.302
 3557SOL    HW111570   6.473   1.348   1.281
 3557SOL    HW211571   6.343   1.446   1.268
 3558SOL     OW11572   3.281   6.658   1.505
 3558SOL    HW111573   3.189   6.653   1.467
 3558SOL    HW211574   3.331   6.733   1.461
 3559SOL     OW11575   3.781   6.086   4.572
 3559SOL    HW111576   3.727   6.057   4.493
 3559SOL    HW211577   3.753   6.178   4.599
 3560SOL     OW11578   2.243   6.040   4.459
 3560SOL    HW111579   2.254   6.130   4.415
 3560SOL    HW211580   2.267   5.968   4.394
 3561SOL     OW11581   4.681   4.181   5.302
 3561SOL    HW111582   4.628   4.096   5.297
 3561SOL    HW211583   4.671   4.221   5.393
 3562SOL     OW11584   2.212   1.392   5.649
 3562SOL    HW111585   2.279   1.375   5.721
 3562SOL    HW211586   2.121   1.371   5.682
 3563SOL     OW11587   5.759   2.459   5.276
 3563SOL    HW111588   5.809   2.463   5.190
 3563SOL    HW211589   5.819   2.425   5.348
 3564SOL     OW11590   6.615   4.453   2.010
 3564SOL    HW111591   6.661   4.505   2.082
 3564SOL    HW211592   6.609   4.357   2.037
 3565SOL     OW11593   3.780   5.577   3.494
 3565SOL    HW111594   3.834   5.579   3.410
 3565SOL    HW211595   3.740   5.487   3.506
 3566SOL     OW11596   0.493   1.470   5.624
 3566SOL    HW111597   0.406   1.482   5.672
 3566SOL    HW211598   0.512   1.550   5.568
 3567SOL     OW11599   0.470   4.801   6.472
 3567SOL    HW111600   0.451   4.885   6.421
 3567SOL    HW211601   0.390   4.741   6.467
 3568SOL     OW11602   6.397   3.844   5.820
 3568SOL    HW111603   6.450   3.830   5.904
 3568SOL    HW211604   6.308   3.800   5.830
 3569SOL     OW11605   1.875   2.136   5.307
 3569SOL    HW111606   1.892   2.143   5.208
 3569SOL    HW211607   1.778   2.152   5.324
 3570SOL     OW11608   6.260   1.417   4.047
 3570SOL    HW111609   6.259   1.516   4.061
 3570SOL    HW211610   6.168   1.386   4.023
 3571SOL     OW11611   6.213   5.565   6.498
 3571SOL    HW111612   6.195   5.543   6.594
 3571SOL    HW211613   6.257   5.654   6.492
 3572SOL     OW11614   5.761   3.921   4.635
 3572SOL    HW111615   5.848   3.923   4.584
 3572SOL    HW211616   5.754   3.835   4.685
 3573SOL     OW11617   1.372   3.139   3.452
 3573SOL    HW111618   1.447   3.075   3.438
 3573SOL    HW211619   1.404   3.232   3.436
 3574SOL     OW11620   0.288   4.294   0.457
 3574SOL    HW111621   0.213   4.232   0.435
 3574SOL    HW211622   0.330   4.327   0.372
 3575SOL     OW11623   6.311   5.403   2.624
 3575SOL    HW111624   6.358   5.490   2.614
 3575SOL    HW211625   6.301   5.382   2.722
 3576SOL     OW11626   0.779   1.378   6.045
 3576SOL    HW111627   0.770   1.282   6.072
 3576SOL    HW211628   0.759   1.386   5.947
 3577SOL     OW11629   0.637   2.628   6.641
 3577SOL    HW111630   0.682   2.634   6.730
 3577SOL    HW211631   0.578   2.708   6.627
 3578SOL     OW11632   3.010   4.782   0.446
 3578SOL    HW111633   3.023   4.880   0.432
 3578SOL    HW211634   3.043   4.756   0.537
 3579SOL     OW11635   6.640   3.702   4.649
 3579SOL    HW111636   6.621   3.794   4.682
 3579SOL    HW211637   6.637   3.638   4.726
 3580SOL     OW11638   6.309   1.702   2.203
 3580SOL    HW111639   6.307   1.800   2.226
 3580SOL    HW211640   6.379   1.686   2.133
 3581SOL     OW11641   0.149   0.163   2.451
 3581SOL    HW111642   0.211   0.085   2.458
 3581SOL    HW211643   0.171   0.229   2.522
 3582SOL     OW11644   1.079   0.419   5.686
 3582SOL    HW111645   1.158   0.415   5.625
 3582SOL    HW211646   1.043   0.327   5.700
 3583SOL     OW11647   0.740   5.031   0.031
 3583SOL    HW111648   0.720   4.991   6.967
 3583SOL    HW211649   0.655   5.049   0.080
 3584SOL     OW11650   5.168   6.197   6.768
 3584SOL    HW111651   5.108   6.262   6.816
 3584SOL    HW211652   5.263   6.224   6.782
 3585SOL     OW11653   3.674   4.916   4.407
 3585SOL    HW111654   3.697   4.842   4.343
 3585SOL    HW211655   3.575   4.915   4.425
 3586SOL     OW11656   6.510   3.544   5.919
 3586SOL    HW111657   6.591   3.494   5.888
 3586SOL    HW211658   6.429   3.509   5.871
 3587SOL     OW11659   3.541   6.634   0.334
 3587SOL    HW111660   3.480   6.712   0.344
 3587SOL    HW211661   3.489   6.549   0.342
 3588SOL     OW11662   1.197   2.607   6.169
 3588SOL    HW111663   1.260   2.543   6.213
 3588SOL    HW211664   1.224   2.621   6.074
 3589SOL     OW11665   2.899   0.831   5.382
 3589SOL    HW111666   2.995   0.852   5.400
 3589SOL    HW211667   2.855   0.909   5.338
 3590SOL     OW11668   1.565   5.413   5.922
 3590SOL    HW111669   1.602   5.332   5.878
 3590SOL    HW211670   1.502   5.386   5.996
 3591SOL     OW11671   5.195   2.485   5.894
 3591SOL    HW111672   5.138   2.565   5.874
 3591SOL    HW211673   5.290   2.513   5.903
 3592SOL     OW11674   5.185   2.730   2.977
 3592SOL    HW111675   5.098   2.704   2.935
 3592SOL    HW211676   5.197   2.829   2.972
 3593SOL     OW11677   1.704   6.578   3.787
 3593SOL    HW111678   1.618   6.628   3.780
 3593SOL    HW211679   1.705   6.525   3.871
 3594SOL     OW11680   2.446   1.132   3.534
 3594SOL    HW111681   2.519   1.109   3.470
 3594SOL    HW211682   2.400   1.048   3.563
 3595SOL     OW11683   2.726   6.461   6.254
 3595SOL    HW111684   2.668   6.379   6.258
 3595SOL    HW211685   2.669   6.540   6.230
 3596SOL     OW11686   6.415   0.786   2.282
 3596SOL    HW111687   6.358   0.743   2.213
 3596SOL    HW211688   6.424   0.884   2.263
 3597SOL     OW11689   4.050   5.853   4.371
 3597SOL    HW111690   4.046   5.827   4.275
 3597SOL    HW211691   3.961   5.885   4.401
 3598SOL     OW11692   0.771   6.638   5.898
 3598SOL    HW111693   0.689   6.593   5.931
 3598SOL    HW211694   0.838   6.569   5.869
 3599SOL     OW11695   6.756   2.162   5.049
 3599SOL    HW111696   6.748   2.168   5.148
 3599SOL    HW211697   6.758   2.254   5.010
 3600SOL     OW11698   6.094   2.992   1.103
 3600SOL    HW111699   6.002   2.972   1.070
 3600SOL    HW211700   6.096   2.984   1.203
 3601SOL     OW11701   0.149   3.880   0.352
 3601SOL    HW111702   0.214   3.836   0.413
 3601SOL    HW211703   0.087   3.812   0.314
 3602SOL     OW11704   2.145   1.019   0.154
 3602SOL    HW111705   2.172   0.930   0.192
 3602SOL    HW211706   2.227   1.071   0.131
 3603SOL     OW11707   4.198   5.026   3.838
 3603SOL    HW111708   4.188   5.118   3.874
 3603SOL    HW211709   4.269   5.025   3.767
 3604SOL     OW11710   0.149   2.448   2.743
 3604SOL    HW111711   0.069   2.409   2.789
 3604SOL    HW211712   0.128   2.462   2.646
 3605SOL     OW11713   5.864   3.960   6.487
 3605SOL    HW111714   5.909   3.929   6.571
 3605SOL    HW211715   5.775   3.999   6.510
 3606SOL     OW11716   6.773   4.618   5.664
 3606SOL    HW111717   6.861   4.574   5.680
 3606SOL    HW211718   6.776   4.712   5.697
 3607SOL     OW11719   5.300   0.384   0.715
 3607SOL    HW111720   5.251   0.298   0.721
 3607SOL    HW211721   5.236   0.459   0.698
 3608SOL     OW11722   0.744   2.139   1.620
 3608SOL    HW111723   0.790   2.214   1.572
 3608SOL    HW211724   0.647   2.161   1.629
 3609SOL     OW11725   6.612   0.706   4.726
 3609SOL    HW111726   6.706   0.731   4.747
 3609SOL    HW211727   6.551   0.782   4.749
 3610SOL     OW11728   0.888   6.490   5.589
 3610SOL    HW111729   0.968   6.547   5.607
 3610SOL    HW211730   0.912   6.394   5.604
 3611SOL     OW11731   3.567   5.397   5.108
 3611SOL    HW111732   3.494   5.413   5.174
 3611SOL    HW211733   3.632   5.473   5.111
 3612SOL     OW11734   1.042   6.342   0.010
 3612SOL    HW111735   1.072   6.246   0.008
 3612SOL    HW211736   0.980   6.356   0.086
 3613SOL     OW11737   5.224   4.977   0.731
 3613SOL    HW111738   5.306   4.937   0.689
 3613SOL    HW211739   5.175   4.906   0.782
 3614SOL     OW11740   4.052   3.836   3.254
 3614SOL    HW111741   4.070   3.739   3.237
 3614SOL    HW211742   4.139   3.886   3.259
 3615SOL     OW11743   6.112   5.497   5.529
 3615SOL    HW111744   6.069   5.510   5.618
 3615SOL    HW211745   6.088   5.572   5.468
 3616SOL     OW11746   6.717   2.416   5.764
 3616SOL    HW111747   6.708   2.327   5.809
 3616SOL    HW211748   6.764   2.479   5.825
 3617SOL     OW11749   6.206   2.362   6.292
 3617SOL    HW111750   6.210   2.345   6.391
 3617SOL    HW211751   6.293   2.336   6.251
 3618SOL     OW11752   1.737   1.931   5.855
 3618SOL    HW111753   1.801   1.960   5.784
 3618SOL    HW211754   1.787   1.881   5.926
 3619SOL     OW11755   5.863   2.220   3.772
 3619SOL    HW111756   5.911   2.290   3.825
 3619SOL    HW211757   5.916   2.198   3.690
 3620SOL     OW11758   5.834   0.494   5.621
 3620SOL    HW111759   5.875   0.406   5.593
 3620SOL    HW211760   5.902   0.548   5.671
 3621SOL     OW11761   2.654   2.700   5.692
 3621SOL    HW111762   2.588   2.629   5.667
 3621SOL    HW211763   2.608   2.789   5.689
 3622SOL     OW11764   0.615   1.368   2.905
 3622SOL    HW111765   0.586   1.332   2.816
 3622SOL    HW211766   0.662   1.455   2.892
 3623SOL     OW11767   5.539   5.300   3.680
 3623SOL    HW111768   5.518   5.390   3.720
 3623SOL    HW211769   5.631   5.272   3.707
 3624SOL     OW11770   2.364   6.684   3.377
 3624SOL    HW111771   2.283   6.728   3.338
 3624SOL    HW211772   2.373   6.591   3.342
 3625SOL     OW11773   6.223   3.454   5.862
 3625SOL    HW111774   6.140   3.465   5.808
 3625SOL    HW211775   6.200   3.456   5.959
 3626SOL     OW11776   2.111   3.521   5.036
 3626SOL    HW111777   2.154   3.480   5.116
 3626SOL    HW211778   2.138   3.617   5.028
 3627SOL     OW11779   3.879   4.050   3.306
 3627SOL    HW111780   3.920   3.960   3.291
 3627SOL    HW211781   3.940   4.120   3.271
 3628SOL     OW11782   2.383   5.805   1.921
 3628SOL    HW111783   2.311   5.762   1.867
 3628SOL    HW211784   2.436   5.735   1.968
 3629SOL     OW11785   6.225   1.922   5.423
 3629SOL    HW111786   6.260   1.933   5.330
 3629SOL    HW211787   6.199   2.012   5.459
 3630SOL     OW11788   5.733   2.192   5.017
 3630SOL    HW111789   5.662   2.132   4.983
 3630SOL    HW211790   5.790   2.143   5.083
 3631SOL     OW11791   2.697   0.069   4.348
 3631SOL    HW111792   2.696   6.997   4.328
 3631SOL    HW211793   2.791   0.101   4.357
 3632SOL     OW11794   5.222   0.550   1.107
 3632SOL    HW111795   5.201   0.642   1.139
 3632SOL    HW211796   5.310   0.520   1.145
 3633SOL     OW11797   2.575   2.418   5.606
 3633SOL    HW111798   2.557   2.369   5.521
 3633SOL    HW211799   2.671   2.404   5.633
 3634SOL     OW11800   1.695   6.607   4.623
 3634SOL    HW111801   1.696   6.607   4.723
 3634SOL    HW211802   1.761   6.675   4.590
 3635SOL     OW11803   2.675   1.708   4.794
 3635SOL    HW111804   2.712   1.722   4.702
 3635SOL    HW211805   2.606   1.636   4.791
 3636SOL     OW11806   0.277   5.573   6.022
 3636SOL    HW111807   0.346   5.543   6.088
 3636SOL    HW211808   0.230   5.654   6.057
 3637SOL     OW11809   5.725   2.105   1.384
 3637SOL    HW111810   5.715   2.123   1.482
 3637SOL    HW211811   5.710   2.008   1.367
 3638SOL     OW11812   6.637   4.342   4.562
 3638SOL    HW111813   6.717   4.283   4.560
 3638SOL    HW211814   6.593   4.341   4.472
 3639SOL     OW11815   3.610   4.253   1.297
 3639SOL    HW111816   3.704   4.241   1.328
 3639SOL    HW211817   3.548   4.242   1.375
 3640SOL     OW11818   3.497   6.196   0.314
 3640SOL    HW111819   3.570   6.224   0.252
 3640SOL    HW211820   3.475   6.099   0.298
 3641SOL     OW11821   3.511   1.223   4.650
 3641SOL    HW111822   3.573   1.241   4.574
 3641SOL    HW211823   3.534   1.135   4.692
 3642SOL     OW11824   4.469   1.172   5.775
 3642SOL    HW111825   4.519   1.113   5.711
 3642SOL    HW211826   4.494   1.267   5.758
 3643SOL     OW11827   3.038   5.617   4.580
 3643SOL    HW111828   3.064   5.582   4.670
 3643SOL    HW211829   3.037   5.542   4.515
 3644SOL     OW11830   6.988   2.437   1.231
 3644SOL    HW111831   6.931   2.413   1.310
 3644SOL    HW211832   6.938   2.419   1.147
 3645SOL     OW11833   5.367   1.738   3.774
 3645SOL    HW111834   5.448   1.680   3.779
 3645SOL    HW211835   5.291   1.694   3.821
 3646SOL     OW11836   0.063   4.946   5.191
 3646SOL    HW111837   0.035   4.897   5.108
 3646SOL    HW211838   0.078   5.042   5.169
 3647SOL     OW11839   0.994   3.346   7.012
 3647SOL    HW111840   1.001   3.404   0.068
 3647SOL    HW211841   1.086   3.333   6.974
 3648SOL     OW11842   4.261   5.456   2.657
 3648SOL    HW111843   4.350   5.419   2.631
 3648SOL    HW211844   4.194   5.383   2.665
 3649SOL     OW11845   4.538   3.704   0.752
 3649SOL    HW111846   4.517   3.629   0.690
 3649SOL    HW211847   4.472   3.704   0.828
 3650SOL     OW11848   6.279   6.361   0.927
 3650SOL    HW111849   6.281   6.452   0.968
 3650SOL    HW211850   6.358   6.350   0.867
 3651SOL     OW11851   0.802   6.103   2.274
 3651SOL    HW111852   0.802   6.186   2.330
 3651SOL    HW211853   0.765   6.123   2.184
 3652SOL     OW11854   5.058   6.640   3.768
 3652SOL    HW111855   4.995   6.676   3.698
 3652SOL    HW211856   5.148   6.626   3.727
 3653SOL     OW11857   5.980   1.220   3.256
 3653SOL    HW111858   5.884   1.238   3.277
 3653SOL    HW211859   6.030   1.306   3.251
 3654SOL     OW11860   2.305   6.566   0.443
 3654SOL    HW111861   2.306   6.648   0.500
 3654SOL    HW211862   2.210   6.540   0.423
 3655SOL     OW11863   1.497   0.005   4.310
 3655SOL    HW111864   1.454   0.050   4.389
 3655SOL    HW211865   1.575   0.060   4.279
 3656SOL     OW11866   1.857   2.208   1.915
 3656SOL    HW111867   1.879   2.288   1.860
 3656SOL    HW211868   1.759   2.209   1.938
 3657SOL     OW11869   3.999   5.813   6.821
 3657SOL    HW111870   3.923   5.761   6.859
 3657SOL    HW211871   4.067   5.751   6.783
 3658SOL     OW11872   1.148   5.600   5.113
 3658SOL    HW111873   1.083   5.575   5.041
 3658SOL    HW211874   1.105   5.585   5.202
 3659SOL     OW11875   3.275   4.677   6.955
 3659SOL    HW111876   3.250   4.602   6.894
 3659SOL    HW211877   3.374   4.676   6.969
 3660SOL     OW11878   4.636   6.206   2.511
 3660SOL    HW111879   4.615   6.170   2.420
 3660SOL    HW211880   4.557   6.255   2.546
 3661SOL     OW11881   5.315   2.497   6.887
 3661SOL    HW111882   5.220   2.512   6.859
 3661SOL    HW211883   5.351   2.416   6.841
 3662SOL     OW11884   3.618   0.012   5.144
 3662SOL    HW111885   3.545   0.024   5.076
 3662SOL    HW211886   3.705   0.043   5.106
 3663SOL     OW11887   1.545   1.354   0.476
 3663SOL    HW111888   1.516   1.265   0.442
 3663SOL    HW211889   1.583   1.344   0.568
 3664SOL     OW11890   4.735   1.559   0.227
 3664SOL    HW111891   4.798   1.618   0.278
 3664SOL    HW211892   4.783   1.477   0.196
 3665SOL     OW11893   0.742   6.026   5.232
 3665SOL    HW111894   0.773   5.932   5.243
 3665SOL    HW211895   0.642   6.029   5.231
 3666SOL     OW11896   1.605   4.391   3.692
 3666SOL    HW111897   1.510   4.359   3.694
 3666SOL    HW211898   1.612   4.477   3.742
 3667SOL     OW11899   5.945   0.718   6.839
 3667SOL    HW111900   5.924   0.660   6.760
 3667SOL    HW211901   5.903   0.808   6.826
 3668SOL     OW11902   1.287   6.732   2.816
 3668SOL    HW111903   1.347   6.653   2.801
 3668SOL    HW211904   1.213   6.707   2.878
 3669SOL     OW11905   5.988   1.704   4.247
 3669SOL    HW111906   6.036   1.638   4.306
 3669SOL    HW211907   6.048   1.733   4.173
 3670SOL     OW11908   2.273   5.180   0.097
 3670SOL    HW111909   2.278   5.130   0.183
 3670SOL    HW211910   2.179   5.176   0.062
 3671SOL     OW11911   6.595   0.455   3.061
 3671SOL    HW111912   6.540   0.374   3.038
 3671SOL    HW211913   6.682   0.426   3.098
 3672SOL     OW11914   6.067   1.887   0.268
 3672SOL    HW111915   6.041   1.970   0.317
 3672SOL    HW211916   6.006   1.812   0.295
 3673SOL     OW11917   3.867   1.147   6.259
 3673SOL    HW111918   3.937   1.089   6.216
 3673SOL    HW211919   3.859   1.124   6.355
 3674SOL     OW11920   0.396   6.645   6.900
 3674SOL    HW111921   0.413   6.610   6.808
 3674SOL    HW211922   0.446   6.589   6.966
 3675SOL     OW11923   1.503   2.582   5.415
 3675SOL    HW111924   1.451   2.666   5.433
 3675SOL    HW211925   1.568   2.598   5.341
 3676SOL     OW11926   3.862   5.431   3.889
 3676SOL    HW111927   3.872   5.343   3.935
 3676SOL    HW211928   3.816   5.496   3.950
 3677SOL     OW11929   0.701   6.464   3.285
 3677SOL    HW111930   0.739   6.493   3.197
 3677SOL    HW211931   0.768   6.481   3.358
 3678SOL     OW11932   1.247   2.302   3.513
 3678SOL    HW111933   1.238   2.325   3.416
 3678SOL    HW211934   1.233   2.385   3.568
 3679SOL     OW11935   0.294   0.753   2.584
 3679SOL    HW111936   0.229   0.690   2.626
 3679SOL    HW211937   0.387   0.726   2.609
 3680SOL     OW11938   6.203   2.608   3.906
 3680SOL    HW111939   6.144   2.689   3.903
 3680SOL    HW211940   6.184   2.555   3.989
 3681SOL     OW11941   0.935   0.834   5.690
 3681SOL    HW111942   0.861   0.867   5.632
 3681SOL    HW211943   0.898   0.770   5.758
 3682SOL     OW11944   6.224   2.113   5.654
 3682SOL    HW111945   6.190   2.191   5.707
 3682SOL    HW211946   6.161   2.036   5.665
 3683SOL     OW11947   6.186   6.824   4.754
 3683SOL    HW111948   6.248   6.764   4.806
 3683SOL    HW211949   6.239   6.891   4.703
 3684SOL     OW11950   1.805   2.838   1.662
 3684SOL    HW111951   1.877   2.825   1.594
 3684SOL    HW211952   1.821   2.778   1.740
 3685SOL     OW11953   6.190   5.855   6.177
 3685SOL    HW111954   6.109   5.799   6.194
 3685SOL    HW211955   6.162   5.946   6.148
 3686SOL     OW11956   6.479   4.851   2.731
 3686SOL    HW111957   6.503   4.816   2.641
 3686SOL    HW211958   6.560   4.850   2.790
 3687SOL     OW11959   3.312   6.573   6.150
 3687SOL    HW111960   3.275   6.493   6.197
 3687SOL    HW211961   3.251   6.651   6.164
 3688SOL     OW11962   0.708   3.631   6.896
 3688SOL    HW111963   0.706   3.532   6.908
 3688SOL    HW211964   0.724   3.675   6.984
 3689SOL     OW11965   0.992   0.455   5.115
 3689SOL    HW111966   0.960   0.510   5.038
 3689SOL    HW211967   0.996   0.511   5.198
 3690SOL     OW11968   4.258   0.833   6.244
 3690SOL    HW111969   4.301   0.790   6.164
 3690SOL    HW211970   4.194   0.769   6.285
 3691SOL     OW11971   2.430   2.998   6.590
 3691SOL    HW111972   2.404   2.986   6.686
 3691SOL    HW211973   2.526   3.026   6.586
 3692SOL     OW11974   0.960   5.679   4.496
 3692SOL    HW111975   1.038   5.705   4.439
 3692SOL    HW211976   0.961   5.732   4.581
 3693SOL     OW11977   1.705   2.338   3.367
 3693SOL    HW111978   1.647   2.259   3.390
 3693SOL    HW211979   1.784   2.307   3.314
 3694SOL     OW11980   1.011   5.685   3.412
 3694SOL    HW111981   1.000   5.774   3.366
 3694SOL    HW211982   1.079   5.693   3.485
 3695SOL     OW11983   0.581   2.258   2.742
 3695SOL    HW111984   0.543   2.350   2.728
 3695SOL    HW211985   0.515   2.203   2.793
 3696SOL     OW11986   4.734   6.110   5.997
 3696SOL    HW111987   4.708   6.018   5.967
 3696SOL    HW211988   4.772   6.161   5.920
 3697SOL     OW11989   6.914   6.695   3.478
 3697SOL    HW111990   6.962   6.610   3.457
 3697SOL    HW211991   6.903   6.704   3.577
 3698SOL     OW11992   3.914   0.466   5.524
 3698SOL    HW111993   3.826   0.422   5.510
 3698SOL    HW211994   3.949   0.499   5.437
 3699SOL     OW11995   6.887   3.926   2.716
 3699SOL    HW111996   6.884   3.866   2.637
 3699SOL    HW211997   6.941   4.007   2.695
 3700SOL     OW11998   6.213   0.570   4.013
 3700SOL    HW111999   6.137   0.597   4.071
 3700SOL    HW212000   6.293   0.625   4.035
 3701SOL     OW12001   0.549   0.882   4.217
 3701SOL    HW112002   0.624   0.852   4.275
 3701SOL    HW212003   0.481   0.809   4.211
 3702SOL     OW12004   4.254   6.945   1.855
 3702SOL    HW112005   4.324   6.976   1.918
 3702SOL    HW212006   4.275   6.852   1.823
 3703SOL     OW12007   4.198   3.832   5.970
 3703SOL    HW112008   4.274   3.777   6.006
 3703SOL    HW212009   4.232   3.922   5.942
 3704SOL     OW12010   3.025   1.038   2.433
 3704SOL    HW112011   3.107   1.095   2.422
 3704SOL    HW212012   3.050   0.942   2.421
 3705SOL     OW12013   4.754   0.170   3.892
 3705SOL    HW112014   4.779   0.262   3.861
 3705SOL    HW212015   4.787   0.103   3.825
 3706SOL     OW12016   1.879   2.927   4.654
 3706SOL    HW112017   1.932   2.890   4.731
 3706SOL    HW212018   1.930   3.001   4.610
 3707SOL     OW12019   5.423   3.028   5.443
 3707SOL    HW112020   5.341   2.989   5.484
 3707SOL    HW212021   5.416   3.127   5.441
 3708SOL     OW12022   5.755   0.277   6.303
 3708SOL    HW112023   5.788   0.296   6.395
 3708SOL    HW212024   5.824   0.224   6.253
 3709SOL     OW12025   3.312   0.996   5.858
 3709SOL    HW112026   3.379   0.973   5.787
 3709SOL    HW212027   3.240   1.052   5.817
 3710SOL     OW12028   6.622   6.191   6.849
 3710SOL    HW112029   6.575   6.235   6.771
 3710SOL    HW212030   6.589   6.097   6.858
 3711SOL     OW12031   0.527   5.848   2.705
 3711SOL    HW112032   0.457   5.778   2.710
 3711SOL    HW212033   0.551   5.865   2.610
 3712SOL     OW12034   6.703   6.513   6.841
 3712SOL    HW112035   6.713   6.449   6.918
 3712SOL    HW212036   6.706   6.462   6.755
 3713SOL     OW12037   2.096   6.031   4.817
 3713SOL    HW112038   2.186   6.050   4.855
 3713SOL    HW212039   2.076   6.096   4.744
 3714SOL     OW12040   4.951   6.441   4.867
 3714SOL    HW112041   4.910   6.509   4.927
 3714SOL    HW212042   4.919   6.456   4.773
 3715SOL     OW12043   5.894   4.435   4.947
 3715SOL    HW112044   5.903   4.336   4.939
 3715SOL    HW212045   5.977   4.478   4.912
 3716SOL     OW12046   6.778   0.190   4.411
 3716SOL    HW112047   6.753   0.245   4.331
 3716SOL    HW212048   6.877   0.195   4.426
 3717SOL     OW12049   5.931   5.805   0.644
 3717SOL    HW112050   5.987   5.854   0.711
 3717SOL    HW212051   5.990   5.759   0.578
 3718SOL     OW12052   1.164   6.816   6.729
 3718SOL    HW112053   1.233   6.786   6.795
 3718SOL    HW212054   1.093   6.745   6.720
 3719SOL     OW12055   4.836   4.772   0.723
 3719SOL    HW112056   4.785   4.703   0.672
 3719SOL    HW212057   4.774   4.847   0.746
 3720SOL     OW12058   6.339   2.178   6.532
 3720SOL    HW112059   6.266   2.119   6.567
 3720SOL    HW212060   6.423   2.125   6.524
 3721SOL     OW12061   5.599   4.888   6.914
 3721SOL    HW112062   5.525   4.899   6.848
 3721SOL    HW212063   5.617   4.976   6.959
 3722SOL     OW12064   6.691   5.924   2.360
 3722SOL    HW112065   6.764   5.890   2.418
 3722SOL    HW212066   6.716   5.912   2.264
 3723SOL     OW12067   5.522   6.710   2.056
 3723SOL    HW112068   5.601   6.756   2.016
 3723SOL    HW212069   5.533   6.704   2.155
 3724SOL     OW12070   1.653   4.802   6.897
 3724SOL    HW112071   1.651   4.786   6.799
 3724SOL    HW212072   1.586   4.742   6.942
 3725SOL     OW12073   6.219   6.337   7.005
 3725SOL    HW112074   6.283   6.373   0.047
 3725SOL    HW212075   6.143   6.293   0.026
 3726SOL     OW12076   6.758   4.036   1.202
 3726SOL    HW112077   6.737   3.964   1.268
 3726SOL    HW212078   6.721   4.123   1.235
 3727SOL     OW12079   0.373   3.394   5.632
 3727SOL    HW112080   0.435   3.343   5.692
 3727SOL    HW212081   0.372   3.490   5.658
 3728SOL     OW12082   2.160   3.548   0.478
 3728SOL    HW112083   2.248   3.568   0.522
 3728SOL    HW212084   2.096   3.623   0.495
 3729SOL     OW12085   0.840   2.299   2.685
 3729SOL    HW112086   0.815   2.393   2.662
 3729SOL    HW212087   0.762   2.253   2.725
 3730SOL     OW12088   2.628   0.307   0.462
 3730SOL    HW112089   2.628   0.214   0.497
 3730SOL    HW212090   2.722   0.341   0.458
 3731SOL     OW12091   5.432   1.941   0.436
 3731SOL    HW112092   5.359   2.007   0.454
 3731SOL    HW212093   5.521   1.982   0.456
 3732SOL     OW12094   2.144   3.197   5.942
 3732SOL    HW112095   2.238   3.189   5.977
 3732SOL    HW212096   2.080   3.161   6.010
 3733SOL     OW12097   2.334   4.034   1.713
 3733SOL    HW112098   2.344   4.077   1.803
 3733SOL    HW212099   2.389   3.950   1.710
 3734SOL     OW12100   4.587   1.244   2.199
 3734SOL    HW112101   4.498   1.257   2.153
 3734SOL    HW212102   4.657   1.226   2.130
 3735SOL     OW12103   1.669   2.310   2.370
 3735SOL    HW112104   1.592   2.295   2.433
 3735SOL    HW212105   1.634   2.328   2.278
 3736SOL     OW12106   0.402   2.672   0.548
 3736SOL    HW112107   0.417   2.680   0.449
 3736SOL    HW212108   0.377   2.762   0.585
 3737SOL     OW12109   5.034   0.375   3.456
 3737SOL    HW112110   5.088   0.291   3.463
 3737SOL    HW212111   5.090   0.447   3.414
 3738SOL     OW12112   6.143   6.005   3.047
 3738SOL    HW112113   6.047   6.008   3.021
 3738SOL    HW212114   6.158   6.067   3.124
 3739SOL     OW12115   1.627   4.118   2.499
 3739SOL    HW112116   1.719   4.156   2.492
 3739SOL    HW212117   1.582   4.122   2.409
 3740SOL     OW12118   4.335   0.859   6.674
 3740SOL    HW112119   4.278   0.777   6.673
 3740SOL    HW212120   4.352   0.889   6.580
 3741SOL     OW12121   4.401   3.737   1.005
 3741SOL    HW112122   4.366   3.651   1.042
 3741SOL    HW212123   4.328   3.787   0.959
 3742SOL     OW12124   2.806   2.365   5.920
 3742SOL    HW112125   2.856   2.293   5.968
 3742SOL    HW212126   2.769   2.328   5.835
 3743SOL     OW12127   6.068   4.966   0.449
 3743SOL    HW112128   5.971   4.963   0.425
 3743SOL    HW212129   6.123   4.941   0.369
 3744SOL     OW12130   0.823   5.281   4.382
 3744SOL    HW112131   0.825   5.237   4.292
 3744SOL    HW212132   0.786   5.217   4.449
 3745SOL     OW12133   3.503   5.170   2.913
 3745SOL    HW112134   3.462   5.206   2.829
 3745SOL    HW212135   3.455   5.208   2.992
 3746SOL     OW12136   4.448   1.468   1.558
 3746SOL    HW112137   4.370   1.525   1.533
 3746SOL    HW212138   4.453   1.460   1.657
 3747SOL     OW12139   3.499   6.572   5.965
 3747SOL    HW112140   3.496   6.610   5.872
 3747SOL    HW212141   3.406   6.560   5.998
 3748SOL     OW12142   5.491   1.231   1.507
 3748SOL    HW112143   5.446   1.313   1.471
 3748SOL    HW212144   5.432   1.187   1.574
 3749SOL     OW12145   1.887   0.116   4.538
 3749SOL    HW112146   1.858   0.033   4.490
 3749SOL    HW212147   1.908   0.093   4.633
 3750SOL     OW12148   1.356   3.784   0.105
 3750SOL    HW112149   1.268   3.784   0.153
 3750SOL    HW212150   1.430   3.782   0.172
 3751SOL     OW12151   0.151   3.920   2.882
 3751SOL    HW112152   0.073   3.969   2.923
 3751SOL    HW212153   0.136   3.821   2.889
 3752SOL     OW12154   4.982   0.942   6.071
 3752SOL    HW112155   5.001   1.039   6.089
 3752SOL    HW212156   5.060   0.901   6.023
 3753SOL     OW12157   6.352   1.170   4.456
 3753SOL    HW112158   6.380   1.204   4.366
 3753SOL    HW212159   6.432   1.131   4.502
 3754SOL     OW12160   2.361   1.029   1.992
 3754SOL    HW112161   2.350   0.966   2.069
 3754SOL    HW212162   2.278   1.084   1.982
 3755SOL     OW12163   3.247   4.986   4.625
 3755SOL    HW112164   3.246   5.085   4.612
 3755SOL    HW212165   3.194   4.962   4.706
 3756SOL     OW12166   2.429   5.828   0.412
 3756SOL    HW112167   2.439   5.926   0.430
 3756SOL    HW212168   2.333   5.808   0.390
 3757SOL     OW12169   6.441   4.777   1.946
 3757SOL    HW112170   6.486   4.786   2.035
 3757SOL    HW212171   6.497   4.819   1.875
 3758SOL     OW12172   1.760   0.504   3.797
 3758SOL    HW112173   1.734   0.489   3.702
 3758SOL    HW212174   1.825   0.580   3.802
 3759SOL     OW12175   5.597   0.936   4.024
 3759SOL    HW112176   5.525   0.884   4.069
 3759SOL    HW212177   5.568   1.031   4.013
 3760SOL     OW12178   0.270   0.292   3.996
 3760SOL    HW112179   0.368   0.282   3.980
 3760SOL    HW212180   0.231   0.356   3.930
 3761SOL     OW12181   5.472   1.493   4.537
 3761SOL    HW112182   5.396   1.556   4.519
 3761SOL    HW212183   5.467   1.461   4.631
 3762SOL     OW12184   1.589   4.193   2.244
 3762SOL    HW112185   1.625   4.247   2.168
 3762SOL    HW212186   1.538   4.114   2.209
 3763SOL     OW12187   0.064   4.134   0.377
 3763SOL    HW112188   0.097   4.040   0.370
 3763SOL    HW212189   6.996   4.134   0.410
 3764SOL     OW12190   1.991   0.024   3.404
 3764SOL    HW112191   2.051   0.098   3.374
 3764SOL    HW212192   2.044   6.967   3.422
 3765SOL     OW12193   6.542   1.911   1.175
 3765SOL    HW112194   6.539   2.009   1.155
 3765SOL    HW212195   6.635   1.885   1.202
 3766SOL     OW12196   1.834   2.867   3.378
 3766SOL    HW112197   1.807   2.783   3.424
 3766SOL    HW212198   1.856   2.937   3.446
 3767SOL     OW12199   3.279   4.413   6.103
 3767SOL    HW112200   3.345   4.470   6.054
 3767SOL    HW212201   3.201   4.393   6.043
 3768SOL     OW12202   1.330   0.921   4.616
 3768SOL    HW112203   1.265   0.931   4.691
 3768SOL    HW212204   1.323   1.000   4.554
 3769SOL     OW12205   5.612   5.605   4.622
 3769SOL    HW112206   5.528   5.631   4.575
 3769SOL    HW212207   5.603   5.511   4.656
 3770SOL     OW12208   1.178   1.335   0.706
 3770SOL    HW112209   1.232   1.252   0.696
 3770SOL    HW212210   1.151   1.368   0.616
 3771SOL     OW12211   6.848   5.380   0.749
 3771SOL    HW112212   6.817   5.289   0.779
 3771SOL    HW212213   6.770   5.443   0.749
 3772SOL     OW12214   1.050   6.200   0.819
 3772SOL    HW112215   1.036   6.278   0.757
 3772SOL    HW212216   1.007   6.119   0.779
 3773SOL     OW12217   5.469   3.312   5.838
 3773SOL    HW112218   5.443   3.407   5.857
 3773SOL    HW212219   5.548   3.311   5.777
 3774SOL     OW12220   5.472   5.570   1.518
 3774SOL    HW112221   5.475   5.556   1.419
 3774SOL    HW212222   5.419   5.652   1.538
 3775SOL     OW12223   4.217   4.835   3.212
 3775SOL    HW112224   4.119   4.853   3.196
 3775SOL    HW212225   4.258   4.800   3.128
 3776SOL     OW12226   3.863   2.759   6.153
 3776SOL    HW112227   3.844   2.781   6.248
 3776SOL    HW212228   3.826   2.830   6.094
 3777SOL     OW12229   2.705   6.811   4.320
 3777SOL    HW112230   2.632   6.779   4.260
 3777SOL    HW212231   2.751   6.733   4.363
 3778SOL     OW12232   3.017   6.209   4.555
 3778SOL    HW112233   3.076   6.271   4.607
 3778SOL    HW212234   2.999   6.126   4.608
 3779SOL     OW12235   7.002   5.380   0.523
 3779SOL    HW112236   6.957   5.377   0.612
 3779SOL    HW212237   7.010   5.474   0.492
 3780SOL     OW12238   0.029   2.486   2.099
 3780SOL    HW112239   0.110   2.472   2.157
 3780SOL    HW212240   0.026   2.581   2.069
 3781SOL     OW12241   1.643   6.745   5.366
 3781SOL    HW112242   1.648   6.664   5.306
 3781SOL    HW212243   1.735   6.771   5.394
 3782SOL     OW12244   4.191   6.301   1.758
 3782SOL    HW112245   4.257   6.232   1.787
 3782SOL    HW212246   4.112   6.256   1.716
 3783SOL     OW12247   5.602   5.253   5.593
 3783SOL    HW112248   5.547   5.183   5.546
 3783SOL    HW212249   5.661   5.298   5.526
 3784SOL     OW12250   5.281   2.528   2.646
 3784SOL    HW112251   5.301   2.623   2.669
 3784SOL    HW212252   5.270   2.474   2.730
 3785SOL     OW12253   0.762   2.834   4.685
 3785SOL    HW112254   0.736   2.893   4.609
 3785SOL    HW212255   0.730   2.874   4.771
 3786SOL     OW12256   2.754   2.140   4.225
 3786SOL    HW112257   2.724   2.046   4.243
 3786SOL    HW212258   2.679   2.203   4.244
 3787SOL     OW12259   4.110   0.635   2.557
 3787SOL    HW112260   4.074   0.710   2.500
 3787SOL    HW212261   4.139   0.672   2.645
 3788SOL     OW12262   0.562   3.765   5.185
 3788SOL    HW112263   0.640   3.749   5.246
 3788SOL    HW212264   0.586   3.737   5.092
 3789SOL     OW12265   1.128   2.303   2.740
 3789SOL    HW112266   1.135   2.354   2.825
 3789SOL    HW212267   1.033   2.301   2.709
 3790SOL     OW12268   0.513   5.930   0.518
 3790SOL    HW112269   0.511   5.975   0.607
 3790SOL    HW212270   0.558   5.990   0.452
 3791SOL     OW12271   5.537   1.118   5.617
 3791SOL    HW112272   5.636   1.112   5.604
 3791SOL    HW212273   5.507   1.213   5.606
 3792SOL     OW12274   0.761   0.744   4.310
 3792SOL    HW112275   0.848   0.755   4.262
 3792SOL    HW212276   0.737   0.647   4.314
 3793SOL     OW12277   6.241   6.438   0.617
 3793SOL    HW112278   6.214   6.419   0.522
 3793SOL    HW212279   6.220   6.358   0.674
 3794SOL     OW12280   1.737   3.860   1.081
 3794SOL    HW112281   1.788   3.914   1.148
 3794SOL    HW212282   1.793   3.846   1.000
 3795SOL     OW12283   2.873   5.791   1.126
 3795SOL    HW112284   2.877   5.881   1.170
 3795SOL    HW212285   2.890   5.720   1.195
 3796SOL     OW12286   4.020   1.852   1.187
 3796SOL    HW112287   4.011   1.888   1.094
 3796SOL    HW212288   4.112   1.817   1.200
 3797SOL     OW12289   1.135   4.196   2.616
 3797SOL    HW112290   1.220   4.165   2.659
 3797SOL    HW212291   1.057   4.149   2.658
 3798SOL     OW12292   2.991   6.811   3.236
 3798SOL    HW112293   2.958   6.747   3.306
 3798SOL    HW212294   2.973   6.773   3.145
 3799SOL     OW12295   6.752   2.414   2.955
 3799SOL    HW112296   6.793   2.415   3.046
 3799SOL    HW212297   6.802   2.475   2.895
 3800SOL     OW12298   5.971   1.815   3.127
 3800SOL    HW112299   5.906   1.761   3.181
 3800SOL    HW212300   5.956   1.912   3.142
 3801SOL     OW12301   5.414   6.649   2.502
 3801SOL    HW112302   5.335   6.646   2.442
 3801SOL    HW212303   5.498   6.641   2.448
 3802SOL     OW12304   0.132   1.797   2.148
 3802SOL    HW112305   0.035   1.809   2.168
 3802SOL    HW212306   0.143   1.736   2.070
 3803SOL     OW12307   3.284   3.846   4.012
 3803SOL    HW112308   3.337   3.781   3.957
 3803SOL    HW212309   3.345   3.892   4.077
 3804SOL     OW12310   3.796   0.354   4.933
 3804SOL    HW112311   3.838   0.420   4.996
 3804SOL    HW212312   3.706   0.387   4.905
 3805SOL     OW12313   2.216   2.981   0.545
 3805SOL    HW112314   2.279   3.019   0.614
 3805SOL    HW212315   2.242   2.887   0.525
 3806SOL     OW12316   4.185   4.611   6.354
 3806SOL    HW112317   4.252   4.586   6.424
 3806SOL    HW212318   4.230   4.660   6.280
 3807SOL     OW12319   1.692   5.328   4.025
 3807SOL    HW112320   1.656   5.362   4.112
 3807SOL    HW212321   1.721   5.406   3.969
 3808SOL     OW12322   4.753   0.451   6.176
 3808SOL    HW112323   4.845   0.476   6.207
 3808SOL    HW212324   4.753   0.442   6.077
 3809SOL     OW12325   5.729   1.838   1.297
 3809SOL    HW112326   5.769   1.746   1.298
 3809SOL    HW212327   5.637   1.834   1.335
 3810SOL     OW12328   6.461   2.429   2.956
 3810SOL    HW112329   6.434   2.490   3.031
 3810SOL    HW212330   6.561   2.420   2.955
 3811SOL     OW12331   0.224   5.168   4.713
 3811SOL    HW112332   0.139   5.119   4.698
 3811SOL    HW212333   0.267   5.189   4.625
 3812SOL     OW12334   3.586   5.951   6.921
 3812SOL    HW112335   3.518   5.934   6.992
 3812SOL    HW212336   3.668   5.993   6.962
 3813SOL     OW12337   6.437   3.529   1.160
 3813SOL    HW112338   6.388   3.615   1.148
 3813SOL    HW212339   6.535   3.544   1.141
 3814SOL     OW12340   6.954   7.011   4.016
 3814SOL    HW112341   6.935   0.078   3.984
 3814SOL    HW212342   0.004   6.972   3.963
 3815SOL     OW12343   5.267   3.110   0.429
 3815SOL    HW112344   5.337   3.169   0.390
 3815SOL    HW212345   5.286   3.095   0.526
 3816SOL     OW12346   0.833   6.498   5.307
 3816SOL    HW112347   0.874   6.486   5.398
 3816SOL    HW212348   0.834   6.410   5.259
 3817SOL     OW12349   4.903   3.672   2.580
 3817SOL    HW112350   4.842   3.671   2.501
 3817SOL    HW212351   4.977   3.738   2.564
 3818SOL     OW12352   0.465   0.367   1.051
 3818SOL    HW112353   0.414   0.447   1.083
 3818SOL    HW212354   0.563   0.386   1.053
 3819SOL     OW12355   6.716   4.776   3.212
 3819SOL    HW112356   6.671   4.856   3.253
 3819SOL    HW212357   6.709   4.783   3.112
 3820SOL     OW12358   5.328   6.846   4.004
 3820SOL    HW112359   5.305   6.781   4.077
 3820SOL    HW212360   5.250   6.906   3.987
 3821SOL     OW12361   0.436   6.886   6.650
 3821SOL    HW112362   0.451   6.942   6.731
 3821SOL    HW212363   0.340   6.862   6.642
 3822SOL     OW12364   3.514   0.683   0.316
 3822SOL    HW112365   3.577   0.682   0.394
 3822SOL    HW212366   3.487   0.589   0.294
 3823SOL     OW12367   5.194   4.717   6.087
 3823SOL    HW112368   5.097   4.733   6.104
 3823SOL    HW212369   5.235   4.801   6.052
 3824SOL     OW12370   1.172   3.111   0.238
 3824SOL    HW112371   1.084   3.064   0.234
 3824SOL    HW212372   1.171   3.178   0.312
 3825SOL     OW12373   1.025   4.291   1.118
 3825SOL    HW112374   1.006   4.358   1.190
 3825SOL    HW212375   1.124   4.282   1.107
 3826SOL     OW12376   6.663   4.486   2.635
 3826SOL    HW112377   6.613   4.564   2.673
 3826SOL    HW212378   6.733   4.519   2.571
 3827SOL     OW12379   0.800   0.716   1.150
 3827SOL    HW112380   0.845   0.741   1.065
 3827SOL    HW212381   0.836   0.772   1.225
 3828SOL     OW12382   3.842   4.140   4.740
 3828SOL    HW112383   3.922   4.118   4.685
 3828SOL    HW212384   3.855   4.105   4.833
 3829SOL     OW12385   0.728   5.058   2.307
 3829SOL    HW112386   0.708   5.014   2.394
 3829SOL    HW212387   0.827   5.076   2.301
 3830SOL     OW12388   0.251   0.605   5.119
 3830SOL    HW112389   0.196   0.526   5.146
 3830SOL    HW212390   0.314   0.628   5.193
 3831SOL     OW12391   4.301   1.911   3.185
 3831SOL    HW112392   4.262   2.004   3.185
 3831SOL    HW212393   4.297   1.873   3.093
 3832SOL     OW12394   0.463   0.139   1.651
 3832SOL    HW112395   0.439   0.083   1.572
 3832SOL    HW212396   0.469   0.235   1.623
 3833SOL     OW12397   1.567   6.685   6.551
 3833SOL    HW112398   1.581   6.780   6.580
 3833SOL    HW212399   1.583   6.624   6.628
 3834SOL     OW12400   4.440   4.408   1.536
 3834SOL    HW112401   4.355   4.401   1.587
 3834SOL    HW212402   4.469   4.503   1.532
 3835SOL     OW12403   3.908   5.866   5.486
 3835SOL    HW112404   3.833   5.929   5.464
 3835SOL    HW212405   3.897   5.781   5.434
 3836SOL     OW12406   0.641   5.064   6.049
 3836SOL    HW112407   0.701   5.060   5.969
 3836SOL    HW212408   0.575   5.139   6.038
 3837SOL     OW12409   3.857   5.213   5.209
 3837SOL    HW112410   3.759   5.206   5.227
 3837SOL    HW212411   3.872   5.264   5.124
 3838SOL     OW12412   1.865   1.185   3.660
 3838SOL    HW112413   1.859   1.147   3.753
 3838SOL    HW212414   1.897   1.114   3.597
 3839SOL     OW12415   4.469   0.290   3.162
 3839SOL    HW112416   4.533   0.235   3.215
 3839SOL    HW212417   4.464   0.382   3.202
 3840SOL     OW12418   2.527   1.078   6.237
 3840SOL    HW112419   2.582   1.020   6.176
 3840SOL    HW212420   2.566   1.170   6.239
 3841SOL     OW12421   0.458   4.382   3.973
 3841SOL    HW112422   0.403   4.443   4.030
 3841SOL    HW212423   0.527   4.337   4.029
 3842SOL     OW12424   2.516   2.534   4.104
 3842SOL    HW112425   2.425   2.495   4.112
 3842SOL    HW212426   2.581   2.477   4.154
 3843SOL     OW12427   5.328   3.413   1.499
 3843SOL    HW112428   5.399   3.438   1.433
 3843SOL    HW212429   5.251   3.370   1.452
 3844SOL     OW12430   1.441   4.718   0.239
 3844SOL    HW112431   1.395   4.642   0.284
 3844SOL    HW212432   1.408   4.726   0.144
 3845SOL     OW12433   2.000   6.411   0.031
 3845SOL    HW112434   2.026   6.473   0.106
 3845SOL    HW212435   2.070   6.341   0.021
 3846SOL     OW12436   0.676   3.004   4.471
 3846SOL    HW112437   0.602   2.939   4.455
 3846SOL    HW212438   0.640   3.097   4.462
 3847SOL     OW12439   5.343   2.022   4.445
 3847SOL    HW112440   5.274   2.044   4.514
 3847SOL    HW212441   5.415   1.967   4.487
 3848SOL     OW12442   4.747   2.812   3.071
 3848SOL    HW112443   4.753   2.776   3.164
 3848SOL    HW212444   4.814   2.886   3.059
 3849SOL     OW12445   0.460   6.875   6.360
 3849SOL    HW112446   0.497   6.905   6.448
 3849SOL    HW212447   0.442   6.955   6.302
 3850SOL     OW12448   3.206   3.059   1.486
 3850SOL    HW112449   3.132   3.097   1.541
 3850SOL    HW212450   3.291   3.059   1.539
 3851SOL     OW12451   0.051   4.709   3.800
 3851SOL    HW112452   0.116   4.639   3.771
 3851SOL    HW212453   0.054   4.786   3.736
 3852SOL     OW12454   3.618   0.011   4.284
 3852SOL    HW112455   3.673   0.094   4.270
 3852SOL    HW212456   3.657   6.962   4.229
 3853SOL     OW12457   2.218   1.706   3.639
 3853SOL    HW112458   2.170   1.731   3.555
 3853SOL    HW212459   2.154   1.705   3.715
 3854SOL     OW12460   1.365   3.384   2.880
 3854SOL    HW112461   1.456   3.401   2.842
 3854SOL    HW212462   1.336   3.291   2.855
 3855SOL     OW12463   3.865   6.196   0.549
 3855SOL    HW112464   3.958   6.224   0.523
 3855SOL    HW212465   3.799   6.258   0.507
 3856SOL     OW12466   1.055   1.832   6.067
 3856SOL    HW112467   1.026   1.751   6.118
 3856SOL    HW212468   1.018   1.828   5.974
 3857SOL     OW12469   1.919   6.315   5.232
 3857SOL    HW112470   1.993   6.326   5.298
 3857SOL    HW212471   1.915   6.220   5.201
 3858SOL     OW12472   3.127   1.577   5.893
 3858SOL    HW112473   3.061   1.513   5.854
 3858SOL    HW212474   3.144   1.652   5.830
 3859SOL     OW12475   5.881   1.295   0.979
 3859SOL    HW112476   5.966   1.327   1.020
 3859SOL    HW212477   5.804   1.341   1.024
 3860SOL     OW12478   1.968   0.801   4.457
 3860SOL    HW112479   2.037   0.737   4.425
 3860SOL    HW212480   1.884   0.751   4.479
 3861SOL     OW12481   4.331   6.139   2.665
 3861SOL    HW112482   4.314   6.093   2.577
 3861SOL    HW212483   4.395   6.084   2.719
 3862SOL     OW12484   0.696   0.478   4.344
 3862SOL    HW112485   0.657   0.441   4.428
 3862SOL    HW212486   0.752   0.408   4.299
 3863SOL     OW12487   5.841   1.614   0.049
 3863SOL    HW112488   5.757   1.595   0.101
 3863SOL    HW212489   5.820   1.677   7.000
 3864SOL     OW12490   2.606   0.676   4.731
 3864SOL    HW112491   2.588   0.681   4.829
 3864SOL    HW212492   2.603   0.768   4.692
 3865SOL     OW12493   4.412   1.076   0.512
 3865SOL    HW112494   4.433   1.090   0.609
 3865SOL    HW212495   4.326   1.026   0.503
 3866SOL     OW12496   3.688   0.867   6.958
 3866SOL    HW112497   3.766   0.924   6.985
 3866SOL    HW212498   3.684   0.862   6.858
 3867SOL     OW12499   1.520   4.445   3.014
 3867SOL    HW112500   1.585   4.372   2.992
 3867SOL    HW212501   1.507   4.503   2.933
 3868SOL     OW12502   4.163   0.335   6.719
 3868SOL    HW112503   4.255   0.306   6.692
 3868SOL    HW212504   4.107   0.346   6.637
 3869SOL     OW12505   6.545   3.199   3.959
 3869SOL    HW112506   6.476   3.163   3.896
 3869SOL    HW212507   6.537   3.298   3.965
 3870SOL     OW12508   6.998   6.576   2.124
 3870SOL    HW112509   6.904   6.609   2.136
 3870SOL    HW212510   0.007   6.541   2.211
 3871SOL     OW12511   3.226   0.060   3.491
 3871SOL    HW112512   3.310   0.034   3.538
 3871SOL    HW212513   3.248   0.106   3.406
 3872SOL     OW12514   3.082   3.071   4.383
 3872SOL    HW112515   3.117   3.149   4.330
 3872SOL    HW212516   3.074   3.097   4.479
 3873SOL     OW12517   5.186   3.982   1.227
 3873SOL    HW112518   5.127   3.980   1.147
 3873SOL    HW212519   5.196   3.890   1.264
 3874SOL     OW12520   4.264   0.482   0.654
 3874SOL    HW112521   4.175   0.458   0.691
 3874SOL    HW212522   4.336   0.433   0.704
 3875SOL     OW12523   1.792   3.075   3.865
 3875SOL    HW112524   1.750   3.166   3.858
 3875SOL    HW212525   1.884   3.085   3.903
 3876SOL     OW12526   3.296   5.224   1.088
 3876SOL    HW112527   3.239   5.303   1.112
 3876SOL    HW212528   3.282   5.201   0.992
 3877SOL     OW12529   6.785   2.694   1.036
 3877SOL    HW112530   6.788   2.718   1.133
 3877SOL    HW212531   6.869   2.646   1.010
 3878SOL     OW12532   4.770   5.980   4.865
 3878SOL    HW112533   4.862   5.944   4.851
 3878SOL    HW212534   4.704   5.905   4.858
 3879SOL     OW12535   5.740   5.301   0.609
 3879SOL    HW112536   5.642   5.284   0.619
 3879SOL    HW212537   5.758   5.398   0.626
 3880SOL     OW12538   4.846   4.038   4.358
 3880SOL    HW112539   4.839   3.950   4.405
 3880SOL    HW212540   4.943   4.061   4.347
 3881SOL     OW12541   1.937   3.556   1.433
 3881SOL    HW112542   1.990   3.579   1.515
 3881SOL    HW212543   1.863   3.622   1.422
 3882SOL     OW12544   0.865   1.322   6.941
 3882SOL    HW112545   0.880   1.275   6.854
 3882SOL    HW212546   0.954   1.341   6.984
 3883SOL     OW12547   3.939   1.160   2.444
 3883SOL    HW112548   4.022   1.216   2.441
 3883SOL    HW212549   3.879   1.186   2.368
 3884SOL     OW12550   0.558   5.305   2.446
 3884SOL    HW112551   0.630   5.375   2.452
 3884SOL    HW212552   0.515   5.294   2.536
 3885SOL     OW12553   6.217   6.058   3.643
 3885SOL    HW112554   6.196   5.982   3.704
 3885SOL    HW212555   6.316   6.074   3.643
 3886SOL     OW12556   4.359   5.492   5.159
 3886SOL    HW112557   4.331   5.498   5.255
 3886SOL    HW212558   4.299   5.551   5.104
 3887SOL     OW12559   0.569   6.882   0.024
 3887SOL    HW112560   0.632   6.808   7.025
 3887SOL    HW212561   0.519   6.911   6.969
 3888SOL     OW12562   6.608   6.905   5.109
 3888SOL    HW112563   6.666   6.919   5.030
 3888SOL    HW212564   6.646   6.953   5.188
 3889SOL     OW12565   6.811   2.638   0.447
 3889SOL    HW112566   6.888   2.680   0.401
 3889SOL    HW212567   6.827   2.639   0.546
 3890SOL     OW12568   6.003   5.118   3.533
 3890SOL    HW112569   6.040   5.034   3.571
 3890SOL    HW212570   6.059   5.148   3.455
 3891SOL     OW12571   4.992   3.979   4.012
 3891SOL    HW112572   4.898   4.010   4.022
 3891SOL    HW212573   5.015   3.975   3.914
 3892SOL     OW12574   0.968   2.524   0.837
 3892SOL    HW112575   1.006   2.610   0.871
 3892SOL    HW212576   0.895   2.493   0.899
 3893SOL     OW12577   4.045   4.056   0.668
 3893SOL    HW112578   4.110   4.112   0.616
 3893SOL    HW212579   3.983   4.009   0.605
 3894SOL     OW12580   4.851   0.905   6.795
 3894SOL    HW112581   4.773   0.869   6.845
 3894SOL    HW212582   4.836   0.893   6.697
 3895SOL     OW12583   0.620   0.199   5.768
 3895SOL    HW112584   0.621   0.125   5.836
 3895SOL    HW212585   0.603   0.161   5.678
 3896SOL     OW12586   0.876   1.147   6.210
 3896SOL    HW112587   0.896   1.108   6.121
 3896SOL    HW212588   0.847   1.074   6.272
 3897SOL     OW12589   4.059   5.663   2.548
 3897SOL    HW112590   3.996   5.724   2.499
 3897SOL    HW212591   4.008   5.585   2.585
 3898SOL     OW12592   2.683   2.432   6.439
 3898SOL    HW112593   2.673   2.367   6.363
 3898SOL    HW212594   2.613   2.413   6.508
 3899SOL     OW12595   4.508   6.633   5.913
 3899SOL    HW112596   4.531   6.731   5.914
 3899SOL    HW212597   4.550   6.588   5.991
 3900SOL     OW12598   4.493   2.462   3.804
 3900SOL    HW112599   4.415   2.423   3.853
 3900SOL    HW212600   4.544   2.523   3.866
 3901SOL     OW12601   3.410   0.747   6.174
 3901SOL    HW112602   3.503   0.733   6.138
 3901SOL    HW212603   3.413   0.809   6.252
 3902SOL     OW12604   6.857   2.990   2.141
 3902SOL    HW112605   6.776   2.931   2.151
 3902SOL    HW212606   6.827   3.084   2.126
 3903SOL     OW12607   3.714   6.680   0.086
 3903SOL    HW112608   3.659   6.674   0.169
 3903SOL    HW212609   3.803   6.721   0.108
 3904SOL     OW12610   1.972   1.027   6.084
 3904SOL    HW112611   2.001   0.933   6.103
 3904SOL    HW212612   1.957   1.075   6.170
 3905SOL     OW12613   6.595   6.769   6.193
 3905SOL    HW112614   6.524   6.836   6.172
 3905SOL    HW212615   6.614   6.715   6.111
 3906SOL     OW12616   5.932   6.515   5.219
 3906SOL    HW112617   5.838   6.483   5.216
 3906SOL    HW212618   5.980   6.473   5.297
 3907SOL     OW12619   6.261   0.985   4.092
 3907SOL    HW112620   6.285   0.894   4.057
 3907SOL    HW212621   6.344   1.042   4.096
 3908SOL     OW12622   0.739   2.292   6.708
 3908SOL    HW112623   0.771   2.199   6.727
 3908SOL    HW212624   0.675   2.290   6.631
 3909SOL     OW12625   6.214   6.232   5.031
 3909SOL    HW112626   6.160   6.313   5.009
 3909SOL    HW212627   6.303   6.260   5.069
 3910SOL     OW12628   3.209   3.676   2.557
 3910SOL    HW112629   3.121   3.633   2.576
 3910SOL    HW212630   3.193   3.769   2.521
 3911SOL     OW12631   5.753   1.811   5.572
 3911SOL    HW112632   5.755   1.783   5.476
 3911SOL    HW212633   5.717   1.904   5.578
 3912SOL     OW12634   5.047   0.889   5.594
 3912SOL    HW112635   5.045   0.798   5.552
 3912SOL    HW212636   5.141   0.911   5.621
 3913SOL     OW12637   2.743   6.587   5.679
 3913SOL    HW112638   2.733   6.622   5.773
 3913SOL    HW212639   2.655   6.593   5.632
 3914SOL     OW12640   2.823   0.819   1.821
 3914SOL    HW112641   2.908   0.773   1.846
 3914SOL    HW212642   2.828   0.849   1.726
 3915SOL     OW12643   4.793   5.702   1.146
 3915SOL    HW112644   4.799   5.736   1.240
 3915SOL    HW212645   4.762   5.776   1.086
 3916SOL     OW12646   1.014   6.963   3.990
 3916SOL    HW112647   0.922   6.998   4.011
 3916SOL    HW212648   1.081   0.010   4.003
 3917SOL     OW12649   6.497   5.945   6.962
 3917SOL    HW112650   6.492   5.878   0.011
 3917SOL    HW212651   6.405   5.975   6.939
 3918SOL     OW12652   5.648   5.452   1.721
 3918SOL    HW112653   5.591   5.404   1.654
 3918SOL    HW212654   5.677   5.540   1.683
 3919SOL     OW12655   4.034   6.576   7.000
 3919SOL    HW112656   4.096   6.641   0.019
 3919SOL    HW212657   3.959   6.625   6.956
 3920SOL     OW12658   3.528   3.443   0.697
 3920SOL    HW112659   3.617   3.473   0.731
 3920SOL    HW212660   3.526   3.448   0.598
 3921SOL     OW12661   7.004   3.469   1.730
 3921SOL    HW112662   0.021   3.390   1.687
 3921SOL    HW212663   0.009   3.553   1.685
 3922SOL     OW12664   6.612   3.729   2.335
 3922SOL    HW112665   6.700   3.740   2.289
 3922SOL    HW212666   6.548   3.800   2.303
 3923SOL     OW12667   0.048   1.283   0.366
 3923SOL    HW112668   0.039   1.276   0.465
 3923SOL    HW212669   0.087   1.372   0.342
 3924SOL     OW12670   6.195   4.718   3.732
 3924SOL    HW112671   6.124   4.772   3.779
 3924SOL    HW212672   6.178   4.621   3.748
 3925SOL     OW12673   2.283   5.248   1.444
 3925SOL    HW112674   2.302   5.304   1.363
 3925SOL    HW212675   2.306   5.153   1.425
 3926SOL     OW12676   6.326   4.795   2.947
 3926SOL    HW112677   6.338   4.703   2.985
 3926SOL    HW212678   6.382   4.805   2.865
 3927SOL     OW12679   6.531   2.574   4.579
 3927SOL    HW112680   6.495   2.625   4.500
 3927SOL    HW212681   6.477   2.491   4.593
 3928SOL     OW12682   4.027   6.037   6.339
 3928SOL    HW112683   4.086   6.022   6.418
 3928SOL    HW212684   4.074   6.095   6.272
 3929SOL     OW12685   0.246   0.822   4.924
 3929SOL    HW112686   0.245   0.876   5.008
 3929SOL    HW212687   0.295   0.737   4.940
 3930SOL     OW12688   2.911   1.978   3.891
 3930SOL    HW112689   2.955   1.970   3.802
 3930SOL    HW212690   2.850   1.901   3.905
 3931SOL     OW12691   1.649   0.982   1.414
 3931SOL    HW112692   1.637   0.914   1.342
 3931SOL    HW212693   1.586   1.058   1.399
 3932SOL     OW12694   2.045   4.243   3.714
 3932SOL    HW112695   2.026   4.324   3.769
 3932SOL    HW212696   1.974   4.174   3.731
 3933SOL     OW12697   1.833   6.165   6.802
 3933SOL    HW112698   1.816   6.193   6.707
 3933SOL    HW212699   1.919   6.114   6.806
 3934SOL     OW12700   0.061   1.036   6.689
 3934SOL    HW112701   6.998   1.039   6.642
 3934SOL    HW212702   0.084   0.941   6.711
 3935SOL     OW12703   2.817   6.852   6.994
 3935SOL    HW112704   2.844   6.781   6.929
 3935SOL    HW212705   2.732   6.895   6.963
 3936SOL     OW12706   0.027   5.339   5.656
 3936SOL    HW112707   0.101   5.375   5.599
 3936SOL    HW212708   0.052   5.349   5.752
 3937SOL     OW12709   6.844   1.864   3.400
 3937SOL    HW112710   6.844   1.859   3.300
 3937SOL    HW212711   6.819   1.775   3.437
 3938SOL     OW12712   0.362   2.489   4.053
 3938SOL    HW112713   0.399   2.564   3.999
 3938SOL    HW212714   0.404   2.488   4.143
 3939SOL     OW12715   2.109   2.842   2.715
 3939SOL    HW112716   2.037   2.838   2.784
 3939SOL    HW212717   2.187   2.787   2.744
 3940SOL     OW12718   5.099   4.873   1.176
 3940SOL    HW112719   5.073   4.961   1.216
 3940SOL    HW212720   5.047   4.858   1.092
 3941SOL     OW12721   5.207   3.548   5.836
 3941SOL    HW112722   5.285   3.561   5.898
 3941SOL    HW212723   5.134   3.612   5.860
 3942SOL     OW12724   0.581   6.679   6.231
 3942SOL    HW112725   0.529   6.594   6.248
 3942SOL    HW212726   0.540   6.753   6.284
 3943SOL     OW12727   0.020   2.888   2.954
 3943SOL    HW112728   0.008   2.984   2.982
 3943SOL    HW212729   6.958   2.841   2.961
 3944SOL     OW12730   4.479   2.489   5.017
 3944SOL    HW112731   4.500   2.393   5.035
 3944SOL    HW212732   4.381   2.505   5.028
 3945SOL     OW12733   1.020   1.691   0.356
 3945SOL    HW112734   0.945   1.754   0.376
 3945SOL    HW212735   1.070   1.722   0.275
 3946SOL     OW12736   6.021   4.900   5.037
 3946SOL    HW112737   6.023   4.994   5.072
 3946SOL    HW212738   5.979   4.840   5.105
 3947SOL     OW12739   5.183   6.550   0.469
 3947SOL    HW112740   5.237   6.484   0.416
 3947SOL    HW212741   5.233   6.575   0.551
 3948SOL     OW12742   0.492   4.977   2.607
 3948SOL    HW112743   0.463   5.010   2.517
 3948SOL    HW212744   0.590   4.958   2.606
 3949SOL     OW12745   4.832   0.468   3.188
 3949SOL    HW112746   4.910   0.528   3.170
 3949SOL    HW212747   4.853   0.407   3.265
 3950SOL     OW12748   1.497   4.248   0.787
 3950SOL    HW112749   1.523   4.163   0.742
 3950SOL    HW212750   1.579   4.293   0.824
 3951SOL     OW12751   4.984   6.849   1.499
 3951SOL    HW112752   4.940   6.797   1.425
 3951SOL    HW212753   4.993   6.944   1.472
 3952SOL     OW12754   6.754   2.220   2.449
 3952SOL    HW112755   6.839   2.173   2.471
 3952SOL    HW212756   6.759   2.258   2.357
 3953SOL     OW12757   3.567   4.977   1.402
 3953SOL    HW112758   3.577   4.886   1.441
 3953SOL    HW212759   3.501   4.975   1.327
 3954SOL     OW12760   4.048   5.098   4.937
 3954SOL    HW112761   4.101   5.034   4.881
 3954SOL    HW212762   4.108   5.169   4.972
 3955SOL     OW12763   3.121   6.866   6.334
 3955SOL    HW112764   3.136   6.866   6.235
 3955SOL    HW212765   3.190   6.923   6.379
 3956SOL     OW12766   0.883   0.703   2.810
 3956SOL    HW112767   0.842   0.757   2.884
 3956SOL    HW212768   0.844   0.731   2.723
 3957SOL     OW12769   4.876   6.652   4.123
 3957SOL    HW112770   4.970   6.686   4.134
 3957SOL    HW212771   4.876   6.552   4.128
 3958SOL     OW12772   5.571   1.203   4.786
 3958SOL    HW112773   5.486   1.255   4.785
 3958SOL    HW212774   5.647   1.263   4.810
 3959SOL     OW12775   3.712   6.417   0.464
 3959SOL    HW112776   3.786   6.471   0.504
 3959SOL    HW212777   3.666   6.471   0.393
 3960SOL     OW12778   4.867   1.672   6.390
 3960SOL    HW112779   4.927   1.612   6.443
 3960SOL    HW212780   4.908   1.763   6.383
 3961SOL     OW12781   5.618   1.333   2.620
 3961SOL    HW112782   5.615   1.422   2.575
 3961SOL    HW212783   5.537   1.280   2.594
 3962SOL     OW12784   2.407   4.226   6.591
 3962SOL    HW112785   2.319   4.199   6.552
 3962SOL    HW212786   2.439   4.155   6.654
 3963SOL     OW12787   5.055   5.510   3.035
 3963SOL    HW112788   4.983   5.556   2.984
 3963SOL    HW212789   5.020   5.423   3.070
 3964SOL     OW12790   4.671   5.316   3.901
 3964SOL    HW112791   4.633   5.408   3.899
 3964SOL    HW212792   4.763   5.318   3.942
 3965SOL     OW12793   5.072   2.862   4.279
 3965SOL    HW112794   5.028   2.807   4.350
 3965SOL    HW212795   5.114   2.943   4.320
 3966SOL     OW12796   4.649   6.106   6.249
 3966SOL    HW112797   4.737   6.103   6.298
 3966SOL    HW212798   4.666   6.124   6.152
 3967SOL     OW12799   2.154   3.895   2.189
 3967SOL    HW112800   2.210   3.974   2.164
 3967SOL    HW212801   2.190   3.853   2.273
 3968SOL     OW12802   4.498   0.254   1.208
 3968SOL    HW112803   4.552   0.278   1.128
 3968SOL    HW212804   4.407   0.294   1.199
 3969SOL     OW12805   1.198   4.288   2.366
 3969SOL    HW112806   1.184   4.198   2.325
 3969SOL    HW212807   1.184   4.282   2.465
 3970SOL     OW12808   5.876   6.356   3.402
 3970SOL    HW112809   5.863   6.383   3.306
 3970SOL    HW212810   5.909   6.262   3.406
 3971SOL     OW12811   3.392   5.558   3.606
 3971SOL    HW112812   3.292   5.559   3.600
 3971SOL    HW212813   3.424   5.637   3.658
 3972SOL     OW12814   1.244   3.703   0.647
 3972SOL    HW112815   1.276   3.622   0.697
 3972SOL    HW212816   1.157   3.683   0.604
 3973SOL     OW12817   1.460   5.975   6.211
 3973SOL    HW112818   1.435   5.951   6.117
 3973SOL    HW212819   1.432   6.068   6.230
 3974SOL     OW12820   2.245   0.402   5.642
 3974SOL    HW112821   2.282   0.433   5.555
 3974SOL    HW212822   2.157   0.445   5.658
 3975SOL     OW12823   5.095   1.804   5.738
 3975SOL    HW112824   5.112   1.707   5.755
 3975SOL    HW212825   5.009   1.814   5.688
 3976SOL     OW12826   1.366   6.474   1.806
 3976SOL    HW112827   1.369   6.449   1.903
 3976SOL    HW212828   1.378   6.392   1.751
 3977SOL     OW12829   1.764   3.605   6.097
 3977SOL    HW112830   1.781   3.515   6.138
 3977SOL    HW212831   1.794   3.604   6.001
 3978SOL     OW12832   6.028   5.342   4.175
 3978SOL    HW112833   6.068   5.434   4.174
 3978SOL    HW212834   5.982   5.327   4.263
 3979SOL     OW12835   3.365   0.507   0.142
 3979SOL    HW112836   3.331   0.429   0.193
 3979SOL    HW212837   3.459   0.488   0.111
 3980SOL     OW12838   5.642   6.333   6.974
 3980SOL    HW112839   5.616   6.417   7.021
 3980SOL    HW212840   5.740   6.316   6.988
 3981SOL     OW12841   3.303   0.336   0.705
 3981SOL    HW112842   3.274   0.352   0.799
 3981SOL    HW212843   3.401   0.316   0.703
 3982SOL     OW12844   2.786   6.831   3.515
 3982SOL    HW112845   2.696   6.849   3.474
 3982SOL    HW212846   2.813   6.737   3.495
 3983SOL     OW12847   5.128   4.989   3.949
 3983SOL    HW112848   5.065   4.996   4.026
 3983SOL    HW212849   5.196   5.062   3.955
 3984SOL     OW12850   6.634   0.872   2.477
 3984SOL    HW112851   6.593   0.802   2.419
 3984SOL    HW212852   6.729   0.887   2.449
 3985SOL     OW12853   2.545   4.905   6.587
 3985SOL    HW112854   2.571   4.849   6.509
 3985SOL    HW212855   2.502   4.847   6.656
 3986SOL     OW12856   5.317   1.541   2.585
 3986SOL    HW112857   5.224   1.575   2.572
 3986SOL    HW212858   5.314   1.457   2.640
 3987SOL     OW12859   3.935   4.855   3.136
 3987SOL    HW112860   3.947   4.855   3.036
 3987SOL    HW212861   3.841   4.831   3.158
 3988SOL     OW12862   2.903   5.102   6.829
 3988SOL    HW112863   3.003   5.104   6.829
 3988SOL    HW212864   2.870   5.051   6.750
 3989SOL     OW12865   6.953   2.600   0.010
 3989SOL    HW112866   6.917   2.529   0.071
 3989SOL    HW212867   6.980   2.559   6.949
 3990SOL     OW12868   4.477   2.012   2.842
 3990SOL    HW112869   4.435   2.095   2.804
 3990SOL    HW212870   4.409   1.939   2.844
 3991SOL     OW12871   6.418   0.898   2.632
 3991SOL    HW112872   6.340   0.880   2.572
 3991SOL    HW212873   6.503   0.889   2.580
 3992SOL     OW12874   3.283   1.579   0.188
 3992SOL    HW112875   3.280   1.641   0.266
 3992SOL    HW212876   3.310   1.488   0.219
 3993SOL     OW12877   1.267   2.650   2.259
 3993SOL    HW112878   1.213   2.727   2.294
 3993SOL    HW212879   1.210   2.568   2.254
 3994SOL     OW12880   1.569   0.153   6.272
 3994SOL    HW112881   1.650   0.122   6.322
 3994SOL    HW212882   1.489   0.103   6.304
 3995SOL     OW12883   2.384   3.595   6.331
 3995SOL    HW112884   2.287   3.617   6.322
 3995SOL    HW212885   2.436   3.642   6.259
 3996SOL     OW12886   0.759   6.634   4.495
 3996SOL    HW112887   0.715   6.694   4.562
 3996SOL    HW212888   0.779   6.546   4.537
 3997SOL     OW12889   5.649   1.338   2.994
 3997SOL    HW112890   5.747   1.354   2.999
 3997SOL    HW212891   5.627   1.250   3.036
 3998SOL     OW12892   3.960   1.083   3.519
 3998SOL    HW112893   3.999   1.023   3.589
 3998SOL    HW212894   4.006   1.067   3.432
 3999SOL     OW12895   5.489   2.881   4.164
 3999SOL    HW112896   5.569   2.928   4.126
 3999SOL    HW212897   5.409   2.902   4.108
 4000SOL     OW12898   3.445   0.186   3.772
 4000SOL    HW112899   3.463   0.144   3.683
 4000SOL    HW212900   3.440   0.285   3.761
 4001SOL     OW12901   2.497   1.527   3.749
 4001SOL    HW112902   2.503   1.540   3.650
 4001SOL    HW212903   2.577   1.567   3.793
 4002SOL     OW12904   3.168   4.353   0.565
 4002SOL    HW112905   3.249   4.295   0.554
 4002SOL    HW212906   3.129   4.373   0.475
 4003SOL     OW12907   3.766   0.086   3.834
 4003SOL    HW112908   3.680   0.098   3.785
 4003SOL    HW212909   3.788   0.171   3.883
 4004SOL     OW12910   5.502   1.994   3.979
 4004SOL    HW112911   5.419   1.959   3.938
 4004SOL    HW212912   5.480   2.044   4.063
 4005SOL     OW12913   4.932   5.528   6.905
 4005SOL    HW112914   4.961   5.432   6.899
 4005SOL    HW212915   5.013   5.586   6.911
 4006SOL     OW12916   4.482   5.199   2.461
 4006SOL    HW112917   4.526   5.165   2.545
 4006SOL    HW212918   4.489   5.298   2.458
 4007SOL     OW12919   7.017   2.289   6.623
 4007SOL    HW112920   0.080   2.244   6.634
 4007SOL    HW212921   7.004   2.314   6.527
 4008SOL     OW12922   2.919   1.971   4.738
 4008SOL    HW112923   2.992   1.948   4.674
 4008SOL    HW212924   2.913   1.899   4.807
 4009SOL     OW12925   4.554   3.248   1.283
 4009SOL    HW112926   4.508   3.320   1.336
 4009SOL    HW212927   4.632   3.288   1.234
 4010SOL     OW12928   2.315   2.810   1.528
 4010SOL    HW112929   2.280   2.837   1.438
 4010SOL    HW212930   2.353   2.718   1.522
 4011SOL     OW12931   0.505   1.018   2.166
 4011SOL    HW112932   0.493   0.996   2.069
 4011SOL    HW212933   0.560   1.101   2.174
 4012SOL     OW12934   6.720   4.468   1.710
 4012SOL    HW112935   6.679   4.492   1.798
 4012SOL    HW212936   6.648   4.447   1.644
 4013SOL     OW12937   3.353   1.244   5.101
 4013SOL    HW112938   3.256   1.270   5.100
 4013SOL    HW212939   3.364   1.159   5.152
 4014SOL     OW12940   5.307   6.226   2.474
 4014SOL    HW112941   5.407   6.231   2.478
 4014SOL    HW212942   5.268   6.279   2.549
 4015SOL     OW12943   4.728   4.752   6.337
 4015SOL    HW112944   4.813   4.797   6.310
 4015SOL    HW212945   4.667   4.746   6.259
 4016SOL     OW12946   2.325   6.374   6.098
 4016SOL    HW112947   2.345   6.368   6.196
 4016SOL    HW212948   2.287   6.464   6.078
 4017SOL     OW12949   6.778   6.217   0.723
 4017SOL    HW112950   6.842   6.194   0.650
 4017SOL    HW212951   6.827   6.265   0.796
 4018SOL     OW12952   3.830   5.789   2.468
 4018SOL    HW112953   3.815   5.711   2.407
 4018SOL    HW212954   3.747   5.805   2.522
 4019SOL     OW12955   5.135   4.392   3.325
 4019SOL    HW112956   5.055   4.334   3.339
 4019SOL    HW212957   5.218   4.339   3.342
 4020SOL     OW12958   4.730   2.073   5.133
 4020SOL    HW112959   4.740   2.029   5.044
 4020SOL    HW212960   4.815   2.121   5.157
 4021SOL     OW12961   3.891   5.084   6.189
 4021SOL    HW112962   3.824   5.038   6.247
 4021SOL    HW212963   3.898   5.180   6.215
 4022SOL     OW12964   4.934   1.600   6.965
 4022SOL    HW112965   4.956   1.693   6.994
 4022SOL    HW212966   5.018   1.552   6.940
 4023SOL     OW12967   6.277   2.043   4.655
 4023SOL    HW112968   6.253   2.035   4.558
 4023SOL    HW212969   6.350   1.977   4.676
 4024SOL     OW12970   3.530   6.595   4.350
 4024SOL    HW112971   3.457   6.659   4.374
 4024SOL    HW212972   3.506   6.547   4.266
 4025SOL     OW12973   0.579   3.591   2.867
 4025SOL    HW112974   0.591   3.679   2.820
 4025SOL    HW212975   0.665   3.540   2.864
 4026SOL     OW12976   5.854   5.773   3.967
 4026SOL    HW112977   5.857   5.727   4.055
 4026SOL    HW212978   5.910   5.856   3.970
 4027SOL     OW12979   3.720   4.083   2.470
 4027SOL    HW112980   3.682   4.164   2.515
 4027SOL    HW212981   3.791   4.044   2.528
 4028SOL     OW12982   1.778   2.106   4.348
 4028SOL    HW112983   1.680   2.124   4.341
 4028SOL    HW212984   1.792   2.012   4.380
 4029SOL     OW12985   2.448   3.955   5.534
 4029SOL    HW112986   2.490   3.934   5.446
 4029SOL    HW212987   2.394   4.039   5.526
 4030SOL     OW12988   0.643   2.155   5.609
 4030SOL    HW112989   0.719   2.139   5.673
 4030SOL    HW212990   0.557   2.162   5.660
 4031SOL     OW12991   4.353   5.563   3.648
 4031SOL    HW112992   4.262   5.530   3.622
 4031SOL    HW212993   4.421   5.525   3.586
 4032SOL     OW12994   6.108   6.740   3.989
 4032SOL    HW112995   6.112   6.830   3.947
 4032SOL    HW212996   6.178   6.681   3.949
 4033SOL     OW12997   3.164   3.974   4.478
 4033SOL    HW112998   3.114   3.916   4.543
 4033SOL    HW212999   3.141   3.947   4.385
 4034SOL     OW13000   6.475   1.432   4.480
 4034SOL    HW113001   6.432   1.350   4.518
 4034SOL    HW213002   6.545   1.405   4.414
 4035SOL     OW13003   0.321   4.557   6.750
 4035SOL    HW113004   0.282   4.506   6.827
 4035SOL    HW213005   0.416   4.529   6.736
 4036SOL     OW13006   6.200   6.128   2.614
 4036SOL    HW113007   6.296   6.129   2.639
 4036SOL    HW213008   6.176   6.040   2.574
 4037SOL     OW13009   1.195   4.001   6.290
 4037SOL    HW113010   1.181   3.977   6.194
 4037SOL    HW213011   1.134   3.947   6.348
 4038SOL     OW13012   5.412   4.277   3.068
 4038SOL    HW113013   5.427   4.309   2.974
 4038SOL    HW213014   5.470   4.330   3.131
 4039SOL     OW13015   5.507   6.214   0.673
 4039SOL    HW113016   5.548   6.202   0.583
 4039SOL    HW213017   5.560   6.282   0.724
 4040SOL     OW13018   3.105   6.784   1.170
 4040SOL    HW113019   3.159   6.796   1.253
 4040SOL    HW213020   3.012   6.817   1.185
 4041SOL     OW13021   1.251   6.636   3.322
 4041SOL    HW113022   1.263   6.736   3.319
 4041SOL    HW213023   1.264   6.604   3.416
 4042SOL     OW13024   5.753   5.377   2.156
 4042SOL    HW113025   5.772   5.391   2.253
 4042SOL    HW213026   5.739   5.280   2.138
 4043SOL     OW13027   5.234   1.970   2.452
 4043SOL    HW113028   5.158   2.018   2.497
 4043SOL    HW213029   5.285   2.034   2.395
 4044SOL     OW13030   5.855   0.121   3.160
 4044SOL    HW113031   5.878   0.024   3.169
 4044SOL    HW213032   5.761   0.131   3.127
 4045SOL     OW13033   2.101   5.044   6.587
 4045SOL    HW113034   2.003   5.061   6.600
 4045SOL    HW213035   2.148   5.051   6.675
 4046SOL     OW13036   1.014   2.433   1.790
 4046SOL    HW113037   1.060   2.521   1.806
 4046SOL    HW213038   1.054   2.389   1.709
 4047SOL     OW13039   3.233   3.434   1.787
 4047SOL    HW113040   3.134   3.420   1.782
 4047SOL    HW213041   3.272   3.376   1.859
 4048SOL     OW13042   5.512   0.651   0.474
 4048SOL    HW113043   5.588   0.675   0.414
 4048SOL    HW213044   5.426   0.661   0.424
 4049SOL     OW13045   5.653   6.908   5.788
 4049SOL    HW113046   5.725   6.973   5.812
 4049SOL    HW213047   5.688   6.814   5.799
 4050SOL     OW13048   1.593   6.153   0.586
 4050SOL    HW113049   1.564   6.246   0.611
 4050SOL    HW213050   1.678   6.157   0.533
 4051SOL     OW13051   3.075   4.752   0.724
 4051SOL    HW113052   3.102   4.848   0.731
 4051SOL    HW213053   2.999   4.734   0.787
 4052SOL     OW13054   0.350   0.611   0.019
 4052SOL    HW113055   0.408   0.529   0.020
 4052SOL    HW213056   0.392   0.680   6.985
 4053SOL     OW13057   2.981   5.035   3.819
 4053SOL    HW113058   2.980   5.013   3.721
 4053SOL    HW213059   2.931   4.964   3.869
 4054SOL     OW13060   3.753   1.962   1.028
 4054SOL    HW113061   3.666   1.966   1.077
 4054SOL    HW213062   3.815   2.032   1.063
 4055SOL     OW13063   3.396   2.304   6.475
 4055SOL    HW113064   3.363   2.306   6.381
 4055SOL    HW213065   3.484   2.352   6.481
 4056SOL     OW13066   3.517   2.634   6.701
 4056SOL    HW113067   3.526   2.589   6.790
 4056SOL    HW213068   3.532   2.732   6.712
 4057SOL     OW13069   4.418   3.127   6.231
 4057SOL    HW113070   4.376   3.036   6.230
 4057SOL    HW213071   4.371   3.185   6.297
 4058SOL     OW13072   2.384   1.242   5.378
 4058SOL    HW113073   2.289   1.215   5.398
 4058SOL    HW213074   2.436   1.246   5.463
 4059SOL     OW13075   1.450   1.853   5.182
 4059SOL    HW113076   1.467   1.893   5.092
 4059SOL    HW213077   1.383   1.909   5.231
 4060SOL     OW13078   3.812   4.920   4.059
 4060SOL    HW113079   3.754   4.842   4.036
 4060SOL    HW213080   3.881   4.932   3.988
 4061SOL     OW13081   3.606   4.104   1.901
 4061SOL    HW113082   3.556   4.060   1.827
 4061SOL    HW213083   3.547   4.170   1.947
 4062SOL     OW13084   3.384   0.807   2.653
 4062SOL    HW113085   3.336   0.738   2.708
 4062SOL    HW213086   3.378   0.896   2.699
 4063SOL     OW13087   3.321   5.454   6.173
 4063SOL    HW113088   3.272   5.526   6.222
 4063SOL    HW213089   3.352   5.489   6.084
 4064SOL     OW13090   0.006   0.682   3.419
 4064SOL    HW113091   6.944   0.661   3.376
 4064SOL    HW213092   0.073   0.612   3.393
 4065SOL     OW13093   6.816   7.020   0.788
 4065SOL    HW113094   6.874   0.060   0.739
 4065SOL    HW213095   6.874   6.954   0.835
 4066SOL     OW13096   5.800   4.219   1.813
 4066SOL    HW113097   5.894   4.201   1.842
 4066SOL    HW213098   5.800   4.281   1.735
 4067SOL     OW13099   6.070   0.883   2.714
 4067SOL    HW113100   6.079   0.842   2.624
 4067SOL    HW213101   6.130   0.835   2.779
 4068SOL     OW13102   5.833   0.663   4.081
 4068SOL    HW113103   5.771   0.655   4.003
 4068SOL    HW213104   5.850   0.572   4.119
 4069SOL     OW13105   5.483   5.356   0.741
 4069SOL    HW113106   5.411   5.305   0.788
 4069SOL    HW213107   5.441   5.419   0.676
 4070SOL     OW13108   1.849   3.882   2.999
 4070SOL    HW113109   1.943   3.885   3.034
 4070SOL    HW213110   1.787   3.918   3.068
 4071SOL     OW13111   1.961   0.301   3.937
 4071SOL    HW113112   1.982   0.265   3.846
 4071SOL    HW213113   1.879   0.358   3.931
 4072SOL     OW13114   1.726   0.339   4.474
 4072SOL    HW113115   1.794   0.268   4.495
 4072SOL    HW213116   1.659   0.343   4.548
 4073SOL     OW13117   2.714   5.998   6.712
 4073SOL    HW113118   2.617   6.007   6.689
 4073SOL    HW213119   2.735   6.056   6.790
 4074SOL     OW13120   1.263   2.275   1.130
 4074SOL    HW113121   1.322   2.276   1.211
 4074SOL    HW213122   1.315   2.239   1.052
 4075SOL     OW13123   5.207   1.220   3.165
 4075SOL    HW113124   5.189   1.319   3.164
 4075SOL    HW213125   5.220   1.190   3.260
 4076SOL     OW13126   1.647   3.431   4.632
 4076SOL    HW113127   1.681   3.497   4.699
 4076SOL    HW213128   1.679   3.456   4.541
 4077SOL     OW13129   3.397   0.949   0.674
 4077SOL    HW113130   3.347   0.917   0.754
 4077SOL    HW213131   3.394   1.048   0.669
 4078SOL     OW13132   6.352   3.924   1.389
 4078SOL    HW113133   6.295   4.006   1.390
 4078SOL    HW213134   6.339   3.873   1.474
 4079SOL     OW13135   0.667   0.815   3.887
 4079SOL    HW113136   0.608   0.781   3.814
 4079SOL    HW213137   0.649   0.912   3.901
 4080SOL     OW13138   3.606   3.735   1.615
 4080SOL    HW113139   3.527   3.714   1.673
 4080SOL    HW213140   3.687   3.748   1.672
 4081SOL     OW13141   1.469   2.273   5.755
 4081SOL    HW113142   1.421   2.324   5.826
 4081SOL    HW213143   1.561   2.310   5.743
 4082SOL     OW13144   0.891   2.846   5.172
 4082SOL    HW113145   0.962   2.889   5.227
 4082SOL    HW213146   0.930   2.769   5.122
 4083SOL     OW13147   5.914   4.718   3.518
 4083SOL    HW113148   6.000   4.744   3.474
 4083SOL    HW213149   5.841   4.779   3.487
 4084SOL     OW13150   4.164   0.970   3.311
 4084SOL    HW113151   4.209   1.052   3.277
 4084SOL    HW213152   4.088   0.946   3.251
 4085SOL     OW13153   2.944   5.154   2.162
 4085SOL    HW113154   2.859   5.102   2.177
 4085SOL    HW213155   2.966   5.206   2.244
 4086SOL     OW13156   6.704   5.595   6.336
 4086SOL    HW113157   6.639   5.520   6.320
 4086SOL    HW213158   6.697   5.626   6.431
 4087SOL     OW13159   2.405   0.146   2.418
 4087SOL    HW113160   2.439   0.223   2.473
 4087SOL    HW213161   2.341   0.179   2.349
 4088SOL     OW13162   0.169   1.304   5.509
 4088SOL    HW113163   0.121   1.330   5.425
 4088SOL    HW213164   0.158   1.376   5.577
 4089SOL     OW13165   0.110   0.019   3.543
 4089SOL    HW113166   0.140   0.038   3.450
 4089SOL    HW213167   0.075   6.951   3.549
 4090SOL     OW13168   2.633   0.232   5.497
 4090SOL    HW113169   2.603   0.138   5.485
 4090SOL    HW213170   2.696   0.256   5.423
 4091SOL     OW13171   2.075   5.393   1.264
 4091SOL    HW113172   2.156   5.451   1.267
 4091SOL    HW213173   2.077   5.337   1.180
 4092SOL     OW13174   4.998   3.350   4.156
 4092SOL    HW113175   5.050   3.417   4.209
 4092SOL    HW213176   4.937   3.300   4.217
 4093SOL     OW13177   5.236   5.881   3.043
 4093SOL    HW113178   5.318   5.927   3.077
 4093SOL    HW213179   5.240   5.874   2.944
 4094SOL     OW13180   0.081   5.906   6.796
 4094SOL    HW113181   0.134   5.972   6.743
 4094SOL    HW213182   0.018   5.858   6.735
 4095SOL     OW13183   0.113   5.078   0.145
 4095SOL    HW113184   0.040   5.128   0.191
 4095SOL    HW213185   0.152   5.134   0.072
 4096SOL     OW13186   2.049   2.009   6.775
 4096SOL    HW113187   2.050   1.947   6.697
 4096SOL    HW213188   1.961   2.056   6.779
 4097SOL     OW13189   7.019   4.587   5.146
 4097SOL    HW113190   6.920   4.574   5.151
 4097SOL    HW213191   0.035   4.568   5.235
 4098SOL     OW13192   2.144   5.049   3.211
 4098SOL    HW113193   2.125   4.994   3.293
 4098SOL    HW213194   2.221   5.110   3.230
 4099SOL     OW13195   4.694   4.632   5.984
 4099SOL    HW113196   4.644   4.585   5.912
 4099SOL    HW213197   4.637   4.637   6.066
 4100SOL     OW13198   1.517   0.543   3.607
 4100SOL    HW113199   1.503   0.564   3.703
 4100SOL    HW213200   1.502   0.626   3.552
 4101SOL     OW13201   6.329   0.561   6.905
 4101SOL    HW113202   6.322   0.659   6.886
 4101SOL    HW213203   6.239   0.519   6.897
 4102SOL     OW13204   1.774   0.587   6.754
 4102SOL    HW113205   1.840   0.635   6.697
 4102SOL    HW213206   1.814   0.501   6.787
 4103SOL     OW13207   1.662   6.599   2.265
 4103SOL    HW113208   1.727   6.572   2.194
 4103SOL    HW213209   1.711   6.623   2.348
 4104SOL     OW13210   0.362   5.817   3.513
 4104SOL    HW113211   0.456   5.821   3.549
 4104SOL    HW213212   0.348   5.891   3.448
 4105SOL     OW13213   4.805   0.965   1.097
 4105SOL    HW113214   4.728   0.906   1.075
 4105SOL    HW213215   4.873   0.961   1.023
 4106SOL     OW13216   0.175   2.238   3.626
 4106SOL    HW113217   0.242   2.312   3.639
 4106SOL    HW213218   0.104   2.269   3.563
 4107SOL     OW13219   0.128   6.458   6.294
 4107SOL    HW113220   0.100   6.460   6.390
 4107SOL    HW213221   0.048   6.451   6.236
 4108SOL     OW13222   6.925   5.157   3.687
 4108SOL    HW113223   6.916   5.060   3.663
 4108SOL    HW213224   6.844   5.206   3.657
 4109SOL     OW13225   6.186   6.224   3.219
 4109SOL    HW113226   6.255   6.281   3.177
 4109SOL    HW213227   6.220   6.190   3.307
 4110SOL     OW13228   4.728   4.118   0.340
 4110SOL    HW113229   4.762   4.082   0.427
 4110SOL    HW213230   4.628   4.114   0.340
 4111SOL     OW13231   6.933   4.065   4.257
 4111SOL    HW113232   6.890   3.977   4.237
 4111SOL    HW213233   6.911   4.092   4.351
 4112SOL     OW13234   4.693   0.096   5.156
 4112SOL    HW113235   4.664   0.034   5.083
 4112SOL    HW213236   4.785   0.129   5.136
 4113SOL     OW13237   4.655   4.486   4.664
 4113SOL    HW113238   4.686   4.392   4.675
 4113SOL    HW213239   4.714   4.532   4.597
 4114SOL     OW13240   6.777   1.299   2.686
 4114SOL    HW113241   6.722   1.226   2.727
 4114SOL    HW213242   6.841   1.260   2.621
 4115SOL     OW13243   3.347   5.140   3.726
 4115SOL    HW113244   3.276   5.210   3.732
 4115SOL    HW213245   3.388   5.127   3.817
 4116SOL     OW13246   5.124   2.609   3.244
 4116SOL    HW113247   5.153   2.640   3.153
 4116SOL    HW213248   5.043   2.551   3.235
 4117SOL     OW13249   1.215   2.650   2.618
 4117SOL    HW113250   1.283   2.581   2.643
 4117SOL    HW213251   1.236   2.736   2.665
 4118SOL     OW13252   6.911   6.888   6.210
 4118SOL    HW113253   6.901   6.790   6.193
 4118SOL    HW213254   6.917   6.904   6.309
 4119SOL     OW13255   1.918   1.089   3.922
 4119SOL    HW113256   1.849   1.059   3.987
 4119SOL    HW213257   1.993   1.134   3.972
 4120SOL     OW13258   2.177   1.057   6.314
 4120SOL    HW113259   2.222   1.138   6.350
 4120SOL    HW213260   2.097   1.035   6.369
 4121SOL     OW13261   6.747   0.018   1.929
 4121SOL    HW113262   6.737   0.113   1.901
 4121SOL    HW213263   6.709   0.006   2.021
 4122SOL     OW13264   0.028   4.379   4.463
 4122SOL    HW113265   0.001   4.470   4.432
 4122SOL    HW213266   0.115   4.384   4.512
 4123SOL     OW13267   3.812   4.942   2.350
 4123SOL    HW113268   3.875   4.910   2.420
 4123SOL    HW213269   3.836   4.899   2.262
 4124SOL     OW13270   6.518   5.875   0.282
 4124SOL    HW113271   6.601   5.926   0.260
 4124SOL    HW213272   6.438   5.930   0.261
 4125SOL     OW13273   5.691   2.054   2.015
 4125SOL    HW113274   5.781   2.087   1.984
 4125SOL    HW213275   5.684   2.064   2.114
 4126SOL     OW13276   0.866   3.062   2.278
 4126SOL    HW113277   0.846   3.020   2.366
 4126SOL    HW213278   0.927   3.140   2.292
 4127SOL     OW13279   3.912   1.828   3.949
 4127SOL    HW113280   3.944   1.804   4.041
 4127SOL    HW213281   3.883   1.924   3.948
 4128SOL     OW13282   0.447   3.399   1.093
 4128SOL    HW113283   0.445   3.332   1.167
 4128SOL    HW213284   0.382   3.472   1.112
 4129SOL     OW13285   2.642   2.943   0.663
 4129SOL    HW113286   2.647   2.843   0.667
 4129SOL    HW213287   2.689   2.976   0.582
 4130SOL     OW13288   6.155   3.223   1.569
 4130SOL    HW113289   6.142   3.226   1.668
 4130SOL    HW213290   6.229   3.285   1.544
 4131SOL     OW13291   4.293   0.872   2.384
 4131SOL    HW113292   4.378   0.924   2.392
 4131SOL    HW213293   4.313   0.780   2.350
 4132SOL     OW13294   0.149   4.062   4.400
 4132SOL    HW113295   0.057   4.086   4.369
 4132SOL    HW213296   0.165   3.965   4.385
 4133SOL     OW13297   6.012   7.010   1.980
 4133SOL    HW113298   6.086   0.052   1.982
 4133SOL    HW213299   6.023   6.951   1.900
 4134SOL     OW13300   2.359   3.163   1.213
 4134SOL    HW113301   2.312   3.251   1.217
 4134SOL    HW213302   2.357   3.121   1.304
 4135SOL     OW13303   6.905   0.897   2.445
 4135SOL    HW113304   6.891   0.876   2.348
 4135SOL    HW213305   6.992   0.856   2.475
 4136SOL     OW13306   1.514   4.562   2.163
 4136SOL    HW113307   1.475   4.654   2.168
 4136SOL    HW213308   1.573   4.548   2.242
 4137SOL     OW13309   1.698   2.931   0.345
 4137SOL    HW113310   1.720   2.994   0.271
 4137SOL    HW213311   1.783   2.891   0.381
 4138SOL     OW13312   4.449   6.157   0.798
 4138SOL    HW113313   4.354   6.138   0.824
 4138SOL    HW213314   4.472   6.251   0.822
 4139SOL     OW13315   2.205   2.392   3.125
 4139SOL    HW113316   2.302   2.408   3.146
 4139SOL    HW213317   2.198   2.345   3.037
 4140SOL     OW13318   2.553   2.190   4.851
 4140SOL    HW113319   2.457   2.172   4.872
 4140SOL    HW213320   2.573   2.286   4.870
 4141SOL     OW13321   4.333   0.179   0.085
 4141SOL    HW113322   4.251   0.214   0.041
 4141SOL    HW213323   4.315   0.166   0.183
 4142SOL     OW13324   0.709   4.463   3.148
 4142SOL    HW113325   0.626   4.421   3.186
 4142SOL    HW213326   0.754   4.518   3.219
 4143SOL     OW13327   5.831   2.840   0.984
 4143SOL    HW113328   5.824   2.826   0.885
 4143SOL    HW213329   5.860   2.756   1.028
 4144SOL     OW13330   5.664   2.048   0.516
 4144SOL    HW113331   5.709   2.032   0.604
 4144SOL    HW213332   5.646   2.146   0.505
 4145SOL     OW13333   6.993   6.824   1.411
 4145SOL    HW113334   6.984   6.738   1.462
 4145SOL    HW213335   0.003   6.805   1.319
 4146SOL     OW13336   5.369   6.751   3.753
 4146SOL    HW113337   5.468   6.742   3.741
 4146SOL    HW213338   5.349   6.775   3.847
 4147SOL     OW13339   4.940   4.055   5.233
 4147SOL    HW113340   4.849   4.096   5.242
 4147SOL    HW213341   4.967   4.055   5.137
 4148SOL     OW13342   3.064   1.487   5.619
 4148SOL    HW113343   3.054   1.585   5.640
 4148SOL    HW213344   2.977   1.441   5.632
 4149SOL     OW13345   1.924   2.804   0.429
 4149SOL    HW113346   1.934   2.827   0.526
 4149SOL    HW213347   1.888   2.711   0.420
 4150SOL     OW13348   5.662   2.443   6.299
 4150SOL    HW113349   5.596   2.518   6.294
 4150SOL    HW213350   5.666   2.396   6.210
 4151SOL     OW13351   2.395   6.676   4.834
 4151SOL    HW113352   2.389   6.724   4.747
 4151SOL    HW213353   2.369   6.580   4.821
 4152SOL     OW13354   3.138   5.496   1.585
 4152SOL    HW113355   3.146   5.432   1.509
 4152SOL    HW213356   3.042   5.517   1.601
 4153SOL     OW13357   6.905   4.858   1.786
 4153SOL    HW113358   6.922   4.935   1.846
 4153SOL    HW213359   6.974   4.787   1.803
 4154SOL     OW13360   1.245   5.747   4.422
 4154SOL    HW113361   1.233   5.843   4.398
 4154SOL    HW213362   1.287   5.740   4.513
 4155SOL     OW13363   0.869   2.251   1.939
 4155SOL    HW113364   0.928   2.304   1.879
 4155SOL    HW213365   0.782   2.299   1.950
 4156SOL     OW13366   6.693   4.952   5.099
 4156SOL    HW113367   6.671   4.894   5.021
 4156SOL    HW213368   6.681   5.048   5.074
 4157SOL     OW13369   6.740   6.269   2.061
 4157SOL    HW113370   6.713   6.208   1.986
 4157SOL    HW213371   6.660   6.320   2.093
 4158SOL     OW13372   1.640   2.384   2.103
 4158SOL    HW113373   1.728   2.353   2.138
 4158SOL    HW213374   1.618   2.334   2.019
 4159SOL     OW13375   2.557   1.463   3.074
 4159SOL    HW113376   2.492   1.464   2.998
 4159SOL    HW213377   2.544   1.381   3.129
 4160SOL     OW13378   6.511   0.238   6.496
 4160SOL    HW113379   6.599   0.235   6.542
 4160SOL    HW213380   6.520   0.198   6.404
 4161SOL     OW13381   2.512   2.297   1.537
 4161SOL    HW113382   2.596   2.251   1.509
 4161SOL    HW213383   2.441   2.281   1.469
 4162SOL     OW13384   6.606   6.318   1.172
 4162SOL    HW113385   6.593   6.401   1.117
 4162SOL    HW213386   6.541   6.318   1.248
 4163SOL     OW13387   3.880   6.363   1.042
 4163SOL    HW113388   3.901   6.335   0.948
 4163SOL    HW213389   3.839   6.454   1.040
 4164SOL     OW13390   0.277   6.552   4.785
 4164SOL    HW113391   0.270   6.501   4.871
 4164SOL    HW213392   0.364   6.601   4.781
 4165SOL     OW13393   4.204   1.238   5.529
 4165SOL    HW113394   4.257   1.308   5.576
 4165SOL    HW213395   4.223   1.149   5.569
 4166SOL     OW13396   5.897   0.605   2.628
 4166SOL    HW113397   5.848   0.523   2.599
 4166SOL    HW213398   5.833   0.671   2.666
 4167SOL     OW13399   3.780   4.962   5.506
 4167SOL    HW113400   3.843   4.953   5.429
 4167SOL    HW213401   3.758   5.058   5.520
 4168SOL     OW13402   6.153   4.177   0.454
 4168SOL    HW113403   6.134   4.276   0.450
 4168SOL    HW213404   6.167   4.150   0.549
 4169SOL     OW13405   4.908   4.066   4.955
 4169SOL    HW113406   4.871   3.982   4.915
 4169SOL    HW213407   4.992   4.092   4.908
 4170SOL     OW13408   5.515   3.078   4.628
 4170SOL    HW113409   5.611   3.049   4.629
 4170SOL    HW213410   5.462   3.022   4.692
 4171SOL     OW13411   1.287   3.901   1.066
 4171SOL    HW113412   1.327   3.978   1.114
 4171SOL    HW213413   1.352   3.825   1.062
 4172SOL     OW13414   3.240   3.591   0.714
 4172SOL    HW113415   3.317   3.569   0.775
 4172SOL    HW213416   3.265   3.670   0.656
 4173SOL     OW13417   4.538   2.837   5.226
 4173SOL    HW113418   4.587   2.794   5.150
 4173SOL    HW213419   4.452   2.789   5.243
 4174SOL     OW13420   4.669   0.367   4.402
 4174SOL    HW113421   4.586   0.371   4.457
 4174SOL    HW213422   4.693   0.271   4.385
 4175SOL     OW13423   1.733   4.490   6.649
 4175SOL    HW113424   1.700   4.479   6.555
 4175SOL    HW213425   1.657   4.479   6.712
 4176SOL     OW13426   4.686   6.579   0.008
 4176SOL    HW113427   4.613   6.555   0.072
 4176SOL    HW213428   4.648   6.595   6.943
 4177SOL     OW13429   4.680   4.896   4.539
 4177SOL    HW113430   4.604   4.907   4.602
 4177SOL    HW213431   4.730   4.812   4.561
 4178SOL     OW13432   2.944   5.616   2.149
 4178SOL    HW113433   3.042   5.623   2.167
 4178SOL    HW213434   2.910   5.529   2.182
 4179SOL     OW13435   5.162   3.169   4.035
 4179SOL    HW113436   5.093   3.239   4.052
 4179SOL    HW213437   5.248   3.194   4.080
 4180SOL     OW13438   5.597   3.259   0.675
 4180SOL    HW113439   5.581   3.265   0.773
 4180SOL    HW213440   5.675   3.199   0.657
 4181SOL     OW13441   5.239   0.500   5.418
 4181SOL    HW113442   5.215   0.464   5.508
 4181SOL    HW213443   5.294   0.433   5.369
 4182SOL     OW13444   0.306   5.980   3.955
 4182SOL    HW113445   0.394   6.026   3.950
 4182SOL    HW213446   0.264   5.997   4.045
 4183SOL     OW13447   2.596   1.169   2.117
 4183SOL    HW113448   2.548   1.203   2.036
 4183SOL    HW213449   2.635   1.079   2.097
 4184SOL     OW13450   3.265   6.582   3.035
 4184SOL    HW113451   3.296   6.609   3.126
 4184SOL    HW213452   3.187   6.520   3.043
 4185SOL     OW13453   6.826   3.637   3.226
 4185SOL    HW113454   6.818   3.584   3.141
 4185SOL    HW213455   6.878   3.585   3.294
 4186SOL     OW13456   1.404   5.865   6.443
 4186SOL    HW113457   1.437   5.911   6.360
 4186SOL    HW213458   1.482   5.846   6.503
 4187SOL     OW13459   2.049   3.605   6.717
 4187SOL    HW113460   2.091   3.521   6.683
 4187SOL    HW213461   2.030   3.666   6.640
 4188SOL     OW13462   5.011   0.494   6.750
 4188SOL    HW113463   4.981   0.405   6.785
 4188SOL    HW213464   5.052   0.481   6.660
 4189SOL     OW13465   4.837   5.653   2.900
 4189SOL    HW113466   4.808   5.729   2.958
 4189SOL    HW213467   4.892   5.688   2.824
 4190SOL     OW13468   0.197   7.001   0.786
 4190SOL    HW113469   0.286   6.985   0.830
 4190SOL    HW213470   0.162   6.914   0.752
 4191SOL     OW13471   5.011   3.948   5.894
 4191SOL    HW113472   4.947   3.973   5.966
 4191SOL    HW213473   5.019   3.849   5.890
 4192SOL     OW13474   1.245   1.898   2.542
 4192SOL    HW113475   1.164   1.857   2.584
 4192SOL    HW213476   1.226   1.915   2.445
 4193SOL     OW13477   5.810   0.578   0.801
 4193SOL    HW113478   5.712   0.569   0.821
 4193SOL    HW213479   5.839   0.501   0.743
 4194SOL     OW13480   4.202   0.954   5.692
 4194SOL    HW113481   4.284   0.904   5.666
 4194SOL    HW213482   4.130   0.890   5.718
 4195SOL     OW13483   4.622   6.152   2.214
 4195SOL    HW113484   4.663   6.105   2.136
 4195SOL    HW213485   4.661   6.244   2.221
 4196SOL     OW13486   6.643   2.463   3.712
 4196SOL    HW113487   6.598   2.392   3.658
 4196SOL    HW213488   6.730   2.429   3.747
 4197SOL     OW13489   3.786   5.896   5.969
 4197SOL    HW113490   3.876   5.879   6.010
 4197SOL    HW213491   3.717   5.906   6.041
 4198SOL     OW13492   6.465   0.457   2.035
 4198SOL    HW113493   6.507   0.393   2.100
 4198SOL    HW213494   6.366   0.461   2.052
 4199SOL     OW13495   1.587   4.387   6.417
 4199SOL    HW113496   1.496   4.428   6.410
 4199SOL    HW213497   1.582   4.290   6.396
 4200SOL     OW13498   3.964   0.892   5.071
 4200SOL    HW113499   3.882   0.853   5.111
 4200SOL    HW213500   3.964   0.876   4.972
 4201SOL     OW13501   6.379   0.045   3.640
 4201SOL    HW113502   6.388   0.063   3.738
 4201SOL    HW213503   6.311   0.107   3.601
 4202SOL     OW13504   3.668   5.601   0.124
 4202SOL    HW113505   3.614   5.650   0.192
 4202SOL    HW213506   3.715   5.524   0.168
 4203SOL     OW13507   5.536   5.126   0.292
 4203SOL    HW113508   5.448   5.146   0.335
 4203SOL    HW213509   5.609   5.176   0.341
 4204SOL     OW13510   3.195   3.318   6.166
 4204SOL    HW113511   3.127   3.332   6.094
 4204SOL    HW213512   3.282   3.357   6.137
 4205SOL     OW13513   3.603   5.770   4.865
 4205SOL    HW113514   3.675   5.836   4.843
 4205SOL    HW213515   3.600   5.700   4.793
 4206SOL     OW13516   1.622   1.571   5.005
 4206SOL    HW113517   1.548   1.523   4.958
 4206SOL    HW213518   1.608   1.566   5.104
 4207SOL     OW13519   2.323   2.225   1.360
 4207SOL    HW113520   2.371   2.211   1.273
 4207SOL    HW213521   2.236   2.272   1.342
 4208SOL     OW13522   1.750   4.305   5.475
 4208SOL    HW113523   1.668   4.354   5.444
 4208SOL    HW213524   1.728   4.251   5.556
 4209SOL     OW13525   0.336   5.630   2.660
 4209SOL    HW113526   0.254   5.679   2.689
 4209SOL    HW213527   0.328   5.534   2.686
 4210SOL     OW13528   4.057   3.237   4.957
 4210SOL    HW113529   4.004   3.172   4.903
 4210SOL    HW213530   4.123   3.187   5.012
 4211SOL     OW13531   3.837   1.946   5.131
 4211SOL    HW113532   3.868   1.895   5.052
 4211SOL    HW213533   3.742   1.976   5.117
 4212SOL     OW13534   0.044   1.372   3.565
 4212SOL    HW113535   0.045   1.278   3.598
 4212SOL    HW213536   0.007   1.374   3.472
 4213SOL     OW13537   3.127   1.303   2.956
 4213SOL    HW113538   3.119   1.319   3.054
 4213SOL    HW213539   3.054   1.241   2.926
 4214SOL     OW13540   0.756   5.209   4.099
 4214SOL    HW113541   0.678   5.156   4.067
 4214SOL    HW213542   0.767   5.291   4.042
 4215SOL     OW13543   4.818   6.206   5.303
 4215SOL    HW113544   4.772   6.154   5.376
 4215SOL    HW213545   4.867   6.142   5.243
 4216SOL     OW13546   1.658   0.779   3.251
 4216SOL    HW113547   1.628   0.862   3.203
 4216SOL    HW213548   1.758   0.782   3.261
 4217SOL     OW13549   1.070   0.170   2.071
 4217SOL    HW113550   1.117   0.146   1.986
 4217SOL    HW213551   0.974   0.143   2.065
 4218SOL     OW13552   3.582   1.293   1.102
 4218SOL    HW113553   3.623   1.356   1.167
 4218SOL    HW213554   3.501   1.336   1.060
 4219SOL     OW13555   4.047   6.126   4.555
 4219SOL    HW113556   3.949   6.109   4.571
 4219SOL    HW213557   4.064   6.224   4.552
 4220SOL     OW13558   5.219   2.103   1.660
 4220SOL    HW113559   5.177   2.013   1.646
 4220SOL    HW213560   5.173   2.149   1.736
 4221SOL     OW13561   6.525   5.212   6.973
 4221SOL    HW113562   6.555   5.288   6.915
 4221SOL    HW213563   6.500   5.134   6.915
 4222SOL     OW13564   5.488   2.090   3.417
 4222SOL    HW113565   5.468   2.046   3.504
 4222SOL    HW213566   5.585   2.114   3.412
 4223SOL     OW13567   4.185   3.995   1.151
 4223SOL    HW113568   4.220   3.949   1.069
 4223SOL    HW213569   4.155   3.927   1.217
 4224SOL     OW13570   5.129   4.208   4.879
 4224SOL    HW113571   5.216   4.178   4.918
 4224SOL    HW213572   5.121   4.175   4.785
 4225SOL     OW13573   1.296   2.050   5.281
 4225SOL    HW113574   1.341   2.047   5.370
 4225SOL    HW213575   1.252   2.139   5.268
 4226SOL     OW13576   0.518   5.803   4.631
 4226SOL    HW113577   0.594   5.807   4.566
 4226SOL    HW213578   0.490   5.896   4.655
 4227SOL     OW13579   4.960   5.841   1.771
 4227SOL    HW113580   4.950   5.914   1.839
 4227SOL    HW213581   5.035   5.863   1.710
 4228SOL     OW13582   1.236   5.696   4.724
 4228SOL    HW113583   1.160   5.759   4.733
 4228SOL    HW213584   1.218   5.613   4.777
 4229SOL     OW13585   5.830   5.877   6.003
 4229SOL    HW113586   5.879   5.805   6.052
 4229SOL    HW213587   5.805   5.845   5.912
 4230SOL     OW13588   1.421   6.952   2.824
 4230SOL    HW113589   1.485   6.968   2.748
 4230SOL    HW213590   1.372   6.867   2.808
 4231SOL     OW13591   4.833   1.011   5.795
 4231SOL    HW113592   4.918   0.987   5.748
 4231SOL    HW213593   4.818   0.946   5.870
 4232SOL     OW13594   2.485   5.277   3.625
 4232SOL    HW113595   2.573   5.277   3.577
 4232SOL    HW213596   2.473   5.191   3.675
 4233SOL     OW13597   0.128   6.580   4.219
 4233SOL    HW113598   0.099   6.484   4.224
 4233SOL    HW213599   0.081   6.633   4.290
 4234SOL     OW13600   2.011   5.524   5.468
 4234SOL    HW113601   1.968   5.465   5.537
 4234SOL    HW213602   2.107   5.499   5.459
 4235SOL     OW13603   6.757   4.877   5.743
 4235SOL    HW113604   6.823   4.951   5.746
 4235SOL    HW213605   6.689   4.895   5.672
 4236SOL     OW13606   0.499   5.237   2.712
 4236SOL    HW113607   0.586   5.262   2.756
 4236SOL    HW213608   0.498   5.139   2.695
 4237SOL     OW13609   6.640   4.062   4.016
 4237SOL    HW113610   6.700   4.141   4.004
 4237SOL    HW213611   6.677   3.984   3.966
 4238SOL     OW13612   1.478   0.768   3.454
 4238SOL    HW113613   1.416   0.831   3.407
 4238SOL    HW213614   1.569   0.773   3.413
 4239SOL     OW13615   4.180   1.040   3.009
 4239SOL    HW113616   4.213   1.133   2.988
 4239SOL    HW213617   4.256   0.976   3.001
 4240SOL     OW13618   1.796   5.424   0.054
 4240SOL    HW113619   1.889   5.386   0.050
 4240SOL    HW213620   1.734   5.363   0.004
 4241SOL     OW13621   6.675   1.884   0.726
 4241SOL    HW113622   6.585   1.848   0.699
 4241SOL    HW213623   6.709   1.944   0.653
 4242SOL     OW13624   2.338   2.358   3.818
 4242SOL    HW113625   2.275   2.436   3.814
 4242SOL    HW213626   2.288   2.274   3.798
 4243SOL     OW13627   4.861   1.331   2.602
 4243SOL    HW113628   4.763   1.346   2.595
 4243SOL    HW213629   4.908   1.418   2.614
 4244SOL     OW13630   3.821   3.698   1.803
 4244SOL    HW113631   3.834   3.779   1.860
 4244SOL    HW213632   3.895   3.692   1.736
 4245SOL     OW13633   6.594   1.903   6.245
 4245SOL    HW113634   6.608   2.002   6.250
 4245SOL    HW213635   6.590   1.876   6.148
 4246SOL     OW13636   6.693   4.310   3.427
 4246SOL    HW113637   6.785   4.346   3.418
 4246SOL    HW213638   6.692   4.213   3.400
 4247SOL     OW13639   0.275   6.163   4.417
 4247SOL    HW113640   0.373   6.154   4.433
 4247SOL    HW213641   0.238   6.232   4.480
 4248SOL     OW13642   1.552   2.146   5.003
 4248SOL    HW113643   1.473   2.093   4.970
 4248SOL    HW213644   1.626   2.139   4.936
 4249SOL     OW13645   6.436   3.043   5.553
 4249SOL    HW113646   6.394   2.995   5.630
 4249SOL    HW213647   6.516   2.992   5.521
 4250SOL     OW13648   0.205   4.512   3.695
 4250SOL    HW113649   0.286   4.570   3.696
 4250SOL    HW213650   0.231   4.417   3.674
 4251SOL     OW13651   6.213   4.066   0.705
 4251SOL    HW113652   6.235   4.069   0.803
 4251SOL    HW213653   6.296   4.045   0.654
 4252SOL     OW13654   6.594   6.088   4.886
 4252SOL    HW113655   6.688   6.107   4.858
 4252SOL    HW213656   6.536   6.166   4.861
 4253SOL     OW13657   3.704   0.613   1.845
 4253SOL    HW113658   3.646   0.532   1.858
 4253SOL    HW213659   3.722   0.655   1.934
 4254SOL     OW13660   1.433   3.120   1.771
 4254SOL    HW113661   1.468   3.200   1.820
 4254SOL    HW213662   1.339   3.138   1.742
 4255SOL     OW13663   6.161   2.271   3.676
 4255SOL    HW113664   6.196   2.245   3.766
 4255SOL    HW213665   6.151   2.188   3.620
 4256SOL     OW13666   1.576   6.586   1.018
 4256SOL    HW113667   1.613   6.590   1.110
 4256SOL    HW213668   1.538   6.676   0.993
 4257SOL     OW13669   3.203   1.204   5.496
 4257SOL    HW113670   3.269   1.260   5.546
 4257SOL    HW213671   3.236   1.187   5.403
 4258SOL     OW13672   5.789   6.820   2.077
 4258SOL    HW113673   5.841   6.894   2.034
 4258SOL    HW213674   5.771   6.843   2.173
 4259SOL     OW13675   2.350   0.953   6.814
 4259SOL    HW113676   2.418   0.949   6.888
 4259SOL    HW213677   2.378   1.021   6.747
 4260SOL     OW13678   4.351   6.084   4.050
 4260SOL    HW113679   4.359   6.031   3.965
 4260SOL    HW213680   4.390   6.032   4.126
 4261SOL     OW13681   2.484   0.239   1.708
 4261SOL    HW113682   2.482   0.246   1.608
 4261SOL    HW213683   2.565   0.285   1.743
 4262SOL     OW13684   1.475   5.136   5.708
 4262SOL    HW113685   1.411   5.114   5.782
 4262SOL    HW213686   1.568   5.145   5.746
 4263SOL     OW13687   2.580   6.644   4.553
 4263SOL    HW113688   2.648   6.607   4.616
 4263SOL    HW213689   2.517   6.703   4.604
 4264SOL     OW13690   0.099   1.885   1.071
 4264SOL    HW113691   0.135   1.976   1.095
 4264SOL    HW213692   0.039   1.894   0.991
 4265SOL     OW13693   6.260   1.909   6.944
 4265SOL    HW113694   6.349   1.868   6.965
 4265SOL    HW213695   6.188   1.858   6.992
 4266SOL     OW13696   2.797   5.360   0.159
 4266SOL    HW113697   2.802   5.406   0.071
 4266SOL    HW213698   2.845   5.272   0.154
 4267SOL     OW13699   2.142   3.786   4.971
 4267SOL    HW113700   2.196   3.855   5.018
 4267SOL    HW213701   2.148   3.800   4.872
 4268SOL     OW13702   1.450   6.518   0.060
 4268SOL    HW113703   1.519   6.589   0.060
 4268SOL    HW213704   1.491   6.431   0.031
 4269SOL     OW13705   2.065   2.041   0.335
 4269SOL    HW113706   2.087   1.965   0.275
 4269SOL    HW213707   2.093   2.019   0.429
 4270SOL     OW13708   3.925   3.081   4.750
 4270SOL    HW113709   3.923   2.988   4.787
 4270SOL    HW213710   3.832   3.118   4.749
 4271SOL     OW13711   0.215   0.298   5.079
 4271SOL    HW113712   0.167   0.318   5.164
 4271SOL    HW213713   0.280   0.224   5.094
 4272SOL     OW13714   7.007   5.044   4.664
 4272SOL    HW113715   6.948   5.101   4.608
 4272SOL    HW213716   7.009   4.951   4.627
 4273SOL     OW13717   4.374   6.278   4.498
 4273SOL    HW113718   4.461   6.327   4.510
 4273SOL    HW213719   4.349   6.279   4.401
 4274SOL     OW13720   0.632   6.919   3.445
 4274SOL    HW113721   0.570   6.995   3.428
 4274SOL    HW213722   0.646   6.867   3.361
 4275SOL     OW13723   6.768   0.874   6.047
 4275SOL    HW113724   6.711   0.796   6.022
 4275SOL    HW213725   6.723   0.927   6.119
 4276SOL     OW13726   1.361   5.360   2.738
 4276SOL    HW113727   1.388   5.445   2.783
 4276SOL    HW213728   1.261   5.359   2.727
 4277SOL     OW13729   0.058   4.318   3.943
 4277SOL    HW113730   0.053   4.278   3.852
 4277SOL    HW213731   0.131   4.273   3.995
 4278SOL     OW13732   6.753   0.219   5.099
 4278SOL    HW113733   6.700   0.142   5.064
 4278SOL    HW213734   6.798   0.266   5.023
 4279SOL     OW13735   3.622   6.346   5.370
 4279SOL    HW113736   3.624   6.410   5.294
 4279SOL    HW213737   3.560   6.381   5.441
 4280SOL     OW13738   5.687   1.404   5.347
 4280SOL    HW113739   5.602   1.435   5.388
 4280SOL    HW213740   5.751   1.481   5.340
 4281SOL     OW13741   1.509   4.764   4.585
 4281SOL    HW113742   1.607   4.755   4.567
 4281SOL    HW213743   1.474   4.676   4.618
 4282SOL     OW13744   2.628   2.176   0.065
 4282SOL    HW113745   2.548   2.133   0.109
 4282SOL    HW213746   2.600   2.218   7.005
 4283SOL     OW13747   1.611   0.326   3.976
 4283SOL    HW113748   1.624   0.371   4.064
 4283SOL    HW213749   1.650   0.382   3.903
 4284SOL     OW13750   5.450   6.907   2.611
 4284SOL    HW113751   5.431   6.977   2.542
 4284SOL    HW213752   5.438   6.817   2.571
 4285SOL     OW13753   0.260   0.103   5.932
 4285SOL    HW113754   0.329   0.049   5.884
 4285SOL    HW213755   0.251   0.071   6.026
 4286SOL     OW13756   5.220   5.491   6.487
 4286SOL    HW113757   5.131   5.532   6.469
 4286SOL    HW213758   5.265   5.469   6.400
 4287SOL     OW13759   5.609   0.757   5.365
 4287SOL    HW113760   5.609   0.657   5.356
 4287SOL    HW213761   5.611   0.799   5.275
 4288SOL     OW13762   0.901   6.737   3.255
 4288SOL    HW113763   0.925   6.657   3.199
 4288SOL    HW213764   0.813   6.773   3.225
 4289SOL     OW13765   5.592   2.506   2.027
 4289SOL    HW113766   5.546   2.590   2.055
 4289SOL    HW213767   5.620   2.515   1.931
 4290SOL     OW13768   2.504   6.804   1.073
 4290SOL    HW113769   2.497   6.791   1.171
 4290SOL    HW213770   2.431   6.753   1.026
 4291SOL     OW13771   4.960   3.231   1.312
 4291SOL    HW113772   4.927   3.262   1.401
 4291SOL    HW213773   4.908   3.277   1.239
 4292SOL     OW13774   6.184   4.696   5.418
 4292SOL    HW113775   6.175   4.750   5.501
 4292SOL    HW213776   6.160   4.600   5.438
 4293SOL     OW13777   6.381   4.016   6.439
 4293SOL    HW113778   6.342   4.020   6.531
 4293SOL    HW213779   6.472   4.057   6.439
 4294SOL     OW13780   4.693   3.079   6.574
 4294SOL    HW113781   4.683   3.133   6.490
 4294SOL    HW213782   4.623   3.107   6.640
 4295SOL     OW13783   3.852   0.093   5.039
 4295SOL    HW113784   3.841   0.178   4.989
 4295SOL    HW213785   3.907   0.110   5.122
 4296SOL     OW13786   2.465   2.022   0.193
 4296SOL    HW113787   2.446   2.029   0.291
 4296SOL    HW213788   2.520   1.940   0.176
 4297SOL     OW13789   5.294   6.866   5.516
 4297SOL    HW113790   5.372   6.852   5.455
 4297SOL    HW213791   5.224   6.797   5.496
 4298SOL     OW13792   1.650   5.231   6.950
 4298SOL    HW113793   1.715   5.163   6.917
 4298SOL    HW213794   1.605   5.197   0.007
 4299SOL     OW13795   1.577   3.336   6.411
 4299SOL    HW113796   1.603   3.425   6.449
 4299SOL    HW213797   1.565   3.271   6.486
 4300SOL     OW13798   2.959   1.628   6.090
 4300SOL    HW113799   3.015   1.597   6.013
 4300SOL    HW213800   2.938   1.550   6.149
 4301SOL     OW13801   2.825   1.514   0.432
 4301SOL    HW113802   2.913   1.542   0.469
 4301SOL    HW213803   2.800   1.424   0.470
 4302SOL     OW13804   1.293   6.470   5.956
 4302SOL    HW113805   1.246   6.423   5.881
 4302SOL    HW213806   1.225   6.505   6.020
 4303SOL     OW13807   6.396   4.587   3.201
 4303SOL    HW113808   6.391   4.495   3.241
 4303SOL    HW213809   6.474   4.636   3.240
 4304SOL     OW13810   3.257   3.377   4.504
 4304SOL    HW113811   3.253   3.424   4.416
 4304SOL    HW213812   3.165   3.352   4.533
 4305SOL     OW13813   6.255   1.605   3.790
 4305SOL    HW113814   6.284   1.665   3.716
 4305SOL    HW213815   6.294   1.514   3.777
 4306SOL     OW13816   0.219   3.554   6.766
 4306SOL    HW113817   0.185   3.647   6.766
 4306SOL    HW213818   0.300   3.548   6.825
 4307SOL     OW13819   4.867   4.541   5.606
 4307SOL    HW113820   4.857   4.484   5.524
 4307SOL    HW213821   4.778   4.553   5.650
 4308SOL     OW13822   5.247   6.009   5.852
 4308SOL    HW113823   5.191   5.950   5.909
 4308SOL    HW213824   5.188   6.070   5.799
 4309SOL     OW13825   0.745   7.021   0.209
 4309SOL    HW113826   0.696   0.071   0.251
 4309SOL    HW213827   0.687   6.977   0.141
 4310SOL     OW13828   1.910   2.626   3.790
 4310SOL    HW113829   1.870   2.554   3.733
 4310SOL    HW213830   1.898   2.603   3.887
 4311SOL     OW13831   1.352   6.230   3.077
 4311SOL    HW113832   1.352   6.238   3.177
 4311SOL    HW213833   1.298   6.304   3.038
 4312SOL     OW13834   0.943   5.968   1.552
 4312SOL    HW113835   0.931   5.896   1.483
 4312SOL    HW213836   1.013   5.938   1.618
 4313SOL     OW13837   5.682   1.428   1.731
 4313SOL    HW113838   5.773   1.393   1.708
 4313SOL    HW213839   5.674   1.523   1.700
 4314SOL     OW13840   4.824   3.072   3.235
 4314SOL    HW113841   4.740   3.045   3.281
 4314SOL    HW213842   4.901   3.020   3.273
 4315SOL     OW13843   2.079   0.380   2.709
 4315SOL    HW113844   2.050   0.347   2.619
 4315SOL    HW213845   2.150   0.450   2.698
 4316SOL     OW13846   4.843   0.010   1.074
 4316SOL    HW113847   4.794   0.054   1.150
 4316SOL    HW213848   4.872   0.079   1.008
 4317SOL     OW13849   3.290   1.049   5.271
 4317SOL    HW113850   3.298   0.978   5.340
 4317SOL    HW213851   3.214   1.027   5.209
 4318SOL     OW13852   0.641   3.617   3.222
 4318SOL    HW113853   0.645   3.607   3.123
 4318SOL    HW213854   0.596   3.704   3.244
 4319SOL     OW13855   2.764   3.182   0.063
 4319SOL    HW113856   2.836   3.234   0.018
 4319SOL    HW213857   2.719   3.240   0.131
 4320SOL     OW13858   1.408   6.387   2.049
 4320SOL    HW113859   1.328   6.437   2.082
 4320SOL    HW213860   1.490   6.440   2.069
 4321SOL     OW13861   6.409   0.742   4.414
 4321SOL    HW113862   6.394   0.660   4.469
 4321SOL    HW213863   6.379   0.822   4.465
 4322SOL     OW13864   6.473   1.302   6.660
 4322SOL    HW113865   6.570   1.309   6.639
 4322SOL    HW213866   6.427   1.387   6.634
 4323SOL     OW13867   5.619   3.233   2.211
 4323SOL    HW113868   5.603   3.332   2.216
 4323SOL    HW213869   5.532   3.186   2.201
 4324SOL     OW13870   5.886   4.278   0.013
 4324SOL    HW113871   5.814   4.345   0.027
 4324SOL    HW213872   5.850   4.186   0.030
 4325SOL     OW13873   1.279   0.759   0.342
 4325SOL    HW113874   1.275   0.859   0.343
 4325SOL    HW213875   1.255   0.726   0.250
 4326SOL     OW13876   6.889   2.817   5.087
 4326SOL    HW113877   6.910   2.907   5.124
 4326SOL    HW213878   6.877   2.752   5.163
 4327SOL     OW13879   5.954   5.797   2.109
 4327SOL    HW113880   5.893   5.865   2.151
 4327SOL    HW213881   6.049   5.823   2.126
 4328SOL     OW13882   4.579   4.814   5.670
 4328SOL    HW113883   4.666   4.834   5.625
 4328SOL    HW213884   4.558   4.887   5.736
 4329SOL     OW13885   3.127   1.836   6.148
 4329SOL    HW113886   3.104   1.917   6.094
 4329SOL    HW213887   3.074   1.758   6.115
 4330SOL     OW13888   2.780   0.547   5.747
 4330SOL    HW113889   2.680   0.541   5.741
 4330SOL    HW213890   2.813   0.620   5.687
 4331SOL     OW13891   5.126   3.518   1.729
 4331SOL    HW113892   5.188   3.480   1.660
 4331SOL    HW213893   5.032   3.511   1.696
 4332SOL     OW13894   5.517   3.866   2.335
 4332SOL    HW113895   5.535   3.867   2.433
 4332SOL    HW213896   5.433   3.815   2.317
 4333SOL     OW13897   4.874   1.654   4.946
 4333SOL    HW113898   4.889   1.740   4.898
 4333SOL    HW213899   4.903   1.663   5.041
 4334SOL     OW13900   2.787   1.931   1.954
 4334SOL    HW113901   2.756   1.912   2.047
 4334SOL    HW213902   2.832   2.020   1.952
 4335SOL     OW13903   3.084   3.683   3.709
 4335SOL    HW113904   3.184   3.682   3.701
 4335SOL    HW213905   3.048   3.764   3.662
 4336SOL     OW13906   1.236   6.846   5.336
 4336SOL    HW113907   1.223   6.829   5.434
 4336SOL    HW213908   1.247   6.759   5.288
 4337SOL     OW13909   1.080   4.724   0.245
 4337SOL    HW113910   1.014   4.795   0.222
 4337SOL    HW213911   1.134   4.753   0.324
 4338SOL     OW13912   4.974   5.401   4.973
 4338SOL    HW113913   4.879   5.378   4.952
 4338SOL    HW213914   4.991   5.496   4.950
 4339SOL     OW13915   5.886   2.757   5.420
 4339SOL    HW113916   5.913   2.746   5.324
 4339SOL    HW213917   5.791   2.728   5.431
 4340SOL     OW13918   6.064   3.598   2.627
 4340SOL    HW113919   6.012   3.681   2.646
 4340SOL    HW213920   6.039   3.527   2.693
 4341SOL     OW13921   1.255   3.901   1.807
 4341SOL    HW113922   1.281   3.974   1.743
 4341SOL    HW213923   1.265   3.935   1.901
 4342SOL     OW13924   6.359   3.049   3.788
 4342SOL    HW113925   6.375   2.973   3.851
 4342SOL    HW213926   6.379   3.020   3.695
 4343SOL     OW13927   3.016   0.240   6.863
 4343SOL    HW113928   2.995   0.199   6.951
 4343SOL    HW213929   3.018   0.169   6.792
 4344SOL     OW13930   1.734   5.484   3.409
 4344SOL    HW113931   1.813   5.461   3.351
 4344SOL    HW213932   1.687   5.400   3.435
 4345SOL     OW13933   1.567   3.702   5.668
 4345SOL    HW113934   1.544   3.796   5.693
 4345SOL    HW213935   1.653   3.676   5.712
 4346SOL     OW13936   2.184   2.999   1.877
 4346SOL    HW113937   2.220   3.077   1.827
 4346SOL    HW213938   2.244   2.920   1.864
 4347SOL     OW13939   6.910   1.093   1.527
 4347SOL    HW113940   6.899   1.070   1.624
 4347SOL    HW213941   6.868   1.022   1.471
 4348SOL     OW13942   0.107   3.108   2.627
 4348SOL    HW113943   0.124   3.070   2.718
 4348SOL    HW213944   0.096   3.207   2.634
 4349SOL     OW13945   6.978   1.718   2.951
 4349SOL    HW113946   0.018   1.763   2.891
 4349SOL    HW213947   6.925   1.652   2.898
 4350SOL     OW13948   4.607   2.223   4.378
 4350SOL    HW113949   4.523   2.274   4.363
 4350SOL    HW213950   4.684   2.287   4.385
 4351SOL     OW13951   2.312   6.644   1.549
 4351SOL    HW113952   2.321   6.549   1.578
 4351SOL    HW213953   2.337   6.704   1.624
 4352SOL     OW13954   0.544   2.298   1.400
 4352SOL    HW113955   0.628   2.299   1.456
 4352SOL    HW213956   0.465   2.319   1.458
 4353SOL     OW13957   2.678   5.543   1.170
 4353SOL    HW113958   2.751   5.515   1.108
 4353SOL    HW213959   2.606   5.588   1.118
 4354SOL     OW13960   2.043   6.277   6.042
 4354SOL    HW113961   2.054   6.232   5.953
 4354SOL    HW213962   2.126   6.262   6.097
 4355SOL     OW13963   3.732   0.009   1.864
 4355SOL    HW113964   3.765   0.067   1.789
 4355SOL    HW213965   3.766   0.044   1.951
 4356SOL     OW13966   4.636   4.189   1.693
 4356SOL    HW113967   4.585   4.194   1.607
 4356SOL    HW213968   4.574   4.203   1.770
 4357SOL     OW13969   5.940   0.100   6.887
 4357SOL    HW113970   5.927   0.055   6.799
 4357SOL    HW213971   6.025   0.151   6.887
 4358SOL     OW13972   6.597   6.353   0.547
 4358SOL    HW113973   6.653   6.298   0.608
 4358SOL    HW213974   6.527   6.294   0.505
 4359SOL     OW13975   1.561   2.312   4.342
 4359SOL    HW113976   1.609   2.382   4.290
 4359SOL    HW213977   1.563   2.334   4.439
 4360SOL     OW13978   1.456   3.927   2.346
 4360SOL    HW113979   1.408   3.963   2.427
 4360SOL    HW213980   1.388   3.891   2.281
 4361SOL     OW13981   3.066   2.685   1.750
 4361SOL    HW113982   3.024   2.595   1.764
 4361SOL    HW213983   3.046   2.717   1.657
 4362SOL     OW13984   6.151   4.082   5.795
 4362SOL    HW113985   6.057   4.112   5.807
 4362SOL    HW213986   6.211   4.134   5.857
 4363SOL     OW13987   4.951   2.068   5.965
 4363SOL    HW113988   5.047   2.093   5.955
 4363SOL    HW213989   4.921   2.018   5.883
 4364SOL     OW13990   2.996   3.679   5.591
 4364SOL    HW113991   3.028   3.656   5.499
 4364SOL    HW213992   2.986   3.779   5.598
 4365SOL     OW13993   3.237   1.522   2.227
 4365SOL    HW113994   3.139   1.517   2.247
 4365SOL    HW213995   3.254   1.482   2.137
 4366SOL     OW13996   5.969   6.585   1.055
 4366SOL    HW113997   5.915   6.508   1.019
 4366SOL    HW213998   5.952   6.594   1.153
 4367SOL     OW13999   1.050   4.933   5.294
 4367SOL    HW114000   1.058   5.030   5.315
 4367SOL    HW214001   1.138   4.888   5.306
 4368SOL     OW14002   4.341   5.167   1.178
 4368SOL    HW114003   4.358   5.087   1.234
 4368SOL    HW214004   4.371   5.249   1.227
 4369SOL     OW14005   4.924   5.595   2.456
 4369SOL    HW114006   4.887   5.511   2.416
 4369SOL    HW214007   5.011   5.618   2.413
 4370SOL     OW14008   5.614   4.574   2.943
 4370SOL    HW114009   5.634   4.581   2.845
 4370SOL    HW214010   5.680   4.514   2.987
 4371SOL     OW14011   6.091   0.629   1.544
 4371SOL    HW114012   6.185   0.601   1.522
 4371SOL    HW214013   6.031   0.604   1.468
 4372SOL     OW14014   4.511   1.176   2.629
 4372SOL    HW114015   4.433   1.209   2.681
 4372SOL    HW214016   4.562   1.253   2.592
 4373SOL     OW14017   0.156   2.908   6.673
 4373SOL    HW114018   0.084   2.866   6.616
 4373SOL    HW214019   0.208   2.837   6.719
 4374SOL     OW14020   1.342   1.937   1.777
 4374SOL    HW114021   1.296   1.970   1.859
 4374SOL    HW214022   1.423   1.885   1.803
 4375SOL     OW14023   2.472   6.951   3.977
 4375SOL    HW114024   2.506   0.010   4.017
 4375SOL    HW214025   2.470   6.879   4.046
 4376SOL     OW14026   6.625   0.284   2.223
 4376SOL    HW114027   6.702   0.346   2.216
 4376SOL    HW214028   6.657   0.190   2.210
 4377SOL     OW14029   5.496   3.941   0.807
 4377SOL    HW114030   5.488   3.866   0.872
 4377SOL    HW214031   5.515   3.904   0.716
 4378SOL     OW14032   1.979   0.652   2.992
 4378SOL    HW114033   2.049   0.711   3.032
 4378SOL    HW214034   2.023   0.577   2.943
 4379SOL     OW14035   2.710   1.208   4.277
 4379SOL    HW114036   2.630   1.154   4.252
 4379SOL    HW214037   2.761   1.161   4.349
 4380SOL     OW14038   1.591   0.944   1.674
 4380SOL    HW114039   1.655   1.001   1.725
 4380SOL    HW214040   1.607   0.955   1.576
 4381SOL     OW14041   1.661   5.607   4.989
 4381SOL    HW114042   1.568   5.582   5.015
 4381SOL    HW214043   1.708   5.649   5.066
 4382SOL     OW14044   6.726   3.060   6.137
 4382SOL    HW114045   6.710   3.108   6.050
 4382SOL    HW214046   6.820   3.077   6.167
 4383SOL     OW14047   5.867   3.657   6.368
 4383SOL    HW114048   5.945   3.711   6.400
 4383SOL    HW214049   5.849   3.679   6.272
 4384SOL     OW14050   6.437   0.777   3.366
 4384SOL    HW114051   6.467   0.740   3.278
 4384SOL    HW214052   6.340   0.757   3.380
 4385SOL     OW14053   4.567   2.242   4.787
 4385SOL    HW114054   4.478   2.226   4.743
 4385SOL    HW214055   4.559   2.220   4.885
 4386SOL     OW14056   1.320   3.892   5.677
 4386SOL    HW114057   1.246   3.959   5.677
 4386SOL    HW214058   1.343   3.868   5.772
 4387SOL     OW14059   6.566   2.599   1.670
 4387SOL    HW114060   6.568   2.686   1.721
 4387SOL    HW214061   6.503   2.536   1.715
 4388SOL     OW14062   5.236   2.127   6.005
 4388SOL    HW114063   5.294   2.053   5.969
 4388SOL    HW214064   5.287   2.212   6.005
 4389SOL     OW14065   6.761   3.738   1.629
 4389SOL    HW114066   6.765   3.818   1.689
 4389SOL    HW214067   6.854   3.706   1.610
 4390SOL     OW14068   5.524   6.932   0.537
 4390SOL    HW114069   5.456   6.953   0.607
 4390SOL    HW214070   5.611   6.910   0.580
 4391SOL     OW14071   1.807   5.007   6.627
 4391SOL    HW114072   1.776   5.082   6.569
 4391SOL    HW214073   1.729   4.971   6.678
 4392SOL     OW14074   0.432   1.903   3.964
 4392SOL    HW114075   0.518   1.895   3.914
 4392SOL    HW214076   0.389   1.814   3.971
 4393SOL     OW14077   6.111   0.413   1.792
 4393SOL    HW114078   6.027   0.468   1.788
 4393SOL    HW214079   6.159   0.420   1.704
 4394SOL     OW14080   0.999   6.973   1.666
 4394SOL    HW114081   1.078   6.931   1.621
 4394SOL    HW214082   1.031   0.002   1.744
 4395SOL     OW14083   1.652   0.249   1.752
 4395SOL    HW114084   1.681   0.173   1.811
 4395SOL    HW214085   1.652   0.219   1.657
 4396SOL     OW14086   1.591   1.651   3.915
 4396SOL    HW114087   1.640   1.567   3.939
 4396SOL    HW214088   1.513   1.628   3.857
 4397SOL     OW14089   2.050   3.138   3.950
 4397SOL    HW114090   2.075   3.231   3.921
 4397SOL    HW214091   2.121   3.074   3.920
 4398SOL     OW14092   2.083   3.611   6.306
 4398SOL    HW114093   2.080   3.672   6.227
 4398SOL    HW214094   2.007   3.546   6.300
 4399SOL     OW14095   1.889   5.805   1.814
 4399SOL    HW114096   1.922   5.809   1.720
 4399SOL    HW214097   1.964   5.826   1.876
 4400SOL     OW14098   1.893   6.734   3.665
 4400SOL    HW114099   1.835   6.811   3.640
 4400SOL    HW214100   1.842   6.672   3.725
 4401SOL     OW14101   3.873   6.391   5.185
 4401SOL    HW114102   3.803   6.402   5.115
 4401SOL    HW214103   3.963   6.408   5.145
 4402SOL     OW14104   0.986   0.443   2.057
 4402SOL    HW114105   0.952   0.488   2.140
 4402SOL    HW214106   1.011   0.349   2.079
 4403SOL     OW14107   0.719   5.669   0.894
 4403SOL    HW114108   0.710   5.608   0.973
 4403SOL    HW214109   0.651   5.742   0.900
 4404SOL     OW14110   1.338   5.606   5.575
 4404SOL    HW114111   1.396   5.617   5.494
 4404SOL    HW214112   1.312   5.510   5.585
 4405SOL     OW14113   2.739   5.193   3.465
 4405SOL    HW114114   2.809   5.210   3.395
 4405SOL    HW214115   2.675   5.124   3.432
 4406SOL     OW14116   6.569   3.253   1.667
 4406SOL    HW114117   6.525   3.179   1.617
 4406SOL    HW214118   6.646   3.288   1.613
 4407SOL     OW14119   0.233   5.614   1.495
 4407SOL    HW114120   0.160   5.644   1.433
 4407SOL    HW214121   0.205   5.529   1.540
 4408SOL     OW14122   3.187   6.116   6.826
 4408SOL    HW114123   3.116   6.141   6.759
 4408SOL    HW214124   3.277   6.136   6.787
 4409SOL     OW14125   3.948   0.998   1.973
 4409SOL    HW114126   4.030   0.942   1.954
 4409SOL    HW214127   3.880   0.981   1.902
 4410SOL     OW14128   7.009   6.519   0.667
 4410SOL    HW114129   6.967   6.524   0.576
 4410SOL    HW214130   0.009   6.424   0.686
 4411SOL     OW14131   3.501   4.956   5.453
 4411SOL    HW114132   3.601   4.969   5.452
 4411SOL    HW214133   3.479   4.864   5.421
 4412SOL     OW14134   4.958   6.831   4.430
 4412SOL    HW114135   4.998   6.835   4.521
 4412SOL    HW214136   4.859   6.834   4.437
 4413SOL     OW14137   3.897   6.381   4.368
 4413SOL    HW114138   3.974   6.396   4.429
 4413SOL    HW214139   3.909   6.435   4.284
 4414SOL     OW14140   4.487   5.422   1.756
 4414SOL    HW114141   4.497   5.399   1.852
 4414SOL    HW214142   4.507   5.342   1.700
 4415SOL     OW14143   3.599   3.941   1.415
 4415SOL    HW114144   3.522   3.931   1.351
 4415SOL    HW214145   3.602   3.862   1.476
 4416SOL     OW14146   3.930   1.535   4.484
 4416SOL    HW114147   3.976   1.624   4.483
 4416SOL    HW214148   3.976   1.474   4.549
 4417SOL     OW14149   6.288   2.824   4.233
 4417SOL    HW114150   6.195   2.856   4.217
 4417SOL    HW214151   6.349   2.862   4.162
 4418SOL     OW14152   6.308   1.696   1.510
 4418SOL    HW114153   6.407   1.678   1.508
 4418SOL    HW214154   6.284   1.756   1.433
 4419SOL     OW14155   6.151   6.211   6.122
 4419SOL    HW114156   6.058   6.178   6.110
 4419SOL    HW214157   6.199   6.210   6.035
 4420SOL     OW14158   3.698   2.111   1.427
 4420SOL    HW114159   3.727   2.138   1.519
 4420SOL    HW214160   3.605   2.076   1.430
 4421SOL     OW14161   0.926   3.358   5.276
 4421SOL    HW114162   0.877   3.321   5.355
 4421SOL    HW214163   1.022   3.328   5.279
 4422SOL     OW14164   0.897   4.914   0.209
 4422SOL    HW114165   0.831   4.880   0.277
 4422SOL    HW214166   0.848   4.966   0.139
 4423SOL     OW14167   6.386   4.703   5.678
 4423SOL    HW114168   6.388   4.604   5.695
 4423SOL    HW214169   6.478   4.734   5.655
 4424SOL     OW14170   5.053   5.754   4.086
 4424SOL    HW114171   5.075   5.663   4.050
 4424SOL    HW214172   4.956   5.773   4.070
 4425SOL     OW14173   1.933   5.342   0.732
 4425SOL    HW114174   1.951   5.395   0.815
 4425SOL    HW214175   1.894   5.254   0.757
 4426SOL     OW14176   1.044   0.582   3.960
 4426SOL    HW114177   0.951   0.562   3.930
 4426SOL    HW214178   1.108   0.517   3.919
 4427SOL     OW14179   3.954   6.535   2.901
 4427SOL    HW114180   3.921   6.624   2.871
 4427SOL    HW214181   3.878   6.472   2.912
 4428SOL     OW14182   5.222   1.096   4.495
 4428SOL    HW114183   5.221   1.012   4.441
 4428SOL    HW214184   5.301   1.151   4.468
 4429SOL     OW14185   3.338   6.746   3.281
 4429SOL    HW114186   3.253   6.790   3.251
 4429SOL    HW214187   3.416   6.799   3.248
 4430SOL     OW14188   5.931   4.762   4.131
 4430SOL    HW114189   5.961   4.788   4.039
 4430SOL    HW214190   6.010   4.726   4.182
 4431SOL     OW14191   3.278   0.693   3.459
 4431SOL    HW114192   3.369   0.654   3.448
 4431SOL    HW214193   3.214   0.621   3.487
 4432SOL     OW14194   2.352   3.860   6.464
 4432SOL    HW114195   2.402   3.931   6.415
 4432SOL    HW214196   2.399   3.772   6.453
 4433SOL     OW14197   0.967   1.977   4.952
 4433SOL    HW114198   0.887   2.001   5.006
 4433SOL    HW214199   0.938   1.942   4.863
 4434SOL     OW14200   6.823   1.409   1.824
 4434SOL    HW114201   6.909   1.411   1.772
 4434SOL    HW214202   6.751   1.452   1.771
 4435SOL     OW14203   3.436   3.860   1.040
 4435SOL    HW114204   3.426   3.890   1.135
 4435SOL    HW214205   3.384   3.775   1.027
 4436SOL     OW14206   4.668   2.015   1.464
 4436SOL    HW114207   4.650   2.092   1.525
 4436SOL    HW214208   4.740   2.040   1.400
 4437SOL     OW14209   0.309   3.586   2.476
 4437SOL    HW114210   0.255   3.582   2.392
 4437SOL    HW214211   0.377   3.659   2.468
 4438SOL     OW14212   4.491   6.728   5.308
 4438SOL    HW114213   4.579   6.764   5.278
 4438SOL    HW214214   4.492   6.717   5.408
 4439SOL     OW14215   0.829   6.546   3.050
 4439SOL    HW114216   0.890   6.471   3.026
 4439SOL    HW214217   0.772   6.570   2.971
 4440SOL     OW14218   2.703   4.830   1.082
 4440SOL    HW114219   2.747   4.897   1.142
 4440SOL    HW214220   2.712   4.739   1.122
 4441SOL     OW14221   1.097   1.764   0.741
 4441SOL    HW114222   1.166   1.692   0.729
 4441SOL    HW214223   1.006   1.724   0.732
 4442SOL     OW14224   1.076   5.072   5.874
 4442SOL    HW114225   1.114   4.981   5.859
 4442SOL    HW214226   0.977   5.070   5.856
 4443SOL     OW14227   0.708   4.665   6.554
 4443SOL    HW114228   0.676   4.639   6.645
 4443SOL    HW214229   0.633   4.709   6.504
 4444SOL     OW14230   4.523   4.212   0.878
 4444SOL    HW114231   4.458   4.233   0.951
 4444SOL    HW214232   4.545   4.114   0.880
 4445SOL     OW14233   0.306   5.432   6.581
 4445SOL    HW114234   0.339   5.501   6.518
 4445SOL    HW214235   0.340   5.342   6.553
 4446SOL     OW14236   5.237   1.614   0.158
 4446SOL    HW114237   5.290   1.589   0.076
 4446SOL    HW214238   5.269   1.702   0.193
 4447SOL     OW14239   5.340   4.494   5.273
 4447SOL    HW114240   5.286   4.415   5.301
 4447SOL    HW214241   5.337   4.504   5.173
 4448SOL     OW14242   2.941   6.403   1.215
 4448SOL    HW114243   2.964   6.310   1.244
 4448SOL    HW214244   3.013   6.438   1.155
 4449SOL     OW14245   4.247   1.294   6.400
 4449SOL    HW114246   4.320   1.349   6.442
 4449SOL    HW214247   4.230   1.327   6.307
 4450SOL     OW14248   3.468   0.862   0.109
 4450SOL    HW114249   3.497   0.797   0.179
 4450SOL    HW214250   3.541   0.873   0.041
 4451SOL     OW14251   4.862   4.794   3.541
 4451SOL    HW114252   4.840   4.712   3.594
 4451SOL    HW214253   4.888   4.868   3.603
 4452SOL     OW14254   5.847   6.068   4.539
 4452SOL    HW114255   5.865   5.997   4.606
 4452SOL    HW214256   5.807   6.028   4.457
 4453SOL     OW14257   0.498   3.120   1.940
 4453SOL    HW114258   0.575   3.128   1.878
 4453SOL    HW214259   0.525   3.153   2.031
 4454SOL     OW14260   0.652   1.437   6.839
 4454SOL    HW114261   0.661   1.435   6.739
 4454SOL    HW214262   0.738   1.407   6.880
 4455SOL     OW14263   5.758   5.505   5.002
 4455SOL    HW114264   5.836   5.493   5.064
 4455SOL    HW214265   5.767   5.593   4.954
 4456SOL     OW14266   2.237   6.196   3.427
 4456SOL    HW114267   2.152   6.226   3.472
 4456SOL    HW214268   2.214   6.137   3.349
 4457SOL     OW14269   1.567   2.107   4.662
 4457SOL    HW114270   1.656   2.089   4.705
 4457SOL    HW214271   1.536   2.026   4.613
 4458SOL     OW14272   1.999   3.508   1.887
 4458SOL    HW114273   1.947   3.434   1.845
 4458SOL    HW214274   2.074   3.470   1.941
 4459SOL     OW14275   1.767   2.049   4.845
 4459SOL    HW114276   1.831   2.023   4.772
 4459SOL    HW214277   1.819   2.072   4.927
 4460SOL     OW14278   0.033   2.768   4.098
 4460SOL    HW114279   0.077   2.775   4.008
 4460SOL    HW214280   6.993   2.842   4.110
 4461SOL     OW14281   2.301   0.530   1.529
 4461SOL    HW114282   2.221   0.588   1.510
 4461SOL    HW214283   2.292   0.491   1.621
 4462SOL     OW14284   6.175   3.793   2.227
 4462SOL    HW114285   6.119   3.843   2.160
 4462SOL    HW214286   6.176   3.843   2.313
 4463SOL     OW14287   5.281   0.781   0.633
 4463SOL    HW114288   5.229   0.863   0.655
 4463SOL    HW214289   5.376   0.793   0.662
 4464SOL     OW14290   0.482   5.488   0.501
 4464SOL    HW114291   0.566   5.453   0.458
 4464SOL    HW214292   0.442   5.418   0.560
 4465SOL     OW14293   2.471   5.827   0.134
 4465SOL    HW114294   2.431   5.751   0.083
 4465SOL    HW214295   2.475   5.803   0.231
 4466SOL     OW14296   2.604   1.948   3.755
 4466SOL    HW114297   2.599   1.849   3.767
 4466SOL    HW214298   2.677   1.970   3.691
 4467SOL     OW14299   2.468   5.924   4.001
 4467SOL    HW114300   2.527   5.991   4.047
 4467SOL    HW214301   2.514   5.891   3.919
 4468SOL     OW14302   0.928   3.010   0.312
 4468SOL    HW114303   0.864   2.974   0.244
 4468SOL    HW214304   0.913   3.108   0.323
 4469SOL     OW14305   2.769   6.993   1.513
 4469SOL    HW114306   2.690   0.012   1.471
 4469SOL    HW214307   2.747   6.897   1.532
 4470SOL     OW14308   0.759   0.870   2.056
 4470SOL    HW114309   0.783   0.958   2.098
 4470SOL    HW214310   0.661   0.867   2.039
 4471SOL     OW14311   2.180   2.883   6.198
 4471SOL    HW114312   2.188   2.981   6.180
 4471SOL    HW214313   2.183   2.867   6.297
 4472SOL     OW14314   1.637   2.859   1.337
 4472SOL    HW114315   1.735   2.839   1.346
 4472SOL    HW214316   1.626   2.947   1.291
 4473SOL     OW14317   6.719   2.814   4.119
 4473SOL    HW114318   6.787   2.887   4.116
 4473SOL    HW214319   6.715   2.777   4.212
 4474SOL     OW14320   3.051   0.929   2.018
 4474SOL    HW114321   3.019   1.024   2.028
 4474SOL    HW214322   3.098   0.901   2.102
 4475SOL     OW14323   1.123   3.617   2.406
 4475SOL    HW114324   1.035   3.609   2.452
 4475SOL    HW214325   1.111   3.650   2.313
 4476SOL     OW14326   5.686   1.275   4.105
 4476SOL    HW114327   5.715   1.370   4.115
 4476SOL    HW214328   5.743   1.217   4.164
 4477SOL     OW14329   2.210   0.147   5.415
 4477SOL    HW114330   2.134   0.193   5.368
 4477SOL    HW214331   2.259   0.213   5.472
 4478SOL     OW14332   1.225   0.125   1.198
 4478SOL    HW114333   1.196   0.220   1.192
 4478SOL    HW214334   1.318   0.121   1.235
 4479SOL     OW14335   1.260   2.032   0.330
 4479SOL    HW114336   1.279   1.981   0.414
 4479SOL    HW214337   1.267   2.130   0.349
 4480SOL     OW14338   0.282   4.745   4.656
 4480SOL    HW114339   0.276   4.722   4.753
 4480SOL    HW214340   0.190   4.750   4.617
 4481SOL     OW14341   2.455   5.107   5.277
 4481SOL    HW114342   2.364   5.134   5.244
 4481SOL    HW214343   2.445   5.036   5.347
 4482SOL     OW14344   2.932   4.790   6.153
 4482SOL    HW114345   2.852   4.768   6.098
 4482SOL    HW214346   2.947   4.888   6.154
 4483SOL     OW14347   0.609   2.776   2.027
 4483SOL    HW114348   0.685   2.835   2.056
 4483SOL    HW214349   0.576   2.805   1.937
 4484SOL     OW14350   2.500   3.341   0.517
 4484SOL    HW114351   2.522   3.295   0.603
 4484SOL    HW214352   2.430   3.289   0.468
 4485SOL     OW14353   4.738   2.787   4.777
 4485SOL    HW114354   4.738   2.769   4.679
 4485SOL    HW214355   4.734   2.885   4.793
 4486SOL     OW14356   5.619   4.864   5.390
 4486SOL    HW114357   5.715   4.857   5.417
 4486SOL    HW214358   5.605   4.816   5.303
 4487SOL     OW14359   1.915   2.904   6.939
 4487SOL    HW114360   1.983   2.963   6.984
 4487SOL    HW214361   1.864   2.853   7.008
 4488SOL     OW14362   0.872   3.571   3.666
 4488SOL    HW114363   0.906   3.477   3.659
 4488SOL    HW214364   0.929   3.631   3.610
 4489SOL     OW14365   4.924   5.276   5.244
 4489SOL    HW114366   4.878   5.292   5.156
 4489SOL    HW214367   4.888   5.192   5.285
 4490SOL     OW14368   5.387   1.742   0.930
 4490SOL    HW114369   5.374   1.839   0.953
 4490SOL    HW214370   5.463   1.733   0.866
 4491SOL     OW14371   0.773   3.121   2.857
 4491SOL    HW114372   0.813   3.033   2.881
 4491SOL    HW214373   0.809   3.192   2.917
 4492SOL     OW14374   5.959   0.870   1.292
 4492SOL    HW114375   6.001   0.935   1.228
 4492SOL    HW214376   6.024   0.849   1.365
 4493SOL     OW14377   5.383   6.870   4.960
 4493SOL    HW114378   5.322   6.948   4.944
 4493SOL    HW214379   5.442   6.856   4.881
 4494SOL     OW14380   0.964   0.558   5.924
 4494SOL    HW114381   1.010   0.530   5.839
 4494SOL    HW214382   0.883   0.501   5.937
 4495SOL     OW14383   3.463   5.821   2.315
 4495SOL    HW114384   3.403   5.750   2.279
 4495SOL    HW214385   3.418   5.867   2.392
 4496SOL     OW14386   4.557   6.255   6.488
 4496SOL    HW114387   4.631   6.322   6.494
 4496SOL    HW214388   4.583   6.181   6.426
 4497SOL     OW14389   3.786   2.305   0.002
 4497SOL    HW114390   3.858   2.319   0.070
 4497SOL    HW214391   3.782   2.382   6.965
 4498SOL     OW14392   6.907   5.235   6.134
 4498SOL    HW114393   6.958   5.263   6.215
 4498SOL    HW214394   6.923   5.301   6.060
 4499SOL     OW14395   6.810   1.552   2.806
 4499SOL    HW114396   6.771   1.610   2.734
 4499SOL    HW214397   6.816   1.458   2.773
 4500SOL     OW14398   3.977   5.215   6.987
 4500SOL    HW114399   3.889   5.205   6.940
 4500SOL    HW214400   4.051   5.190   6.925
 4501SOL     OW14401   5.972   1.970   1.925
 4501SOL    HW114402   5.987   1.946   1.829
 4501SOL    HW214403   5.929   1.893   1.972
 4502SOL     OW14404   0.993   3.410   6.738
 4502SOL    HW114405   0.908   3.440   6.693
 4502SOL    HW214406   0.980   3.412   6.837
 4503SOL     OW14407   2.737   6.819   2.376
 4503SOL    HW114408   2.787   6.884   2.320
 4503SOL    HW214409   2.793   6.738   2.392
 4504SOL     OW14410   6.806   2.139   3.404
 4504SOL    HW114411   6.789   2.041   3.418
 4504SOL    HW214412   6.734   2.192   3.448
 4505SOL     OW14413   6.652   4.745   2.513
 4505SOL    HW114414   6.740   4.766   2.554
 4505SOL    HW214415   6.665   4.715   2.419
 4506SOL     OW14416   4.810   2.980   4.187
 4506SOL    HW114417   4.908   2.966   4.200
 4506SOL    HW214418   4.784   2.953   4.095
 4507SOL     OW14419   6.549   3.405   3.211
 4507SOL    HW114420   6.626   3.350   3.181
 4507SOL    HW214421   6.539   3.399   3.310
 4508SOL     OW14422   0.533   4.252   0.633
 4508SOL    HW114423   0.467   4.265   0.560
 4508SOL    HW214424   0.619   4.217   0.595
 4509SOL     OW14425   4.636   2.055   2.530
 4509SOL    HW114426   4.686   2.039   2.616
 4509SOL    HW214427   4.620   1.967   2.485
 4510SOL     OW14428   4.459   1.494   3.856
 4510SOL    HW114429   4.431   1.586   3.882
 4510SOL    HW214430   4.534   1.463   3.915
 4511SOL     OW14431   6.941   4.188   0.999
 4511SOL    HW114432   6.938   4.093   1.032
 4511SOL    HW214433   6.868   4.240   1.044
 4512SOL     OW14434   3.521   2.121   5.421
 4512SOL    HW114435   3.569   2.045   5.464
 4512SOL    HW214436   3.432   2.133   5.465
 4513SOL     OW14437   0.748   5.877   6.476
 4513SOL    HW114438   0.828   5.936   6.485
 4513SOL    HW214439   0.688   5.887   6.555
 4514SOL     OW14440   3.355   3.298   6.709
 4514SOL    HW114441   3.296   3.219   6.727
 4514SOL    HW214442   3.353   3.319   6.611
 4515SOL     OW14443   5.674   0.341   4.607
 4515SOL    HW114444   5.710   0.287   4.531
 4515SOL    HW214445   5.585   0.305   4.635
 4516SOL     OW14446   2.745   1.812   5.664
 4516SOL    HW114447   2.810   1.853   5.600
 4516SOL    HW214448   2.709   1.727   5.626
 4517SOL     OW14449   4.333   0.202   6.349
 4517SOL    HW114450   4.233   0.199   6.345
 4517SOL    HW214451   4.362   0.294   6.378
 4518SOL     OW14452   1.805   6.634   0.865
 4518SOL    HW114453   1.721   6.618   0.918
 4518SOL    HW214454   1.835   6.729   0.880
 4519SOL     OW14455   5.174   6.959   0.171
 4519SOL    HW114456   5.261   6.986   0.212
 4519SOL    HW214457   5.143   6.873   0.213
 4520SOL     OW14458   4.197   5.821   5.168
 4520SOL    HW114459   4.277   5.832   5.110
 4520SOL    HW214460   4.139   5.749   5.131
 4521SOL     OW14461   5.093   2.213   5.274
 4521SOL    HW114462   5.098   2.313   5.286
 4521SOL    HW214463   5.089   2.193   5.176
 4522SOL     OW14464   5.536   3.823   3.834
 4522SOL    HW114465   5.583   3.852   3.917
 4522SOL    HW214466   5.564   3.730   3.811
 4523SOL     OW14467   0.561   3.640   6.577
 4523SOL    HW114468   0.621   3.691   6.639
 4523SOL    HW214469   0.523   3.561   6.626
 4524SOL     OW14470   0.504   3.085   2.921
 4524SOL    HW114471   0.583   3.140   2.897
 4524SOL    HW214472   0.476   3.106   3.015
 4525SOL     OW14473   1.962   2.889   5.996
 4525SOL    HW114474   1.940   2.978   6.035
 4525SOL    HW214475   2.060   2.872   6.004
 4526SOL     OW14476   0.561   0.607   6.239
 4526SOL    HW114477   0.596   0.613   6.332
 4526SOL    HW214478   0.509   0.689   6.217
 4527SOL     OW14479   6.809   7.009   2.714
 4527SOL    HW114480   6.747   0.060   2.729
 4527SOL    HW214481   6.757   6.931   2.677
 4528SOL     OW14482   4.065   0.745   5.838
 4528SOL    HW114483   4.049   0.797   5.923
 4528SOL    HW214484   3.980   0.700   5.811
 4529SOL     OW14485   2.841   1.034   5.705
 4529SOL    HW114486   2.824   0.936   5.712
 4529SOL    HW214487   2.937   1.052   5.729
 4530SOL     OW14488   2.182   6.587   5.018
 4530SOL    HW114489   2.086   6.612   5.008
 4530SOL    HW214490   2.238   6.645   4.959
 4531SOL     OW14491   1.108   4.783   6.428
 4531SOL    HW114492   1.167   4.753   6.503
 4531SOL    HW214493   1.104   4.883   6.426
 4532SOL     OW14494   4.923   0.842   3.132
 4532SOL    HW114495   4.913   0.936   3.098
 4532SOL    HW214496   4.947   0.781   3.056
 4533SOL     OW14497   1.876   1.009   3.057
 4533SOL    HW114498   1.819   1.087   3.031
 4533SOL    HW214499   1.841   0.970   3.142
 4534SOL     OW14500   4.407   1.973   4.428
 4534SOL    HW114501   4.465   1.943   4.503
 4534SOL    HW214502   4.311   1.970   4.457
 4535SOL     OW14503   3.518   1.813   0.666
 4535SOL    HW114504   3.593   1.864   0.624
 4535SOL    HW214505   3.517   1.719   0.630
 4536SOL     OW14506   2.054   2.007   5.752
 4536SOL    HW114507   2.152   1.991   5.754
 4536SOL    HW214508   2.019   1.992   5.659
 4537SOL     OW14509   3.360   3.717   3.660
 4537SOL    HW114510   3.371   3.816   3.654
 4537SOL    HW214511   3.439   3.676   3.705
 4538SOL     OW14512   0.616   2.317   1.996
 4538SOL    HW114513   0.523   2.288   1.972
 4538SOL    HW214514   0.611   2.395   2.059
 4539SOL     OW14515   2.057   4.957   4.880
 4539SOL    HW114516   2.133   4.919   4.828
 4539SOL    HW214517   1.985   4.888   4.890
 4540SOL     OW14518   0.516   0.980   0.511
 4540SOL    HW114519   0.421   0.988   0.481
 4540SOL    HW214520   0.528   1.029   0.598
 4541SOL     OW14521   4.003   1.576   6.809
 4541SOL    HW114522   4.029   1.481   6.826
 4541SOL    HW214523   3.915   1.579   6.762
 4542SOL     OW14524   0.225   2.357   0.924
 4542SOL    HW114525   0.240   2.363   0.825
 4542SOL    HW214526   0.225   2.261   0.952
 4543SOL     OW14527   4.554   2.407   0.541
 4543SOL    HW114528   4.580   2.351   0.462
 4543SOL    HW214529   4.455   2.403   0.553
 4544SOL     OW14530   4.858   4.987   0.468
 4544SOL    HW114531   4.768   5.024   0.489
 4544SOL    HW214532   4.929   5.042   0.512
 4545SOL     OW14533   0.843   4.168   4.942
 4545SOL    HW114534   0.895   4.163   5.028
 4545SOL    HW214535   0.906   4.163   4.865
 4546SOL     OW14536   2.793   1.474   5.857
 4546SOL    HW114537   2.727   1.524   5.914
 4546SOL    HW214538   2.753   1.458   5.767
 4547SOL     OW14539   6.384   0.785   0.181
 4547SOL    HW114540   6.318   0.818   0.249
 4547SOL    HW214541   6.465   0.750   0.228
 4548SOL     OW14542   2.338   2.648   2.757
 4548SOL    HW114543   2.412   2.714   2.745
 4548SOL    HW214544   2.341   2.580   2.683
 4549SOL     OW14545   5.620   4.591   2.650
 4549SOL    HW114546   5.611   4.555   2.557
 4549SOL    HW214547   5.659   4.683   2.647
 4550SOL     OW14548   0.966   4.612   3.287
 4550SOL    HW114549   1.049   4.590   3.236
 4550SOL    HW214550   0.936   4.704   3.264
 4551SOL     OW14551   1.556   3.683   5.112
 4551SOL    HW114552   1.645   3.638   5.109
 4551SOL    HW214553   1.491   3.631   5.058
 4552SOL     OW14554   6.163   1.624   1.284
 4552SOL    HW114555   6.200   1.611   1.376
 4552SOL    HW214556   6.137   1.535   1.245
 4553SOL     OW14557   5.368   4.776   6.312
 4553SOL    HW114558   5.431   4.698   6.316
 4553SOL    HW214559   5.319   4.774   6.224
 4554SOL     OW14560   0.276   6.284   1.142
 4554SOL    HW114561   0.262   6.200   1.194
 4554SOL    HW214562   0.346   6.340   1.187
 4555SOL     OW14563   1.538   1.401   6.790
 4555SOL    HW114564   1.458   1.440   6.746
 4555SOL    HW214565   1.618   1.413   6.731
 4556SOL     OW14566   6.412   3.249   5.947
 4556SOL    HW114567   6.347   3.294   5.887
 4556SOL    HW214568   6.502   3.247   5.902
 4557SOL     OW14569   6.151   5.100   4.174
 4557SOL    HW114570   6.084   5.061   4.237
 4557SOL    HW214571   6.129   5.196   4.158
 4558SOL     OW14572   6.205   3.066   5.372
 4558SOL    HW114573   6.211   3.040   5.276
 4558SOL    HW214574   6.258   3.002   5.428
 4559SOL     OW14575   0.697   2.899   3.076
 4559SOL    HW114576   0.778   2.952   3.102
 4559SOL    HW214577   0.725   2.816   3.029
 4560SOL     OW14578   0.128   4.348   1.801
 4560SOL    HW114579   0.200   4.390   1.747
 4560SOL    HW214580   0.053   4.319   1.741
 4561SOL     OW14581   3.334   2.031   4.446
 4561SOL    HW114582   3.397   2.077   4.509
 4561SOL    HW214583   3.374   2.029   4.355
 4562SOL     OW14584   2.032   6.555   0.534
 4562SOL    HW114585   1.957   6.600   0.583
 4562SOL    HW214586   1.994   6.483   0.475
 4563SOL     OW14587   0.232   2.979   1.603
 4563SOL    HW114588   0.146   3.027   1.587
 4563SOL    HW214589   0.264   2.999   1.696
 4564SOL     OW14590   0.369   4.259   2.020
 4564SOL    HW114591   0.319   4.307   1.948
 4564SOL    HW214592   0.450   4.215   1.981
 4565SOL     OW14593   1.941   0.283   4.853
 4565SOL    HW114594   1.982   0.337   4.779
 4565SOL    HW214595   1.986   0.305   4.939
 4566SOL     OW14596   0.193   4.008   1.113
 4566SOL    HW114597   0.230   4.088   1.160
 4566SOL    HW214598   0.250   3.987   1.033
 4567SOL     OW14599   0.109   0.034   6.154
 4567SOL    HW114600   0.045   0.097   6.109
 4567SOL    HW214601   0.066   6.970   6.162
 4568SOL     OW14602   0.840   4.329   3.714
 4568SOL    HW114603   0.885   4.281   3.639
 4568SOL    HW214604   0.887   4.308   3.800
 4569SOL     OW14605   3.117   0.844   3.016
 4569SOL    HW114606   3.196   0.821   3.072
 4569SOL    HW214607   3.120   0.941   2.992
 4570SOL     OW14608   6.115   5.537   1.403
 4570SOL    HW114609   6.115   5.507   1.498
 4570SOL    HW214610   6.182   5.484   1.351
 4571SOL     OW14611   4.452   2.768   6.744
 4571SOL    HW114612   4.437   2.811   6.655
 4571SOL    HW214613   4.549   2.745   6.755
 4572SOL     OW14614   2.533   2.536   6.689
 4572SOL    HW114615   2.581   2.596   6.625
 4572SOL    HW214616   2.450   2.501   6.646
 4573SOL     OW14617   1.178   6.489   0.790
 4573SOL    HW114618   1.236   6.515   0.713
 4573SOL    HW214619   1.234   6.474   0.871
 4574SOL     OW14620   5.970   3.560   0.075
 4574SOL    HW114621   6.064   3.558   0.109
 4574SOL    HW214622   5.970   3.583   7.003
 4575SOL     OW14623   6.093   1.218   4.399
 4575SOL    HW114624   6.182   1.198   4.440
 4575SOL    HW214625   6.072   1.150   4.329
 4576SOL     OW14626   3.028   4.862   5.111
 4576SOL    HW114627   2.945   4.819   5.076
 4576SOL    HW214628   3.079   4.797   5.167
 4577SOL     OW14629   1.436   2.226   2.947
 4577SOL    HW114630   1.528   2.187   2.952
 4577SOL    HW214631   1.401   2.217   2.854
 4578SOL     OW14632   1.312   0.830   2.936
 4578SOL    HW114633   1.303   0.731   2.947
 4578SOL    HW214634   1.232   0.867   2.889
 4579SOL     OW14635   4.743   0.034   1.868
 4579SOL    HW114636   4.826   7.003   1.867
 4579SOL    HW214637   4.756   0.113   1.808
 4580SOL     OW14638   5.710   3.530   0.170
 4580SOL    HW114639   5.713   3.513   0.269
 4580SOL    HW214640   5.800   3.559   0.139
 4581SOL     OW14641   3.046   6.456   1.824
 4581SOL    HW114642   3.118   6.442   1.892
 4581SOL    HW214643   2.966   6.495   1.869
 4582SOL     OW14644   4.944   0.782   2.608
 4582SOL    HW114645   5.012   0.855   2.617
 4582SOL    HW214646   4.867   0.815   2.554
 4583SOL     OW14647   1.867   0.590   6.357
 4583SOL    HW114648   1.833   0.555   6.270
 4583SOL    HW214649   1.798   0.649   6.399
 4584SOL     OW14650   1.532   0.168   6.003
 4584SOL    HW114651   1.565   0.152   6.096
 4584SOL    HW214652   1.444   0.123   5.991
 4585SOL     OW14653   1.824   3.680   3.268
 4585SOL    HW114654   1.918   3.646   3.255
 4585SOL    HW214655   1.827   3.776   3.295
 4586SOL     OW14656   5.004   4.414   0.442
 4586SOL    HW114657   5.028   4.424   0.539
 4586SOL    HW214658   5.061   4.476   0.388
 4587SOL     OW14659   3.101   3.695   5.074
 4587SOL    HW114660   3.039   3.657   5.143
 4587SOL    HW214661   3.104   3.795   5.085
 4588SOL     OW14662   3.013   3.680   6.322
 4588SOL    HW114663   2.974   3.751   6.381
 4588SOL    HW214664   2.942   3.648   6.258
 4589SOL     OW14665   5.540   5.736   2.268
 4589SOL    HW114666   5.454   5.783   2.249
 4589SOL    HW214667   5.570   5.689   2.185
 4590SOL     OW14668   3.584   5.548   1.579
 4590SOL    HW114669   3.674   5.508   1.563
 4590SOL    HW214670   3.516   5.503   1.521
 4591SOL     OW14671   2.404   0.024   5.753
 4591SOL    HW114672   2.443   0.035   5.661
 4591SOL    HW214673   2.312   0.061   5.755
 4592SOL     OW14674   2.721   1.474   4.432
 4592SOL    HW114675   2.675   1.424   4.505
 4592SOL    HW214676   2.699   1.432   4.344
 4593SOL     OW14677   6.968   5.642   3.205
 4593SOL    HW114678   6.925   5.559   3.239
 4593SOL    HW214679   6.902   5.717   3.207
 4594SOL     OW14680   2.908   0.040   3.165
 4594SOL    HW114681   2.970   6.996   3.202
 4594SOL    HW214682   2.949   0.081   3.084
 4595SOL     OW14683   4.767   2.051   6.202
 4595SOL    HW114684   4.820   2.061   6.118
 4595SOL    HW214685   4.703   1.975   6.193
 4596SOL     OW14686   0.760   0.249   1.688
 4596SOL    HW114687   0.692   0.284   1.625
 4596SOL    HW214688   0.724   0.168   1.735
 4597SOL     OW14689   2.593   5.255   6.827
 4597SOL    HW114690   2.676   5.201   6.812
 4597SOL    HW214691   2.521   5.223   6.767
 4598SOL     OW14692   2.488   5.336   0.070
 4598SOL    HW114693   2.545   5.290   0.002
 4598SOL    HW214694   2.410   5.278   0.092
 4599SOL     OW14695   2.006   3.642   2.619
 4599SOL    HW114696   2.003   3.582   2.699
 4599SOL    HW214697   1.943   3.607   2.549
 4600SOL     OW14698   0.191   6.645   5.774
 4600SOL    HW114699   0.190   6.614   5.679
 4600SOL    HW214700   0.227   6.573   5.833
 4601SOL     OW14701   0.356   1.073   4.366
 4601SOL    HW114702   0.417   1.079   4.287
 4601SOL    HW214703   0.332   0.977   4.381
 4602SOL     OW14704   2.542   0.525   6.668
 4602SOL    HW114705   2.630   0.518   6.713
 4602SOL    HW214706   2.476   0.569   6.729
 4603SOL     OW14707   4.204   5.824   1.340
 4603SOL    HW114708   4.301   5.800   1.338
 4603SOL    HW214709   4.193   5.918   1.372
 4604SOL     OW14710   4.825   0.043   6.144
 4604SOL    HW114711   4.768   7.004   6.194
 4604SOL    HW214712   4.772   0.124   6.120
 4605SOL     OW14713   2.380   6.645   2.031
 4605SOL    HW114714   2.367   6.678   2.125
 4605SOL    HW214715   2.292   6.612   1.995
 4606SOL     OW14716   0.253   6.497   2.744
 4606SOL    HW114717   0.329   6.432   2.751
 4606SOL    HW214718   0.248   6.531   2.650
 4607SOL     OW14719   1.952   3.922   2.627
 4607SOL    HW114720   1.907   3.910   2.539
 4607SOL    HW214721   2.002   3.838   2.650
 4608SOL     OW14722   0.293   3.525   4.978
 4608SOL    HW114723   0.363   3.596   4.990
 4608SOL    HW214724   0.317   3.468   4.899
 4609SOL     OW14725   4.186   6.192   6.184
 4609SOL    HW114726   4.273   6.188   6.135
 4609SOL    HW214727   4.127   6.260   6.141
 4610SOL     OW14728   5.430   2.283   6.756
 4610SOL    HW114729   5.514   2.236   6.727
 4610SOL    HW214730   5.351   2.229   6.728
 4611SOL     OW14731   0.403   0.943   5.932
 4611SOL    HW114732   0.492   0.949   5.977
 4611SOL    HW214733   0.386   1.027   5.881
 4612SOL     OW14734   2.146   6.314   2.358
 4612SOL    HW114735   2.157   6.404   2.398
 4612SOL    HW214736   2.184   6.245   2.420
 4613SOL     OW14737   2.146   4.330   2.298
 4613SOL    HW114738   2.224   4.334   2.360
 4613SOL    HW214739   2.082   4.403   2.319
 4614SOL     OW14740   6.030   3.106   3.776
 4614SOL    HW114741   6.113   3.136   3.822
 4614SOL    HW214742   5.950   3.139   3.826
 4615SOL     OW14743   0.620   1.112   1.073
 4615SOL    HW114744   0.638   1.140   0.979
 4615SOL    HW214745   0.686   1.156   1.134
 4616SOL     OW14746   6.351   2.771   5.320
 4616SOL    HW114747   6.428   2.715   5.350
 4616SOL    HW214748   6.360   2.788   5.222
 4617SOL     OW14749   0.373   2.635   2.015
 4617SOL    HW114750   0.456   2.690   2.016
 4617SOL    HW214751   0.346   2.616   1.920
 4618SOL     OW14752   2.618   3.697   5.532
 4618SOL    HW114753   2.552   3.761   5.569
 4618SOL    HW214754   2.687   3.676   5.600
 4619SOL     OW14755   3.385   6.117   4.305
 4619SOL    HW114756   3.321   6.154   4.238
 4619SOL    HW214757   3.335   6.066   4.374
 4620SOL     OW14758   0.930   5.505   1.250
 4620SOL    HW114759   0.980   5.498   1.164
 4620SOL    HW214760   0.832   5.517   1.231
 4621SOL     OW14761   5.004   0.419   2.177
 4621SOL    HW114762   4.999   0.518   2.191
 4621SOL    HW214763   4.979   0.372   2.261
 4622SOL     OW14764   4.390   5.390   0.747
 4622SOL    HW114765   4.368   5.295   0.726
 4622SOL    HW214766   4.462   5.422   0.687
 4623SOL     OW14767   3.418   5.116   0.815
 4623SOL    HW114768   3.454   5.023   0.826
 4623SOL    HW214769   3.492   5.182   0.830
 4624SOL     OW14770   3.683   1.487   3.352
 4624SOL    HW114771   3.709   1.548   3.276
 4624SOL    HW214772   3.712   1.528   3.438
 4625SOL     OW14773   1.854   5.544   2.197
 4625SOL    HW114774   1.840   5.488   2.279
 4625SOL    HW214775   1.834   5.640   2.219
 4626SOL     OW14776   4.142   3.796   1.833
 4626SOL    HW114777   4.219   3.857   1.850
 4626SOL    HW214778   4.132   3.782   1.734
 4627SOL     OW14779   0.308   5.961   4.792
 4627SOL    HW114780   0.345   6.054   4.800
 4627SOL    HW214781   0.221   5.964   4.743
 4628SOL     OW14782   4.649   4.966   3.447
 4628SOL    HW114783   4.608   4.925   3.366
 4628SOL    HW214784   4.717   4.904   3.485
 4629SOL     OW14785   2.011   5.713   6.446
 4629SOL    HW114786   2.055   5.624   6.437
 4629SOL    HW214787   2.029   5.768   6.364
 4630SOL     OW14788   1.206   5.545   2.408
 4630SOL    HW114789   1.113   5.511   2.390
 4630SOL    HW214790   1.207   5.596   2.494
 4631SOL     OW14791   0.572   0.583   4.050
 4631SOL    HW114792   0.633   0.661   4.029
 4631SOL    HW214793   0.486   0.617   4.088
 4632SOL     OW14794   3.068   5.376   2.770
 4632SOL    HW114795   3.045   5.411   2.680
 4632SOL    HW214796   3.063   5.276   2.769
 4633SOL     OW14797   5.318   1.758   4.186
 4633SOL    HW114798   5.415   1.741   4.168
 4633SOL    HW214799   5.295   1.728   4.278
 4634SOL     OW14800   3.035   3.998   4.853
 4634SOL    HW114801   3.078   4.069   4.797
 4634SOL    HW214802   3.063   4.009   4.948
 4635SOL     OW14803   4.639   5.231   0.938
 4635SOL    HW114804   4.642   5.309   1.000
 4635SOL    HW214805   4.554   5.181   0.952
 4636SOL     OW14806   1.787   5.539   0.924
 4636SOL    HW114807   1.740   5.555   0.837
 4636SOL    HW214808   1.832   5.623   0.954
 4637SOL     OW14809   1.432   6.839   1.584
 4637SOL    HW114810   1.335   6.859   1.568
 4637SOL    HW214811   1.461   6.881   1.670
 4638SOL     OW14812   4.033   5.320   0.548
 4638SOL    HW114813   4.009   5.311   0.452
 4638SOL    HW214814   4.026   5.231   0.593
 4639SOL     OW14815   2.471   2.440   0.342
 4639SOL    HW114816   2.402   2.374   0.312
 4639SOL    HW214817   2.481   2.511   0.273
 4640SOL     OW14818   5.961   3.241   5.472
 4640SOL    HW114819   5.907   3.217   5.553
 4640SOL    HW214820   6.034   3.173   5.460
 4641SOL     OW14821   0.924   6.538   3.709
 4641SOL    HW114822   0.953   6.630   3.734
 4641SOL    HW214823   0.932   6.478   3.789
 4642SOL     OW14824   1.569   1.882   4.034
 4642SOL    HW114825   1.486   1.935   4.015
 4642SOL    HW214826   1.574   1.805   3.971
 4643SOL     OW14827   6.707   2.232   0.001
 4643SOL    HW114828   6.620   2.282   0.002
 4643SOL    HW214829   6.782   2.296   7.012
 4644SOL     OW14830   1.064   1.353   6.567
 4644SOL    HW114831   1.010   1.424   6.611
 4644SOL    HW214832   1.031   1.263   6.598
 4645SOL     OW14833   1.611   0.796   3.969
 4645SOL    HW114834   1.703   0.759   3.953
 4645SOL    HW214835   1.543   0.731   3.934
 4646SOL     OW14836   2.520   5.014   4.467
 4646SOL    HW114837   2.538   4.934   4.524
 4646SOL    HW214838   2.491   5.091   4.525
 4647SOL     OW14839   2.001   6.578   2.959
 4647SOL    HW114840   2.070   6.548   3.026
 4647SOL    HW214841   1.916   6.600   3.006
 4648SOL     OW14842   3.066   1.152   3.766
 4648SOL    HW114843   3.152   1.120   3.806
 4648SOL    HW214844   3.077   1.160   3.667
 4649SOL     OW14845   6.204   1.125   0.727
 4649SOL    HW114846   6.227   1.198   0.663
 4649SOL    HW214847   6.134   1.066   0.687
 4650SOL     OW14848   5.169   5.915   1.618
 4650SOL    HW114849   5.214   5.867   1.542
 4650SOL    HW214850   5.221   5.998   1.640
 4651SOL     OW14851   6.873   3.798   6.106
 4651SOL    HW114852   6.839   3.706   6.125
 4651SOL    HW214853   6.850   3.823   6.013
 4652SOL     OW14854   0.095   5.639   4.433
 4652SOL    HW114855   0.108   5.682   4.344
 4652SOL    HW214856   0.184   5.626   4.477
 4653SOL     OW14857   4.966   5.869   0.348
 4653SOL    HW114858   4.912   5.867   0.432
 4653SOL    HW214859   5.063   5.875   0.371
 4654SOL     OW14860   6.792   6.746   4.958
 4654SOL    HW114861   6.839   6.706   4.880
 4654SOL    HW214862   6.859   6.788   5.019
 4655SOL     OW14863   5.441   3.021   1.640
 4655SOL    HW114864   5.509   2.995   1.572
 4655SOL    HW214865   5.424   2.944   1.702
 4656SOL     OW14866   0.675   0.514   1.361
 4656SOL    HW114867   0.682   0.506   1.262
 4656SOL    HW214868   0.684   0.610   1.387
 4657SOL     OW14869   4.987   6.646   2.124
 4657SOL    HW114870   5.042   6.570   2.091
 4657SOL    HW214871   4.900   6.647   2.074
 4658SOL     OW14872   2.370   2.726   5.444
 4658SOL    HW114873   2.403   2.714   5.351
 4658SOL    HW214874   2.370   2.637   5.491
 4659SOL     OW14875   3.353   4.576   1.286
 4659SOL    HW114876   3.287   4.528   1.342
 4659SOL    HW214877   3.444   4.567   1.326
 4660SOL     OW14878   1.224   6.897   3.627
 4660SOL    HW114879   1.148   6.914   3.563
 4660SOL    HW214880   1.259   6.985   3.659
 4661SOL     OW14881   2.344   3.767   5.713
 4661SOL    HW114882   2.356   3.839   5.644
 4661SOL    HW214883   2.255   3.723   5.699
 4662SOL     OW14884   3.129   6.982   5.188
 4662SOL    HW114885   3.089   6.996   5.098
 4662SOL    HW214886   3.059   6.951   5.252
 4663SOL     OW14887   1.006   6.936   0.310
 4663SOL    HW114888   1.027   6.983   0.395
 4663SOL    HW214889   0.915   6.961   0.279
 4664SOL     OW14890   6.541   7.024   0.740
 4664SOL    HW114891   6.636   0.017   0.768
 4664SOL    HW214892   6.535   0.004   0.640
 4665SOL     OW14893   2.067   0.878   5.464
 4665SOL    HW114894   2.094   0.943   5.536
 4665SOL    HW214895   1.990   0.915   5.413
 4666SOL     OW14896   2.108   2.454   6.800
 4666SOL    HW114897   2.028   2.450   6.860
 4666SOL    HW214898   2.192   2.450   6.855
 4667SOL     OW14899   6.467   3.754   1.960
 4667SOL    HW114900   6.472   3.780   2.056
 4667SOL    HW214901   6.430   3.830   1.907
 4668SOL     OW14902   4.011   2.190   4.949
 4668SOL    HW114903   3.914   2.173   4.937
 4668SOL    HW214904   4.044   2.254   4.879
 4669SOL     OW14905   5.228   0.186   0.412
 4669SOL    HW114906   5.283   0.115   0.369
 4669SOL    HW214907   5.285   0.265   0.433
 4670SOL     OW14908   1.860   3.524   0.238
 4670SOL    HW114909   1.869   3.518   0.139
 4670SOL    HW214910   1.949   3.541   0.279
 4671SOL     OW14911   0.518   3.090   6.863
 4671SOL    HW114912   0.608   3.107   6.823
 4671SOL    HW214913   0.520   3.003   6.913
 4672SOL     OW14914   4.010   4.615   5.619
 4672SOL    HW114915   4.012   4.518   5.597
 4672SOL    HW214916   4.018   4.627   5.718
 4673SOL     OW14917   4.820   0.536   6.993
 4673SOL    HW114918   4.764   0.454   6.987
 4673SOL    HW214919   4.874   0.546   6.909
 4674SOL     OW14920   6.819   1.562   0.666
 4674SOL    HW114921   6.895   1.586   0.605
 4674SOL    HW214922   6.742   1.530   0.611
 4675SOL     OW14923   3.330   6.339   6.510
 4675SOL    HW114924   3.402   6.393   6.466
 4675SOL    HW214925   3.369   6.291   6.589
 4676SOL     OW14926   0.993   6.614   4.798
 4676SOL    HW114927   0.945   6.644   4.880
 4676SOL    HW214928   1.078   6.666   4.787
 4677SOL     OW14929   3.338   0.289   6.745
 4677SOL    HW114930   3.337   0.375   6.797
 4677SOL    HW214931   3.317   0.213   6.807
 4678SOL     OW14932   2.057   5.461   1.765
 4678SOL    HW114933   2.041   5.449   1.666
 4678SOL    HW214934   1.980   5.510   1.805
 4679SOL     OW14935   2.676   1.351   6.180
 4679SOL    HW114936   2.618   1.422   6.140
 4679SOL    HW214937   2.750   1.393   6.232
 4680SOL     OW14938   1.987   5.386   1.518
 4680SOL    HW114939   2.029   5.356   1.432
 4680SOL    HW214940   1.887   5.382   1.509
 4681SOL     OW14941   0.424   5.592   5.151
 4681SOL    HW114942   0.379   5.671   5.109
 4681SOL    HW214943   0.470   5.621   5.235
 4682SOL     OW14944   3.906   6.163   0.221
 4682SOL    HW114945   3.949   6.079   0.188
 4682SOL    HW214946   3.808   6.148   0.234
 4683SOL     OW14947   6.453   3.912   2.203
 4683SOL    HW114948   6.456   4.009   2.227
 4683SOL    HW214949   6.362   3.875   2.222
 4684SOL     OW14950   1.706   2.549   4.284
 4684SOL    HW114951   1.611   2.568   4.259
 4684SOL    HW214952   1.744   2.629   4.332
 4685SOL     OW14953   6.436   5.270   4.261
 4685SOL    HW114954   6.363   5.202   4.271
 4685SOL    HW214955   6.522   5.231   4.294
 4686SOL     OW14956   5.041   6.131   0.057
 4686SOL    HW114957   5.037   6.032   0.069
 4686SOL    HW214958   4.989   6.157   7.002
 4687SOL     OW14959   6.625   4.007   4.530
 4687SOL    HW114960   6.551   4.066   4.561
 4687SOL    HW214961   6.712   4.056   4.538
 4688SOL     OW14962   0.451   3.256   6.475
 4688SOL    HW114963   0.383   3.184   6.465
 4688SOL    HW214964   0.543   3.215   6.475
 4689SOL     OW14965   6.934   0.475   5.475
 4689SOL    HW114966   6.942   0.474   5.575
 4689SOL    HW214967   6.921   0.569   5.443
 4690SOL     OW14968   1.477   1.166   0.188
 4690SOL    HW114969   1.479   1.262   0.160
 4690SOL    HW214970   1.565   1.123   0.167
 4691SOL     OW14971   2.597   4.166   1.050
 4691SOL    HW114972   2.627   4.260   1.062
 4691SOL    HW214973   2.626   4.112   1.129
 4692SOL     OW14974   0.117   5.189   3.061
 4692SOL    HW114975   0.099   5.198   3.159
 4692SOL    HW214976   0.210   5.155   3.047
 4693SOL     OW14977   0.492   1.601   4.432
 4693SOL    HW114978   0.509   1.685   4.484
 4693SOL    HW214979   0.393   1.585   4.425
 4694SOL     OW14980   2.560   1.133   0.316
 4694SOL    HW114981   2.497   1.195   0.361
 4694SOL    HW214982   2.549   1.140   0.217
 4695SOL     OW14983   4.169   2.884   1.682
 4695SOL    HW114984   4.135   2.795   1.652
 4695SOL    HW214985   4.224   2.873   1.765
 4696SOL     OW14986   0.510   3.605   6.225
 4696SOL    HW114987   0.608   3.600   6.211
 4696SOL    HW214988   0.484   3.698   6.250
 4697SOL     OW14989   1.528   3.751   0.333
 4697SOL    HW114990   1.535   3.665   0.385
 4697SOL    HW214991   1.620   3.784   0.312
 4698SOL     OW14992   5.488   4.889   1.412
 4698SOL    HW114993   5.533   4.930   1.333
 4698SOL    HW214994   5.418   4.951   1.446
 4699SOL     OW14995   7.021   6.996   2.099
 4699SOL    HW114996   6.982   6.933   2.166
 4699SOL    HW214997   7.002   6.963   2.007
 4700SOL     OW14998   5.361   1.606   1.166
 4700SOL    HW114999   5.313   1.688   1.197
 4700SOL    HW215000   5.405   1.625   1.078
 4701SOL     OW15001   1.098   1.204   0.305
 4701SOL    HW115002   1.010   1.157   0.307
 4701SOL    HW215003   1.118   1.233   0.212
 4702SOL     OW15004   4.397   3.887   6.727
 4702SOL    HW115005   4.344   3.972   6.739
 4702SOL    HW215006   4.454   3.873   6.808
 4703SOL     OW15007   1.484   1.355   3.515
 4703SOL    HW115008   1.526   1.339   3.604
 4703SOL    HW215009   1.481   1.453   3.496
 4704SOL     OW15010   6.977   6.574   0.917
 4704SOL    HW115011   6.962   6.563   0.819
 4704SOL    HW215012   6.891   6.563   0.966
 4705SOL     OW15013   3.718   2.923   4.350
 4705SOL    HW115014   3.777   2.843   4.339
 4705SOL    HW215015   3.761   2.986   4.415
 4706SOL     OW15016   3.537   6.040   6.383
 4706SOL    HW115017   3.580   6.127   6.359
 4706SOL    HW215018   3.517   6.039   6.481
 4707SOL     OW15019   1.941   5.804   0.936
 4707SOL    HW115020   1.915   5.898   0.957
 4707SOL    HW215021   1.973   5.759   1.020
 4708SOL     OW15022   3.314   1.994   0.580
 4708SOL    HW115023   3.407   1.982   0.547
 4708SOL    HW215024   3.314   2.048   0.664
 4709SOL     OW15025   3.916   4.880   5.272
 4709SOL    HW115026   3.873   4.885   5.182
 4709SOL    HW215027   3.906   4.787   5.308
 4710SOL     OW15028   4.636   1.672   6.864
 4710SOL    HW115029   4.637   1.664   6.764
 4710SOL    HW215030   4.712   1.619   6.902
 4711SOL     OW15031   3.118   6.973   2.428
 4711SOL    HW115032   3.161   0.037   2.422
 4711SOL    HW215033   3.100   6.937   2.336
 4712SOL     OW15034   1.935   4.726   1.216
 4712SOL    HW115035   1.893   4.778   1.141
 4712SOL    HW215036   1.865   4.705   1.284
 4713SOL     OW15037   2.617   5.221   1.515
 4713SOL    HW115038   2.589   5.163   1.438
 4713SOL    HW215039   2.551   5.212   1.589
 4714SOL     OW15040   2.501   1.512   1.452
 4714SOL    HW115041   2.402   1.512   1.462
 4714SOL    HW215042   2.526   1.479   1.361
 4715SOL     OW15043   6.938   2.811   2.685
 4715SOL    HW115044   6.906   2.867   2.609
 4715SOL    HW215045   6.941   2.866   2.768
 4716SOL     OW15046   3.719   5.003   6.390
 4716SOL    HW115047   3.665   5.069   6.441
 4716SOL    HW215048   3.694   4.910   6.418
 4717SOL     OW15049   0.967   5.892   2.263
 4717SOL    HW115050   0.992   5.889   2.167
 4717SOL    HW215051   0.930   5.982   2.286
 4718SOL     OW15052   5.002   1.927   6.393
 4718SOL    HW115053   4.965   2.007   6.442
 4718SOL    HW215054   5.072   1.957   6.329
 4719SOL     OW15055   5.667   3.588   2.748
 4719SOL    HW115056   5.648   3.570   2.652
 4719SOL    HW215057   5.730   3.519   2.783
 4720SOL     OW15058   2.480   6.554   5.605
 4720SOL    HW115059   2.429   6.593   5.682
 4720SOL    HW215060   2.431   6.573   5.520
 4721SOL     OW15061   0.876   2.004   1.152
 4721SOL    HW115062   0.930   2.086   1.170
 4721SOL    HW215063   0.909   1.959   1.069
 4722SOL     OW15064   1.730   6.533   0.391
 4722SOL    HW115065   1.642   6.550   0.345
 4722SOL    HW215066   1.729   6.577   0.481
 4723SOL     OW15067   2.548   6.588   6.598
 4723SOL    HW115068   2.517   6.507   6.547
 4723SOL    HW215069   2.639   6.615   6.566
 4724SOL     OW15070   3.805   6.632   2.320
 4724SOL    HW115071   3.834   6.675   2.234
 4724SOL    HW215072   3.780   6.537   2.302
 4725SOL     OW15073   5.106   6.515   3.338
 4725SOL    HW115074   5.123   6.469   3.425
 4725SOL    HW215075   5.192   6.548   3.300
 4726SOL     OW15076   1.088   4.130   6.622
 4726SOL    HW115077   1.079   4.205   6.557
 4726SOL    HW215078   1.075   4.042   6.575
 4727SOL     OW15079   6.820   5.762   0.368
 4727SOL    HW115080   6.749   5.691   0.371
 4727SOL    HW215081   6.796   5.830   0.299
 4728SOL     OW15082   6.461   1.486   0.090
 4728SOL    HW115083   6.404   1.512   0.013
 4728SOL    HW215084   6.405   1.483   0.173
 4729SOL     OW15085   2.050   0.375   2.203
 4729SOL    HW115086   1.979   0.375   2.133
 4729SOL    HW215087   2.122   0.439   2.177
 4730SOL     OW15088   2.391   6.114   5.484
 4730SOL    HW115089   2.462   6.068   5.537
 4730SOL    HW215090   2.306   6.118   5.538
 4731SOL     OW15091   5.489   1.075   5.025
 4731SOL    HW115092   5.509   1.123   4.939
 4731SOL    HW215093   5.394   1.042   5.023
 4732SOL     OW15094   0.063   3.397   6.525
 4732SOL    HW115095   0.094   3.428   6.435
 4732SOL    HW215096   0.135   3.412   6.593
 4733SOL     OW15097   0.183   3.431   2.675
 4733SOL    HW115098   0.241   3.493   2.624
 4733SOL    HW215099   0.092   3.470   2.685
 4734SOL     OW15100   5.099   3.296   0.258
 4734SOL    HW115101   5.134   3.242   0.335
 4734SOL    HW215102   5.089   3.238   0.178
 4735SOL     OW15103   0.763   4.139   4.245
 4735SOL    HW115104   0.715   4.193   4.177
 4735SOL    HW215105   0.731   4.044   4.242
 4736SOL     OW15106   0.391   1.403   6.939
 4736SOL    HW115107   0.323   1.407   6.866
 4736SOL    HW215108   0.482   1.401   6.899
 4737SOL     OW15109   2.733   4.716   1.747
 4737SOL    HW115110   2.773   4.704   1.838
 4737SOL    HW215111   2.749   4.633   1.693
 4738SOL     OW15112   6.557   6.303   1.701
 4738SOL    HW115113   6.626   6.375   1.715
 4738SOL    HW215114   6.509   6.286   1.787
 4739SOL     OW15115   4.052   0.531   1.962
 4739SOL    HW115116   4.098   0.601   2.017
 4739SOL    HW215117   3.958   0.560   1.944
 4740SOL     OW15118   1.110   1.943   2.263
 4740SOL    HW115119   1.064   2.025   2.299
 4740SOL    HW215120   1.073   1.923   2.172
 4741SOL     OW15121   4.239   2.488   1.821
 4741SOL    HW115122   4.302   2.431   1.769
 4741SOL    HW215123   4.273   2.499   1.915
 4742SOL     OW15124   2.792   6.866   0.285
 4742SOL    HW115125   2.879   6.883   0.330
 4742SOL    HW215126   2.809   6.829   0.193
 4743SOL     OW15127   1.912   4.408   1.954
 4743SOL    HW115128   1.982   4.350   1.994
 4743SOL    HW215129   1.914   4.398   1.854
 4744SOL     OW15130   2.033   6.333   0.993
 4744SOL    HW115131   2.086   6.327   0.909
 4744SOL    HW215132   1.936   6.336   0.971
 4745SOL     OW15133   2.246   4.019   0.532
 4745SOL    HW115134   2.182   4.053   0.463
 4745SOL    HW215135   2.204   3.942   0.581
 4746SOL     OW15136   4.441   5.010   4.345
 4746SOL    HW115137   4.376   4.936   4.361
 4746SOL    HW215138   4.470   5.049   4.433
 4747SOL     OW15139   1.952   2.893   0.681
 4747SOL    HW115140   2.013   2.968   0.707
 4747SOL    HW215141   1.867   2.899   0.734
 4748SOL     OW15142   1.799   6.395   2.573
 4748SOL    HW115143   1.732   6.412   2.646
 4748SOL    HW215144   1.891   6.409   2.609
 4749SOL     OW15145   2.168   6.917   0.438
 4749SOL    HW115146   2.173   6.867   0.352
 4749SOL    HW215147   2.260   6.940   0.468
 4750SOL     OW15148   5.822   3.336   4.983
 4750SOL    HW115149   5.843   3.330   4.885
 4750SOL    HW215150   5.760   3.261   5.008
 4751SOL     OW15151   4.525   1.044   2.386
 4751SOL    HW115152   4.482   1.069   2.473
 4751SOL    HW215153   4.544   1.127   2.333
 4752SOL     OW15154   4.625   2.190   0.377
 4752SOL    HW115155   4.672   2.103   0.360
 4752SOL    HW215156   4.662   2.260   0.316
 4753SOL     OW15157   2.054   6.615   5.285
 4753SOL    HW115158   2.113   6.609   5.204
 4753SOL    HW215159   2.079   6.543   5.350
 4754SOL     OW15160   4.169   4.145   6.596
 4754SOL    HW115161   4.082   4.110   6.632
 4754SOL    HW215162   4.151   4.198   6.513
 4755SOL     OW15163   1.394   0.409   1.957
 4755SOL    HW115164   1.396   0.312   1.983
 4755SOL    HW215165   1.338   0.460   2.022
 4756SOL     OW15166   6.083   4.199   6.712
 4756SOL    HW115167   6.149   4.195   6.787
 4756SOL    HW215168   6.129   4.183   6.625
 4757SOL     OW15169   1.659   3.141   1.520
 4757SOL    HW115170   1.634   3.145   1.424
 4757SOL    HW215171   1.747   3.186   1.534
 4758SOL     OW15172   1.910   0.002   3.072
 4758SOL    HW115173   1.822   7.004   3.113
 4758SOL    HW215174   1.901   0.086   3.020
 4759SOL     OW15175   0.840   5.351   0.838
 4759SOL    HW115176   0.838   5.431   0.778
 4759SOL    HW215177   0.899   5.281   0.799
 4760SOL     OW15178   1.443   6.796   0.922
 4760SOL    HW115179   1.485   6.868   0.868
 4760SOL    HW215180   1.344   6.796   0.908
 4761SOL     OW15181   0.391   6.811   0.556
 4761SOL    HW115182   0.329   6.741   0.591
 4761SOL    HW215183   0.389   6.811   0.456
 4762SOL     OW15184   1.764   5.587   2.591
 4762SOL    HW115185   1.788   5.496   2.557
 4762SOL    HW215186   1.791   5.595   2.687
 4763SOL     OW15187   4.602   5.669   1.844
 4763SOL    HW115188   4.543   5.596   1.810
 4763SOL    HW215189   4.601   5.745   1.780
 4764SOL     OW15190   4.833   4.047   6.073
 4764SOL    HW115191   4.888   4.043   6.156
 4764SOL    HW215192   4.762   3.977   6.076
 4765SOL     OW15193   3.887   1.493   5.225
 4765SOL    HW115194   3.929   1.583   5.238
 4765SOL    HW215195   3.844   1.489   5.135
 4766SOL     OW15196   6.595   6.789   4.311
 4766SOL    HW115197   6.642   6.766   4.396
 4766SOL    HW215198   6.662   6.812   4.240
 4767SOL     OW15199   2.155   5.070   4.481
 4767SOL    HW115200   2.063   5.041   4.507
 4767SOL    HW215201   2.185   5.018   4.401
 4768SOL     OW15202   4.727   2.863   6.757
 4768SOL    HW115203   4.725   2.915   6.672
 4768SOL    HW215204   4.820   2.835   6.778
 4769SOL     OW15205   3.313   5.773   1.258
 4769SOL    HW115206   3.226   5.752   1.303
 4769SOL    HW215207   3.341   5.866   1.282
 4770SOL     OW15208   0.040   1.728   5.169
 4770SOL    HW115209   0.070   1.814   5.127
 4770SOL    HW215210   0.001   1.668   5.100
 4771SOL     OW15211   2.843   0.222   5.301
 4771SOL    HW115212   2.788   0.259   5.227
 4771SOL    HW215213   2.867   0.127   5.280
 4772SOL     OW15214   2.794   5.480   0.896
 4772SOL    HW115215   2.815   5.572   0.864
 4772SOL    HW215216   2.737   5.433   0.829
 4773SOL     OW15217   2.394   5.861   4.708
 4773SOL    HW115218   2.383   5.923   4.786
 4773SOL    HW215219   2.370   5.909   4.624
 4774SOL     OW15220   1.652   4.117   0.194
 4774SOL    HW115221   1.686   4.049   0.259
 4774SOL    HW215222   1.580   4.077   0.138
 4775SOL     OW15223   5.678   6.556   4.966
 4775SOL    HW115224   5.695   6.523   5.059
 4775SOL    HW215225   5.765   6.583   4.924
 4776SOL     OW15226   1.514   0.841   5.906
 4776SOL    HW115227   1.446   0.769   5.900
 4776SOL    HW215228   1.468   0.930   5.906
 4777SOL     OW15229   0.864   5.961   0.674
 4777SOL    HW115230   0.826   6.053   0.669
 4777SOL    HW215231   0.867   5.921   0.583
 4778SOL     OW15232   0.548   2.165   4.714
 4778SOL    HW115233   0.457   2.189   4.747
 4778SOL    HW215234   0.596   2.112   4.784
 4779SOL     OW15235   5.953   1.274   3.661
 4779SOL    HW115236   6.038   1.252   3.612
 4779SOL    HW215237   5.958   1.367   3.697
 4780SOL     OW15238   5.703   2.372   5.652
 4780SOL    HW115239   5.724   2.468   5.637
 4780SOL    HW215240   5.787   2.319   5.655
 4781SOL     OW15241   1.501   5.889   2.239
 4781SOL    HW115242   1.449   5.804   2.234
 4781SOL    HW215243   1.443   5.962   2.273
 4782SOL     OW15244   5.459   5.264   5.267
 4782SOL    HW115245   5.443   5.209   5.348
 4782SOL    HW215246   5.481   5.204   5.189
 4783SOL     OW15247   5.894   3.420   0.874
 4783SOL    HW115248   5.957   3.435   0.950
 4783SOL    HW215249   5.811   3.474   0.888
 4784SOL     OW15250   5.696   2.758   6.309
 4784SOL    HW115251   5.729   2.728   6.398
 4784SOL    HW215252   5.601   2.729   6.297
 4785SOL     OW15253   0.891   6.024   3.539
 4785SOL    HW115254   0.836   5.963   3.596
 4785SOL    HW215255   0.861   6.119   3.553
 4786SOL     OW15256   2.691   6.685   0.726
 4786SOL    HW115257   2.732   6.595   0.740
 4786SOL    HW215258   2.670   6.697   0.629
 4787SOL     OW15259   4.080   1.764   4.506
 4787SOL    HW115260   4.115   1.837   4.565
 4787SOL    HW215261   4.056   1.802   4.417
 4788SOL     OW15262   6.195   5.862   7.017
 4788SOL    HW115263   6.173   5.827   0.082
 4788SOL    HW215264   6.151   5.951   7.005
 4789SOL     OW15265   4.729   0.691   2.168
 4789SOL    HW115266   4.693   0.617   2.224
 4789SOL    HW215267   4.671   0.772   2.178
 4790SOL     OW15268   5.795   1.742   5.051
 4790SOL    HW115269   5.695   1.740   5.050
 4790SOL    HW215270   5.827   1.791   4.970
 4791SOL     OW15271   0.335   2.751   0.898
 4791SOL    HW115272   0.344   2.781   0.803
 4791SOL    HW215273   0.374   2.659   0.908
 4792SOL     OW15274   2.175   3.877   4.167
 4792SOL    HW115275   2.271   3.902   4.174
 4792SOL    HW215276   2.126   3.945   4.112
 4793SOL     OW15277   1.404   4.162   6.341
 4793SOL    HW115278   1.485   4.105   6.356
 4793SOL    HW215279   1.322   4.105   6.341
 4794SOL     OW15280   4.927   0.836   4.458
 4794SOL    HW115281   4.948   0.781   4.538
 4794SOL    HW215282   4.840   0.883   4.472
 4795SOL     OW15283   0.415   0.297   4.749
 4795SOL    HW115284   0.467   0.382   4.757
 4795SOL    HW215285   0.322   0.312   4.784
 4796SOL     OW15286   3.555   1.325   5.686
 4796SOL    HW115287   3.649   1.361   5.680
 4796SOL    HW215288   3.492   1.388   5.640
 4797SOL     OW15289   0.917   5.177   4.845
 4797SOL    HW115290   0.946   5.218   4.759
 4797SOL    HW215291   0.974   5.098   4.866
 4798SOL     OW15292   4.920   4.964   6.220
 4798SOL    HW115293   4.854   5.033   6.189
 4798SOL    HW215294   4.959   4.992   6.308
 4799SOL     OW15295   3.558   2.563   6.421
 4799SOL    HW115296   3.643   2.544   6.373
 4799SOL    HW215297   3.578   2.604   6.510
 4800SOL     OW15298   1.347   4.753   7.005
 4800SOL    HW115299   1.336   4.842   6.962
 4800SOL    HW215300   1.264   4.699   6.990
 4801SOL     OW15301   5.082   2.520   1.802
 4801SOL    HW115302   5.110   2.479   1.715
 4801SOL    HW215303   4.986   2.549   1.795
 4802SOL     OW15304   0.058   6.106   2.251
 4802SOL    HW115305   0.017   6.027   2.297
 4802SOL    HW215306   0.155   6.112   2.275
 4803SOL     OW15307   5.252   4.287   7.018
 4803SOL    HW115308   5.277   4.266   6.923
 4803SOL    HW215309   5.333   4.282   0.050
 4804SOL     OW15310   5.174   2.227   0.092
 4804SOL    HW115311   5.269   2.224   0.122
 4804SOL    HW215312   5.133   2.314   0.120
 4805SOL     OW15313   6.306   2.147   1.175
 4805SOL    HW115314   6.373   2.220   1.161
 4805SOL    HW215315   6.290   2.100   1.088
 4806SOL     OW15316   1.424   2.842   2.929
 4806SOL    HW115317   1.395   2.917   2.988
 4806SOL    HW215318   1.453   2.878   2.840
 4807SOL     OW15319   1.199   3.063   6.766
 4807SOL    HW115320   1.107   3.024   6.772
 4807SOL    HW215321   1.195   3.154   6.726
 4808SOL     OW15322   3.646   5.753   0.866
 4808SOL    HW115323   3.648   5.755   0.767
 4808SOL    HW215324   3.636   5.846   0.902
 4809SOL     OW15325   3.452   4.921   1.762
 4809SOL    HW115326   3.391   4.846   1.738
 4809SOL    HW215327   3.398   5.004   1.779
 4810SOL     OW15328   1.313   3.984   3.597
 4810SOL    HW115329   1.331   3.981   3.498
 4810SOL    HW215330   1.272   3.898   3.626
 4811SOL     OW15331   3.251   4.120   4.706
 4811SOL    HW115332   3.345   4.154   4.697
 4811SOL    HW215333   3.211   4.109   4.615
 4812SOL     OW15334   0.478   6.594   2.265
 4812SOL    HW115335   0.408   6.541   2.217
 4812SOL    HW215336   0.561   6.597   2.209
 4813SOL     OW15337   6.302   1.539   0.351
 4813SOL    HW115338   6.375   1.600   0.381
 4813SOL    HW215339   6.214   1.584   0.363
 4814SOL     OW15340   0.036   3.913   1.562
 4814SOL    HW115341   0.011   3.984   1.496
 4814SOL    HW215342   0.035   3.951   1.655
 4815SOL     OW15343   5.877   4.993   2.416
 4815SOL    HW115344   5.941   4.940   2.361
 4815SOL    HW215345   5.784   4.964   2.395
 4816SOL     OW15346   1.309   6.874   2.434
 4816SOL    HW115347   1.342   6.879   2.340
 4816SOL    HW215348   1.382   6.843   2.494
 4817SOL     OW15349   3.819   1.370   1.591
 4817SOL    HW115350   3.727   1.365   1.630
 4817SOL    HW215351   3.868   1.285   1.609
 4818SOL     OW15352   3.131   0.512   4.514
 4818SOL    HW115353   3.048   0.565   4.530
 4818SOL    HW215354   3.184   0.556   4.441
 4819SOL     OW15355   3.124   1.287   1.529
 4819SOL    HW115356   3.137   1.251   1.437
 4819SOL    HW215357   3.042   1.344   1.532
 4820SOL     OW15358   0.026   4.367   2.560
 4820SOL    HW115359   0.073   4.377   2.472
 4820SOL    HW215360   6.967   4.420   2.558
 4821SOL     OW15361   6.548   5.256   1.720
 4821SOL    HW115362   6.584   5.178   1.669
 4821SOL    HW215363   6.524   5.227   1.813
 4822SOL     OW15364   2.287   4.096   3.585
 4822SOL    HW115365   2.198   4.132   3.557
 4822SOL    HW215366   2.320   4.147   3.665
 4823SOL     OW15367   0.880   0.259   4.320
 4823SOL    HW115368   0.923   0.260   4.230
 4823SOL    HW215369   0.847   0.166   4.340
 4824SOL     OW15370   5.522   2.275   2.575
 4824SOL    HW115371   5.565   2.366   2.572
 4824SOL    HW215372   5.466   2.262   2.492
 4825SOL     OW15373   2.118   3.626   4.098
 4825SOL    HW115374   2.138   3.723   4.106
 4825SOL    HW215375   2.129   3.582   4.187
 4826SOL     OW15376   0.274   6.582   0.673
 4826SOL    HW115377   0.303   6.528   0.752
 4826SOL    HW215378   0.174   6.589   0.673
 4827SOL     OW15379   4.644   1.086   1.343
 4827SOL    HW115380   4.556   1.039   1.341
 4827SOL    HW215381   4.707   1.042   1.279
 4828SOL     OW15382   5.506   3.449   1.954
 4828SOL    HW115383   5.477   3.540   1.924
 4828SOL    HW215384   5.485   3.382   1.882
 4829SOL     OW15385   2.820   0.489   6.020
 4829SOL    HW115386   2.812   0.500   5.921
 4829SOL    HW215387   2.730   0.464   6.057
 4830SOL     OW15388   4.805   6.137   3.891
 4830SOL    HW115389   4.795   6.104   3.985
 4830SOL    HW215390   4.817   6.236   3.891
 4831SOL     OW15391   6.668   4.582   5.386
 4831SOL    HW115392   6.709   4.610   5.473
 4831SOL    HW215393   6.577   4.545   5.402
 4832SOL     OW15394   3.345   3.187   5.903
 4832SOL    HW115395   3.331   3.100   5.951
 4832SOL    HW215396   3.259   3.214   5.858
 4833SOL     OW15397   4.240   1.255   3.216
 4833SOL    HW115398   4.140   1.261   3.223
 4833SOL    HW215399   4.266   1.259   3.119
 4834SOL     OW15400   4.329   1.094   1.030
 4834SOL    HW115401   4.316   1.022   1.097
 4834SOL    HW215402   4.312   1.058   0.938
 4835SOL     OW15403   1.879   0.078   6.332
 4835SOL    HW115404   1.832   0.152   6.380
 4835SOL    HW215405   1.946   0.117   6.269
 4836SOL     OW15406   5.179   1.979   4.204
 4836SOL    HW115407   5.224   2.049   4.260
 4836SOL    HW215408   5.239   1.899   4.198
 4837SOL     OW15409   3.035   2.745   1.473
 4837SOL    HW115410   2.971   2.668   1.462
 4837SOL    HW215411   3.024   2.808   1.396
 4838SOL     OW15412   3.887   4.828   2.093
 4838SOL    HW115413   3.790   4.821   2.071
 4838SOL    HW215414   3.941   4.798   2.014
 4839SOL     OW15415   0.367   5.189   5.689
 4839SOL    HW115416   0.389   5.285   5.703
 4839SOL    HW215417   0.397   5.161   5.597
 4840SOL     OW15418   6.180   6.751   0.555
 4840SOL    HW115419   6.248   6.677   0.562
 4840SOL    HW215420   6.124   6.752   0.638
 4841SOL     OW15421   3.179   5.789   1.569
 4841SOL    HW115422   3.166   5.691   1.580
 4841SOL    HW215423   3.271   5.814   1.601
 4842SOL     OW15424   3.776   5.762   1.737
 4842SOL    HW115425   3.859   5.709   1.720
 4842SOL    HW215426   3.702   5.729   1.680
 4843SOL     OW15427   0.160   4.083   0.129
 4843SOL    HW115428   0.124   4.098   0.221
 4843SOL    HW215429   0.104   4.132   0.063
 4844SOL     OW15430   6.666   3.407   0.088
 4844SOL    HW115431   6.713   3.327   0.124
 4844SOL    HW215432   6.683   3.486   0.147
 4845SOL     OW15433   6.207   5.609   4.079
 4845SOL    HW115434   6.207   5.669   4.159
 4845SOL    HW215435   6.299   5.571   4.065
 4846SOL     OW15436   1.086   2.796   0.854
 4846SOL    HW115437   1.049   2.860   0.788
 4846SOL    HW215438   1.185   2.791   0.844
 4847SOL     OW15439   3.752   2.137   4.824
 4847SOL    HW115440   3.691   2.097   4.892
 4847SOL    HW215441   3.809   2.066   4.782
 4848SOL     OW15442   1.814   1.613   3.669
 4848SOL    HW115443   1.876   1.638   3.744
 4848SOL    HW215444   1.747   1.547   3.701
 4849SOL     OW15445   1.390   7.014   0.345
 4849SOL    HW115446   1.360   0.080   0.320
 4849SOL    HW215447   1.367   6.951   0.270
 4850SOL     OW15448   4.047   0.327   1.826
 4850SOL    HW115449   4.097   0.258   1.878
 4850SOL    HW215450   4.050   0.415   1.874
 4851SOL     OW15451   4.306   5.784   5.620
 4851SOL    HW115452   4.321   5.718   5.694
 4851SOL    HW215453   4.219   5.832   5.634
 4852SOL     OW15454   1.774   1.061   0.190
 4852SOL    HW115455   1.839   1.067   0.114
 4852SOL    HW215456   1.703   0.994   0.167
 4853SOL     OW15457   3.395   1.527   2.891
 4853SOL    HW115458   3.457   1.466   2.939
 4853SOL    HW215459   3.350   1.478   2.816
 4854SOL     OW15460   4.833   5.373   2.334
 4854SOL    HW115461   4.859   5.291   2.384
 4854SOL    HW215462   4.876   5.371   2.243
 4855SOL     OW15463   5.872   1.793   2.106
 4855SOL    HW115464   5.786   1.742   2.103
 4855SOL    HW215465   5.885   1.832   2.198
 4856SOL     OW15466   2.783   4.747   3.874
 4856SOL    HW115467   2.780   4.747   3.774
 4856SOL    HW215468   2.719   4.678   3.909
 4857SOL     OW15469   0.834   2.067   5.797
 4857SOL    HW115470   0.796   2.109   5.880
 4857SOL    HW215471   0.843   1.969   5.811
 4858SOL     OW15472   2.052   2.035   4.728
 4858SOL    HW115473   2.047   2.021   4.629
 4858SOL    HW215474   2.147   2.051   4.755
 4859SOL     OW15475   1.687   5.736   4.742
 4859SOL    HW115476   1.783   5.741   4.714
 4859SOL    HW215477   1.678   5.675   4.820
 4860SOL     OW15478   4.500   5.221   1.587
 4860SOL    HW115479   4.545   5.174   1.511
 4860SOL    HW215480   4.402   5.230   1.568
 4861SOL     OW15481   5.065   5.007   6.873
 4861SOL    HW115482   5.083   5.104   6.887
 4861SOL    HW215483   5.110   4.955   6.946
 4862SOL     OW15484   1.344   5.343   3.135
 4862SOL    HW115485   1.442   5.323   3.132
 4862SOL    HW215486   1.323   5.413   3.067
 4863SOL     OW15487   5.567   4.185   0.935
 4863SOL    HW115488   5.503   4.109   0.925
 4863SOL    HW215489   5.638   4.178   0.865
 4864SOL     OW15490   2.821   0.856   3.083
 4864SOL    HW115491   2.774   0.856   2.995
 4864SOL    HW215492   2.914   0.820   3.072
 4865SOL     OW15493   2.330   6.904   4.382
 4865SOL    HW115494   2.368   6.990   4.349
 4865SOL    HW215495   2.279   6.859   4.309
 4866SOL     OW15496   6.781   3.355   1.553
 4866SOL    HW115497   6.863   3.369   1.608
 4866SOL    HW215498   6.782   3.417   1.475
 4867SOL     OW15499   4.472   5.623   2.262
 4867SOL    HW115500   4.538   5.685   2.220
 4867SOL    HW215501   4.519   5.566   2.331
 4868SOL     OW15502   6.396   4.529   1.859
 4868SOL    HW115503   6.393   4.628   1.869
 4868SOL    HW215504   6.482   4.494   1.896
 4869SOL     OW15505   1.875   1.453   0.774
 4869SOL    HW115506   1.863   1.362   0.734
 4869SOL    HW215507   1.801   1.513   0.743
 4870SOL     OW15508   0.424   6.227   1.864
 4870SOL    HW115509   0.425   6.313   1.813
 4870SOL    HW215510   0.387   6.243   1.955
 4871SOL     OW15511   1.523   0.740   4.643
 4871SOL    HW115512   1.439   0.794   4.636
 4871SOL    HW215513   1.527   0.697   4.733
 4872SOL     OW15514   6.976   6.519   3.189
 4872SOL    HW115515   7.007   6.497   3.281
 4872SOL    HW215516   0.026   6.511   3.125
 4873SOL     OW15517   6.742   5.457   4.695
 4873SOL    HW115518   6.821   5.425   4.747
 4873SOL    HW215519   6.767   5.538   4.642
 4874SOL     OW15520   4.877   2.373   2.811
 4874SOL    HW115521   4.790   2.345   2.852
 4874SOL    HW215522   4.879   2.347   2.715
 4875SOL     OW15523   4.735   6.856   0.073
 4875SOL    HW115524   4.732   6.765   0.032
 4875SOL    HW215525   4.778   6.920   0.009
 4876SOL     OW15526   0.585   1.488   3.348
 4876SOL    HW115527   0.546   1.575   3.380
 4876SOL    HW215528   0.669   1.469   3.400
 4877SOL     OW15529   0.752   2.066   5.097
 4877SOL    HW115530   0.710   2.040   5.184
 4877SOL    HW215531   0.730   2.161   5.077
 4878SOL     OW15532   6.762   1.748   1.778
 4878SOL    HW115533   6.690   1.816   1.786
 4878SOL    HW215534   6.729   1.669   1.727
 4879SOL     OW15535   5.097   1.734   2.448
 4879SOL    HW115536   5.088   1.705   2.543
 4879SOL    HW215537   5.122   1.831   2.445
 4880SOL     OW15538   6.809   3.085   0.182
 4880SOL    HW115539   6.718   3.050   0.159
 4880SOL    HW215540   6.878   3.019   0.154
 4881SOL     OW15541   1.831   2.431   1.304
 4881SOL    HW115542   1.843   2.512   1.247
 4881SOL    HW215543   1.781   2.456   1.387
 4882SOL     OW15544   4.252   2.067   5.131
 4882SOL    HW115545   4.187   2.083   5.057
 4882SOL    HW215546   4.266   1.968   5.142
 4883SOL     OW15547   5.165   3.831   1.928
 4883SOL    HW115548   5.245   3.831   1.989
 4883SOL    HW215549   5.173   3.905   1.862
 4884SOL     OW15550   2.378   5.465   0.741
 4884SOL    HW115551   2.327   5.536   0.692
 4884SOL    HW215552   2.448   5.426   0.682
 4885SOL     OW15553   2.412   4.752   1.738
 4885SOL    HW115554   2.354   4.691   1.791
 4885SOL    HW215555   2.506   4.745   1.772
 4886SOL     OW15556   3.142   6.787   1.787
 4886SOL    HW115557   3.141   6.687   1.793
 4886SOL    HW215558   3.164   6.826   1.876
 4887SOL     OW15559   1.129   6.434   1.530
 4887SOL    HW115560   1.107   6.407   1.623
 4887SOL    HW215561   1.109   6.358   1.467
 4888SOL     OW15562   3.039   6.426   3.035
 4888SOL    HW115563   3.049   6.386   2.943
 4888SOL    HW215564   2.971   6.374   3.087
 4889SOL     OW15565   6.700   1.690   4.664
 4889SOL    HW115566   6.701   1.760   4.592
 4889SOL    HW215567   6.755   1.721   4.741
 4890SOL     OW15568   0.841   1.199   5.394
 4890SOL    HW115569   0.825   1.155   5.305
 4890SOL    HW215570   0.937   1.189   5.420
 4891SOL     OW15571   2.257   5.247   6.198
 4891SOL    HW115572   2.163   5.279   6.196
 4891SOL    HW215573   2.303   5.284   6.279
 4892SOL     OW15574   5.639   6.651   2.345
 4892SOL    HW115575   5.698   6.730   2.359
 4892SOL    HW215576   5.691   6.576   2.305
 4893SOL     OW15577   0.359   3.381   1.956
 4893SOL    HW115578   0.448   3.398   1.997
 4893SOL    HW215579   0.370   3.342   1.865
 4894SOL     OW15580   3.597   0.171   2.170
 4894SOL    HW115581   3.672   0.195   2.109
 4894SOL    HW215582   3.513   0.159   2.116
 4895SOL     OW15583   0.431   4.939   3.562
 4895SOL    HW115584   0.463   4.997   3.637
 4895SOL    HW215585   0.423   4.994   3.479
 4896SOL     OW15586   2.065   4.800   3.354
 4896SOL    HW115587   2.087   4.860   3.430
 4896SOL    HW215588   2.040   4.709   3.388
 4897SOL     OW15589   1.741   5.809   5.239
 4897SOL    HW115590   1.810   5.744   5.208
 4897SOL    HW215591   1.746   5.817   5.339
 4898SOL     OW15592   4.286   0.908   5.096
 4898SOL    HW115593   4.299   1.007   5.096
 4898SOL    HW215594   4.198   0.886   5.138
 4899SOL     OW15595   6.307   5.471   2.140
 4899SOL    HW115596   6.234   5.446   2.204
 4899SOL    HW215597   6.267   5.493   2.051
 4900SOL     OW15598   4.764   5.897   5.822
 4900SOL    HW115599   4.757   5.868   5.727
 4900SOL    HW215600   4.849   5.948   5.836
 4901SOL     OW15601   1.418   2.361   4.880
 4901SOL    HW115602   1.464   2.292   4.934
 4901SOL    HW215603   1.321   2.339   4.872
 4902SOL     OW15604   1.848   0.542   6.095
 4902SOL    HW115605   1.787   0.590   6.033
 4902SOL    HW215606   1.895   0.469   6.046
 4903SOL     OW15607   4.422   5.534   1.003
 4903SOL    HW115608   4.414   5.494   0.912
 4903SOL    HW215609   4.503   5.497   1.049
 4904SOL     OW15610   2.282   0.807   5.827
 4904SOL    HW115611   2.353   0.800   5.897
 4904SOL    HW215612   2.195   0.776   5.864
 4905SOL     OW15613   3.078   0.202   2.992
 4905SOL    HW115614   3.058   0.294   2.958
 4905SOL    HW215615   3.123   0.149   2.920
 4906SOL     OW15616   4.761   3.390   5.352
 4906SOL    HW115617   4.771   3.316   5.286
 4906SOL    HW215618   4.735   3.475   5.305
 4907SOL     OW15619   4.990   1.413   0.482
 4907SOL    HW115620   5.087   1.404   0.504
 4907SOL    HW215621   4.975   1.495   0.427
 4908SOL     OW15622   4.868   0.232   0.904
 4908SOL    HW115623   4.865   0.285   0.820
 4908SOL    HW215624   4.905   0.288   0.978
 4909SOL     OW15625   6.393   3.885   3.439
 4909SOL    HW115626   6.459   3.903   3.512
 4909SOL    HW215627   6.395   3.788   3.415
 4910SOL     OW15628   5.745   1.554   4.505
 4910SOL    HW115629   5.757   1.638   4.453
 4910SOL    HW215630   5.648   1.538   4.522
 4911SOL     OW15631   1.607   2.541   3.158
 4911SOL    HW115632   1.575   2.551   3.064
 4911SOL    HW215633   1.595   2.446   3.187
 4912SOL     OW15634   5.309   1.865   5.570
 4912SOL    HW115635   5.223   1.844   5.617
 4912SOL    HW215636   5.343   1.953   5.601
 4913SOL     OW15637   5.592   2.972   5.654
 4913SOL    HW115638   5.530   2.979   5.732
 4913SOL    HW215639   5.539   2.973   5.569
 4914SOL     OW15640   4.490   0.242   5.296
 4914SOL    HW115641   4.553   0.180   5.248
 4914SOL    HW215642   4.472   0.207   5.388
 4915SOL     OW15643   2.962   5.992   5.467
 4915SOL    HW115644   2.916   5.913   5.508
 4915SOL    HW215645   2.899   6.037   5.403
 4916SOL     OW15646   7.009   0.740   4.281
 4916SOL    HW115647   7.013   0.751   4.380
 4916SOL    HW215648   6.988   0.827   4.238
 4917SOL     OW15649   3.332   5.941   1.000
 4917SOL    HW115650   3.429   5.955   0.977
 4917SOL    HW215651   3.325   5.892   1.087
 4918SOL     OW15652   6.601   5.671   1.886
 4918SOL    HW115653   6.609   5.646   1.982
 4918SOL    HW215654   6.632   5.764   1.872
 4919SOL     OW15655   3.840   3.036   2.020
 4919SOL    HW115656   3.815   3.023   2.116
 4919SOL    HW215657   3.883   2.953   1.985
 4920SOL     OW15658   5.514   0.481   5.152
 4920SOL    HW115659   5.496   0.411   5.221
 4920SOL    HW215660   5.610   0.508   5.157
 4921SOL     OW15661   0.943   5.863   0.428
 4921SOL    HW115662   1.010   5.919   0.476
 4921SOL    HW215663   0.937   5.892   0.333
 4922SOL     OW15664   3.400   2.104   5.178
 4922SOL    HW115665   3.449   2.122   5.263
 4922SOL    HW215666   3.331   2.175   5.163
 4923SOL     OW15667   3.086   1.840   2.691
 4923SOL    HW115668   3.092   1.932   2.653
 4923SOL    HW215669   3.119   1.841   2.786
 4924SOL     OW15670   2.337   1.662   5.983
 4924SOL    HW115671   2.310   1.667   5.887
 4924SOL    HW215672   2.342   1.755   6.021
 4925SOL     OW15673   4.212   0.122   3.175
 4925SOL    HW115674   4.296   0.176   3.175
 4925SOL    HW215675   4.137   0.176   3.139
 4926SOL     OW15676   5.409   1.611   1.573
 4926SOL    HW115677   5.472   1.643   1.644
 4926SOL    HW215678   5.457   1.550   1.511
 4927SOL     OW15679   3.043   2.578   6.234
 4927SOL    HW115680   3.132   2.579   6.278
 4927SOL    HW215681   3.055   2.590   6.135
 4928SOL     OW15682   1.261   1.049   0.683
 4928SOL    HW115683   1.348   1.048   0.634
 4928SOL    HW215684   1.275   1.018   0.777
 4929SOL     OW15685   0.131   0.057   3.265
 4929SOL    HW115686   0.158   7.005   3.208
 4929SOL    HW215687   0.085   0.126   3.209
 4930SOL     OW15688   6.186   6.917   2.268
 4930SOL    HW115689   6.226   6.875   2.187
 4930SOL    HW215690   6.107   6.862   2.298
 4931SOL     OW15691   5.988   6.437   1.824
 4931SOL    HW115692   5.985   6.338   1.835
 4931SOL    HW215693   5.898   6.476   1.841
 4932SOL     OW15694   3.488   4.139   3.277
 4932SOL    HW115695   3.560   4.122   3.345
 4932SOL    HW215696   3.454   4.232   3.288
 4933SOL     OW15697   2.466   6.430   4.403
 4933SOL    HW115698   2.501   6.515   4.443
 4933SOL    HW215699   2.531   6.356   4.421
 4934SOL     OW15700   3.666   6.301   2.621
 4934SOL    HW115701   3.654   6.384   2.675
 4934SOL    HW215702   3.725   6.237   2.671
 4935SOL     OW15703   1.336   1.992   7.025
 4935SOL    HW115704   1.344   2.065   0.067
 4935SOL    HW215705   1.390   2.015   6.944
 4936SOL     OW15706   2.526   4.644   0.817
 4936SOL    HW115707   2.544   4.741   0.834
 4936SOL    HW215708   2.602   4.604   0.766
 4937SOL     OW15709   4.821   3.176   5.185
 4937SOL    HW115710   4.808   3.171   5.086
 4937SOL    HW215711   4.828   3.084   5.223
 4938SOL     OW15712   3.565   5.693   5.306
 4938SOL    HW115713   3.535   5.788   5.300
 4938SOL    HW215714   3.665   5.689   5.303
 4939SOL     OW15715   4.740   3.139   5.481
 4939SOL    HW115716   4.720   3.221   5.428
 4939SOL    HW215717   4.835   3.111   5.465
 4940SOL     OW15718   1.955   0.220   5.316
 4940SOL    HW115719   1.900   0.206   5.399
 4940SOL    HW215720   1.927   0.154   5.246
 4941SOL     OW15721   4.212   1.671   0.172
 4941SOL    HW115722   4.202   1.763   0.133
 4941SOL    HW215723   4.308   1.643   0.167
 4942SOL     OW15724   5.074   3.725   5.542
 4942SOL    HW115725   4.998   3.659   5.545
 4942SOL    HW215726   5.158   3.680   5.573
 4943SOL     OW15727   4.668   2.252   0.751
 4943SOL    HW115728   4.630   2.297   0.670
 4943SOL    HW215729   4.699   2.321   0.816
 4944SOL     OW15730   2.204   4.040   2.618
 4944SOL    HW115731   2.223   4.021   2.521
 4944SOL    HW215732   2.118   3.996   2.643
 4945SOL     OW15733   1.007   0.234   4.066
 4945SOL    HW115734   0.972   0.222   3.973
 4945SOL    HW215735   1.065   0.316   4.069
 4946SOL     OW15736   1.362   2.692   2.015
 4946SOL    HW115737   1.316   2.779   1.999
 4946SOL    HW215738   1.342   2.659   2.107
 4947SOL     OW15739   0.824   0.046   0.678
 4947SOL    HW115740   0.789   7.000   0.617
 4947SOL    HW215741   0.759   0.062   0.752
 4948SOL     OW15742   2.156   0.893   2.870
 4948SOL    HW115743   2.073   0.946   2.885
 4948SOL    HW215744   2.150   0.847   2.781
 4949SOL     OW15745   5.139   0.739   5.337
 4949SOL    HW115746   5.209   0.811   5.339
 4949SOL    HW215747   5.179   0.654   5.371
 4950SOL     OW15748   2.665   6.244   4.518
 4950SOL    HW115749   2.737   6.216   4.454
 4950SOL    HW215750   2.675   6.193   4.603
 4951SOL     OW15751   4.195   1.506   4.088
 4951SOL    HW115752   4.290   1.516   4.119
 4951SOL    HW215753   4.145   1.449   4.153
 4952SOL     OW15754   0.572   6.249   4.979
 4952SOL    HW115755   0.502   6.249   4.908
 4952SOL    HW215756   0.627   6.332   4.971
 4953SOL     OW15757   2.266   5.265   0.873
 4953SOL    HW115758   2.206   5.310   0.939
 4953SOL    HW215759   2.329   5.332   0.833
 4954SOL     OW15760   5.265   4.867   0.372
 4954SOL    HW115761   5.316   4.803   0.430
 4954SOL    HW215762   5.270   4.837   0.277
 4955SOL     OW15763   1.431   6.390   0.603
 4955SOL    HW115764   1.423   6.490   0.606
 4955SOL    HW215765   1.344   6.351   0.575
 4956SOL     OW15766   4.109   0.070   5.706
 4956SOL    HW115767   4.013   0.045   5.690
 4956SOL    HW215768   4.119   0.169   5.699
 4957SOL     OW15769   0.333   1.628   4.180
 4957SOL    HW115770   0.320   1.541   4.132
 4957SOL    HW215771   0.402   1.616   4.252
 4958SOL     OW15772   0.395   6.477   6.312
 4958SOL    HW115773   0.301   6.448   6.290
 4958SOL    HW215774   0.445   6.400   6.351
 4959SOL     OW15775   1.259   0.773   0.072
 4959SOL    HW115776   1.192   0.710   0.033
 4959SOL    HW215777   1.300   0.827   7.024
 4960SOL     OW15778   3.788   6.885   4.107
 4960SOL    HW115779   3.724   6.890   4.030
 4960SOL    HW215780   3.878   6.857   4.074
 4961SOL     OW15781   5.393   7.004   4.600
 4961SOL    HW115782   5.393   6.942   4.521
 4961SOL    HW215783   5.428   0.068   4.572
 4962SOL     OW15784   5.723   2.532   1.731
 4962SOL    HW115785   5.806   2.479   1.748
 4962SOL    HW215786   5.743   2.629   1.739
 4963SOL     OW15787   0.410   5.348   0.980
 4963SOL    HW115788   0.359   5.434   0.981
 4963SOL    HW215789   0.362   5.280   1.036
 4964SOL     OW15790   3.830   5.752   3.717
 4964SOL    HW115791   3.836   5.823   3.647
 4964SOL    HW215792   3.809   5.664   3.674
 4965SOL     OW15793   0.287   6.778   4.545
 4965SOL    HW115794   0.314   6.752   4.453
 4965SOL    HW215795   0.324   6.712   4.611
 4966SOL     OW15796   2.930   6.199   4.894
 4966SOL    HW115797   3.022   6.213   4.857
 4966SOL    HW215798   2.934   6.132   4.968
 4967SOL     OW15799   4.082   2.600   0.045
 4967SOL    HW115800   4.114   2.508   0.070
 4967SOL    HW215801   4.125   2.628   6.985
 4968SOL     OW15802   4.716   2.870   3.434
 4968SOL    HW115803   4.808   2.833   3.432
 4968SOL    HW215804   4.653   2.806   3.388
 4969SOL     OW15805   1.716   1.199   1.818
 4969SOL    HW115806   1.775   1.271   1.855
 4969SOL    HW215807   1.705   1.212   1.720
 4970SOL     OW15808   1.222   2.089   4.900
 4970SOL    HW115809   1.257   2.004   4.861
 4970SOL    HW215810   1.132   2.073   4.940
 4971SOL     OW15811   6.399   6.077   3.007
 4971SOL    HW115812   6.309   6.043   3.036
 4971SOL    HW215813   6.396   6.098   2.909
 4972SOL     OW15814   1.925   3.442   1.180
 4972SOL    HW115815   1.920   3.495   1.265
 4972SOL    HW215816   1.983   3.490   1.114
 4973SOL     OW15817   6.072   6.321   2.143
 4973SOL    HW115818   6.052   6.293   2.049
 4973SOL    HW215819   6.001   6.385   2.175
 4974SOL     OW15820   5.648   5.892   2.745
 4974SOL    HW115821   5.603   5.804   2.755
 4974SOL    HW215822   5.747   5.880   2.746
 4975SOL     OW15823   5.937   6.193   0.498
 4975SOL    HW115824   5.961   6.259   0.427
 4975SOL    HW215825   5.867   6.232   0.559
 4976SOL     OW15826   3.441   0.348   5.025
 4976SOL    HW115827   3.466   0.258   4.989
 4976SOL    HW215828   3.347   0.370   4.999
 4977SOL     OW15829   4.256   3.705   0.434
 4977SOL    HW115830   4.299   3.776   0.490
 4977SOL    HW215831   4.318   3.677   0.361
 4978SOL     OW15832   5.856   4.006   5.193
 4978SOL    HW115833   5.819   3.919   5.227
 4978SOL    HW215834   5.846   4.076   5.264
 4979SOL     OW15835   0.551   0.757   5.704
 4979SOL    HW115836   0.619   0.814   5.657
 4979SOL    HW215837   0.459   0.789   5.681
 4980SOL     OW15838   3.866   5.243   2.401
 4980SOL    HW115839   3.865   5.340   2.427
 4980SOL    HW215840   3.775   5.215   2.372
 4981SOL     OW15841   4.463   0.066   5.507
 4981SOL    HW115842   4.553   0.034   5.478
 4981SOL    HW215843   4.462   0.078   5.606
 4982SOL     OW15844   1.871   2.241   0.149
 4982SOL    HW115845   1.840   2.167   0.089
 4982SOL    HW215846   1.933   2.204   0.217
 4983SOL     OW15847   5.134   2.725   3.665
 4983SOL    HW115848   5.156   2.644   3.719
 4983SOL    HW215849   5.162   2.807   3.713
 4984SOL     OW15850   4.904   3.818   4.507
 4984SOL    HW115851   4.853   3.738   4.539
 4984SOL    HW215852   4.992   3.824   4.555
 4985SOL     OW15853   5.276   5.652   3.210
 4985SOL    HW115854   5.288   5.726   3.145
 4985SOL    HW215855   5.234   5.574   3.164
 4986SOL     OW15856   5.887   4.480   2.439
 4986SOL    HW115857   5.859   4.510   2.530
 4986SOL    HW215858   5.818   4.418   2.402
 4987SOL     OW15859   0.071   3.243   1.227
 4987SOL    HW115860   0.136   3.168   1.240
 4987SOL    HW215861   0.037   3.240   1.132
 4988SOL     OW15862   0.191   1.773   4.363
 4988SOL    HW115863   0.104   1.761   4.410
 4988SOL    HW215864   0.196   1.711   4.285
 4989SOL     OW15865   6.531   1.413   0.709
 4989SOL    HW115866   6.561   1.331   0.757
 4989SOL    HW215867   6.506   1.483   0.776
 4990SOL     OW15868   0.693   2.696   5.287
 4990SOL    HW115869   0.749   2.758   5.232
 4990SOL    HW215870   0.614   2.665   5.234
 4991SOL     OW15871   0.241   3.030   4.190
 4991SOL    HW115872   0.279   3.038   4.098
 4991SOL    HW215873   0.158   2.974   4.186
 4992SOL     OW15874   3.409   0.641   5.362
 4992SOL    HW115875   3.470   0.567   5.393
 4992SOL    HW215876   3.428   0.662   5.267
 4993SOL     OW15877   3.220   5.928   3.763
 4993SOL    HW115878   3.317   5.907   3.755
 4993SOL    HW215879   3.186   5.895   3.852
 4994SOL     OW15880   0.729   6.540   2.768
 4994SOL    HW115881   0.822   6.545   2.734
 4994SOL    HW215882   0.684   6.459   2.731
 4995SOL     OW15883   6.598   2.644   6.227
 4995SOL    HW115884   6.569   2.729   6.184
 4995SOL    HW215885   6.618   2.661   6.324
 4996SOL     OW15886   0.352   2.251   1.960
 4996SOL    HW115887   0.301   2.288   1.883
 4996SOL    HW215888   0.290   2.232   2.036
 4997SOL     OW15889   6.969   2.235   2.772
 4997SOL    HW115890   0.003   2.204   2.699
 4997SOL    HW215891   6.924   2.320   2.745
 4998SOL     OW15892   1.632   5.251   4.954
 4998SOL    HW115893   1.566   5.211   4.891
 4998SOL    HW215894   1.665   5.338   4.918
 4999SOL     OW15895   5.311   5.544   0.600
 4999SOL    HW115896   5.373   5.618   0.625
 4999SOL    HW215897   5.223   5.558   0.645
 5000SOL     OW15898   1.088   0.184   5.056
 5000SOL    HW115899   1.063   0.281   5.049
 5000SOL    HW215900   1.011   0.127   5.028
 5001SOL     OW15901   2.719   4.047   5.588
 5001SOL    HW115902   2.686   4.054   5.494
 5001SOL    HW215903   2.643   4.054   5.652
 5002SOL     OW15904   2.121   1.212   2.669
 5002SOL    HW115905   2.168   1.206   2.581
 5002SOL    HW215906   2.040   1.153   2.667
 5003SOL     OW15907   6.895   6.227   2.578
 5003SOL    HW115908   6.930   6.304   2.631
 5003SOL    HW215909   6.890   6.252   2.481
 5004SOL     OW15910   2.360   5.863   6.329
 5004SOL    HW115911   2.410   5.807   6.263
 5004SOL    HW215912   2.271   5.888   6.291
 5005SOL     OW15913   4.587   3.166   0.557
 5005SOL    HW115914   4.636   3.193   0.640
 5005SOL    HW215915   4.491   3.196   0.564
 5006SOL     OW15916   5.487   6.793   5.322
 5006SOL    HW115917   5.422   6.719   5.302
 5006SOL    HW215918   5.549   6.804   5.244
 5007SOL     OW15919   4.099   1.049   6.162
 5007SOL    HW115920   4.124   1.105   6.083
 5007SOL    HW215921   4.175   0.991   6.187
 5008SOL     OW15922   5.547   1.167   3.391
 5008SOL    HW115923   5.509   1.086   3.436
 5008SOL    HW215924   5.599   1.139   3.311
 5009SOL     OW15925   0.643   6.099   1.749
 5009SOL    HW115926   0.575   6.166   1.781
 5009SOL    HW215927   0.640   6.018   1.808
 5010SOL     OW15928   3.791   4.096   3.763
 5010SOL    HW115929   3.837   4.046   3.836
 5010SOL    HW215930   3.732   4.167   3.803
 5011SOL     OW15931   0.609   3.239   2.154
 5011SOL    HW115932   0.551   3.301   2.207
 5011SOL    HW215933   0.676   3.292   2.102
 5012SOL     OW15934   7.015   2.871   6.179
 5012SOL    HW115935   6.983   2.849   6.087
 5012SOL    HW215936   7.006   2.969   6.195
 5013SOL     OW15937   3.851   1.074   6.562
 5013SOL    HW115938   3.836   0.988   6.515
 5013SOL    HW215939   3.763   1.120   6.578
 5014SOL     OW15940   6.180   6.072   0.530
 5014SOL    HW115941   6.088   6.105   0.507
 5014SOL    HW215942   6.175   6.020   0.615
 5015SOL     OW15943   4.252   2.180   3.709
 5015SOL    HW115944   4.340   2.135   3.720
 5015SOL    HW215945   4.179   2.111   3.706
 5016SOL     OW15946   1.561   0.338   2.924
 5016SOL    HW115947   1.525   0.413   2.979
 5016SOL    HW215948   1.490   0.304   2.863
 5017SOL     OW15949   2.435   2.021   0.797
 5017SOL    HW115950   2.436   2.121   0.803
 5017SOL    HW215951   2.483   1.982   0.874
 5018SOL     OW15952   0.306   4.134   2.906
 5018SOL    HW115953   0.284   4.221   2.861
 5018SOL    HW215954   0.238   4.065   2.880
 5019SOL     OW15955   2.582   4.169   0.744
 5019SOL    HW115956   2.558   4.168   0.840
 5019SOL    HW215957   2.598   4.075   0.713
 5020SOL     OW15958   4.772   5.174   6.142
 5020SOL    HW115959   4.792   5.162   6.044
 5020SOL    HW215960   4.712   5.253   6.153
 5021SOL     OW15961   1.990   4.912   5.755
 5021SOL    HW115962   2.038   4.972   5.819
 5021SOL    HW215963   2.043   4.904   5.671
 5022SOL     OW15964   1.784   6.321   0.862
 5022SOL    HW115965   1.817   6.408   0.825
 5022SOL    HW215966   1.719   6.280   0.798
 5023SOL     OW15967   6.325   2.741   0.899
 5023SOL    HW115968   6.280   2.767   0.985
 5023SOL    HW215969   6.417   2.709   0.918
 5024SOL     OW15970   6.657   4.157   3.707
 5024SOL    HW115971   6.642   4.205   3.621
 5024SOL    HW215972   6.705   4.217   3.771
 5025SOL     OW15973   5.179   1.530   3.118
 5025SOL    HW115974   5.160   1.615   3.167
 5025SOL    HW215975   5.278   1.522   3.103
 5026SOL     OW15976   6.239   5.752   4.321
 5026SOL    HW115977   6.191   5.675   4.362
 5026SOL    HW215978   6.336   5.747   4.344
 5027SOL     OW15979   0.097   6.777   3.214
 5027SOL    HW115980   0.185   6.781   3.262
 5027SOL    HW215981   0.059   6.685   3.223
 5028SOL     OW15982   0.281   6.263   2.403
 5028SOL    HW115983   0.284   6.212   2.489
 5028SOL    HW215984   0.310   6.357   2.419
 5029SOL     OW15985   0.336   2.532   1.497
 5029SOL    HW115986   0.330   2.629   1.474
 5029SOL    HW215987   0.325   2.478   1.414
 5030SOL     OW15988   6.359   0.309   6.691
 5030SOL    HW115989   6.418   0.363   6.752
 5030SOL    HW215990   6.409   0.286   6.608
 5031SOL     OW15991   5.823   0.729   4.351
 5031SOL    HW115992   5.859   0.820   4.373
 5031SOL    HW215993   5.826   0.716   4.252
 5032SOL     OW15994   1.515   5.358   0.585
 5032SOL    HW115995   1.419   5.383   0.600
 5032SOL    HW215996   1.574   5.431   0.619
 5033SOL     OW15997   2.502   4.618   5.598
 5033SOL    HW115998   2.590   4.578   5.622
 5033SOL    HW215999   2.428   4.561   5.635
 5034SOL     OW16000   6.267   2.202   2.280
 5034SOL    HW116001   6.231   2.247   2.362
 5034SOL    HW216002   6.191   2.172   2.223
 5035SOL     OW16003   4.626   5.415   0.579
 5035SOL    HW116004   4.635   5.438   0.482
 5035SOL    HW216005   4.688   5.339   0.601
 5036SOL     OW16006   0.758   6.190   0.602
 5036SOL    HW116007   0.845   6.227   0.570
 5036SOL    HW216008   0.695   6.180   0.524
 5037SOL     OW16009   4.230   1.541   3.556
 5037SOL    HW116010   4.266   1.629   3.589
 5037SOL    HW216011   4.246   1.471   3.625
 5038SOL     OW16012   1.368   5.900   5.908
 5038SOL    HW116013   1.405   5.972   5.849
 5038SOL    HW216014   1.423   5.817   5.897
 5039SOL     OW16015   2.262   2.943   5.337
 5039SOL    HW116016   2.285   2.854   5.377
 5039SOL    HW216017   2.341   2.979   5.288
 5040SOL     OW16018   3.158   3.572   6.573
 5040SOL    HW116019   3.087   3.590   6.505
 5040SOL    HW216020   3.140   3.625   6.655
 5041SOL     OW16021   1.041   3.249   1.692
 5041SOL    HW116022   1.039   3.336   1.741
 5041SOL    HW216023   1.023   3.174   1.755
 5042SOL     OW16024   5.646   3.650   6.517
 5042SOL    HW116025   5.714   3.648   6.444
 5042SOL    HW216026   5.555   3.660   6.478
 5043SOL     OW16027   3.978   0.617   3.617
 5043SOL    HW116028   3.911   0.586   3.550
 5043SOL    HW216029   3.995   0.545   3.684
 5044SOL     OW16030   5.993   5.637   3.551
 5044SOL    HW116031   6.082   5.650   3.506
 5044SOL    HW216032   5.960   5.544   3.534
 5045SOL     OW16033   6.339   3.380   0.306
 5045SOL    HW116034   6.424   3.364   0.357
 5045SOL    HW216035   6.349   3.461   0.248
 5046SOL     OW16036   3.450   3.109   5.181
 5046SOL    HW116037   3.519   3.179   5.164
 5046SOL    HW216038   3.471   3.061   5.266
 5047SOL     OW16039   6.148   0.206   2.909
 5047SOL    HW116040   6.156   0.209   3.008
 5047SOL    HW216041   6.225   0.154   2.871
 5048SOL     OW16042   6.996   2.012   1.495
 5048SOL    HW116043   0.000   2.022   1.590
 5048SOL    HW216044   0.040   1.961   1.443
 5049SOL     OW16045   0.876   2.123   2.213
 5049SOL    HW116046   0.877   2.214   2.173
 5049SOL    HW216047   0.874   2.055   2.140
 5050SOL     OW16048   0.662   2.419   1.701
 5050SOL    HW116049   0.756   2.417   1.733
 5050SOL    HW216050   0.618   2.331   1.721
 5051SOL     OW16051   2.984   4.464   0.800
 5051SOL    HW116052   3.059   4.527   0.818
 5051SOL    HW216053   3.012   4.371   0.823
 5052SOL     OW16054   4.309   5.149   0.661
 5052SOL    HW116055   4.209   5.142   0.660
 5052SOL    HW216056   4.342   5.166   0.568
 5053SOL     OW16057   2.623   4.128   1.537
 5053SOL    HW116058   2.574   4.054   1.491
 5053SOL    HW216059   2.597   4.216   1.496
 5054SOL     OW16060   3.423   6.140   4.668
 5054SOL    HW116061   3.418   6.216   4.604
 5054SOL    HW216062   3.435   6.055   4.618
 5055SOL     OW16063   1.116   1.864   5.194
 5055SOL    HW116064   1.156   1.947   5.233
 5055SOL    HW216065   1.055   1.888   5.119
 5056SOL     OW16066   0.024   3.823   5.772
 5056SOL    HW116067   0.014   3.763   5.693
 5056SOL    HW216068   0.037   3.768   5.854
 5057SOL     OW16069   0.701   5.871   3.671
 5057SOL    HW116070   0.670   5.898   3.762
 5057SOL    HW216071   0.687   5.773   3.659
 5058SOL     OW16072   4.204   3.914   6.334
 5058SOL    HW116073   4.183   3.954   6.424
 5058SOL    HW216074   4.242   3.823   6.346
 5059SOL     OW16075   3.578   1.943   5.033
 5059SOL    HW116076   3.553   1.847   5.052
 5059SOL    HW216077   3.513   2.003   5.080
 5060SOL     OW16078   0.332   3.425   5.221
 5060SOL    HW116079   0.302   3.473   5.138
 5060SOL    HW216080   0.428   3.399   5.212
 5061SOL     OW16081   3.558   3.527   4.459
 5061SOL    HW116082   3.616   3.598   4.419
 5061SOL    HW216083   3.583   3.438   4.419
 5062SOL     OW16084   4.698   1.118   2.976
 5062SOL    HW116085   4.779   1.125   3.035
 5062SOL    HW216086   4.728   1.109   2.881
 5063SOL     OW16087   1.239   6.630   2.104
 5063SOL    HW116088   1.316   6.687   2.133
 5063SOL    HW216089   1.183   6.607   2.183
 5064SOL     OW16090   4.692   5.689   0.484
 5064SOL    HW116091   4.747   5.759   0.529
 5064SOL    HW216092   4.720   5.599   0.518
 5065SOL     OW16093   2.548   6.873   3.317
 5065SOL    HW116094   2.473   6.808   3.332
 5065SOL    HW216095   2.597   6.848   3.233
 5066SOL     OW16096   2.115   4.609   1.615
 5066SOL    HW116097   2.096   4.706   1.630
 5066SOL    HW216098   2.165   4.572   1.693
 5067SOL     OW16099   4.081   2.310   1.435
 5067SOL    HW116100   4.009   2.358   1.485
 5067SOL    HW216101   4.130   2.375   1.376
 5068SOL     OW16102   3.519   6.216   0.619
 5068SOL    HW116103   3.445   6.153   0.643
 5068SOL    HW216104   3.548   6.200   0.524
 5069SOL     OW16105   3.251   4.484   6.369
 5069SOL    HW116106   3.272   4.453   6.277
 5069SOL    HW216107   3.177   4.429   6.407
 5070SOL     OW16108   5.769   3.082   4.275
 5070SOL    HW116109   5.714   3.162   4.250
 5070SOL    HW216110   5.713   3.017   4.325
 5071SOL     OW16111   3.525   1.260   3.419
 5071SOL    HW116112   3.444   1.288   3.471
 5071SOL    HW216113   3.584   1.340   3.404
 5072SOL     OW16114   1.777   0.986   1.115
 5072SOL    HW116115   1.858   0.963   1.062
 5072SOL    HW216116   1.717   0.906   1.122
 5073SOL     OW16117   2.877   6.603   2.439
 5073SOL    HW116118   2.867   6.508   2.469
 5073SOL    HW216119   2.919   6.605   2.348
 5074SOL     OW16120   3.741   2.170   1.682
 5074SOL    HW116121   3.774   2.083   1.718
 5074SOL    HW216122   3.715   2.230   1.758
 5075SOL     OW16123   1.997   3.337   7.007
 5075SOL    HW116124   2.076   3.398   7.021
 5075SOL    HW216125   2.019   3.246   0.018
 5076SOL     OW16126   5.066   0.991   0.610
 5076SOL    HW116127   5.008   0.913   0.634
 5076SOL    HW216128   5.068   1.056   0.686
 5077SOL     OW16129   1.482   5.024   4.007
 5077SOL    HW116130   1.575   4.989   3.997
 5077SOL    HW216131   1.460   5.036   4.104
 5078SOL     OW16132   0.629   1.088   3.904
 5078SOL    HW116133   0.685   1.128   3.831
 5078SOL    HW216134   0.640   1.143   3.987
 5079SOL     OW16135   1.867   2.617   5.961
 5079SOL    HW116136   1.954   2.567   5.964
 5079SOL    HW216137   1.883   2.710   5.928
 5080SOL     OW16138   6.454   5.151   6.049
 5080SOL    HW116139   6.382   5.089   6.019
 5080SOL    HW216140   6.541   5.123   6.008
 5081SOL     OW16141   3.654   6.121   5.213
 5081SOL    HW116142   3.643   6.215   5.246
 5081SOL    HW216143   3.590   6.061   5.260
 5082SOL     OW16144   4.894   6.356   0.937
 5082SOL    HW116145   4.836   6.296   0.993
 5082SOL    HW216146   4.838   6.425   0.893
 5083SOL     OW16147   2.716   0.434   2.748
 5083SOL    HW116148   2.751   0.528   2.750
 5083SOL    HW216149   2.669   0.418   2.661
 5084SOL     OW16150   0.722   5.246   5.064
 5084SOL    HW116151   0.657   5.305   5.016
 5084SOL    HW216152   0.757   5.176   5.002
 5085SOL     OW16153   1.451   3.733   6.242
 5085SOL    HW116154   1.505   3.785   6.175
 5085SOL    HW216155   1.445   3.785   6.327
 5086SOL     OW16156   1.069   4.712   2.445
 5086SOL    HW116157   1.108   4.620   2.438
 5086SOL    HW216158   1.035   4.740   2.355
 5087SOL     OW16159   6.698   5.415   2.436
 5087SOL    HW116160   6.715   5.490   2.499
 5087SOL    HW216161   6.664   5.451   2.349
 5088SOL     OW16162   4.287   5.866   2.219
 5088SOL    HW116163   4.262   5.771   2.197
 5088SOL    HW216164   4.381   5.868   2.252
 5089SOL     OW16165   5.431   4.348   4.423
 5089SOL    HW116166   5.500   4.279   4.446
 5089SOL    HW216167   5.448   4.431   4.476
 5090SOL     OW16168   1.831   0.251   3.439
 5090SOL    HW116169   1.757   0.234   3.374
 5090SOL    HW216170   1.907   0.188   3.420
 5091SOL     OW16171   6.615   0.164   0.136
 5091SOL    HW116172   6.593   0.244   0.192
 5091SOL    HW216173   6.655   0.093   0.193
 5092SOL     OW16174   3.754   3.681   4.376
 5092SOL    HW116175   3.828   3.617   4.357
 5092SOL    HW216176   3.783   3.746   4.445
 5093SOL     OW16177   1.662   1.682   2.901
 5093SOL    HW116178   1.674   1.606   2.836
 5093SOL    HW216179   1.618   1.759   2.855
 5094SOL     OW16180   2.616   5.694   6.216
 5094SOL    HW116181   2.579   5.609   6.178
 5094SOL    HW216182   2.706   5.675   6.256
 5095SOL     OW16183   0.417   1.222   3.483
 5095SOL    HW116184   0.384   1.307   3.525
 5095SOL    HW216185   0.427   1.235   3.385
 5096SOL     OW16186   5.377   3.839   6.113
 5096SOL    HW116187   5.398   3.914   6.050
 5096SOL    HW216188   5.284   3.806   6.096
 5097SOL     OW16189   6.178   0.245   5.837
 5097SOL    HW116190   6.107   0.296   5.886
 5097SOL    HW216191   6.264   0.295   5.843
 5098SOL     OW16192   3.688   1.959   1.944
 5098SOL    HW116193   3.777   1.921   1.972
 5098SOL    HW216194   3.683   2.055   1.971
 5099SOL     OW16195   0.599   5.575   1.348
 5099SOL    HW116196   0.534   5.499   1.343
 5099SOL    HW216197   0.639   5.578   1.439
 5100SOL     OW16198   5.190   4.503   2.793
 5100SOL    HW116199   5.110   4.448   2.771
 5100SOL    HW216200   5.181   4.542   2.885
 5101SOL     OW16201   4.111   0.355   5.683
 5101SOL    HW116202   4.025   0.387   5.643
 5101SOL    HW216203   4.185   0.365   5.616
 5102SOL     OW16204   4.927   5.266   3.995
 5102SOL    HW116205   4.907   5.218   4.080
 5102SOL    HW216206   5.007   5.325   4.008
 5103SOL     OW16207   0.874   0.899   5.222
 5103SOL    HW116208   0.892   0.980   5.167
 5103SOL    HW216209   0.797   0.848   5.182
 5104SOL     OW16210   3.448   5.475   1.823
 5104SOL    HW116211   3.466   5.423   1.907
 5104SOL    HW216212   3.490   5.429   1.745
 5105SOL     OW16213   3.656   3.284   6.744
 5105SOL    HW116214   3.713   3.243   6.815
 5105SOL    HW216215   3.560   3.283   6.774
 5106SOL     OW16216   4.285   2.419   0.576
 5106SOL    HW116217   4.238   2.503   0.601
 5106SOL    HW216218   4.255   2.345   0.635
 5107SOL     OW16219   5.208   2.514   1.252
 5107SOL    HW116220   5.138   2.578   1.286
 5107SOL    HW216221   5.221   2.528   1.154
 5108SOL     OW16222   4.611   3.850   6.305
 5108SOL    HW116223   4.670   3.776   6.337
 5108SOL    HW216224   4.644   3.937   6.344
 5109SOL     OW16225   1.907   2.899   1.382
 5109SOL    HW116226   1.894   2.994   1.413
 5109SOL    HW216227   1.913   2.898   1.282
 5110SOL     OW16228   5.957   6.954   6.126
 5110SOL    HW116229   6.040   6.904   6.151
 5110SOL    HW216230   5.953   6.966   6.027
 5111SOL     OW16231   1.337   5.915   4.862
 5111SOL    HW116232   1.378   5.879   4.945
 5111SOL    HW216233   1.300   5.840   4.807
 5112SOL     OW16234   0.236   0.498   3.427
 5112SOL    HW116235   0.327   0.516   3.390
 5112SOL    HW216236   0.242   0.484   3.526
 5113SOL     OW16237   1.907   5.047   0.823
 5113SOL    HW116238   1.912   4.979   0.896
 5113SOL    HW216239   1.996   5.055   0.779
 5114SOL     OW16240   3.936   6.841   0.411
 5114SOL    HW116241   4.032   6.831   0.437
 5114SOL    HW216242   3.878   6.794   0.478
 5115SOL     OW16243   2.060   3.648   1.662
 5115SOL    HW116244   2.066   3.745   1.686
 5115SOL    HW216245   2.061   3.593   1.746
 5116SOL     OW16246   2.398   0.043   6.794
 5116SOL    HW116247   2.418   0.116   6.728
 5116SOL    HW216248   2.454   6.989   6.773
 5117SOL     OW16249   0.938   3.173   4.445
 5117SOL    HW116250   1.015   3.134   4.496
 5117SOL    HW216251   0.853   3.153   4.494
 5118SOL     OW16252   5.788   0.318   6.979
 5118SOL    HW116253   5.863   0.379   7.002
 5118SOL    HW216254   5.824   0.232   6.943
 5119SOL     OW16255   5.556   1.984   6.906
 5119SOL    HW116256   5.568   2.037   6.990
 5119SOL    HW216257   5.542   1.888   6.928
 5120SOL     OW16258   5.220   0.894   4.770
 5120SOL    HW116259   5.313   0.909   4.737
 5120SOL    HW216260   5.157   0.888   4.693
 5121SOL     OW16261   3.123   3.836   0.400
 5121SOL    HW116262   3.086   3.920   0.359
 5121SOL    HW216263   3.047   3.779   0.433
 5122SOL     OW16264   4.168   5.550   3.093
 5122SOL    HW116265   4.206   5.582   3.006
 5122SOL    HW216266   4.200   5.457   3.111
 5123SOL     OW16267   5.265   1.847   2.038
 5123SOL    HW116268   5.232   1.753   2.043
 5123SOL    HW216269   5.187   1.910   2.037
 5124SOL     OW16270   1.757   6.431   4.042
 5124SOL    HW116271   1.815   6.505   4.078
 5124SOL    HW216272   1.798   6.343   4.065
 5125SOL     OW16273   0.409   2.155   4.069
 5125SOL    HW116274   0.412   2.061   4.034
 5125SOL    HW216275   0.330   2.202   4.032
 5126SOL     OW16276   1.758   6.714   0.591
 5126SOL    HW116277   1.685   6.776   0.563
 5126SOL    HW216278   1.771   6.719   0.690
 5127SOL     OW16279   2.095   5.470   0.533
 5127SOL    HW116280   2.054   5.411   0.604
 5127SOL    HW216281   2.026   5.495   0.466
 5128SOL     OW16282   6.910   5.968   1.243
 5128SOL    HW116283   6.850   6.038   1.205
 5128SOL    HW216284   6.873   5.937   1.332
 5129SOL     OW16285   4.558   6.045   1.438
 5129SOL    HW116286   4.505   6.069   1.356
 5129SOL    HW216287   4.631   6.112   1.451
 5130SOL     OW16288   6.689   4.752   2.920
 5130SOL    HW116289   6.616   4.683   2.923
 5130SOL    HW216290   6.760   4.723   2.856
 5131SOL     OW16291   0.829   3.130   3.209
 5131SOL    HW116292   0.923   3.117   3.243
 5131SOL    HW216293   0.765   3.126   3.286
 5132SOL     OW16294   3.790   4.313   6.560
 5132SOL    HW116295   3.834   4.233   6.600
 5132SOL    HW216296   3.782   4.385   6.629
 5133SOL     OW16297   3.586   5.733   6.613
 5133SOL    HW116298   3.651   5.695   6.547
 5133SOL    HW216299   3.608   5.829   6.630
 5134SOL     OW16300   0.583   3.055   1.452
 5134SOL    HW116301   0.670   3.104   1.451
 5134SOL    HW216302   0.591   2.975   1.511
 5135SOL     OW16303   6.859   2.215   5.379
 5135SOL    HW116304   6.921   2.291   5.402
 5135SOL    HW216305   6.849   2.155   5.458
 5136SOL     OW16306   5.254   0.691   4.493
 5136SOL    HW116307   5.179   0.683   4.558
 5136SOL    HW216308   5.340   0.669   4.538
 5137SOL     OW16309   5.235   3.988   6.517
 5137SOL    HW116310   5.314   3.999   6.577
 5137SOL    HW216311   5.221   3.891   6.497
 5138SOL     OW16312   3.599   2.915   6.647
 5138SOL    HW116313   3.535   2.936   6.574
 5138SOL    HW216314   3.614   2.996   6.704
 5139SOL     OW16315   1.866   6.941   4.189
 5139SOL    HW116316   1.899   6.926   4.096
 5139SOL    HW216317   1.796   7.012   4.188
 5140SOL     OW16318   3.245   1.790   0.418
 5140SOL    HW116319   3.245   1.873   0.475
 5140SOL    HW216320   3.313   1.726   0.453
 5141SOL     OW16321   5.436   3.811   1.336
 5141SOL    HW116322   5.496   3.766   1.402
 5141SOL    HW216323   5.452   3.910   1.339
 5142SOL     OW16324   6.074   2.965   4.176
 5142SOL    HW116325   6.148   3.026   4.148
 5142SOL    HW216326   5.989   3.017   4.184
 5143SOL     OW16327   0.895   4.953   3.898
 5143SOL    HW116328   0.925   5.011   3.974
 5143SOL    HW216329   0.851   5.010   3.828
 5144SOL     OW16330   1.560   6.852   6.078
 5144SOL    HW116331   1.510   6.856   6.164
 5144SOL    HW216332   1.502   6.809   6.008
 5145SOL     OW16333   1.937   5.280   6.247
 5145SOL    HW116334   1.918   5.296   6.344
 5145SOL    HW216335   1.941   5.181   6.230
 5146SOL     OW16336   3.892   3.836   6.335
 5146SOL    HW116337   3.806   3.831   6.385
 5146SOL    HW216338   3.910   3.930   6.306
 5147SOL     OW16339   6.873   4.526   0.592
 5147SOL    HW116340   6.853   4.513   0.689
 5147SOL    HW216341   6.972   4.526   0.578
 5148SOL     OW16342   0.120   5.980   1.129
 5148SOL    HW116343   0.033   5.992   1.176
 5148SOL    HW216344   0.195   5.984   1.196
 5149SOL     OW16345   6.525   0.699   3.129
 5149SOL    HW116346   6.574   0.612   3.118
 5149SOL    HW216347   6.524   0.748   3.043
 5150SOL     OW16348   1.738   6.060   3.985
 5150SOL    HW116349   1.747   5.968   4.021
 5150SOL    HW216350   1.818   6.081   3.928
 5151SOL     OW16351   5.195   1.505   6.864
 5151SOL    HW116352   5.223   1.424   6.916
 5151SOL    HW216353   5.273   1.542   6.814
 5152SOL     OW16354   1.670   4.572   0.308
 5152SOL    HW116355   1.742   4.612   0.250
 5152SOL    HW216356   1.586   4.626   0.299
 5153SOL     OW16357   2.331   2.336   0.649
 5153SOL    HW116358   2.416   2.360   0.696
 5153SOL    HW216359   2.350   2.267   0.579
 5154SOL     OW16360   1.785   3.735   6.339
 5154SOL    HW116361   1.763   3.694   6.251
 5154SOL    HW216362   1.808   3.831   6.328
 5155SOL     OW16363   4.049   6.002   2.157
 5155SOL    HW116364   4.064   6.091   2.113
 5155SOL    HW216365   4.129   5.978   2.211
 5156SOL     OW16366   6.635   2.159   6.167
 5156SOL    HW116367   6.627   2.188   6.072
 5156SOL    HW216368   6.587   2.224   6.226
 5157SOL     OW16369   4.713   2.718   3.748
 5157SOL    HW116370   4.777   2.650   3.712
 5157SOL    HW216371   4.675   2.772   3.673
 5158SOL     OW16372   3.289   1.811   1.246
 5158SOL    HW116373   3.277   1.858   1.333
 5158SOL    HW216374   3.344   1.729   1.260
 5159SOL     OW16375   0.720   2.842   3.954
 5159SOL    HW116376   0.706   2.858   3.856
 5159SOL    HW216377   0.814   2.812   3.970
 5160SOL     OW16378   1.356   3.760   4.244
 5160SOL    HW116379   1.376   3.730   4.151
 5160SOL    HW216380   1.259   3.745   4.264
 5161SOL     OW16381   1.359   4.313   5.702
 5161SOL    HW116382   1.284   4.247   5.692
 5161SOL    HW216383   1.377   4.356   5.614
 5162SOL     OW16384   6.882   5.142   3.976
 5162SOL    HW116385   6.818   5.076   4.015
 5162SOL    HW216386   6.894   5.123   3.879
 5163SOL     OW16387   4.775   5.049   1.117
 5163SOL    HW116388   4.780   5.090   1.026
 5163SOL    HW216389   4.721   4.964   1.112
 5164SOL     OW16390   5.288   2.815   5.206
 5164SOL    HW116391   5.286   2.911   5.177
 5164SOL    HW216392   5.382   2.783   5.211
 5165SOL     OW16393   6.105   4.709   4.610
 5165SOL    HW116394   6.152   4.644   4.670
 5165SOL    HW216395   6.071   4.786   4.665
 5166SOL     OW16396   1.598   4.822   1.705
 5166SOL    HW116397   1.534   4.899   1.707
 5166SOL    HW216398   1.690   4.856   1.685
 5167SOL     OW16399   5.979   6.419   5.477
 5167SOL    HW116400   5.911   6.482   5.515
 5167SOL    HW216401   6.067   6.434   5.524
 5168SOL     OW16402   4.159   2.139   3.220
 5168SOL    HW116403   4.217   2.176   3.292
 5168SOL    HW216404   4.182   2.183   3.133
 5169SOL     OW16405   3.355   3.893   6.413
 5169SOL    HW116406   3.261   3.900   6.445
 5169SOL    HW216407   3.381   3.978   6.368
 5170SOL     OW16408   6.810   4.346   5.290
 5170SOL    HW116409   6.787   4.422   5.350
 5170SOL    HW216410   6.878   4.287   5.335
 5171SOL     OW16411   2.281   4.463   4.545
 5171SOL    HW116412   2.214   4.403   4.501
 5171SOL    HW216413   2.322   4.415   4.623
 5172SOL     OW16414   0.466   3.655   1.665
 5172SOL    HW116415   0.450   3.675   1.568
 5172SOL    HW216416   0.411   3.575   1.691
 5173SOL     OW16417   5.777   4.290   6.161
 5173SOL    HW116418   5.817   4.352   6.093
 5173SOL    HW216419   5.726   4.218   6.114
 5174SOL     OW16420   1.846   5.083   5.042
 5174SOL    HW116421   1.772   5.144   5.011
 5174SOL    HW216422   1.904   5.060   4.964
 5175SOL     OW16423   2.061   4.340   0.065
 5175SOL    HW116424   2.020   4.373   0.150
 5175SOL    HW216425   2.018   4.253   0.039
 5176SOL     OW16426   4.229   3.495   0.599
 5176SOL    HW116427   4.153   3.549   0.636
 5176SOL    HW216428   4.296   3.556   0.558
 5177SOL     OW16429   4.657   6.804   5.637
 5177SOL    HW116430   4.746   6.762   5.619
 5177SOL    HW216431   4.656   6.841   5.730
 5178SOL     OW16432   2.359   2.773   1.805
 5178SOL    HW116433   2.456   2.790   1.790
 5178SOL    HW216434   2.313   2.759   1.718
 5179SOL     OW16435   4.422   6.682   5.583
 5179SOL    HW116436   4.493   6.734   5.632
 5179SOL    HW216437   4.388   6.608   5.641
 5180SOL     OW16438   3.319   1.973   6.792
 5180SOL    HW116439   3.320   2.073   6.802
 5180SOL    HW216440   3.412   1.938   6.794
 5181SOL     OW16441   3.828   0.499   2.589
 5181SOL    HW116442   3.879   0.462   2.511
 5181SOL    HW216443   3.867   0.587   2.615
 5182SOL     OW16444   5.680   4.840   1.645
 5182SOL    HW116445   5.774   4.814   1.621
 5182SOL    HW216446   5.627   4.855   1.561
 5183SOL     OW16447   4.478   6.679   2.306
 5183SOL    HW116448   4.403   6.614   2.313
 5183SOL    HW216449   4.546   6.659   2.377
 5184SOL     OW16450   0.930   1.198   3.394
 5184SOL    HW116451   0.963   1.240   3.309
 5184SOL    HW216452   0.950   1.100   3.392
 5185SOL     OW16453   3.609   6.578   2.709
 5185SOL    HW116454   3.658   6.646   2.654
 5185SOL    HW216455   3.663   6.558   2.791
 5186SOL     OW16456   6.893   3.627   1.102
 5186SOL    HW116457   6.952   3.703   1.078
 5186SOL    HW216458   6.845   3.594   1.020
 5187SOL     OW16459   6.539   1.715   3.354
 5187SOL    HW116460   6.508   1.691   3.262
 5187SOL    HW216461   6.600   1.794   3.349
 5188SOL     OW16462   0.372   5.411   0.028
 5188SOL    HW116463   0.352   5.484   0.093
 5188SOL    HW216464   0.406   5.331   0.077
 5189SOL     OW16465   5.006   5.053   6.613
 5189SOL    HW116466   5.081   5.011   6.561
 5189SOL    HW216467   5.010   5.022   6.708
 5190SOL     OW16468   0.835   2.220   4.152
 5190SOL    HW116469   0.895   2.214   4.073
 5190SOL    HW216470   0.820   2.128   4.189
 5191SOL     OW16471   3.430   1.663   2.076
 5191SOL    HW116472   3.477   1.595   2.019
 5191SOL    HW216473   3.343   1.625   2.107
 5192SOL     OW16474   5.742   5.606   2.864
 5192SOL    HW116475   5.645   5.623   2.845
 5192SOL    HW216476   5.775   5.674   2.929
 5193SOL     OW16477   4.786   4.512   3.770
 5193SOL    HW116478   4.708   4.571   3.747
 5193SOL    HW216479   4.756   4.417   3.772
 5194SOL     OW16480   4.867   1.249   5.914
 5194SOL    HW116481   4.866   1.170   5.853
 5194SOL    HW216482   4.959   1.264   5.948
 5195SOL     OW16483   6.555   6.723   4.820
 5195SOL    HW116484   6.465   6.690   4.849
 5195SOL    HW216485   6.613   6.735   4.900
 5196SOL     OW16486   0.704   4.545   1.600
 5196SOL    HW116487   0.655   4.464   1.568
 5196SOL    HW216488   0.699   4.550   1.700
 5197SOL     OW16489   2.067   6.547   4.720
 5197SOL    HW116490   2.060   6.491   4.802
 5197SOL    HW216491   1.976   6.560   4.680
 5198SOL     OW16492   3.001   6.238   5.259
 5198SOL    HW116493   2.924   6.237   5.324
 5198SOL    HW216494   3.054   6.322   5.270
 5199SOL     OW16495   2.261   5.703   1.659
 5199SOL    HW116496   2.344   5.654   1.633
 5199SOL    HW216497   2.187   5.637   1.675
 5200SOL     OW16498   0.703   1.533   4.709
 5200SOL    HW116499   0.660   1.510   4.622
 5200SOL    HW216500   0.771   1.605   4.695
 5201SOL     OW16501   5.549   5.021   3.989
 5201SOL    HW116502   5.608   4.954   4.033
 5201SOL    HW216503   5.556   5.012   3.890
 5202SOL     OW16504   4.594   3.377   6.805
 5202SOL    HW116505   4.631   3.335   6.888
 5202SOL    HW216506   4.659   3.446   6.771
 5203SOL     OW16507   1.922   0.358   0.729
 5203SOL    HW116508   1.896   0.417   0.652
 5203SOL    HW216509   2.018   0.372   0.751
 5204SOL     OW16510   3.510   0.158   6.562
 5204SOL    HW116511   3.462   0.222   6.501
 5204SOL    HW216512   3.477   0.170   6.655
 5205SOL     OW16513   6.723   6.088   1.078
 5205SOL    HW116514   6.793   6.112   1.010
 5205SOL    HW216515   6.674   6.170   1.106
 5206SOL     OW16516   0.501   4.568   5.001
 5206SOL    HW116517   0.544   4.494   4.949
 5206SOL    HW216518   0.402   4.550   5.007
 5207SOL     OW16519   6.934   6.961   4.451
 5207SOL    HW116520   6.954   6.994   4.543
 5207SOL    HW216521   6.861   7.016   4.410
 5208SOL     OW16522   4.947   2.367   0.144
 5208SOL    HW116523   4.962   2.273   0.176
 5208SOL    HW216524   4.851   2.391   0.157
 5209SOL     OW16525   4.956   6.722   3.250
 5209SOL    HW116526   4.979   6.756   3.159
 5209SOL    HW216527   5.010   6.641   3.270
 5210SOL     OW16528   5.045   4.490   0.978
 5210SOL    HW116529   4.955   4.465   1.012
 5210SOL    HW216530   5.101   4.524   1.054
 5211SOL     OW16531   4.828   2.230   4.131
 5211SOL    HW116532   4.888   2.283   4.192
 5211SOL    HW216533   4.733   2.239   4.161
 5212SOL     OW16534   1.466   3.024   0.760
 5212SOL    HW116535   1.437   3.118   0.781
 5212SOL    HW216536   1.448   2.965   0.839
 5213SOL     OW16537   3.991   3.085   2.449
 5213SOL    HW116538   3.909   3.085   2.391
 5213SOL    HW216539   4.010   2.992   2.479
 5214SOL     OW16540   5.496   4.312   6.521
 5214SOL    HW116541   5.501   4.355   6.612
 5214SOL    HW216542   5.408   4.335   6.478
 5215SOL     OW16543   6.610   3.474   4.826
 5215SOL    HW116544   6.597   3.397   4.764
 5215SOL    HW216545   6.588   3.447   4.920
 5216SOL     OW16546   5.411   4.732   0.900
 5216SOL    HW116547   5.485   4.680   0.941
 5216SOL    HW216548   5.324   4.704   0.940
 5217SOL     OW16549   4.129   5.755   4.140
 5217SOL    HW116550   4.206   5.692   4.136
 5217SOL    HW216551   4.082   5.756   4.051
 5218SOL     OW16552   0.888   0.283   0.909
 5218SOL    HW116553   0.882   0.335   0.824
 5218SOL    HW216554   0.824   0.206   0.906
 5219SOL     OW16555   2.114   1.955   5.021
 5219SOL    HW116556   2.031   1.956   4.967
 5219SOL    HW216557   2.174   1.882   4.989
 5220SOL     OW16558   2.490   4.971   2.852
 5220SOL    HW116559   2.550   4.894   2.832
 5220SOL    HW216560   2.544   5.046   2.889
 5221SOL     OW16561   7.007   0.619   1.764
 5221SOL    HW116562   7.008   0.621   1.664
 5221SOL    HW216563   0.057   0.563   1.797
 5222SOL     OW16564   4.290   4.846   1.735
 5222SOL    HW116565   4.383   4.816   1.712
 5222SOL    HW216566   4.267   4.927   1.681
 5223SOL     OW16567   0.682   2.958   0.806
 5223SOL    HW116568   0.749   2.936   0.735
 5223SOL    HW216569   0.649   2.874   0.849
 5224SOL     OW16570   0.878   1.760   4.281
 5224SOL    HW116571   0.860   1.759   4.183
 5224SOL    HW216572   0.817   1.825   4.326
 5225SOL     OW16573   6.885   1.321   5.030
 5225SOL    HW116574   6.839   1.268   4.959
 5225SOL    HW216575   6.981   1.293   5.036
 5226SOL     OW16576   0.477   5.714   3.882
 5226SOL    HW116577   0.445   5.639   3.825
 5226SOL    HW216578   0.441   5.703   3.975
 5227SOL     OW16579   6.927   3.064   5.191
 5227SOL    HW116580   6.890   3.134   5.130
 5227SOL    HW216581   6.980   3.108   5.264
 5228SOL     OW16582   1.828   3.128   5.574
 5228SOL    HW116583   1.742   3.180   5.583
 5228SOL    HW216584   1.833   3.059   5.646
 5229SOL     OW16585   3.245   0.223   6.476
 5229SOL    HW116586   3.285   0.189   6.561
 5229SOL    HW216587   3.226   0.321   6.485
 5230SOL     OW16588   6.706   0.502   1.582
 5230SOL    HW116589   6.643   0.526   1.656
 5230SOL    HW216590   6.729   0.405   1.588
 5231SOL     OW16591   5.947   1.851   2.653
 5231SOL    HW116592   6.011   1.843   2.577
 5231SOL    HW216593   5.856   1.823   2.624
 5232SOL     OW16594   2.018   3.857   6.130
 5232SOL    HW116595   1.969   3.841   6.045
 5232SOL    HW216596   2.104   3.906   6.111
 5233SOL     OW16597   3.029   0.388   2.588
 5233SOL    HW116598   2.963   0.321   2.553
 5233SOL    HW216599   3.060   0.447   2.514
 5234SOL     OW16600   1.962   2.243   0.919
 5234SOL    HW116601   2.017   2.296   0.983
 5234SOL    HW216602   2.020   2.175   0.874
 5235SOL     OW16603   2.529   1.700   1.228
 5235SOL    HW116604   2.508   1.674   1.322
 5235SOL    HW216605   2.446   1.689   1.172
 5236SOL     OW16606   3.629   5.146   2.059
 5236SOL    HW116607   3.596   5.240   2.056
 5236SOL    HW216608   3.551   5.083   2.059
 5237SOL     OW16609   2.269   2.321   4.729
 5237SOL    HW116610   2.278   2.250   4.799
 5237SOL    HW216611   2.195   2.383   4.754
 5238SOL     OW16612   1.002   5.361   2.436
 5238SOL    HW116613   1.050   5.368   2.524
 5238SOL    HW216614   0.905   5.384   2.449
 5239SOL     OW16615   2.996   3.583   1.581
 5239SOL    HW116616   2.997   3.665   1.640
 5239SOL    HW216617   2.999   3.501   1.639
 5240SOL     OW16618   2.525   2.672   6.268
 5240SOL    HW116619   2.447   2.695   6.326
 5240SOL    HW216620   2.605   2.652   6.325
 5241SOL     OW16621   1.034   5.899   2.575
 5241SOL    HW116622   1.116   5.841   2.581
 5241SOL    HW216623   1.001   5.900   2.481
 5242SOL     OW16624   4.621   0.636   0.547
 5242SOL    HW116625   4.523   0.646   0.528
 5242SOL    HW216626   4.655   0.717   0.594
 5243SOL     OW16627   1.792   6.081   1.763
 5243SOL    HW116628   1.819   5.986   1.781
 5243SOL    HW216629   1.705   6.100   1.808
 5244SOL     OW16630   5.267   3.715   0.838
 5244SOL    HW116631   5.183   3.671   0.870
 5244SOL    HW216632   5.244   3.791   0.777
 5245SOL     OW16633   4.212   4.226   0.014
 5245SOL    HW116634   4.262   4.275   0.085
 5245SOL    HW216635   4.273   4.205   6.963
 5246SOL     OW16636   6.561   2.556   1.392
 5246SOL    HW116637   6.556   2.565   1.491
 5246SOL    HW216638   6.654   2.579   1.361
 5247SOL     OW16639   3.883   2.122   5.887
 5247SOL    HW116640   3.887   2.082   5.979
 5247SOL    HW216641   3.836   2.060   5.825
 5248SOL     OW16642   6.519   1.658   2.583
 5248SOL    HW116643   6.595   1.664   2.518
 5248SOL    HW216644   6.494   1.749   2.614
 5249SOL     OW16645   0.488   4.957   0.131
 5249SOL    HW116646   0.500   4.982   0.227
 5249SOL    HW216647   0.440   4.870   0.125
 5250SOL     OW16648   2.002   5.767   0.191
 5250SOL    HW116649   2.074   5.803   0.250
 5250SOL    HW216650   2.037   5.758   0.098
 5251SOL     OW16651   0.751   3.978   0.892
 5251SOL    HW116652   0.737   3.882   0.916
 5251SOL    HW216653   0.825   3.986   0.826
 5252SOL     OW16654   3.350   6.635   2.222
 5252SOL    HW116655   3.410   6.715   2.220
 5252SOL    HW216656   3.328   6.612   2.317
 5253SOL     OW16657   5.655   4.683   4.545
 5253SOL    HW116658   5.672   4.745   4.622
 5253SOL    HW216659   5.742   4.650   4.509
 5254SOL     OW16660   6.211   6.899   3.201
 5254SOL    HW116661   6.247   6.826   3.145
 5254SOL    HW216662   6.119   6.875   3.233
 5255SOL     OW16663   5.670   1.729   4.726
 5255SOL    HW116664   5.668   1.630   4.742
 5255SOL    HW216665   5.761   1.765   4.749
 5256SOL     OW16666   5.060   0.582   3.118
 5256SOL    HW116667   5.153   0.546   3.113
 5256SOL    HW216668   5.048   0.652   3.048
 5257SOL     OW16669   4.017   0.755   6.792
 5257SOL    HW116670   4.067   0.684   6.743
 5257SOL    HW216671   4.047   0.758   6.887
 5258SOL     OW16672   5.120   1.366   2.231
 5258SOL    HW116673   5.134   1.289   2.170
 5258SOL    HW216674   5.208   1.391   2.274
 5259SOL     OW16675   5.073   5.169   3.079
 5259SOL    HW116676   5.120   5.082   3.092
 5259SOL    HW216677   5.108   5.237   3.144
 5260SOL     OW16678   2.504   6.626   0.234
 5260SOL    HW116679   2.503   6.605   0.136
 5260SOL    HW216680   2.411   6.641   0.266
 5261SOL     OW16681   6.431   5.021   0.462
 5261SOL    HW116682   6.419   4.949   0.531
 5261SOL    HW216683   6.507   5.080   0.489
 5262SOL     OW16684   1.773   0.471   2.768
 5262SOL    HW116685   1.725   0.418   2.838
 5262SOL    HW216686   1.862   0.429   2.750
 5263SOL     OW16687   1.662   1.362   3.720
 5263SOL    HW116688   1.731   1.301   3.680
 5263SOL    HW216689   1.671   1.361   3.820
 5264SOL     OW16690   6.805   1.717   1.347
 5264SOL    HW116691   6.828   1.736   1.252
 5264SOL    HW216692   6.792   1.803   1.396
 5265SOL     OW16693   5.353   2.735   4.756
 5265SOL    HW116694   5.364   2.661   4.823
 5265SOL    HW216695   5.339   2.695   4.665
 5266SOL     OW16696   2.613   6.754   0.461
 5266SOL    HW116697   2.575   6.682   0.402
 5266SOL    HW216698   2.680   6.807   0.409
 5267SOL     OW16699   4.382   2.392   4.407
 5267SOL    HW116700   4.414   2.421   4.316
 5267SOL    HW216701   4.432   2.443   4.477
 5268SOL     OW16702   5.510   1.311   6.343
 5268SOL    HW116703   5.561   1.395   6.323
 5268SOL    HW216704   5.476   1.272   6.257
 5269SOL     OW16705   0.228   6.537   2.480
 5269SOL    HW116706   0.274   6.619   2.446
 5269SOL    HW216707   0.134   6.534   2.445
 5270SOL     OW16708   0.080   2.035   6.981
 5270SOL    HW116709   0.150   1.985   6.930
 5270SOL    HW216710   7.021   1.981   6.984
 5271SOL     OW16711   6.264   5.995   4.227
 5271SOL    HW116712   6.356   6.020   4.259
 5271SOL    HW216713   6.239   5.906   4.264
 5272SOL     OW16714   3.894   6.898   0.145
 5272SOL    HW116715   3.907   6.873   0.241
 5272SOL    HW216716   3.982   6.910   0.101
 5273SOL     OW16717   1.134   2.994   2.714
 5273SOL    HW116718   1.102   2.970   2.806
 5273SOL    HW216719   1.217   3.048   2.721
 5274SOL     OW16720   5.160   5.978   2.420
 5274SOL    HW116721   5.222   6.054   2.442
 5274SOL    HW216722   5.066   6.006   2.439
 5275SOL     OW16723   3.049   0.745   0.615
 5275SOL    HW116724   3.031   0.841   0.636
 5275SOL    HW216725   3.148   0.730   0.607
 5276SOL     OW16726   2.753   6.409   1.669
 5276SOL    HW116727   2.713   6.433   1.581
 5276SOL    HW216728   2.843   6.367   1.655
 5277SOL     OW16729   1.799   1.077   2.711
 5277SOL    HW116730   1.755   1.145   2.769
 5277SOL    HW216731   1.770   0.985   2.739
 5278SOL     OW16732   4.367   5.008   2.301
 5278SOL    HW116733   4.404   5.089   2.347
 5278SOL    HW216734   4.268   5.008   2.308
 5279SOL     OW16735   2.438   5.556   1.014
 5279SOL    HW116736   2.513   5.598   0.962
 5279SOL    HW216737   2.351   5.584   0.974
 5280SOL     OW16738   3.264   6.021   4.920
 5280SOL    HW116739   3.319   6.043   4.840
 5280SOL    HW216740   3.249   6.104   4.974
 5281SOL     OW16741   0.551   1.937   2.139
 5281SOL    HW116742   0.559   1.985   2.052
 5281SOL    HW216743   0.550   2.004   2.214
 5282SOL     OW16744   2.682   1.782   3.415
 5282SOL    HW116745   2.688   1.879   3.438
 5282SOL    HW216746   2.678   1.771   3.315
 5283SOL     OW16747   5.246   5.709   0.382
 5283SOL    HW116748   5.303   5.668   0.454
 5283SOL    HW216749   5.229   5.805   0.404
 5284SOL     OW16750   5.524   3.820   2.942
 5284SOL    HW116751   5.457   3.887   2.910
 5284SOL    HW216752   5.479   3.732   2.957
 5285SOL     OW16753   3.126   5.283   3.813
 5285SOL    HW116754   3.088   5.194   3.837
 5285SOL    HW216755   3.063   5.331   3.751
 5286SOL     OW16756   1.540   4.207   1.437
 5286SOL    HW116757   1.456   4.196   1.490
 5286SOL    HW216758   1.617   4.166   1.487
 5287SOL     OW16759   2.466   1.739   0.689
 5287SOL    HW116760   2.501   1.668   0.750
 5287SOL    HW216761   2.459   1.825   0.739
 5288SOL     OW16762   2.986   0.206   1.364
 5288SOL    HW116763   2.945   0.126   1.320
 5288SOL    HW216764   2.914   0.271   1.390
 5289SOL     OW16765   1.312   5.121   0.823
 5289SOL    HW116766   1.292   5.030   0.786
 5289SOL    HW216767   1.295   5.121   0.921
 5290SOL     OW16768   3.460   5.697   0.302
 5290SOL    HW116769   3.405   5.614   0.294
 5290SOL    HW216770   3.447   5.737   0.393
 5291SOL     OW16771   2.022   5.153   5.450
 5291SOL    HW116772   1.967   5.212   5.390
 5291SOL    HW216773   2.048   5.070   5.401
 5292SOL     OW16774   4.918   3.308   6.333
 5292SOL    HW116775   4.952   3.309   6.427
 5292SOL    HW216776   4.818   3.304   6.333
 5293SOL     OW16777   0.529   0.203   4.309
 5293SOL    HW116778   0.443   0.152   4.317
 5293SOL    HW216779   0.580   0.198   4.395
 5294SOL     OW16780   6.453   3.040   6.490
 5294SOL    HW116781   6.364   3.004   6.522
 5294SOL    HW216782   6.443   3.136   6.465
 5295SOL     OW16783   6.253   0.716   2.857
 5295SOL    HW116784   6.190   0.694   2.931
 5295SOL    HW216785   6.328   0.650   2.857
 5296SOL     OW16786   0.929   4.484   0.744
 5296SOL    HW116787   0.914   4.557   0.810
 5296SOL    HW216788   0.928   4.396   0.790
 5297SOL     OW16789   1.847   1.478   1.614
 5297SOL    HW116790   1.844   1.477   1.714
 5297SOL    HW216791   1.871   1.569   1.582
 5298SOL     OW16792   6.782   5.133   0.830
 5298SOL    HW116793   6.879   5.116   0.848
 5298SOL    HW216794   6.748   5.065   0.766
 5299SOL     OW16795   2.896   0.474   2.061
 5299SOL    HW116796   2.916   0.382   2.095
 5299SOL    HW216797   2.813   0.509   2.106
 5300SOL     OW16798   6.926   5.821   3.857
 5300SOL    HW116799   6.948   5.918   3.851
 5300SOL    HW216800   6.958   5.774   3.775
 5301SOL     OW16801   4.151   1.247   6.957
 5301SOL    HW116802   4.241   1.267   6.997
 5301SOL    HW216803   4.164   1.204   6.867
 5302SOL     OW16804   6.279   4.253   2.661
 5302SOL    HW116805   6.237   4.189   2.725
 5302SOL    HW216806   6.368   4.282   2.696
 5303SOL     OW16807   6.174   4.158   3.696
 5303SOL    HW116808   6.156   4.255   3.716
 5303SOL    HW216809   6.100   4.102   3.732
 5304SOL     OW16810   5.309   1.857   5.935
 5304SOL    HW116811   5.400   1.862   5.893
 5304SOL    HW216812   5.241   1.843   5.863
 5305SOL     OW16813   2.437   0.754   3.337
 5305SOL    HW116814   2.512   0.747   3.271
 5305SOL    HW216815   2.472   0.739   3.429
 5306SOL     OW16816   3.211   0.072   5.555
 5306SOL    HW116817   3.227   0.130   5.476
 5306SOL    HW216818   3.296   0.023   5.577
 5307SOL     OW16819   4.492   6.802   6.823
 5307SOL    HW116820   4.447   6.890   6.838
 5307SOL    HW216821   4.448   6.732   6.878
 5308SOL     OW16822   6.874   1.566   3.327
 5308SOL    HW116823   6.817   1.570   3.245
 5308SOL    HW216824   6.911   1.474   3.338
 5309SOL     OW16825   3.649   4.089   3.482
 5309SOL    HW116826   3.684   4.090   3.576
 5309SOL    HW216827   3.726   4.092   3.418
 5310SOL     OW16828   5.298   1.986   1.001
 5310SOL    HW116829   5.222   2.052   1.009
 5310SOL    HW216830   5.306   1.935   1.086
 5311SOL     OW16831   1.930   5.535   6.844
 5311SOL    HW116832   1.851   5.560   6.788
 5311SOL    HW216833   1.900   5.482   6.923
 5312SOL     OW16834   0.596   3.893   3.274
 5312SOL    HW116835   0.552   3.943   3.349
 5312SOL    HW216836   0.672   3.946   3.239
 5313SOL     OW16837   1.100   5.687   6.656
 5313SOL    HW116838   1.142   5.770   6.619
 5313SOL    HW216839   1.078   5.625   6.580
 5314SOL     OW16840   3.647   5.357   0.520
 5314SOL    HW116841   3.592   5.298   0.461
 5314SOL    HW216842   3.710   5.411   0.465
 5315SOL     OW16843   5.802   2.794   2.212
 5315SOL    HW116844   5.863   2.723   2.175
 5315SOL    HW216845   5.753   2.838   2.137
 5316SOL     OW16846   6.970   4.242   3.682
 5316SOL    HW116847   6.955   4.168   3.616
 5316SOL    HW216848   6.963   4.330   3.636
 5317SOL     OW16849   5.515   6.577   2.742
 5317SOL    HW116850   5.485   6.615   2.654
 5317SOL    HW216851   5.468   6.624   2.816
 5318SOL     OW16852   0.781   2.586   4.139
 5318SOL    HW116853   0.722   2.537   4.204
 5318SOL    HW216854   0.746   2.679   4.125
 5319SOL     OW16855   5.190   0.624   0.379
 5319SOL    HW116856   5.193   0.724   0.382
 5319SOL    HW216857   5.105   0.595   0.335
 5320SOL     OW16858   5.849   3.195   6.154
 5320SOL    HW116859   5.869   3.105   6.192
 5320SOL    HW216860   5.775   3.187   6.087
 5321SOL     OW16861   1.744   5.165   5.812
 5321SOL    HW116862   1.753   5.070   5.840
 5321SOL    HW216863   1.832   5.211   5.822
 5322SOL     OW16864   3.102   5.957   6.497
 5322SOL    HW116865   3.118   5.883   6.563
 5322SOL    HW216866   3.004   5.962   6.476
 5323SOL     OW16867   5.206   2.524   0.973
 5323SOL    HW116868   5.223   2.593   0.903
 5323SOL    HW216869   5.290   2.472   0.990
 5324SOL     OW16870   3.943   3.063   1.615
 5324SOL    HW116871   4.035   3.030   1.636
 5324SOL    HW216872   3.916   3.132   1.682
 5325SOL     OW16873   5.617   6.141   3.001
 5325SOL    HW116874   5.578   6.233   3.006
 5325SOL    HW216875   5.579   6.084   3.074
 5326SOL     OW16876   6.850   6.393   1.342
 5326SOL    HW116877   6.927   6.397   1.278
 5326SOL    HW216878   6.765   6.382   1.292
 5327SOL     OW16879   6.401   0.363   3.974
 5327SOL    HW116880   6.476   0.427   3.988
 5327SOL    HW216881   6.316   0.414   3.957
 5328SOL     OW16882   3.775   4.332   0.329
 5328SOL    HW116883   3.874   4.322   0.331
 5328SOL    HW216884   3.732   4.255   0.377
 5329SOL     OW16885   0.302   4.698   0.449
 5329SOL    HW116886   0.257   4.658   0.529
 5329SOL    HW216887   0.286   4.797   0.447
 5330SOL     OW16888   4.439   4.015   1.456
 5330SOL    HW116889   4.346   3.979   1.464
 5330SOL    HW216890   4.438   4.099   1.402
 5331SOL     OW16891   4.725   3.221   0.316
 5331SOL    HW116892   4.657   3.203   0.387
 5331SOL    HW216893   4.760   3.314   0.325
 5332SOL     OW16894   5.935   3.982   0.703
 5332SOL    HW116895   5.882   4.065   0.720
 5332SOL    HW216896   6.032   4.005   0.701
 5333SOL     OW16897   2.348   0.948   4.076
 5333SOL    HW116898   2.396   0.967   3.990
 5333SOL    HW216899   2.332   0.850   4.084
 5334SOL     OW16900   4.623   4.897   2.358
 5334SOL    HW116901   4.620   4.978   2.301
 5334SOL    HW216902   4.614   4.815   2.301
 5335SOL     OW16903   0.461   4.750   1.820
 5335SOL    HW116904   0.367   4.770   1.846
 5335SOL    HW216905   0.494   4.819   1.756
 5336SOL     OW16906   1.231   2.798   4.036
 5336SOL    HW116907   1.193   2.707   4.020
 5336SOL    HW216908   1.327   2.791   4.061
 5337SOL     OW16909   0.126   4.364   0.950
 5337SOL    HW116910   0.126   4.412   1.037
 5337SOL    HW216911   0.080   4.276   0.961
 5338SOL     OW16912   6.768   3.169   0.722
 5338SOL    HW116913   6.684   3.178   0.776
 5338SOL    HW216914   6.831   3.107   0.768
 5339SOL     OW16915   5.979   2.561   2.673
 5339SOL    HW116916   5.965   2.518   2.584
 5339SOL    HW216917   5.920   2.516   2.741
 5340SOL     OW16918   5.191   2.863   2.494
 5340SOL    HW116919   5.152   2.904   2.412
 5340SOL    HW216920   5.181   2.764   2.489
 5341SOL     OW16921   4.439   5.525   3.389
 5341SOL    HW116922   4.391   5.454   3.337
 5341SOL    HW216923   4.405   5.615   3.361
 5342SOL     OW16924   6.021   6.940   4.319
 5342SOL    HW116925   6.041   6.979   4.229
 5342SOL    HW216926   6.041   6.842   4.318
 5343SOL     OW16927   3.950   3.575   5.816
 5343SOL    HW116928   4.045   3.554   5.791
 5343SOL    HW216929   3.896   3.590   5.733
 5344SOL     OW16930   0.883   1.615   6.177
 5344SOL    HW116931   0.862   1.576   6.266
 5344SOL    HW216932   0.888   1.542   6.109
 5345SOL     OW16933   5.657   2.097   6.694
 5345SOL    HW116934   5.627   2.045   6.774
 5345SOL    HW216935   5.750   2.132   6.710
 5346SOL     OW16936   3.179   5.513   3.933
 5346SOL    HW116937   3.259   5.552   3.888
 5346SOL    HW216938   3.176   5.414   3.917
 5347SOL     OW16939   5.781   2.001   3.922
 5347SOL    HW116940   5.686   2.024   3.944
 5347SOL    HW216941   5.822   2.076   3.871
 5348SOL     OW16942   5.298   1.283   3.426
 5348SOL    HW116943   5.284   1.380   3.448
 5348SOL    HW216944   5.396   1.263   3.426
 5349SOL     OW16945   0.110   3.840   2.452
 5349SOL    HW116946   0.026   3.816   2.502
 5349SOL    HW216947   0.140   3.761   2.398
 5350SOL     OW16948   1.880   6.424   6.215
 5350SOL    HW116949   1.929   6.487   6.276
 5350SOL    HW216950   1.943   6.390   6.145
 5351SOL     OW16951   0.367   5.188   1.536
 5351SOL    HW116952   0.460   5.216   1.512
 5351SOL    HW216953   0.303   5.261   1.511
 5352SOL     OW16954   1.751   3.508   4.398
 5352SOL    HW116955   1.774   3.602   4.424
 5352SOL    HW216956   1.730   3.505   4.301
 5353SOL     OW16957   4.357   5.776   3.326
 5353SOL    HW116958   4.426   5.803   3.258
 5353SOL    HW216959   4.311   5.858   3.360
 5354SOL     OW16960   3.706   5.747   0.583
 5354SOL    HW116961   3.754   5.659   0.583
 5354SOL    HW216962   3.770   5.819   0.559
 5355SOL     OW16963   5.101   4.688   5.192
 5355SOL    HW116964   5.183   4.746   5.188
 5355SOL    HW216965   5.083   4.664   5.287
 5356SOL     OW16966   0.036   5.132   1.670
 5356SOL    HW116967   6.984   5.109   1.611
 5356SOL    HW216968   0.021   5.094   1.762
 5357SOL     OW16969   5.371   4.148   2.466
 5357SOL    HW116970   5.408   4.153   2.559
 5357SOL    HW216971   5.285   4.098   2.466
 5358SOL     OW16972   4.814   2.084   0.603
 5358SOL    HW116973   4.777   1.996   0.632
 5358SOL    HW216974   4.778   2.157   0.661
 5359SOL     OW16975   2.474   1.784   6.422
 5359SOL    HW116976   2.520   1.805   6.509
 5359SOL    HW216977   2.542   1.773   6.350
 5360SOL     OW16978   4.962   4.449   2.983
 5360SOL    HW116979   5.001   4.361   3.009
 5360SOL    HW216980   4.901   4.482   3.056
 5361SOL     OW16981   2.673   5.850   2.288
 5361SOL    HW116982   2.763   5.893   2.278
 5361SOL    HW216983   2.606   5.902   2.235
 5362SOL     OW16984   5.879   0.386   2.150
 5362SOL    HW116985   5.976   0.393   2.174
 5362SOL    HW216986   5.825   0.442   2.213
 5363SOL     OW16987   5.870   5.383   4.396
 5363SOL    HW116988   5.781   5.339   4.381
 5363SOL    HW216989   5.863   5.447   4.473
 5364SOL     OW16990   4.997   1.034   2.272
 5364SOL    HW116991   5.015   1.046   2.369
 5364SOL    HW216992   5.056   1.094   2.218
 5365SOL     OW16993   3.304   2.912   4.301
 5365SOL    HW116994   3.224   2.972   4.305
 5365SOL    HW216995   3.278   2.825   4.258
 5366SOL     OW16996   6.544   6.435   2.151
 5366SOL    HW116997   6.496   6.412   2.066
 5366SOL    HW216998   6.488   6.408   2.229
 5367SOL     OW16999   6.200   6.028   1.573
 5367SOL    HW117000   6.289   6.024   1.528
 5367SOL    HW217001   6.180   6.122   1.601
 5368SOL     OW17002   6.833   5.526   3.859
 5368SOL    HW117003   6.902   5.496   3.792
 5368SOL    HW217004   6.831   5.626   3.861
 5369SOL     OW17005   2.492   6.036   2.176
 5369SOL    HW117006   2.429   6.110   2.200
 5369SOL    HW217007   2.516   6.042   2.079
 5370SOL     OW17008   2.726   3.692   1.716
 5370SOL    HW117009   2.783   3.774   1.707
 5370SOL    HW217010   2.696   3.662   1.625
 5371SOL     OW17011   5.786   5.271   4.875
 5371SOL    HW117012   5.885   5.263   4.861
 5371SOL    HW217013   5.766   5.357   4.922
 5372SOL     OW17014   0.651   0.411   2.861
 5372SOL    HW117015   0.684   0.332   2.810
 5372SOL    HW217016   0.701   0.492   2.831
 5373SOL     OW17017   3.269   0.556   6.917
 5373SOL    HW117018   3.341   0.612   6.875
 5373SOL    HW217019   3.296   0.533   7.011
 5374SOL     OW17020   2.458   4.967   1.972
 5374SOL    HW117021   2.359   4.968   1.958
 5374SOL    HW217022   2.501   5.031   1.909
 5375SOL     OW17023   0.971   5.062   4.201
 5375SOL    HW117024   0.884   5.085   4.156
 5375SOL    HW217025   0.957   4.981   4.258
 5376SOL     OW17026   7.017   1.198   6.149
 5376SOL    HW117027   6.994   1.101   6.142
 5376SOL    HW217028   6.944   1.253   6.110
 5377SOL     OW17029   2.413   0.594   2.887
 5377SOL    HW117030   2.503   0.639   2.885
 5377SOL    HW217031   2.358   0.633   2.961
 5378SOL     OW17032   5.768   1.027   1.878
 5378SOL    HW117033   5.731   1.106   1.926
 5378SOL    HW217034   5.762   0.946   1.937
 5379SOL     OW17035   1.538   2.707   6.196
 5379SOL    HW117036   1.635   2.731   6.206
 5379SOL    HW217037   1.530   2.630   6.133
 5380SOL     OW17038   4.643   6.889   1.349
 5380SOL    HW117039   4.620   6.986   1.337
 5380SOL    HW217040   4.567   6.832   1.317
 5381SOL     OW17041   4.781   6.399   4.119
 5381SOL    HW117042   4.851   6.369   4.184
 5381SOL    HW217043   4.692   6.364   4.148
 5382SOL     OW17044   4.268   1.982   1.811
 5382SOL    HW117045   4.324   1.899   1.818
 5382SOL    HW217046   4.185   1.971   1.866
 5383SOL     OW17047   2.390   2.779   4.541
 5383SOL    HW117048   2.425   2.694   4.581
 5383SOL    HW217049   2.397   2.853   4.609
 5384SOL     OW17050   5.576   5.331   4.705
 5384SOL    HW117051   5.488   5.341   4.752
 5384SOL    HW217052   5.641   5.287   4.766
 5385SOL     OW17053   4.620   2.510   5.823
 5385SOL    HW117054   4.670   2.443   5.878
 5385SOL    HW217055   4.633   2.601   5.862
 5386SOL     OW17056   6.068   4.223   4.051
 5386SOL    HW117057   6.103   4.131   4.066
 5386SOL    HW217058   6.088   4.280   4.131
 5387SOL     OW17059   1.521   0.936   3.082
 5387SOL    HW117060   1.442   0.902   3.031
 5387SOL    HW217061   1.575   0.997   3.024
 5388SOL     OW17062   0.983   6.761   1.934
 5388SOL    HW117063   1.081   6.745   1.920
 5388SOL    HW217064   0.964   6.859   1.928
 5389SOL     OW17065   4.082   1.359   3.866
 5389SOL    HW117066   4.094   1.273   3.916
 5389SOL    HW217067   4.095   1.436   3.928
 5390SOL     OW17068   0.157   2.751   3.560
 5390SOL    HW117069   0.118   2.741   3.469
 5390SOL    HW217070   0.180   2.661   3.597
 5391SOL     OW17071   2.341   3.411   0.821
 5391SOL    HW117072   2.360   3.466   0.740
 5391SOL    HW217073   2.419   3.413   0.883
 5392SOL     OW17074   5.747   2.169   3.398
 5392SOL    HW117075   5.833   2.178   3.347
 5392SOL    HW217076   5.739   2.245   3.463
 5393SOL     OW17077   3.576   1.862   5.529
 5393SOL    HW117078   3.552   1.839   5.435
 5393SOL    HW217079   3.650   1.802   5.560
 5394SOL     OW17080   1.297   0.714   1.276
 5394SOL    HW117081   1.342   0.628   1.301
 5394SOL    HW217082   1.203   0.713   1.310
 5395SOL     OW17083   6.170   1.558   0.951
 5395SOL    HW117084   6.115   1.610   0.886
 5395SOL    HW217085   6.231   1.619   1.001
 5396SOL     OW17086   5.393   5.146   2.354
 5396SOL    HW117087   5.392   5.244   2.336
 5396SOL    HW217088   5.347   5.127   2.440
 5397SOL     OW17089   0.127   0.743   2.337
 5397SOL    HW117090   0.152   0.794   2.255
 5397SOL    HW217091   0.208   0.729   2.394
 5398SOL     OW17092   5.143   1.796   3.205
 5398SOL    HW117093   5.053   1.835   3.226
 5398SOL    HW217094   5.214   1.852   3.248
 5399SOL     OW17095   2.530   0.477   5.962
 5399SOL    HW117096   2.519   0.407   6.032
 5399SOL    HW217097   2.515   0.437   5.872
 5400SOL     OW17098   4.453   2.918   1.699
 5400SOL    HW117099   4.450   2.977   1.618
 5400SOL    HW217100   4.519   2.955   1.765
 5401SOL     OW17101   5.933   4.049   1.620
 5401SOL    HW117102   5.855   3.987   1.623
 5401SOL    HW217103   5.905   4.139   1.652
 5402SOL     OW17104   1.055   6.524   1.184
 5402SOL    HW117105   1.006   6.454   1.236
 5402SOL    HW217106   1.144   6.489   1.156
 5403SOL     OW17107   5.489   2.598   0.054
 5403SOL    HW117108   5.516   2.554   0.139
 5403SOL    HW217109   5.412   2.548   0.013
 5404SOL     OW17110   6.708   0.773   0.735
 5404SOL    HW117111   6.781   0.726   0.785
 5404SOL    HW217112   6.634   0.796   0.798
 5405SOL     OW17113   5.543   5.527   6.962
 5405SOL    HW117114   5.624   5.468   6.956
 5405SOL    HW217115   5.491   5.504   0.018
 5406SOL     OW17116   3.033   0.597   4.184
 5406SOL    HW117117   2.986   0.640   4.106
 5406SOL    HW217118   2.984   0.515   4.212
 5407SOL     OW17119   1.599   6.805   2.580
 5407SOL    HW117120   1.583   6.900   2.555
 5407SOL    HW217121   1.686   6.774   2.542
 5408SOL     OW17122   3.668   1.811   4.531
 5408SOL    HW117123   3.657   1.732   4.470
 5408SOL    HW217124   3.596   1.811   4.600
 5409SOL     OW17125   1.053   3.033   0.711
 5409SOL    HW117126   0.964   3.032   0.667
 5409SOL    HW217127   1.124   3.014   0.643
 5410SOL     OW17128   1.312   2.574   0.647
 5410SOL    HW117129   1.367   2.531   0.576
 5410SOL    HW217130   1.235   2.515   0.670
 5411SOL     OW17131   3.557   4.981   6.714
 5411SOL    HW117132   3.470   4.981   6.763
 5411SOL    HW217133   3.551   5.043   6.636
 5412SOL     OW17134   0.101   2.153   5.954
 5412SOL    HW117135   0.145   2.214   6.020
 5412SOL    HW217136   0.013   2.122   5.991
 5413SOL     OW17137   0.187   6.363   4.621
 5413SOL    HW117138   0.207   6.449   4.668
 5413SOL    HW217139   0.091   6.362   4.592
 5414SOL     OW17140   5.528   3.744   4.859
 5414SOL    HW117141   5.623   3.734   4.831
 5414SOL    HW217142   5.471   3.759   4.778
 5415SOL     OW17143   3.776   0.271   6.991
 5415SOL    HW117144   3.815   0.363   6.986
 5415SOL    HW217145   3.738   0.246   6.903
 5416SOL     OW17146   3.229   5.760   6.151
 5416SOL    HW117147   3.194   5.700   6.223
 5416SOL    HW217148   3.253   5.849   6.190
 5417SOL     OW17149   4.657   5.994   4.207
 5417SOL    HW117150   4.627   6.089   4.216
 5417SOL    HW217151   4.712   5.970   4.286
 5418SOL     OW17152   6.517   3.551   4.389
 5418SOL    HW117153   6.507   3.624   4.456
 5418SOL    HW217154   6.533   3.464   4.437
 5419SOL     OW17155   4.266   6.891   6.405
 5419SOL    HW117156   4.358   6.916   6.435
 5419SOL    HW217157   4.202   6.902   6.482
 5420SOL     OW17158   1.030   0.683   1.776
 5420SOL    HW117159   0.975   0.611   1.821
 5420SOL    HW217160   1.104   0.710   1.837
 5421SOL     OW17161   4.109   4.799   2.279
 5421SOL    HW117162   4.036   4.813   2.212
 5421SOL    HW217163   4.121   4.882   2.333
 5422SOL     OW17164   2.644   5.844   3.798
 5422SOL    HW117165   2.723   5.786   3.817
 5422SOL    HW217166   2.675   5.932   3.761
 5423SOL     OW17167   5.592   5.808   1.875
 5423SOL    HW117168   5.600   5.709   1.886
 5423SOL    HW217169   5.683   5.847   1.856
 5424SOL     OW17170   4.343   3.830   5.590
 5424SOL    HW117171   4.413   3.760   5.581
 5424SOL    HW217172   4.332   3.855   5.687
 5425SOL     OW17173   1.092   4.064   5.797
 5425SOL    HW117174   1.028   4.112   5.857
 5425SOL    HW217175   1.042   4.024   5.720
 5426SOL     OW17176   5.271   5.177   1.799
 5426SOL    HW117177   5.304   5.241   1.729
 5426SOL    HW217178   5.174   5.160   1.785
 5427SOL     OW17179   4.806   2.574   6.691
 5427SOL    HW117180   4.744   2.503   6.659
 5427SOL    HW217181   4.782   2.661   6.648
 5428SOL     OW17182   6.311   5.908   3.370
 5428SOL    HW117183   6.298   5.826   3.426
 5428SOL    HW217184   6.299   5.989   3.427
 5429SOL     OW17185   3.387   0.035   4.453
 5429SOL    HW117186   3.440   0.039   4.368
 5429SOL    HW217187   3.314   6.993   4.445
 5430SOL     OW17188   2.957   3.875   6.011
 5430SOL    HW117189   2.947   3.779   6.038
 5430SOL    HW217190   3.008   3.881   5.925
 5431SOL     OW17191   3.309   4.800   6.581
 5431SOL    HW117192   3.305   4.834   6.675
 5431SOL    HW217193   3.354   4.711   6.580
 5432SOL     OW17194   5.811   5.369   6.937
 5432SOL    HW117195   5.810   5.450   6.878
 5432SOL    HW217196   5.885   5.377   7.004
 5433SOL     OW17197   1.804   0.417   1.393
 5433SOL    HW117198   1.767   0.420   1.300
 5433SOL    HW217199   1.850   0.504   1.413
 5434SOL     OW17200   5.429   0.314   4.716
 5434SOL    HW117201   5.464   0.283   4.804
 5434SOL    HW217202   5.416   0.413   4.717
 5435SOL     OW17203   7.001   4.004   0.654
 5435SOL    HW117204   6.933   3.998   0.581
 5435SOL    HW217205   7.000   4.096   0.693
 5436SOL     OW17206   1.045   4.610   2.968
 5436SOL    HW117207   1.128   4.584   3.019
 5436SOL    HW217208   1.030   4.545   2.894
 5437SOL     OW17209   3.590   5.726   1.305
 5437SOL    HW117210   3.496   5.719   1.271
 5437SOL    HW217211   3.596   5.684   1.396
 5438SOL     OW17212   4.829   4.825   2.514
 5438SOL    HW117213   4.864   4.791   2.427
 5438SOL    HW217214   4.755   4.890   2.498
 5439SOL     OW17215   1.110   5.094   1.624
 5439SOL    HW117216   1.066   5.068   1.711
 5439SOL    HW217217   1.198   5.137   1.644
 5440SOL     OW17218   6.535   6.110   3.761
 5440SOL    HW117219   6.446   6.108   3.806
 5440SOL    HW217220   6.538   6.188   3.698
 5441SOL     OW17221   4.978   2.815   3.363
 5441SOL    HW117222   5.055   2.866   3.401
 5441SOL    HW217223   5.009   2.725   3.332
 5442SOL     OW17224   4.265   6.579   5.815
 5442SOL    HW117225   4.237   6.485   5.834
 5442SOL    HW217226   4.352   6.597   5.861
 5443SOL     OW17227   4.229   0.678   4.051
 5443SOL    HW117228   4.250   0.644   4.143
 5443SOL    HW217229   4.314   0.702   4.004
 5444SOL     OW17230   5.911   1.236   4.934
 5444SOL    HW117231   5.838   1.234   5.002
 5444SOL    HW217232   5.921   1.144   4.894
 5445SOL     OW17233   5.903   5.166   5.443
 5445SOL    HW117234   5.833   5.236   5.436
 5445SOL    HW217235   5.959   5.168   5.360
 5446SOL     OW17236   0.464   4.204   6.077
 5446SOL    HW117237   0.459   4.292   6.030
 5446SOL    HW217238   0.548   4.200   6.132
 5447SOL     OW17239   1.343   1.907   0.538
 5447SOL    HW117240   1.347   1.958   0.624
 5447SOL    HW217241   1.318   1.812   0.557
 5448SOL     OW17242   4.434   5.211   2.937
 5448SOL    HW117243   4.425   5.311   2.938
 5448SOL    HW217244   4.515   5.184   2.990
 5449SOL     OW17245   2.683   1.438   1.632
 5449SOL    HW117246   2.617   1.485   1.574
 5449SOL    HW217247   2.710   1.352   1.588
 5450SOL     OW17248   4.226   5.425   1.804
 5450SOL    HW117249   4.191   5.333   1.821
 5450SOL    HW217250   4.323   5.420   1.780
 5451SOL     OW17251   0.320   6.839   3.327
 5451SOL    HW117252   0.374   6.797   3.254
 5451SOL    HW217253   0.361   6.927   3.351
 5452SOL     OW17254   2.149   4.717   2.074
 5452SOL    HW117255   2.069   4.753   2.027
 5452SOL    HW217256   2.209   4.671   2.008
 5453SOL     OW17257   5.911   4.081   2.990
 5453SOL    HW117258   5.999   4.090   2.944
 5453SOL    HW217259   5.855   4.014   2.942
 5454SOL     OW17260   5.218   5.472   2.767
 5454SOL    HW117261   5.161   5.536   2.818
 5454SOL    HW217262   5.283   5.428   2.829
 5455SOL     OW17263   1.268   1.246   3.359
 5455SOL    HW117264   1.353   1.292   3.382
 5455SOL    HW217265   1.192   1.310   3.365
 5456SOL     OW17266   6.355   0.868   6.921
 5456SOL    HW117267   6.409   0.951   6.905
 5456SOL    HW217268   6.379   0.830   7.011
 5457SOL     OW17269   5.761   2.670   6.546
 5457SOL    HW117270   5.716   2.667   6.635
 5457SOL    HW217271   5.808   2.583   6.529
 5458SOL     OW17272   5.809   3.865   0.492
 5458SOL    HW117273   5.873   3.838   0.419
 5458SOL    HW217274   5.859   3.918   0.560
 5459SOL     OW17275   2.120   3.686   5.574
 5459SOL    HW117276   2.021   3.677   5.575
 5459SOL    HW217277   2.149   3.732   5.490
 5460SOL     OW17278   1.821   0.666   1.103
 5460SOL    HW117279   1.902   0.704   1.059
 5460SOL    HW217280   1.845   0.578   1.145
 5461SOL     OW17281   6.539   0.978   5.695
 5461SOL    HW117282   6.475   0.952   5.767
 5461SOL    HW217283   6.600   0.901   5.675
 5462SOL     OW17284   4.786   5.504   6.660
 5462SOL    HW117285   4.770   5.447   6.741
 5462SOL    HW217286   4.848   5.579   6.684
 5463SOL     OW17287   0.708   3.114   6.462
 5463SOL    HW117288   0.706   3.042   6.392
 5463SOL    HW217289   0.800   3.155   6.465
 5464SOL     OW17290   0.002   6.339   5.441
 5464SOL    HW117291   6.956   6.400   5.407
 5464SOL    HW217292   6.986   6.256   5.479
 5465SOL     OW17293   6.688   5.785   3.973
 5465SOL    HW117294   6.784   5.814   3.967
 5465SOL    HW217295   6.653   5.804   4.065
 5466SOL     OW17296   6.061   2.542   5.986
 5466SOL    HW117297   6.059   2.532   6.085
 5466SOL    HW217298   5.983   2.597   5.956
 5467SOL     OW17299   5.289   3.493   3.751
 5467SOL    HW117300   5.379   3.463   3.782
 5467SOL    HW217301   5.273   3.587   3.780
 5468SOL     OW17302   0.493   1.362   1.694
 5468SOL    HW117303   0.569   1.426   1.687
 5468SOL    HW217304   0.471   1.346   1.790
 5469SOL     OW17305   2.864   0.518   5.097
 5469SOL    HW117306   2.833   0.502   5.191
 5469SOL    HW217307   2.790   0.495   5.034
 5470SOL     OW17308   3.966   5.353   4.433
 5470SOL    HW117309   4.028   5.305   4.372
 5470SOL    HW217310   3.873   5.319   4.420
 5471SOL     OW17311   4.668   0.657   2.967
 5471SOL    HW117312   4.617   0.736   3.003
 5471SOL    HW217313   4.644   0.575   3.019
 5472SOL     OW17314   2.538   2.302   6.844
 5472SOL    HW117315   2.482   2.246   6.783
 5472SOL    HW217316   2.575   2.380   6.794
 5473SOL     OW17317   2.764   3.967   1.162
 5473SOL    HW117318   2.813   3.984   1.248
 5473SOL    HW217319   2.831   3.947   1.090
 5474SOL     OW17320   0.454   5.529   3.680
 5474SOL    HW117321   0.504   5.444   3.662
 5474SOL    HW217322   0.408   5.560   3.597
 5475SOL     OW17323   6.679   2.367   5.266
 5475SOL    HW117324   6.757   2.340   5.322
 5475SOL    HW217325   6.602   2.306   5.285
 5476SOL     OW17326   2.553   6.645   6.142
 5476SOL    HW117327   2.566   6.744   6.135
 5476SOL    HW217328   2.457   6.626   6.165
 5477SOL     OW17329   2.151   4.774   3.834
 5477SOL    HW117330   2.204   4.859   3.846
 5477SOL    HW217331   2.054   4.797   3.827
 5478SOL     OW17332   5.583   5.018   6.141
 5478SOL    HW117333   5.654   5.085   6.125
 5478SOL    HW217334   5.613   4.928   6.109
 5479SOL     OW17335   3.491   1.701   5.078
 5479SOL    HW117336   3.401   1.670   5.047
 5479SOL    HW217337   3.561   1.639   5.042
 5480SOL     OW17338   6.827   3.687   4.458
 5480SOL    HW117339   6.761   3.670   4.530
 5480SOL    HW217340   6.804   3.772   4.410
 5481SOL     OW17341   4.621   1.269   6.674
 5481SOL    HW117342   4.703   1.258   6.729
 5481SOL    HW217343   4.552   1.202   6.702
 5482SOL     OW17344   4.661   3.021   1.483
 5482SOL    HW117345   4.654   3.089   1.410
 5482SOL    HW217346   4.660   3.068   1.571
 5483SOL     OW17347   6.808   3.440   5.964
 5483SOL    HW117348   6.890   3.494   5.947
 5483SOL    HW217349   6.788   3.439   6.062
 5484SOL     OW17350   6.708   6.430   4.149
 5484SOL    HW117351   6.686   6.519   4.112
 5484SOL    HW217352   6.709   6.362   4.076
 5485SOL     OW17353   3.810   6.821   5.615
 5485SOL    HW117354   3.843   6.915   5.601
 5485SOL    HW217355   3.888   6.758   5.608
 5486SOL     OW17356   1.036   1.086   3.020
 5486SOL    HW117357   0.996   0.998   2.998
 5486SOL    HW217358   1.101   1.112   2.949
 5487SOL     OW17359   6.333   4.628   0.383
 5487SOL    HW117360   6.348   4.680   0.467
 5487SOL    HW217361   6.254   4.667   0.334
 5488SOL     OW17362   5.206   2.036   6.267
 5488SOL    HW117363   5.234   2.105   6.333
 5488SOL    HW217364   5.230   2.067   6.175
 5489SOL     OW17365   1.928   4.469   2.868
 5489SOL    HW117366   1.932   4.408   2.946
 5489SOL    HW217367   1.916   4.563   2.900
 5490SOL     OW17368   2.517   1.505   0.852
 5490SOL    HW117369   2.452   1.428   0.849
 5490SOL    HW217370   2.610   1.470   0.852
 5491SOL     OW17371   1.651   4.948   0.740
 5491SOL    HW117372   1.661   4.861   0.692
 5491SOL    HW217373   1.741   4.979   0.773
 5492SOL     OW17374   0.811   1.860   6.457
 5492SOL    HW117375   0.853   1.915   6.386
 5492SOL    HW217376   0.774   1.919   6.529
 5493SOL     OW17377   3.719   2.880   6.405
 5493SOL    HW117378   3.772   2.956   6.367
 5493SOL    HW217379   3.689   2.904   6.498
 5494SOL     OW17380   6.026   3.616   1.502
 5494SOL    HW117381   5.973   3.553   1.558
 5494SOL    HW217382   5.966   3.658   1.434
 5495SOL     OW17383   4.060   3.276   2.687
 5495SOL    HW117384   4.090   3.213   2.615
 5495SOL    HW217385   4.025   3.223   2.764
 5496SOL     OW17386   3.434   5.749   1.727
 5496SOL    HW117387   3.395   5.788   1.809
 5496SOL    HW217388   3.435   5.649   1.735
 5497SOL     OW17389   6.977   1.148   2.524
 5497SOL    HW117390   0.041   1.104   2.519
 5497SOL    HW217391   6.907   1.086   2.490
 5498SOL     OW17392   4.496   1.639   6.033
 5498SOL    HW117393   4.433   1.653   6.109
 5498SOL    HW217394   4.487   1.715   5.968
 5499SOL     OW17395   6.829   1.857   3.136
 5499SOL    HW117396   6.808   1.926   3.067
 5499SOL    HW217397   6.889   1.787   3.096
 5500SOL     OW17398   2.042   6.203   0.536
 5500SOL    HW117399   2.114   6.186   0.468
 5500SOL    HW217400   1.953   6.210   0.489
 5501SOL     OW17401   2.693   0.222   2.366
 5501SOL    HW117402   2.703   0.185   2.458
 5501SOL    HW217403   2.651   0.154   2.307
 5502SOL     OW17404   6.466   4.085   5.668
 5502SOL    HW117405   6.386   4.105   5.611
 5502SOL    HW217406   6.446   4.009   5.729
 5503SOL     OW17407   1.233   4.553   3.164
 5503SOL    HW117408   1.259   4.474   3.220
 5503SOL    HW217409   1.311   4.616   3.158
 5504SOL     OW17410   3.540   1.711   4.757
 5504SOL    HW117411   3.450   1.720   4.799
 5504SOL    HW217412   3.610   1.749   4.819
 5505SOL     OW17413   3.358   5.562   5.191
 5505SOL    HW117414   3.346   5.596   5.098
 5505SOL    HW217415   3.438   5.605   5.232
 5506SOL     OW17416   6.250   0.677   5.316
 5506SOL    HW117417   6.297   0.601   5.271
 5506SOL    HW217418   6.271   0.762   5.267
 5507SOL     OW17419   2.978   6.776   3.968
 5507SOL    HW117420   2.925   6.765   3.884
 5507SOL    HW217421   2.938   6.849   4.024
 5508SOL     OW17422   2.398   0.315   6.725
 5508SOL    HW117423   2.390   0.323   6.824
 5508SOL    HW217424   2.456   0.388   6.689
 5509SOL     OW17425   5.927   6.998   0.426
 5509SOL    HW117426   5.878   6.933   0.368
 5509SOL    HW217427   6.026   6.984   0.416
 5510SOL     OW17428   4.788   0.533   5.919
 5510SOL    HW117429   4.863   0.581   5.964
 5510SOL    HW217430   4.823   0.482   5.840
 5511SOL     OW17431   0.400   0.568   2.229
 5511SOL    HW117432   0.319   0.551   2.286
 5511SOL    HW217433   0.435   0.481   2.194
 5512SOL     OW17434   1.270   1.196   6.789
 5512SOL    HW117435   1.228   1.134   6.723
 5512SOL    HW217436   1.322   1.266   6.741
 5513SOL     OW17437   4.757   4.317   4.432
 5513SOL    HW117438   4.767   4.299   4.530
 5513SOL    HW217439   4.765   4.231   4.382
 5514SOL     OW17440   5.185   4.847   2.297
 5514SOL    HW117441   5.099   4.851   2.246
 5514SOL    HW217442   5.166   4.842   2.395
 5515SOL     OW17443   6.651   2.115   1.917
 5515SOL    HW117444   6.608   2.179   1.982
 5515SOL    HW217445   6.749   2.130   1.915
 5516SOL     OW17446   1.318   3.658   6.872
 5516SOL    HW117447   1.222   3.675   6.849
 5516SOL    HW217448   1.338   3.698   6.962
 5517SOL     OW17449   3.123   1.607   1.125
 5517SOL    HW117450   3.206   1.576   1.077
 5517SOL    HW217451   3.142   1.692   1.173
 5518SOL     OW17452   6.074   5.172   5.690
 5518SOL    HW117453   6.160   5.184   5.640
 5518SOL    HW217454   6.003   5.142   5.626
 5519SOL     OW17455   5.588   3.411   3.948
 5519SOL    HW117456   5.644   3.332   3.925
 5519SOL    HW217457   5.611   3.488   3.888
 5520SOL     OW17458   1.041   3.968   2.234
 5520SOL    HW117459   1.070   3.872   2.233
 5520SOL    HW217460   1.060   4.009   2.145
 5521SOL     OW17461   5.677   6.282   1.387
 5521SOL    HW117462   5.671   6.367   1.439
 5521SOL    HW217463   5.765   6.277   1.340
 5522SOL     OW17464   2.719   3.443   1.854
 5522SOL    HW117465   2.739   3.540   1.847
 5522SOL    HW217466   2.632   3.430   1.902
 5523SOL     OW17467   2.986   6.995   2.684
 5523SOL    HW117468   3.044   0.020   2.748
 5523SOL    HW217469   3.032   6.986   2.596
 5524SOL     OW17470   0.885   4.735   5.233
 5524SOL    HW117471   0.952   4.806   5.254
 5524SOL    HW217472   0.819   4.729   5.307
 5525SOL     OW17473   6.717   5.248   6.546
 5525SOL    HW117474   6.675   5.312   6.611
 5525SOL    HW217475   6.805   5.285   6.516
 5526SOL     OW17476   6.047   3.312   3.416
 5526SOL    HW117477   5.951   3.284   3.410
 5526SOL    HW217478   6.075   3.315   3.512
 5527SOL     OW17479   1.519   2.849   1.592
 5527SOL    HW117480   1.566   2.845   1.503
 5527SOL    HW217481   1.534   2.764   1.642
 5528SOL     OW17482   0.471   2.429   4.546
 5528SOL    HW117483   0.519   2.488   4.611
 5528SOL    HW217484   0.471   2.335   4.582
 5529SOL     OW17485   2.397   0.907   4.488
 5529SOL    HW117486   2.323   0.857   4.533
 5529SOL    HW217487   2.451   0.956   4.556
 5530SOL     OW17488   0.261   2.044   0.570
 5530SOL    HW117489   0.344   2.024   0.517
 5530SOL    HW217490   0.182   2.045   0.509
 5531SOL     OW17491   4.036   2.995   5.291
 5531SOL    HW117492   3.955   2.954   5.250
 5531SOL    HW217493   4.023   3.094   5.301
 5532SOL     OW17494   1.849   1.625   0.558
 5532SOL    HW117495   1.942   1.646   0.588
 5532SOL    HW217496   1.850   1.543   0.501
 5533SOL     OW17497   3.433   0.606   2.196
 5533SOL    HW117498   3.377   0.560   2.127
 5533SOL    HW217499   3.505   0.660   2.150
 5534SOL     OW17500   0.931   3.952   6.440
 5534SOL    HW117501   0.863   3.978   6.371
 5534SOL    HW217502   0.885   3.921   6.522
 5535SOL     OW17503   6.391   2.964   3.021
 5535SOL    HW117504   6.355   2.970   3.114
 5535SOL    HW217505   6.402   2.868   2.995
 5536SOL     OW17506   2.413   0.668   4.327
 5536SOL    HW117507   2.384   0.750   4.378
 5536SOL    HW217508   2.450   0.601   4.391
 5537SOL     OW17509   3.984   0.606   5.014
 5537SOL    HW117510   4.063   0.566   4.968
 5537SOL    HW217511   4.014   0.652   5.097
 5538SOL     OW17512   3.861   1.498   5.883
 5538SOL    HW117513   3.837   1.464   5.974
 5538SOL    HW217514   3.960   1.506   5.876
 5539SOL     OW17515   1.219   0.735   1.960
 5539SOL    HW117516   1.297   0.796   1.972
 5539SOL    HW217517   1.238   0.647   2.003
 5540SOL     OW17518   5.268   3.026   0.696
 5540SOL    HW117519   5.356   3.046   0.740
 5540SOL    HW217520   5.194   3.067   0.749
 5541SOL     OW17521   5.111   3.421   6.138
 5541SOL    HW117522   5.207   3.444   6.149
 5541SOL    HW217523   5.081   3.365   6.215
 5542SOL     OW17524   5.249   4.985   6.483
 5542SOL    HW117525   5.304   4.919   6.434
 5542SOL    HW217526   5.228   5.063   6.423
 5543SOL     OW17527   1.754   6.409   0.154
 5543SOL    HW117528   1.772   6.455   0.240
 5543SOL    HW217529   1.834   6.415   0.095
 5544SOL     OW17530   4.576   4.976   5.918
 5544SOL    HW117531   4.581   4.909   5.993
 5544SOL    HW217532   4.667   5.013   5.900
 5545SOL     OW17533   4.205   1.326   2.716
 5545SOL    HW117534   4.110   1.347   2.740
 5545SOL    HW217535   4.219   1.343   2.619
 5546SOL     OW17536   0.875   6.188   4.855
 5546SOL    HW117537   0.798   6.124   4.861
 5546SOL    HW217538   0.959   6.136   4.839
 5547SOL     OW17539   4.807   2.036   5.705
 5547SOL    HW117540   4.801   1.938   5.720
 5547SOL    HW217541   4.723   2.069   5.663
 5548SOL     OW17542   6.975   3.695   5.547
 5548SOL    HW117543   6.891   3.678   5.495
 5548SOL    HW217544   0.023   3.638   5.511
 5549SOL     OW17545   4.150   3.518   1.929
 5549SOL    HW117546   4.132   3.615   1.942
 5549SOL    HW217547   4.180   3.501   1.836
 5550SOL     OW17548   2.302   4.221   2.790
 5550SOL    HW117549   2.289   4.143   2.729
 5550SOL    HW217550   2.328   4.189   2.881
 5551SOL     OW17551   1.782   5.192   2.949
 5551SOL    HW117552   1.805   5.140   3.031
 5551SOL    HW217553   1.790   5.132   2.869
 5552SOL     OW17554   6.449   6.962   6.045
 5552SOL    HW117555   6.385   6.951   5.969
 5552SOL    HW217556   6.540   6.985   6.009
 5553SOL     OW17557   4.091   0.275   6.989
 5553SOL    HW117558   4.104   0.357   0.019
 5553SOL    HW217559   4.115   0.295   6.894
 5554SOL     OW17560   5.050   2.955   1.664
 5554SOL    HW117561   4.965   2.955   1.612
 5554SOL    HW217562   5.039   3.014   1.745
 5555SOL     OW17563   0.792   4.033   3.106
 5555SOL    HW117564   0.752   4.097   3.040
 5555SOL    HW217565   0.851   3.969   3.058
 5556SOL     OW17566   6.163   1.530   4.348
 5556SOL    HW117567   6.251   1.576   4.335
 5556SOL    HW217568   6.177   1.431   4.345
 5557SOL     OW17569   2.952   5.857   1.429
 5557SOL    HW117570   2.899   5.935   1.461
 5557SOL    HW217571   3.038   5.851   1.479
 5558SOL     OW17572   3.160   3.984   0.771
 5558SOL    HW117573   3.227   3.919   0.736
 5558SOL    HW217574   3.112   4.026   0.694
 5559SOL     OW17575   1.027   0.139   2.624
 5559SOL    HW117576   1.019   0.130   2.525
 5559SOL    HW217577   1.080   0.064   2.661
 5560SOL     OW17578   6.545   5.841   2.950
 5560SOL    HW117579   6.487   5.909   2.996
 5560SOL    HW217580   6.619   5.888   2.902
 5561SOL     OW17581   2.893   0.571   4.807
 5561SOL    HW117582   2.944   0.655   4.789
 5561SOL    HW217583   2.794   0.591   4.805
 5562SOL     OW17584   4.441   4.492   6.985
 5562SOL    HW117585   4.390   4.577   6.978
 5562SOL    HW217586   4.506   4.498   0.035
 5563SOL     OW17587   3.160   5.120   2.842
 5563SOL    HW117588   3.070   5.077   2.833
 5563SOL    HW217589   3.217   5.065   2.903
 5564SOL     OW17590   4.889   6.904   6.617
 5564SOL    HW117591   4.815   6.839   6.599
 5564SOL    HW217592   4.893   6.923   6.715
 5565SOL     OW17593   4.419   3.338   0.241
 5565SOL    HW117594   4.365   3.403   0.187
 5565SOL    HW217595   4.488   3.388   0.293
 5566SOL     OW17596   1.637   4.300   1.089
 5566SOL    HW117597   1.702   4.294   1.164
 5566SOL    HW217598   1.673   4.251   1.010
 5567SOL     OW17599   6.756   3.729   1.960
 5567SOL    HW117600   6.788   3.699   2.049
 5567SOL    HW217601   6.663   3.696   1.944
 5568SOL     OW17602   4.407   6.900   3.204
 5568SOL    HW117603   4.391   6.994   3.174
 5568SOL    HW217604   4.332   6.870   3.262
 5569SOL     OW17605   2.360   1.681   3.199
 5569SOL    HW117606   2.310   1.600   3.167
 5569SOL    HW217607   2.386   1.669   3.294
 5570SOL     OW17608   6.135   3.520   3.139
 5570SOL    HW117609   6.155   3.439   3.085
 5570SOL    HW217610   6.214   3.581   3.137
 5571SOL     OW17611   7.015   4.978   2.276
 5571SOL    HW117612   6.972   5.067   2.290
 5571SOL    HW217613   0.084   4.982   2.308
 5572SOL     OW17614   1.819   4.492   4.947
 5572SOL    HW117615   1.916   4.480   4.969
 5572SOL    HW217616   1.805   4.477   4.849
 5573SOL     OW17617   1.588   5.335   5.234
 5573SOL    HW117618   1.496   5.310   5.265
 5573SOL    HW217619   1.604   5.296   5.143
 5574SOL     OW17620   0.328   2.696   6.822
 5574SOL    HW117621   0.414   2.651   6.849
 5574SOL    HW217622   0.276   2.633   6.764
 5575SOL     OW17623   0.049   0.122   1.049
 5575SOL    HW117624   0.028   0.140   0.953
 5575SOL    HW217625   0.139   0.079   1.056
 5576SOL     OW17626   1.529   4.010   2.843
 5576SOL    HW117627   1.614   4.062   2.846
 5576SOL    HW217628   1.472   4.044   2.768
 5577SOL     OW17629   2.087   3.341   0.656
 5577SOL    HW117630   2.158   3.301   0.714
 5577SOL    HW217631   2.129   3.400   0.587
 5578SOL     OW17632   3.929   3.974   2.616
 5578SOL    HW117633   3.948   3.963   2.714
 5578SOL    HW217634   4.006   3.937   2.563
 5579SOL     OW17635   0.717   3.465   1.028
 5579SOL    HW117636   0.760   3.422   1.107
 5579SOL    HW217637   0.618   3.449   1.031
 5580SOL     OW17638   4.475   2.124   6.177
 5580SOL    HW117639   4.446   2.061   6.250
 5580SOL    HW217640   4.537   2.192   6.215
 5581SOL     OW17641   0.945   1.432   1.228
 5581SOL    HW117642   0.952   1.529   1.205
 5581SOL    HW217643   0.999   1.413   1.310
 5582SOL     OW17644   2.680   4.212   6.908
 5582SOL    HW117645   2.666   4.199   7.006
 5582SOL    HW217646   2.766   4.170   6.881
 5583SOL     OW17647   3.981   0.868   2.475
 5583SOL    HW117648   3.969   0.831   2.567
 5583SOL    HW217649   3.954   0.964   2.474
 5584SOL     OW17650   6.283   3.521   4.226
 5584SOL    HW117651   6.358   3.543   4.288
 5584SOL    HW217652   6.318   3.504   4.134
 5585SOL     OW17653   4.877   5.089   3.234
 5585SOL    HW117654   4.948   5.145   3.192
 5585SOL    HW217655   4.903   5.068   3.328
 5586SOL     OW17656   6.694   3.521   5.642
 5586SOL    HW117657   6.721   3.548   5.549
 5586SOL    HW217658   6.716   3.594   5.706
 5587SOL     OW17659   4.255   6.993   0.717
 5587SOL    HW117660   4.202   0.016   0.787
 5587SOL    HW217661   4.353   7.006   0.735
 5588SOL     OW17662   2.654   6.408   2.907
 5588SOL    HW117663   2.621   6.463   2.830
 5588SOL    HW217664   2.698   6.467   2.974
 5589SOL     OW17665   6.173   4.489   6.737
 5589SOL    HW117666   6.227   4.465   6.656
 5589SOL    HW217667   6.144   4.406   6.784
 5590SOL     OW17668   6.203   6.349   3.718
 5590SOL    HW117669   6.108   6.379   3.725
 5590SOL    HW217670   6.206   6.252   3.693
 5591SOL     OW17671   0.462   1.583   1.077
 5591SOL    HW117672   0.454   1.682   1.090
 5591SOL    HW217673   0.519   1.545   1.150
 5592SOL     OW17674   1.792   5.543   3.888
 5592SOL    HW117675   1.824   5.496   3.805
 5592SOL    HW217676   1.865   5.541   3.957
 5593SOL     OW17677   0.210   2.569   6.625
 5593SOL    HW117678   0.285   2.506   6.603
 5593SOL    HW217679   0.182   2.618   6.542
 5594SOL     OW17680   5.081   0.668   4.683
 5594SOL    HW117681   5.032   0.585   4.710
 5594SOL    HW217682   5.096   0.725   4.763
 5595SOL     OW17683   1.015   1.392   4.621
 5595SOL    HW117684   1.114   1.395   4.612
 5595SOL    HW217685   0.973   1.450   4.551
 5596SOL     OW17686   4.617   6.582   2.617
 5596SOL    HW117687   4.557   6.505   2.597
 5596SOL    HW217688   4.646   6.579   2.712
 5597SOL     OW17689   4.812   2.438   4.370
 5597SOL    HW117690   4.828   2.504   4.296
 5597SOL    HW217691   4.857   2.469   4.453
 5598SOL     OW17692   5.136   3.497   4.524
 5598SOL    HW117693   5.102   3.558   4.452
 5598SOL    HW217694   5.145   3.404   4.488
 5599SOL     OW17695   1.176   1.003   4.140
 5599SOL    HW117696   1.206   1.053   4.059
 5599SOL    HW217697   1.187   0.905   4.125
 5600SOL     OW17698   0.549   1.358   2.467
 5600SOL    HW117699   0.575   1.313   2.552
 5600SOL    HW217700   0.451   1.379   2.469
 5601SOL     OW17701   3.020   0.138   5.903
 5601SOL    HW117702   3.032   0.235   5.882
 5601SOL    HW217703   3.109   0.098   5.926
 5602SOL     OW17704   0.528   1.368   0.284
 5602SOL    HW117705   0.569   1.301   0.345
 5602SOL    HW217706   0.500   1.449   0.337
 5603SOL     OW17707   5.434   2.639   6.279
 5603SOL    HW117708   5.361   2.585   6.320
 5603SOL    HW217709   5.395   2.714   6.225
 5604SOL     OW17710   6.462   2.205   5.310
 5604SOL    HW117711   6.377   2.232   5.264
 5604SOL    HW217712   6.440   2.149   5.390
 5605SOL     OW17713   0.951   0.783   4.546
 5605SOL    HW117714   0.877   0.781   4.479
 5605SOL    HW217715   0.941   0.863   4.605
 5606SOL     OW17716   5.173   0.151   0.797
 5606SOL    HW117717   5.091   0.114   0.754
 5606SOL    HW217718   5.182   0.114   0.889
 5607SOL     OW17719   5.685   0.427   3.002
 5607SOL    HW117720   5.615   0.485   2.960
 5607SOL    HW217721   5.657   0.332   2.997
 5608SOL     OW17722   4.587   6.925   4.946
 5608SOL    HW117723   4.561   6.915   4.850
 5608SOL    HW217724   4.668   6.869   4.965
 5609SOL     OW17725   2.271   4.818   0.827
 5609SOL    HW117726   2.262   4.729   0.781
 5609SOL    HW217727   2.365   4.828   0.862
 5610SOL     OW17728   4.709   6.776   0.725
 5610SOL    HW117729   4.786   6.838   0.713
 5610SOL    HW217730   4.625   6.828   0.734
 5611SOL     OW17731   1.494   5.133   2.645
 5611SOL    HW117732   1.470   5.212   2.702
 5611SOL    HW217733   1.417   5.111   2.585
 5612SOL     OW17734   4.068   2.269   6.736
 5612SOL    HW117735   4.036   2.276   6.830
 5612SOL    HW217736   4.065   2.174   6.706
 5613SOL     OW17737   5.216   3.657   3.345
 5613SOL    HW117738   5.274   3.588   3.389
 5613SOL    HW217739   5.257   3.686   3.259
 5614SOL     OW17740   4.465   2.438   4.156
 5614SOL    HW117741   4.392   2.383   4.117
 5614SOL    HW217742   4.494   2.507   4.090
 5615SOL     OW17743   0.695   0.957   5.577
 5615SOL    HW117744   0.743   1.008   5.506
 5615SOL    HW217745   0.612   1.006   5.604
 5616SOL     OW17746   2.212   1.391   5.182
 5616SOL    HW117747   2.285   1.325   5.203
 5616SOL    HW217748   2.149   1.350   5.116
 5617SOL     OW17749   2.259   6.638   6.152
 5617SOL    HW117750   2.227   6.733   6.145
 5617SOL    HW217751   2.232   6.601   6.240
 5618SOL     OW17752   6.098   3.526   3.645
 5618SOL    HW117753   6.188   3.562   3.669
 5618SOL    HW217754   6.057   3.584   3.574
 5619SOL     OW17755   3.098   3.935   6.481
 5619SOL    HW117756   3.072   3.984   6.398
 5619SOL    HW217757   3.104   3.999   6.557
 5620SOL     OW17758   3.772   3.557   0.821
 5620SOL    HW117759   3.747   3.622   0.893
 5620SOL    HW217760   3.838   3.491   0.857
 5621SOL     OW17761   1.021   2.491   5.901
 5621SOL    HW117762   1.103   2.544   5.878
 5621SOL    HW217763   0.951   2.553   5.936
 5622SOL     OW17764   4.432   0.249   5.807
 5622SOL    HW117765   4.405   0.332   5.759
 5622SOL    HW217766   4.403   0.256   5.903
 5623SOL     OW17767   2.100   5.859   6.214
 5623SOL    HW117768   2.049   5.941   6.241
 5623SOL    HW217769   2.102   5.851   6.115
 5624SOL     OW17770   0.993   4.326   3.389
 5624SOL    HW117771   1.084   4.329   3.348
 5624SOL    HW217772   0.934   4.395   3.346
 5625SOL     OW17773   5.751   2.112   4.191
 5625SOL    HW117774   5.773   2.049   4.117
 5625SOL    HW217775   5.836   2.147   4.231
 5626SOL     OW17776   2.780   6.964   4.849
 5626SOL    HW117777   2.782   6.926   4.757
 5626SOL    HW217778   2.724   6.906   4.908
 5627SOL     OW17779   0.919   5.910   0.086
 5627SOL    HW117780   0.995   5.957   0.041
 5627SOL    HW217781   0.918   5.814   0.059
 5628SOL     OW17782   1.551   3.116   5.693
 5628SOL    HW117783   1.481   3.182   5.667
 5628SOL    HW217784   1.572   3.127   5.790
 5629SOL     OW17785   3.266   3.785   2.233
 5629SOL    HW117786   3.363   3.809   2.234
 5629SOL    HW217787   3.251   3.705   2.292
 5630SOL     OW17788   1.374   4.904   0.433
 5630SOL    HW117789   1.402   4.853   0.515
 5630SOL    HW217790   1.403   4.854   0.352
 5631SOL     OW17791   4.386   1.850   6.856
 5631SOL    HW117792   4.478   1.838   6.820
 5631SOL    HW217793   4.390   1.860   6.956
 5632SOL     OW17794   4.236   2.600   5.832
 5632SOL    HW117795   4.142   2.591   5.865
 5632SOL    HW217796   4.299   2.599   5.910
 5633SOL     OW17797   5.925   2.489   3.931
 5633SOL    HW117798   5.953   2.585   3.933
 5633SOL    HW217799   5.975   2.439   4.002
 5634SOL     OW17800   2.264   6.145   5.193
 5634SOL    HW117801   2.176   6.097   5.186
 5634SOL    HW217802   2.321   6.101   5.262
 5635SOL     OW17803   2.221   3.857   5.350
 5635SOL    HW117804   2.298   3.793   5.354
 5635SOL    HW217805   2.255   3.951   5.365
 5636SOL     OW17806   3.321   6.268   2.341
 5636SOL    HW117807   3.274   6.285   2.428
 5636SOL    HW217808   3.418   6.256   2.357
 5637SOL     OW17809   5.117   0.317   3.965
 5637SOL    HW117810   5.096   0.228   4.005
 5637SOL    HW217811   5.201   0.352   4.006
 5638SOL     OW17812   5.778   3.757   1.569
 5638SOL    HW117813   5.827   3.769   1.655
 5638SOL    HW217814   5.680   3.750   1.587
 5639SOL     OW17815   0.373   0.672   0.284
 5639SOL    HW117816   0.343   0.661   0.189
 5639SOL    HW217817   0.444   0.743   0.288
 5640SOL     OW17818   2.929   0.724   3.971
 5640SOL    HW117819   2.970   0.726   3.879
 5640SOL    HW217820   2.887   0.813   3.990
 5641SOL     OW17821   0.708   4.731   5.496
 5641SOL    HW117822   0.676   4.814   5.541
 5641SOL    HW217823   0.699   4.654   5.559
 5642SOL     OW17824   2.124   6.399   6.736
 5642SOL    HW117825   2.205   6.433   6.783
 5642SOL    HW217826   2.044   6.410   6.795
 5643SOL     OW17827   4.419   1.460   5.080
 5643SOL    HW117828   4.413   1.503   4.991
 5643SOL    HW217829   4.514   1.459   5.111
 5644SOL     OW17830   2.862   6.926   5.334
 5644SOL    HW117831   2.830   6.957   5.424
 5644SOL    HW217832   2.788   6.937   5.267
 5645SOL     OW17833   6.333   3.735   3.757
 5645SOL    HW117834   6.405   3.790   3.715
 5645SOL    HW217835   6.287   3.790   3.827
 5646SOL     OW17836   2.126   5.228   2.979
 5646SOL    HW117837   2.127   5.168   3.060
 5646SOL    HW217838   2.051   5.294   2.989
 5647SOL     OW17839   5.607   6.291   1.704
 5647SOL    HW117840   5.621   6.375   1.653
 5647SOL    HW217841   5.547   6.308   1.782
 5648SOL     OW17842   2.676   5.659   3.110
 5648SOL    HW117843   2.649   5.652   3.014
 5648SOL    HW217844   2.656   5.752   3.143
 5649SOL     OW17845   0.842   6.700   4.058
 5649SOL    HW117846   0.776   6.630   4.029
 5649SOL    HW217847   0.872   6.753   3.979
 5650SOL     OW17848   0.827   4.747   0.640
 5650SOL    HW117849   0.802   4.843   0.653
 5650SOL    HW217850   0.831   4.701   0.729
 5651SOL     OW17851   1.837   0.941   0.706
 5651SOL    HW117852   1.826   0.912   0.611
 5651SOL    HW217853   1.754   0.920   0.758
 5652SOL     OW17854   6.975   5.522   1.823
 5652SOL    HW117855   0.023   5.471   1.778
 5652SOL    HW217856   7.015   5.592   1.882
 5653SOL     OW17857   0.354   6.174   0.301
 5653SOL    HW117858   0.324   6.082   0.326
 5653SOL    HW217859   0.303   6.241   0.355
 5654SOL     OW17860   1.271   5.335   4.310
 5654SOL    HW117861   1.248   5.431   4.294
 5654SOL    HW217862   1.260   5.284   4.225
 5655SOL     OW17863   6.474   2.605   3.884
 5655SOL    HW117864   6.378   2.584   3.870
 5655SOL    HW217865   6.531   2.534   3.843
 5656SOL     OW17866   6.628   3.514   6.331
 5656SOL    HW117867   6.584   3.441   6.278
 5656SOL    HW217868   6.685   3.473   6.402
 5657SOL     OW17869   4.588   4.329   5.107
 5657SOL    HW117870   4.506   4.293   5.062
 5657SOL    HW217871   4.623   4.262   5.172
 5658SOL     OW17872   2.826   3.198   6.132
 5658SOL    HW117873   2.868   3.278   6.091
 5658SOL    HW217874   2.792   3.137   6.060
 5659SOL     OW17875   3.499   3.800   5.899
 5659SOL    HW117876   3.565   3.807   5.974
 5659SOL    HW217877   3.497   3.706   5.866
 5660SOL     OW17878   4.429   0.303   6.692
 5660SOL    HW117879   4.515   0.354   6.688
 5660SOL    HW217880   4.447   0.208   6.717
 5661SOL     OW17881   1.190   5.265   6.118
 5661SOL    HW117882   1.197   5.187   6.180
 5661SOL    HW217883   1.226   5.347   6.162
 5662SOL     OW17884   2.577   6.870   2.795
 5662SOL    HW117885   2.613   6.779   2.816
 5662SOL    HW217886   2.606   6.897   2.704
 5663SOL     OW17887   1.366   2.757   0.848
 5663SOL    HW117888   1.429   2.726   0.918
 5663SOL    HW217889   1.360   2.689   0.775
 5664SOL     OW17890   5.601   4.095   4.488
 5664SOL    HW117891   5.663   4.031   4.535
 5664SOL    HW217892   5.507   4.072   4.510
 5665SOL     OW17893   1.528   6.140   0.190
 5665SOL    HW117894   1.619   6.168   0.219
 5665SOL    HW217895   1.532   6.047   0.153
 5666SOL     OW17896   6.295   0.853   3.791
 5666SOL    HW117897   6.241   0.890   3.715
 5666SOL    HW217898   6.361   0.786   3.757
 5667SOL     OW17899   1.678   4.733   4.019
 5667SOL    HW117900   1.612   4.717   3.946
 5667SOL    HW217901   1.771   4.727   3.982
 5668SOL     OW17902   6.364   2.788   2.492
 5668SOL    HW117903   6.378   2.857   2.563
 5668SOL    HW217904   6.305   2.716   2.527
 5669SOL     OW17905   6.706   4.436   0.245
 5669SOL    HW117906   6.611   4.419   0.271
 5669SOL    HW217907   6.732   4.529   0.272
 5670SOL     OW17908   1.604   3.538   3.183
 5670SOL    HW117909   1.671   3.600   3.223
 5670SOL    HW217910   1.647   3.449   3.166
 5671SOL     OW17911   6.058   5.462   4.649
 5671SOL    HW117912   5.996   5.538   4.630
 5671SOL    HW217913   6.140   5.470   4.592
 5672SOL     OW17914   4.602   4.051   5.588
 5672SOL    HW117915   4.679   4.115   5.594
 5672SOL    HW217916   4.552   4.051   5.675
 5673SOL     OW17917   0.851   6.665   1.500
 5673SOL    HW117918   0.927   6.729   1.501
 5673SOL    HW217919   0.877   6.584   1.447
 5674SOL     OW17920   2.107   4.688   4.547
 5674SOL    HW117921   2.135   4.594   4.529
 5674SOL    HW217922   2.148   4.720   4.632
 5675SOL     OW17923   3.884   1.327   0.321
 5675SOL    HW117924   3.933   1.373   0.247
 5675SOL    HW217925   3.874   1.230   0.300
 5676SOL     OW17926   2.706   2.253   1.847
 5676SOL    HW117927   2.752   2.302   1.921
 5676SOL    HW217928   2.765   2.251   1.766
 5677SOL     OW17929   6.910   0.623   0.862
 5677SOL    HW117930   6.878   0.554   0.927
 5677SOL    HW217931   7.007   0.608   0.843
 5678SOL     OW17932   3.761   1.267   2.267
 5678SOL    HW117933   3.774   1.366   2.267
 5678SOL    HW217934   3.785   1.230   2.177
 5679SOL     OW17935   6.001   2.122   4.882
 5679SOL    HW117936   6.098   2.137   4.902
 5679SOL    HW217937   5.949   2.125   4.967
 5680SOL     OW17938   1.601   4.766   5.617
 5680SOL    HW117939   1.555   4.777   5.706
 5680SOL    HW217940   1.606   4.854   5.571
 5681SOL     OW17941   0.373   4.009   3.156
 5681SOL    HW117942   0.465   3.969   3.153
 5681SOL    HW217943   0.350   4.047   3.067
 5682SOL     OW17944   2.939   5.700   3.131
 5682SOL    HW117945   2.846   5.674   3.104
 5682SOL    HW217946   3.002   5.626   3.106
 5683SOL     OW17947   4.220   2.647   6.829
 5683SOL    HW117948   4.204   2.583   6.754
 5683SOL    HW217949   4.299   2.705   6.807
 5684SOL     OW17950   2.432   4.016   6.155
 5684SOL    HW117951   2.337   4.042   6.168
 5684SOL    HW217952   2.471   4.071   6.080
 5685SOL     OW17953   2.006   2.323   4.019
 5685SOL    HW117954   2.102   2.341   3.998
 5685SOL    HW217955   1.959   2.408   4.040
 5686SOL     OW17956   3.096   1.119   5.731
 5686SOL    HW117957   3.077   1.197   5.790
 5686SOL    HW217958   3.146   1.151   5.650
 5687SOL     OW17959   0.256   6.043   5.666
 5687SOL    HW117960   0.222   5.955   5.697
 5687SOL    HW217961   0.204   6.072   5.585
 5688SOL     OW17962   2.370   2.682   3.516
 5688SOL    HW117963   2.298   2.743   3.549
 5688SOL    HW217964   2.331   2.592   3.496
 5689SOL     OW17965   2.260   0.473   1.804
 5689SOL    HW117966   2.359   0.478   1.817
 5689SOL    HW217967   2.214   0.508   1.886
 5690SOL     OW17968   0.529   5.239   6.612
 5690SOL    HW117969   0.507   5.146   6.642
 5690SOL    HW217970   0.516   5.302   6.689
 5691SOL     OW17971   3.217   0.823   2.188
 5691SOL    HW117972   3.260   0.733   2.178
 5691SOL    HW217973   3.263   0.875   2.260
 5692SOL     OW17974   4.771   5.207   0.711
 5692SOL    HW117975   4.870   5.218   0.721
 5692SOL    HW217976   4.725   5.241   0.794
 5693SOL     OW17977   4.037   0.724   1.098
 5693SOL    HW117978   3.967   0.767   1.041
 5693SOL    HW217979   4.007   0.724   1.193
 5694SOL     OW17980   0.468   0.102   2.465
 5694SOL    HW117981   0.427   0.094   2.556
 5694SOL    HW217982   0.484   0.011   2.428
 5695SOL     OW17983   1.232   0.752   2.274
 5695SOL    HW117984   1.187   0.725   2.359
 5695SOL    HW217985   1.202   0.844   2.248
 5696SOL     OW17986   1.498   0.894   4.285
 5696SOL    HW117987   1.537   0.852   4.204
 5696SOL    HW217988   1.418   0.842   4.315
 5697SOL     OW17989   6.404   2.078   1.510
 5697SOL    HW117990   6.409   2.034   1.420
 5697SOL    HW217991   6.465   2.030   1.574
 5698SOL     OW17992   1.801   3.511   3.564
 5698SOL    HW117993   1.870   3.552   3.505
 5698SOL    HW217994   1.749   3.583   3.611
 5699SOL     OW17995   2.591   1.827   3.161
 5699SOL    HW117996   2.553   1.918   3.144
 5699SOL    HW217997   2.522   1.757   3.142
 5700SOL     OW17998   6.710   0.310   1.834
 5700SOL    HW117999   6.699   0.409   1.845
 5700SOL    HW218000   6.770   0.291   1.756
 5701SOL     OW18001   0.091   1.618   1.045
 5701SOL    HW118002   0.085   1.717   1.057
 5701SOL    HW218003   0.052   1.572   1.124
 5702SOL     OW18004   1.975   6.397   4.442
 5702SOL    HW118005   1.910   6.358   4.376
 5702SOL    HW218006   1.954   6.493   4.456
 5703SOL     OW18007   0.079   4.116   6.403
 5703SOL    HW118008   0.096   4.201   6.353
 5703SOL    HW218009   7.012   4.084   6.383
 5704SOL     OW18010   5.405   4.467   3.591
 5704SOL    HW118011   5.352   4.422   3.520
 5704SOL    HW218012   5.374   4.562   3.600
 5705SOL     OW18013   5.871   6.214   6.525
 5705SOL    HW118014   5.798   6.205   6.457
 5705SOL    HW218015   5.905   6.308   6.526
 5706SOL     OW18016   5.531   2.677   1.043
 5706SOL    HW118017   5.559   2.658   0.949
 5706SOL    HW218018   5.605   2.648   1.105
 5707SOL     OW18019   5.126   0.047   1.336
 5707SOL    HW118020   5.103   0.142   1.356
 5707SOL    HW218021   5.051   0.005   1.284
 5708SOL     OW18022   5.102   5.800   3.410
 5708SOL    HW118023   5.180   5.757   3.364
 5708SOL    HW218024   5.128   5.891   3.441
 5709SOL     OW18025   0.940   0.929   2.372
 5709SOL    HW118026   1.028   0.970   2.393
 5709SOL    HW218027   0.886   0.991   2.314
 5710SOL     OW18028   2.985   2.633   0.831
 5710SOL    HW118029   3.032   2.706   0.882
 5710SOL    HW218030   3.051   2.564   0.802
 5711SOL     OW18031   5.191   0.571   1.979
 5711SOL    HW118032   5.140   0.501   2.029
 5711SOL    HW218033   5.168   0.566   1.882
 5712SOL     OW18034   6.302   6.042   0.957
 5712SOL    HW118035   6.268   6.133   0.934
 5712SOL    HW218036   6.399   6.035   0.931
 5713SOL     OW18037   2.627   5.384   0.596
 5713SOL    HW118038   2.628   5.331   0.511
 5713SOL    HW218039   2.628   5.482   0.574
 5714SOL     OW18040   6.766   6.472   1.832
 5714SOL    HW118041   6.796   6.390   1.881
 5714SOL    HW218042   6.845   6.528   1.810
 5715SOL     OW18043   0.500   6.375   1.248
 5715SOL    HW118044   0.550   6.349   1.331
 5715SOL    HW218045   0.548   6.341   1.168
 5716SOL     OW18046   1.007   5.048   6.446
 5716SOL    HW118047   0.970   5.056   6.353
 5716SOL    HW218048   0.942   5.088   6.511
 5717SOL     OW18049   2.313   5.197   2.511
 5717SOL    HW118050   2.251   5.145   2.571
 5717SOL    HW218051   2.259   5.252   2.447
 5718SOL     OW18052   0.841   2.625   0.293
 5718SOL    HW118053   0.929   2.648   0.335
 5718SOL    HW218054   0.822   2.689   0.219
 5719SOL     OW18055   2.775   3.260   1.005
 5719SOL    HW118056   2.837   3.244   0.929
 5719SOL    HW218057   2.769   3.177   1.061
 5720SOL     OW18058   2.068   6.006   5.423
 5720SOL    HW118059   2.086   5.908   5.433
 5720SOL    HW218060   2.110   6.055   5.499
 5721SOL     OW18061   5.518   4.391   1.092
 5721SOL    HW118062   5.538   4.320   1.024
 5721SOL    HW218063   5.601   4.441   1.113
 5722SOL     OW18064   0.548   1.310   5.078
 5722SOL    HW118065   0.578   1.402   5.052
 5722SOL    HW218066   0.448   1.306   5.081
 5723SOL     OW18067   3.877   3.231   6.912
 5723SOL    HW118068   3.975   3.251   6.916
 5723SOL    HW218069   3.864   3.132   6.921
 5724SOL     OW18070   6.418   3.034   3.513
 5724SOL    HW118071   6.515   3.013   3.510
 5724SOL    HW218072   6.376   3.016   3.424
 5725SOL     OW18073   5.936   5.265   2.762
 5725SOL    HW118074   5.839   5.274   2.742
 5725SOL    HW218075   5.956   5.311   2.849
 5726SOL     OW18076   5.322   3.975   3.446
 5726SOL    HW118077   5.389   3.901   3.445
 5726SOL    HW218078   5.230   3.937   3.440
 5727SOL     OW18079   0.218   2.596   4.556
 5727SOL    HW118080   0.246   2.500   4.560
 5727SOL    HW218081   0.298   2.653   4.539
 5728SOL     OW18082   4.827   5.822   5.543
 5728SOL    HW118083   4.792   5.764   5.469
 5728SOL    HW218084   4.911   5.783   5.579
 5729SOL     OW18085   2.252   2.109   6.228
 5729SOL    HW118086   2.174   2.096   6.167
 5729SOL    HW218087   2.279   2.206   6.226
 5730SOL     OW18088   7.010   4.234   5.708
 5730SOL    HW118089   6.936   4.231   5.775
 5730SOL    HW218090   0.060   4.176   5.738
 5731SOL     OW18091   6.823   7.017   1.498
 5731SOL    HW118092   6.891   6.966   1.447
 5731SOL    HW218093   6.759   6.953   1.541
 5732SOL     OW18094   1.157   6.315   4.282
 5732SOL    HW118095   1.065   6.279   4.270
 5732SOL    HW218096   1.166   6.355   4.373
 5733SOL     OW18097   3.934   6.746   5.227
 5733SOL    HW118098   3.997   6.668   5.218
 5733SOL    HW218099   3.911   6.780   5.136
 5734SOL     OW18100   1.793   6.178   4.761
 5734SOL    HW118101   1.877   6.169   4.708
 5734SOL    HW218102   1.729   6.106   4.735
 5735SOL     OW18103   3.227   1.934   1.488
 5735SOL    HW118104   3.147   1.991   1.505
 5735SOL    HW218105   3.228   1.858   1.553
 5736SOL     OW18106   0.571   5.000   0.383
 5736SOL    HW118107   0.616   5.086   0.409
 5736SOL    HW218108   0.637   4.925   0.389
 5737SOL     OW18109   5.436   5.958   6.344
 5737SOL    HW118110   5.446   5.860   6.356
 5737SOL    HW218111   5.425   6.002   6.434
 5738SOL     OW18112   1.769   3.343   6.726
 5738SOL    HW118113   1.869   3.342   6.730
 5738SOL    HW218114   1.739   3.421   6.670
 5739SOL     OW18115   1.539   1.249   0.734
 5739SOL    HW118116   1.528   1.216   0.828
 5739SOL    HW218117   1.548   1.171   0.672
 5740SOL     OW18118   4.424   5.767   6.906
 5740SOL    HW118119   4.512   5.780   6.950
 5740SOL    HW218120   4.350   5.782   6.972
 5741SOL     OW18121   6.341   5.560   4.865
 5741SOL    HW118122   6.389   5.639   4.828
 5741SOL    HW218123   6.361   5.479   4.809
 5742SOL     OW18124   6.350   6.466   2.422
 5742SOL    HW118125   6.320   6.377   2.388
 5742SOL    HW218126   6.287   6.498   2.493
 5743SOL     OW18127   2.581   0.158   5.041
 5743SOL    HW118128   2.602   0.062   5.058
 5743SOL    HW218129   2.486   0.166   5.010
 5744SOL     OW18130   5.580   1.558   0.139
 5744SOL    HW118131   5.517   1.505   0.083
 5744SOL    HW218132   5.563   1.539   0.236
 5745SOL     OW18133   1.873   1.841   4.399
 5745SOL    HW118134   1.957   1.797   4.367
 5745SOL    HW218135   1.795   1.808   4.346
 5746SOL     OW18136   4.972   1.860   7.020
 5746SOL    HW118137   5.009   1.901   0.078
 5746SOL    HW218138   4.904   1.922   6.981
 5747SOL     OW18139   0.178   5.535   2.999
 5747SOL    HW118140   0.095   5.590   2.996
 5747SOL    HW218141   0.176   5.468   2.925
 5748SOL     OW18142   2.194   5.013   1.914
 5748SOL    HW118143   2.131   4.945   1.877
 5748SOL    HW218144   2.190   5.097   1.859
 5749SOL     OW18145   2.204   2.034   3.396
 5749SOL    HW118146   2.192   2.129   3.366
 5749SOL    HW218147   2.261   2.032   3.479
 5750SOL     OW18148   6.339   4.962   4.451
 5750SOL    HW118149   6.240   4.948   4.457
 5750SOL    HW218150   6.370   4.938   4.359
 5751SOL     OW18151   2.009   3.412   5.389
 5751SOL    HW118152   1.993   3.331   5.332
 5751SOL    HW218153   2.096   3.453   5.364
 5752SOL     OW18154   6.583   6.440   5.983
 5752SOL    HW118155   6.614   6.535   5.983
 5752SOL    HW218156   6.625   6.392   6.060
 5753SOL     OW18157   3.468   3.137   6.946
 5753SOL    HW118158   3.512   3.056   6.985
 5753SOL    HW218159   3.439   3.198   7.019
 5754SOL     OW18160   5.600   5.534   1.981
 5754SOL    HW118161   5.653   5.492   2.053
 5754SOL    HW218162   5.620   5.489   1.894
 5755SOL     OW18163   3.496   3.853   6.870
 5755SOL    HW118164   3.510   3.834   6.967
 5755SOL    HW218165   3.470   3.769   6.823
 5756SOL     OW18166   6.692   5.049   3.413
 5756SOL    HW118167   6.663   5.111   3.486
 5756SOL    HW218168   6.772   4.997   3.443
 5757SOL     OW18169   6.263   5.498   1.160
 5757SOL    HW118170   6.200   5.431   1.120
 5757SOL    HW218171   6.220   5.588   1.160
 5758SOL     OW18172   1.914   2.147   5.049
 5758SOL    HW118173   1.943   2.242   5.038
 5758SOL    HW218174   1.991   2.093   5.083
 5759SOL     OW18175   5.199   1.415   6.144
 5759SOL    HW118176   5.167   1.507   6.122
 5759SOL    HW218177   5.120   1.354   6.156
 5760SOL     OW18178   1.390   4.998   2.386
 5760SOL    HW118179   1.479   4.958   2.404
 5760SOL    HW218180   1.326   4.972   2.459
 5761SOL     OW18181   4.543   6.402   5.001
 5761SOL    HW118182   4.445   6.418   5.012
 5761SOL    HW218183   4.558   6.304   4.984
 5762SOL     OW18184   5.678   6.550   1.504
 5762SOL    HW118185   5.753   6.581   1.563
 5762SOL    HW218186   5.618   6.627   1.484
 5763SOL     OW18187   1.609   0.613   0.919
 5763SOL    HW118188   1.658   0.614   1.007
 5763SOL    HW218189   1.631   0.529   0.870
 5764SOL     OW18190   5.833   4.205   5.399
 5764SOL    HW118191   5.744   4.250   5.407
 5764SOL    HW218192   5.899   4.269   5.360
 5765SOL     OW18193   6.132   4.382   0.076
 5765SOL    HW118194   6.037   4.350   0.068
 5765SOL    HW218195   6.133   4.481   0.088
 5766SOL     OW18196   3.168   1.864   1.967
 5766SOL    HW118197   3.244   1.865   2.032
 5766SOL    HW218198   3.148   1.957   1.938
 5767SOL     OW18199   0.230   6.673   0.946
 5767SOL    HW118200   0.139   6.644   0.918
 5767SOL    HW218201   0.290   6.593   0.952
 5768SOL     OW18202   6.528   1.106   3.084
 5768SOL    HW118203   6.496   1.200   3.076
 5768SOL    HW218204   6.458   1.044   3.047
 5769SOL     OW18205   2.689   6.329   4.015
 5769SOL    HW118206   2.736   6.411   4.049
 5769SOL    HW218207   2.658   6.345   3.921
 5770SOL     OW18208   6.372   0.444   1.332
 5770SOL    HW118209   6.311   0.506   1.283
 5770SOL    HW218210   6.355   0.350   1.302
 5771SOL     OW18211   1.409   0.458   1.416
 5771SOL    HW118212   1.343   0.465   1.490
 5771SOL    HW218213   1.466   0.376   1.429
 5772SOL     OW18214   6.080   3.210   0.888
 5772SOL    HW118215   5.996   3.262   0.872
 5772SOL    HW218216   6.079   3.173   0.981
 5773SOL     OW18217   5.453   6.481   4.155
 5773SOL    HW118218   5.375   6.461   4.096
 5773SOL    HW218219   5.527   6.520   4.101
 5774SOL     OW18220   2.007   5.118   3.880
 5774SOL    HW118221   1.973   5.120   3.974
 5774SOL    HW218222   2.068   5.196   3.865
 5775SOL     OW18223   0.133   6.751   6.043
 5775SOL    HW118224   0.148   6.756   6.142
 5775SOL    HW218225   0.208   6.701   6.000
 5776SOL     OW18226   4.656   0.117   5.757
 5776SOL    HW118227   4.584   0.176   5.793
 5776SOL    HW218228   4.700   0.161   5.679
 5777SOL     OW18229   0.173   1.308   4.255
 5777SOL    HW118230   0.271   1.306   4.275
 5777SOL    HW218231   0.155   1.257   4.171
 5778SOL     OW18232   1.280   6.892   3.269
 5778SOL    HW118233   1.264   6.907   3.171
 5778SOL    HW218234   1.275   6.979   3.317
 5779SOL     OW18235   3.959   1.100   1.690
 5779SOL    HW118236   3.872   1.056   1.713
 5779SOL    HW218237   3.982   1.168   1.760
 5780SOL     OW18238   7.023   4.066   1.308
 5780SOL    HW118239   6.928   4.056   1.279
 5780SOL    HW218240   0.058   4.025   1.240
 5781SOL     OW18241   2.154   5.054   5.142
 5781SOL    HW118242   2.089   5.057   5.066
 5781SOL    HW218243   2.205   4.968   5.139
 5782SOL     OW18244   2.550   1.157   1.794
 5782SOL    HW118245   2.460   1.176   1.755
 5782SOL    HW218246   2.550   1.066   1.835
 5783SOL     OW18247   1.461   0.374   1.130
 5783SOL    HW118248   1.421   0.332   1.211
 5783SOL    HW218249   1.388   0.412   1.073
 5784SOL     OW18250   0.622   6.125   0.365
 5784SOL    HW118251   0.543   6.176   0.331
 5784SOL    HW218252   0.651   6.060   0.294
 5785SOL     OW18253   2.043   1.846   0.088
 5785SOL    HW118254   1.995   1.766   0.126
 5785SOL    HW218255   2.130   1.816   0.049
 5786SOL     OW18256   1.616   3.724   1.804
 5786SOL    HW118257   1.595   3.769   1.717
 5786SOL    HW218258   1.674   3.644   1.787
 5787SOL     OW18259   5.811   2.471   5.002
 5787SOL    HW118260   5.844   2.527   4.926
 5787SOL    HW218261   5.811   2.375   4.974
 5788SOL     OW18262   2.867   1.229   2.114
 5788SOL    HW118263   2.890   1.258   2.021
 5788SOL    HW218264   2.767   1.230   2.125
 5789SOL     OW18265   4.370   4.164   6.765
 5789SOL    HW118266   4.441   4.231   6.743
 5789SOL    HW218267   4.289   4.181   6.708
 5790SOL     OW18268   5.507   5.718   4.351
 5790SOL    HW118269   5.560   5.708   4.267
 5790SOL    HW218270   5.530   5.804   4.395
 5791SOL     OW18271   3.962   1.079   2.717
 5791SOL    HW118272   3.935   1.145   2.647
 5791SOL    HW218273   3.922   1.106   2.805
 5792SOL     OW18274   5.323   3.753   3.101
 5792SOL    HW118275   5.249   3.779   3.038
 5792SOL    HW218276   5.354   3.835   3.151
 5793SOL     OW18277   5.057   2.487   5.290
 5793SOL    HW118278   5.052   2.559   5.221
 5793SOL    HW218279   4.991   2.507   5.363
 5794SOL     OW18280   3.648   6.675   6.178
 5794SOL    HW118281   3.592   6.654   6.097
 5794SOL    HW218282   3.702   6.758   6.161
 5795SOL     OW18283   1.454   5.759   1.658
 5795SOL    HW118284   1.501   5.842   1.626
 5795SOL    HW218285   1.499   5.725   1.740
 5796SOL     OW18286   4.308   2.118   0.065
 5796SOL    HW118287   4.269   2.026   0.052
 5796SOL    HW218288   4.331   2.131   0.161
 5797SOL     OW18289   5.099   2.383   0.464
 5797SOL    HW118290   5.062   2.475   0.447
 5797SOL    HW218291   5.101   2.365   0.562
 5798SOL     OW18292   1.661   4.183   5.705
 5798SOL    HW118293   1.586   4.218   5.761
 5798SOL    HW218294   1.629   4.105   5.652
 5799SOL     OW18295   1.584   6.703   2.985
 5799SOL    HW118296   1.620   6.785   2.939
 5799SOL    HW218297   1.604   6.708   3.082
 5800SOL     OW18298   0.616   6.382   0.724
 5800SOL    HW118299   0.665   6.301   0.691
 5800SOL    HW218300   0.658   6.414   0.809
 5801SOL     OW18301   1.945   1.835   2.595
 5801SOL    HW118302   2.029   1.834   2.649
 5801SOL    HW218303   1.900   1.924   2.604
 5802SOL     OW18304   6.966   1.221   2.135
 5802SOL    HW118305   6.895   1.286   2.108
 5802SOL    HW218306   6.923   1.137   2.168
 5803SOL     OW18307   0.773   5.095   3.696
 5803SOL    HW118308   0.720   5.168   3.651
 5803SOL    HW218309   0.772   5.013   3.639
 5804SOL     OW18310   6.448   0.668   3.626
 5804SOL    HW118311   6.390   0.593   3.592
 5804SOL    HW218312   6.482   0.721   3.548
 5805SOL     OW18313   2.231   2.880   1.272
 5805SOL    HW118314   2.140   2.863   1.235
 5805SOL    HW218315   2.284   2.934   1.206
 5806SOL     OW18316   0.332   3.452   2.891
 5806SOL    HW118317   0.409   3.512   2.868
 5806SOL    HW218318   0.278   3.435   2.809
 5807SOL     OW18319   0.997   6.993   0.913
 5807SOL    HW118320   0.912   7.014   0.865
 5807SOL    HW218321   0.979   6.987   1.011
 5808SOL     OW18322   6.059   0.387   5.034
 5808SOL    HW118323   5.975   0.355   4.988
 5808SOL    HW218324   6.138   0.346   4.990
 5809SOL     OW18325   0.427   2.210   5.782
 5809SOL    HW118326   0.462   2.264   5.859
 5809SOL    HW218327   0.384   2.127   5.816
 5810SOL     OW18328   4.046   0.184   5.220
 5810SOL    HW118329   4.061   0.092   5.256
 5810SOL    HW218330   4.132   0.222   5.186
 5811SOL     OW18331   3.199   3.650   5.972
 5811SOL    HW118332   3.259   3.717   5.929
 5811SOL    HW218333   3.212   3.651   6.071
 5812SOL     OW18334   5.571   2.618   0.783
 5812SOL    HW118335   5.498   2.561   0.746
 5812SOL    HW218336   5.586   2.697   0.724
 5813SOL     OW18337   4.625   6.424   1.357
 5813SOL    HW118338   4.595   6.367   1.433
 5813SOL    HW218339   4.722   6.444   1.366
 5814SOL     OW18340   5.505   1.845   1.912
 5814SOL    HW118341   5.568   1.888   1.977
 5814SOL    HW218342   5.415   1.835   1.955
 5815SOL     OW18343   6.520   1.958   3.980
 5815SOL    HW118344   6.606   2.006   3.996
 5815SOL    HW218345   6.529   1.896   3.902
 5816SOL     OW18346   6.836   4.406   2.870
 5816SOL    HW118347   6.777   4.451   2.803
 5816SOL    HW218348   6.786   4.393   2.956
 5817SOL     OW18349   5.904   4.281   3.382
 5817SOL    HW118350   5.859   4.247   3.464
 5817SOL    HW218351   5.907   4.208   3.313
 5818SOL     OW18352   1.945   0.409   5.621
 5818SOL    HW118353   1.874   0.477   5.601
 5818SOL    HW218354   1.916   0.351   5.697
 5819SOL     OW18355   4.157   5.004   0.349
 5819SOL    HW118356   4.234   4.978   0.407
 5819SOL    HW218357   4.180   5.087   0.299
 5820SOL     OW18358   6.308   5.118   2.164
 5820SOL    HW118359   6.321   5.153   2.257
 5820SOL    HW218360   6.211   5.100   2.148
 5821SOL     OW18361   6.396   0.917   1.245
 5821SOL    HW118362   6.430   0.900   1.152
 5821SOL    HW218363   6.462   0.883   1.311
 5822SOL     OW18364   1.717   2.938   2.489
 5822SOL    HW118365   1.812   2.967   2.482
 5822SOL    HW218366   1.681   2.918   2.398
 5823SOL     OW18367   1.935   6.663   4.159
 5823SOL    HW118368   1.905   6.679   4.065
 5823SOL    HW218369   1.949   6.750   4.205
 5824SOL     OW18370   0.516   6.937   1.785
 5824SOL    HW118371   0.539   6.879   1.707
 5824SOL    HW218372   0.483   7.025   1.752
 5825SOL     OW18373   5.913   0.468   4.265
 5825SOL    HW118374   5.876   0.389   4.314
 5825SOL    HW218375   5.894   0.552   4.317
 5826SOL     OW18376   0.647   6.827   4.665
 5826SOL    HW118377   0.733   6.874   4.684
 5826SOL    HW218378   0.572   6.893   4.667
 5827SOL     OW18379   2.130   4.629   5.393
 5827SOL    HW118380   2.053   4.633   5.456
 5827SOL    HW218381   2.150   4.533   5.371
 5828SOL     OW18382   4.280   6.619   4.373
 5828SOL    HW118383   4.184   6.603   4.400
 5828SOL    HW218384   4.319   6.533   4.340
 5829SOL     OW18385   2.813   1.074   3.864
 5829SOL    HW118386   2.900   1.101   3.824
 5829SOL    HW218387   2.752   1.154   3.867
 5830SOL     OW18388   3.608   5.552   4.664
 5830SOL    HW118389   3.592   5.463   4.620
 5830SOL    HW218390   3.628   5.621   4.594
 5831SOL     OW18391   1.599   1.649   5.306
 5831SOL    HW118392   1.642   1.681   5.390
 5831SOL    HW218393   1.564   1.727   5.254
 5832SOL     OW18394   2.408   5.152   1.106
 5832SOL    HW118395   2.338   5.085   1.080
 5832SOL    HW218396   2.433   5.206   1.025
 5833SOL     OW18397   4.488   3.643   6.630
 5833SOL    HW118398   4.456   3.733   6.658
 5833SOL    HW218399   4.587   3.645   6.619
 5834SOL     OW18400   5.466   3.922   6.722
 5834SOL    HW118401   5.508   3.839   6.758
 5834SOL    HW218402   5.520   3.958   6.646
 5835SOL     OW18403   5.616   0.972   2.263
 5835SOL    HW118404   5.523   0.953   2.294
 5835SOL    HW218405   5.681   0.918   2.318
 5836SOL     OW18406   3.979   7.014   2.215
 5836SOL    HW118407   4.008   6.919   2.228
 5836SOL    HW218408   4.006   0.042   2.295
 5837SOL     OW18409   3.170   4.451   6.802
 5837SOL    HW118410   3.119   4.395   6.866
 5837SOL    HW218411   3.244   4.397   6.761
 5838SOL     OW18412   3.625   1.941   0.241
 5838SOL    HW118413   3.580   1.857   0.210
 5838SOL    HW218414   3.607   2.015   0.177
 5839SOL     OW18415   1.493   1.994   0.762
 5839SOL    HW118416   1.552   1.926   0.807
 5839SOL    HW218417   1.550   2.055   0.707
 5840SOL     OW18418   1.286   3.286   3.111
 5840SOL    HW118419   1.214   3.338   3.157
 5840SOL    HW218420   1.338   3.347   3.051
 5841SOL     OW18421   5.074   2.331   0.738
 5841SOL    HW118422   5.130   2.264   0.787
 5841SOL    HW218423   4.977   2.306   0.746
 5842SOL     OW18424   2.811   1.625   0.734
 5842SOL    HW118425   2.864   1.704   0.703
 5842SOL    HW218426   2.732   1.613   0.673
 5843SOL     OW18427   1.915   3.226   1.424
 5843SOL    HW118428   1.998   3.186   1.463
 5843SOL    HW218429   1.939   3.305   1.368
 5844SOL     OW18430   0.831   0.535   4.907
 5844SOL    HW118431   0.905   0.571   4.850
 5844SOL    HW218432   0.813   0.440   4.880
 5845SOL     OW18433   1.194   6.177   1.767
 5845SOL    HW118434   1.095   6.168   1.753
 5845SOL    HW218435   1.241   6.159   1.681
 5846SOL     OW18436   6.454   4.347   5.944
 5846SOL    HW118437   6.529   4.304   5.893
 5846SOL    HW218438   6.399   4.277   5.987
 5847SOL     OW18439   2.827   3.347   0.692
 5847SOL    HW118440   2.732   3.374   0.702
 5847SOL    HW218441   2.832   3.247   0.684
 5848SOL     OW18442   2.619   5.198   2.948
 5848SOL    HW118443   2.682   5.228   2.877
 5848SOL    HW218444   2.556   5.272   2.971
 5849SOL     OW18445   2.770   6.253   5.406
 5849SOL    HW118446   2.680   6.226   5.372
 5849SOL    HW218447   2.764   6.344   5.447
 5850SOL     OW18448   0.824   1.853   2.121
 5850SOL    HW118449   0.746   1.815   2.170
 5850SOL    HW218450   0.797   1.878   2.028
 5851SOL     OW18451   6.324   3.598   4.751
 5851SOL    HW118452   6.389   3.670   4.778
 5851SOL    HW218453   6.290   3.552   4.833
 5852SOL     OW18454   5.191   4.850   3.000
 5852SOL    HW118455   5.202   4.904   2.916
 5852SOL    HW218456   5.252   4.771   2.998
 5853SOL     OW18457   3.617   4.595   5.410
 5853SOL    HW118458   3.548   4.633   5.349
 5853SOL    HW218459   3.707   4.602   5.366
 5854SOL     OW18460   2.948   5.108   6.145
 5854SOL    HW118461   2.855   5.104   6.182
 5854SOL    HW218462   3.012   5.124   6.220
 5855SOL     OW18463   2.253   2.974   3.831
 5855SOL    HW118464   2.193   2.923   3.769
 5855SOL    HW218465   2.300   2.910   3.892
 5856SOL     OW18466   1.553   6.631   3.505
 5856SOL    HW118467   1.503   6.661   3.587
 5856SOL    HW218468   1.565   6.532   3.508
 5857SOL     OW18469   6.614   4.122   6.411
 5857SOL    HW118470   6.700   4.080   6.380
 5857SOL    HW218471   6.601   4.209   6.363
 5858SOL     OW18472   2.267   0.677   3.780
 5858SOL    HW118473   2.218   0.764   3.778
 5858SOL    HW218474   2.227   0.618   3.850
 5859SOL     OW18475   5.861   0.078   2.239
 5859SOL    HW118476   5.911   0.127   2.310
 5859SOL    HW218477   5.888   0.113   2.149
 5860SOL     OW18478   0.170   2.818   3.845
 5860SOL    HW118479   0.141   2.789   3.754
 5860SOL    HW218480   0.269   2.810   3.853
 5861SOL     OW18481   4.699   0.887   5.006
 5861SOL    HW118482   4.732   0.971   5.048
 5861SOL    HW218483   4.642   0.837   5.072
 5862SOL     OW18484   6.463   5.040   3.265
 5862SOL    HW118485   6.397   4.965   3.261
 5862SOL    HW218486   6.522   5.029   3.345
 5863SOL     OW18487   3.875   0.065   5.521
 5863SOL    HW118488   3.784   0.106   5.513
 5863SOL    HW218489   3.908   0.038   5.430
 5864SOL     OW18490   2.896   3.716   2.325
 5864SOL    HW118491   2.899   3.635   2.267
 5864SOL    HW218492   2.914   3.798   2.271
 5865SOL     OW18493   6.236   0.905   5.702
 5865SOL    HW118494   6.270   0.880   5.792
 5865SOL    HW218495   6.238   0.825   5.642
 5866SOL     OW18496   3.736   3.303   2.750
 5866SOL    HW118497   3.778   3.212   2.742
 5866SOL    HW218498   3.641   3.292   2.778
 5867SOL     OW18499   2.984   2.053   1.620
 5867SOL    HW118500   2.960   2.147   1.646
 5867SOL    HW218501   2.944   1.989   1.685
 5868SOL     OW18502   1.155   1.059   6.588
 5868SOL    HW118503   1.061   1.025   6.587
 5868SOL    HW218504   1.212   1.000   6.531
 5869SOL     OW18505   1.348   5.251   4.038
 5869SOL    HW118506   1.373   5.336   3.992
 5869SOL    HW218507   1.403   5.176   4.001
 5870SOL     OW18508   4.454   4.635   4.777
 5870SOL    HW118509   4.514   4.558   4.758
 5870SOL    HW218510   4.390   4.610   4.850
 5871SOL     OW18511   3.288   3.386   3.393
 5871SOL    HW118512   3.280   3.484   3.377
 5871SOL    HW218513   3.207   3.339   3.359
 5872SOL     OW18514   3.660   5.879   2.153
 5872SOL    HW118515   3.577   5.856   2.203
 5872SOL    HW218516   3.723   5.929   2.213
 5873SOL     OW18517   4.376   4.546   2.256
 5873SOL    HW118518   4.374   4.475   2.186
 5873SOL    HW218519   4.284   4.580   2.272
 5874SOL     OW18520   3.181   5.084   5.709
 5874SOL    HW118521   3.205   5.008   5.769
 5874SOL    HW218522   3.264   5.129   5.677
 5875SOL     OW18523   2.580   1.081   0.653
 5875SOL    HW118524   2.610   1.090   0.747
 5875SOL    HW218525   2.481   1.095   0.648
 5876SOL     OW18526   3.713   3.585   2.042
 5876SOL    HW118527   3.763   3.512   2.088
 5876SOL    HW218528   3.762   3.613   1.960
 5877SOL     OW18529   5.696   4.604   1.233
 5877SOL    HW118530   5.748   4.518   1.234
 5877SOL    HW218531   5.663   4.624   1.325
 5878SOL     OW18532   2.493   4.791   2.172
 5878SOL    HW118533   2.474   4.839   2.257
 5878SOL    HW218534   2.473   4.851   2.094
 5879SOL     OW18535   6.997   3.983   6.684
 5879SOL    HW118536   0.016   4.062   6.642
 5879SOL    HW218537   6.922   3.953   6.625
 5880SOL     OW18538   2.611   6.018   1.012
 5880SOL    HW118539   2.554   6.049   1.087
 5880SOL    HW218540   2.698   6.066   1.014
 5881SOL     OW18541   0.348   5.214   4.212
 5881SOL    HW118542   0.382   5.265   4.133
 5881SOL    HW218543   0.360   5.116   4.196
 5882SOL     OW18544   4.669   0.725   1.623
 5882SOL    HW118545   4.730   0.799   1.594
 5882SOL    HW218546   4.648   0.735   1.720
 5883SOL     OW18547   6.975   2.871   0.051
 5883SOL    HW118548   6.977   2.771   0.054
 5883SOL    HW218549   7.015   2.902   6.990
 5884SOL     OW18550   0.852   1.446   2.656
 5884SOL    HW118551   0.803   1.478   2.575
 5884SOL    HW218552   0.838   1.511   2.731
 5885SOL     OW18553   6.197   6.266   1.191
 5885SOL    HW118554   6.234   6.304   1.106
 5885SOL    HW218555   6.239   6.177   1.208
 5886SOL     OW18556   0.695   1.869   5.423
 5886SOL    HW118557   0.722   1.856   5.519
 5886SOL    HW218558   0.719   1.962   5.394
 5887SOL     OW18559   3.240   0.956   4.150
 5887SOL    HW118560   3.146   0.990   4.151
 5887SOL    HW218561   3.303   1.033   4.154
 5888SOL     OW18562   1.999   6.285   3.539
 5888SOL    HW118563   2.015   6.379   3.566
 5888SOL    HW218564   1.904   6.259   3.560
 5889SOL     OW18565   2.122   0.162   1.210
 5889SOL    HW118566   2.059   0.200   1.142
 5889SOL    HW218567   2.152   0.071   1.181
 5890SOL     OW18568   2.257   5.440   5.494
 5890SOL    HW118569   2.355   5.455   5.481
 5890SOL    HW218570   2.244   5.368   5.562
 5891SOL     OW18571   3.528   2.823   0.328
 5891SOL    HW118572   3.440   2.796   0.368
 5891SOL    HW218573   3.600   2.764   0.364
 5892SOL     OW18574   0.351   6.035   1.358
 5892SOL    HW118575   0.432   6.010   1.411
 5892SOL    HW218576   0.299   6.105   1.409
 5893SOL     OW18577   1.066   1.601   3.937
 5893SOL    HW118578   1.007   1.677   3.964
 5893SOL    HW218579   1.030   1.559   3.854
 5894SOL     OW18580   1.366   3.725   3.030
 5894SOL    HW118581   1.452   3.676   3.019
 5894SOL    HW218582   1.290   3.663   3.011
 5895SOL     OW18583   5.630   3.496   4.211
 5895SOL    HW118584   5.624   3.504   4.111
 5895SOL    HW218585   5.586   3.412   4.241
 5896SOL     OW18586   3.793   1.829   0.473
 5896SOL    HW118587   3.768   1.746   0.523
 5896SOL    HW218588   3.759   1.824   0.380
 5897SOL     OW18589   3.592   0.408   0.830
 5897SOL    HW118590   3.680   0.448   0.803
 5897SOL    HW218591   3.550   0.466   0.900
 5898SOL     OW18592   1.821   0.093   2.632
 5898SOL    HW118593   1.896   0.028   2.634
 5898SOL    HW218594   1.797   0.121   2.725
 5899SOL     OW18595   5.912   6.506   4.586
 5899SOL    HW118596   5.929   6.553   4.500
 5899SOL    HW218597   5.844   6.434   4.572
 5900SOL     OW18598   4.834   4.557   3.196
 5900SOL    HW118599   4.833   4.657   3.200
 5900SOL    HW218600   4.748   4.521   3.231
 5901SOL     OW18601   2.557   6.836   6.797
 5901SOL    HW118602   2.564   6.789   6.885
 5901SOL    HW218603   2.538   6.769   6.725
 5902SOL     OW18604   6.770   2.505   0.206
 5902SOL    HW118605   6.712   2.547   0.137
 5902SOL    HW218606   6.796   2.573   0.275
 5903SOL     OW18607   5.759   3.864   6.968
 5903SOL    HW118608   5.728   3.856   0.037
 5903SOL    HW218609   5.853   3.899   6.967
 5904SOL     OW18610   0.137   3.589   2.257
 5904SOL    HW118611   0.137   3.612   2.159
 5904SOL    HW218612   0.063   3.524   2.275
 5905SOL     OW18613   6.956   6.518   2.415
 5905SOL    HW118614   6.911   6.530   2.503
 5905SOL    HW218615   6.922   6.435   2.371
 5906SOL     OW18616   5.758   1.127   3.784
 5906SOL    HW118617   5.839   1.161   3.735
 5906SOL    HW218618   5.778   1.124   3.882
 5907SOL     OW18619   0.331   6.014   1.711
 5907SOL    HW118620   0.360   6.088   1.772
 5907SOL    HW218621   0.302   6.052   1.624
 5908SOL     OW18622   0.615   2.616   4.997
 5908SOL    HW118623   0.592   2.630   4.901
 5908SOL    HW218624   0.696   2.557   5.003
 5909SOL     OW18625   0.245   6.072   0.601
 5909SOL    HW118626   0.281   5.989   0.642
 5909SOL    HW218627   0.148   6.060   0.579
 5910SOL     OW18628   1.564   2.065   3.468
 5910SOL    HW118629   1.528   2.052   3.376
 5910SOL    HW218630   1.542   1.986   3.525
 5911SOL     OW18631   6.555   5.430   6.693
 5911SOL    HW118632   6.587   5.517   6.658
 5911SOL    HW218633   6.488   5.391   6.630
 5912SOL     OW18634   6.386   1.773   4.683
 5912SOL    HW118635   6.416   1.782   4.778
 5912SOL    HW218636   6.442   1.703   4.638
 5913SOL     OW18637   5.686   2.642   0.387
 5913SOL    HW118638   5.595   2.601   0.374
 5913SOL    HW218639   5.683   2.705   0.465
 5914SOL     OW18640   0.829   6.397   6.334
 5914SOL    HW118641   0.914   6.378   6.383
 5914SOL    HW218642   0.848   6.459   6.259
 5915SOL     OW18643   3.714   0.222   6.720
 5915SOL    HW118644   3.665   0.189   6.639
 5915SOL    HW218645   3.691   0.318   6.735
 5916SOL     OW18646   1.835   6.749   2.451
 5916SOL    HW118647   1.911   6.714   2.506
 5916SOL    HW218648   1.871   6.815   2.384
 5917SOL     OW18649   3.094   4.220   6.936
 5917SOL    HW118650   3.037   4.150   6.894
 5917SOL    HW218651   3.182   4.180   6.961
 5918SOL     OW18652   3.099   6.749   6.081
 5918SOL    HW118653   3.131   6.756   5.987
 5918SOL    HW218654   3.040   6.668   6.091
 5919SOL     OW18655   3.662   2.921   3.291
 5919SOL    HW118656   3.671   2.876   3.202
 5919SOL    HW218657   3.737   2.986   3.303
 5920SOL     OW18658   6.731   0.004   6.035
 5920SOL    HW118659   6.794   6.990   6.102
 5920SOL    HW218660   6.748   6.989   5.946
 5921SOL     OW18661   3.447   4.552   6.574
 5921SOL    HW118662   3.383   4.515   6.507
 5921SOL    HW218663   3.444   4.496   6.657
 5922SOL     OW18664   5.917   3.611   2.988
 5922SOL    HW118665   5.907   3.533   2.926
 5922SOL    HW218666   5.993   3.594   3.051
 5923SOL     OW18667   6.490   1.186   1.221
 5923SOL    HW118668   6.445   1.098   1.207
 5923SOL    HW218669   6.586   1.171   1.244
 5924SOL     OW18670   5.915   0.083   2.748
 5924SOL    HW118671   5.817   0.099   2.761
 5924SOL    HW218672   5.965   0.122   2.825
 5925SOL     OW18673   4.675   5.433   1.113
 5925SOL    HW118674   4.718   5.520   1.136
 5925SOL    HW218675   4.624   5.400   1.193
 5926SOL     OW18676   4.026   4.742   2.642
 5926SOL    HW118677   4.069   4.832   2.632
 5926SOL    HW218678   4.057   4.682   2.569
 5927SOL     OW18679   1.280   3.900   1.497
 5927SOL    HW118680   1.202   3.861   1.449
 5927SOL    HW218681   1.260   3.994   1.524
 5928SOL     OW18682   3.839   0.495   1.062
 5928SOL    HW118683   3.742   0.497   1.087
 5928SOL    HW218684   3.860   0.407   1.020
 5929SOL     OW18685   0.053   1.033   5.836
 5929SOL    HW118686   0.050   0.989   5.926
 5929SOL    HW218687   6.986   1.037   5.798
 5930SOL     OW18688   1.753   3.597   2.022
 5930SOL    HW118689   1.718   3.686   1.995
 5930SOL    HW218690   1.853   3.596   2.014
 5931SOL     OW18691   5.871   6.035   2.986
 5931SOL    HW118692   5.884   6.009   2.890
 5931SOL    HW218693   5.777   6.067   3.000
 5932SOL     OW18694   2.748   0.408   6.353
 5932SOL    HW118695   2.677   0.348   6.392
 5932SOL    HW218696   2.822   0.419   6.419
 5933SOL     OW18697   6.679   5.121   4.213
 5933SOL    HW118698   6.715   5.029   4.226
 5933SOL    HW218699   6.694   5.175   4.297
 5934SOL     OW18700   3.331   3.626   5.646
 5934SOL    HW118701   3.411   3.603   5.701
 5934SOL    HW218702   3.253   3.570   5.675
 5935SOL     OW18703   0.700   6.003   4.856
 5935SOL    HW118704   0.626   6.021   4.920
 5935SOL    HW218705   0.757   5.929   4.892
 5936SOL     OW18706   3.524   3.239   3.310
 5936SOL    HW118707   3.511   3.147   3.347
 5936SOL    HW218708   3.441   3.293   3.323
 5937SOL     OW18709   0.063   3.182   1.967
 5937SOL    HW118710   0.142   3.123   1.947
 5937SOL    HW218711   0.094   3.267   2.010
 5938SOL     OW18712   6.495   4.846   5.234
 5938SOL    HW118713   6.560   4.900   5.180
 5938SOL    HW218714   6.545   4.793   5.302
 5939SOL     OW18715   3.737   6.914   4.520
 5939SOL    HW118716   3.674   6.973   4.470
 5939SOL    HW218717   3.762   6.836   4.463
 5940SOL     OW18718   4.956   5.746   2.697
 5940SOL    HW118719   4.949   5.837   2.655
 5940SOL    HW218720   4.933   5.676   2.630
 5941SOL     OW18721   6.537   1.927   1.725
 5941SOL    HW118722   6.450   1.891   1.759
 5941SOL    HW218723   6.570   1.998   1.787
 5942SOL     OW18724   6.240   3.605   6.283
 5942SOL    HW118725   6.315   3.649   6.235
 5942SOL    HW218726   6.184   3.553   6.218
 5943SOL     OW18727   4.027   3.638   0.736
 5943SOL    HW118728   4.026   3.653   0.835
 5943SOL    HW218729   3.935   3.615   0.705
 5944SOL     OW18730   0.766   3.458   6.619
 5944SOL    HW118731   0.801   3.409   6.540
 5944SOL    HW218732   0.687   3.513   6.592
 5945SOL     OW18733   0.780   5.631   5.450
 5945SOL    HW118734   0.792   5.548   5.396
 5945SOL    HW218735   0.824   5.620   5.539
 5946SOL     OW18736   3.981   4.732   0.234
 5946SOL    HW118737   3.905   4.693   0.286
 5946SOL    HW218738   3.947   4.807   0.177
 5947SOL     OW18739   3.060   3.080   4.829
 5947SOL    HW118740   3.002   3.076   4.911
 5947SOL    HW218741   3.082   2.987   4.800
 5948SOL     OW18742   5.272   3.683   2.327
 5948SOL    HW118743   5.293   3.634   2.412
 5948SOL    HW218744   5.209   3.629   2.272
 5949SOL     OW18745   6.311   5.993   1.224
 5949SOL    HW118746   6.320   5.997   1.125
 5949SOL    HW218747   6.270   5.906   1.251
 5950SOL     OW18748   5.399   2.701   5.730
 5950SOL    HW118749   5.330   2.731   5.797
 5950SOL    HW218750   5.409   2.771   5.660
 5951SOL     OW18751   0.847   4.349   5.777
 5951SOL    HW118752   0.893   4.351   5.689
 5951SOL    HW218753   0.910   4.380   5.849
 5952SOL     OW18754   3.972   5.062   1.659
 5952SOL    HW118755   3.877   5.080   1.685
 5952SOL    HW218756   4.033   5.117   1.715
 5953SOL     OW18757   5.940   2.349   5.443
 5953SOL    HW118758   6.034   2.371   5.467
 5953SOL    HW218759   5.916   2.260   5.481
 5954SOL     OW18760   0.713   5.995   4.572
 5954SOL    HW118761   0.806   5.977   4.539
 5954SOL    HW218762   0.711   5.987   4.672
 5955SOL     OW18763   5.152   4.352   1.354
 5955SOL    HW118764   5.202   4.392   1.277
 5955SOL    HW218765   5.143   4.420   1.427
 5956SOL     OW18766   4.948   2.758   4.499
 5956SOL    HW118767   4.957   2.665   4.534
 5956SOL    HW218768   4.852   2.777   4.479
 5957SOL     OW18769   0.887   1.165   2.738
 5957SOL    HW118770   0.831   1.230   2.687
 5957SOL    HW218771   0.969   1.210   2.772
 5958SOL     OW18772   4.240   6.692   2.612
 5958SOL    HW118773   4.220   6.596   2.629
 5958SOL    HW218774   4.339   6.706   2.615
 5959SOL     OW18775   4.837   2.375   5.100
 5959SOL    HW118776   4.853   2.467   5.137
 5959SOL    HW218777   4.757   2.335   5.145
 5960SOL     OW18778   3.580   6.715   5.727
 5960SOL    HW118779   3.525   6.792   5.758
 5960SOL    HW218780   3.665   6.749   5.687
 5961SOL     OW18781   3.510   1.704   2.511
 5961SOL    HW118782   3.480   1.685   2.604
 5961SOL    HW218783   3.519   1.803   2.499
 5962SOL     OW18784   5.335   6.346   0.239
 5962SOL    HW118785   5.315   6.431   0.190
 5962SOL    HW218786   5.249   6.303   0.267
 5963SOL     OW18787   3.787   4.916   6.910
 5963SOL    HW118788   3.847   4.888   6.835
 5963SOL    HW218789   3.703   4.955   6.873
 5964SOL     OW18790   2.010   6.415   2.738
 5964SOL    HW118791   1.995   6.493   2.798
 5964SOL    HW218792   2.088   6.361   2.772
 5965SOL     OW18793   1.660   6.723   0.020
 5965SOL    HW118794   1.739   6.697   6.990
 5965SOL    HW218795   1.691   6.763   0.106
 5966SOL     OW18796   2.385   0.521   5.405
 5966SOL    HW118797   2.457   0.511   5.337
 5966SOL    HW218798   2.388   0.614   5.444
 5967SOL     OW18799   2.485   1.904   4.629
 5967SOL    HW118800   2.561   1.967   4.618
 5967SOL    HW218801   2.496   1.827   4.565
 5968SOL     OW18802   5.680   2.290   0.378
 5968SOL    HW118803   5.693   2.264   0.283
 5968SOL    HW218804   5.689   2.389   0.388
 5969SOL     OW18805   5.298   0.936   6.725
 5969SOL    HW118806   5.228   0.967   6.660
 5969SOL    HW218807   5.265   0.950   6.818
 5970SOL     OW18808   0.814   2.923   0.548
 5970SOL    HW118809   0.768   2.834   0.546
 5970SOL    HW218810   0.861   2.939   0.461
 5971SOL     OW18811   6.453   6.967   3.350
 5971SOL    HW118812   6.363   6.940   3.316
 5971SOL    HW218813   6.459   6.949   3.448
 5972SOL     OW18814   5.043   5.185   0.684
 5972SOL    HW118815   5.112   5.245   0.726
 5972SOL    HW218816   5.064   5.090   0.706
 5973SOL     OW18817   1.760   3.053   2.736
 5973SOL    HW118818   1.778   3.017   2.645
 5973SOL    HW218819   1.760   3.153   2.734
 5974SOL     OW18820   3.748   0.783   6.690
 5974SOL    HW118821   3.734   0.832   6.604
 5974SOL    HW218822   3.846   0.779   6.711
 5975SOL     OW18823   5.460   4.253   0.200
 5975SOL    HW118824   5.433   4.159   0.218
 5975SOL    HW218825   5.509   4.290   0.279
 5976SOL     OW18826   3.533   3.533   5.835
 5976SOL    HW118827   3.563   3.455   5.779
 5976SOL    HW218828   3.493   3.499   5.920
 5977SOL     OW18829   0.264   5.231   0.471
 5977SOL    HW118830   0.175   5.276   0.473
 5977SOL    HW218831   0.320   5.263   0.547
 5978SOL     OW18832   3.348   5.649   6.748
 5978SOL    HW118833   3.444   5.667   6.726
 5978SOL    HW218834   3.340   5.628   6.846
 5979SOL     OW18835   6.304   0.440   1.593
 5979SOL    HW118836   6.324   0.433   1.496
 5979SOL    HW218837   6.377   0.489   1.640
 5980SOL     OW18838   3.691   2.810   1.746
 5980SOL    HW118839   3.765   2.748   1.720
 5980SOL    HW218840   3.645   2.843   1.664
 5981SOL     OW18841   4.797   2.439   0.553
 5981SOL    HW118842   4.829   2.462   0.460
 5981SOL    HW218843   4.697   2.439   0.554
 5982SOL     OW18844   6.195   1.833   2.503
 5982SOL    HW118845   6.237   1.752   2.544
 5982SOL    HW218846   6.249   1.914   2.527
 5983SOL     OW18847   6.800   0.915   4.488
 5983SOL    HW118848   6.835   0.866   4.568
 5983SOL    HW218849   6.875   0.963   4.443
 5984SOL     OW18850   6.434   6.598   3.655
 5984SOL    HW118851   6.467   6.511   3.619
 5984SOL    HW218852   6.482   6.673   3.610
 5985SOL     OW18853   6.076   2.322   3.067
 5985SOL    HW118854   6.069   2.418   3.042
 5985SOL    HW218855   6.172   2.294   3.066
 5986SOL     OW18856   4.296   3.960   5.354
 5986SOL    HW118857   4.303   3.929   5.449
 5986SOL    HW218858   4.241   3.896   5.301
 5987SOL     OW18859   6.399   0.557   4.669
 5987SOL    HW118860   6.409   0.465   4.706
 5987SOL    HW218861   6.478   0.613   4.696
 5988SOL     OW18862   2.821   1.655   0.046
 5988SOL    HW118863   2.887   1.708   7.018
 5988SOL    HW218864   2.828   1.682   0.142
 5989SOL     OW18865   0.384   6.209   6.744
 5989SOL    HW118866   0.439   6.271   6.687
 5989SOL    HW218867   0.423   6.206   6.836
 5990SOL     OW18868   3.773   4.498   1.691
 5990SOL    HW118869   3.840   4.559   1.649
 5990SOL    HW218870   3.703   4.553   1.737
 5991SOL     OW18871   5.232   5.851   1.195
 5991SOL    HW118872   5.253   5.834   1.099
 5991SOL    HW218873   5.243   5.949   1.215
 5992SOL     OW18874   2.993   7.024   1.701
 5992SOL    HW118875   3.045   6.938   1.705
 5992SOL    HW218876   2.965   0.016   1.607
 5993SOL     OW18877   6.257   2.844   0.470
 5993SOL    HW118878   6.351   2.870   0.493
 5993SOL    HW218879   6.236   2.757   0.513
 5994SOL     OW18880   0.064   2.847   1.101
 5994SOL    HW118881   0.076   2.832   1.199
 5994SOL    HW218882   0.023   2.766   1.060
 5995SOL     OW18883   4.863   3.557   1.557
 5995SOL    HW118884   4.889   3.650   1.533
 5995SOL    HW218885   4.766   3.555   1.584
 5996SOL     OW18886   2.499   5.693   1.359
 5996SOL    HW118887   2.503   5.789   1.389
 5996SOL    HW218888   2.565   5.678   1.285
 5997SOL     OW18889   6.517   6.723   3.251
 5997SOL    HW118890   6.611   6.703   3.223
 5997SOL    HW218891   6.513   6.813   3.294
 5998SOL     OW18892   6.202   0.500   2.071
 5998SOL    HW118893   6.132   0.479   2.003
 5998SOL    HW218894   6.172   0.579   2.126
 5999SOL     OW18895   3.750   4.176   1.038
 5999SOL    HW118896   3.671   4.207   1.091
 5999SOL    HW218897   3.828   4.163   1.099
 6000SOL     OW18898   0.024   5.633   0.417
 6000SOL    HW118899   0.104   5.683   0.451
 6000SOL    HW218900   6.976   5.698   0.397
 6001SOL     OW18901   5.149   6.147   5.397
 6001SOL    HW118902   5.130   6.063   5.347
 6001SOL    HW218903   5.161   6.222   5.332
 6002SOL     OW18904   0.121   6.933   5.033
 6002SOL    HW118905   0.190   6.883   5.085
 6002SOL    HW218906   0.100   6.884   4.949
 6003SOL     OW18907   6.373   2.877   4.523
 6003SOL    HW118908   6.330   2.869   4.433
 6003SOL    HW218909   6.463   2.918   4.513
 6004SOL     OW18910   4.990   2.255   3.673
 6004SOL    HW118911   5.072   2.306   3.698
 6004SOL    HW218912   5.012   2.189   3.601
 6005SOL     OW18913   4.666   4.348   5.532
 6005SOL    HW118914   4.576   4.310   5.510
 6005SOL    HW218915   4.655   4.438   5.574
 6006SOL     OW18916   3.483   6.951   5.565
 6006SOL    HW118917   3.543   7.010   5.512
 6006SOL    HW218918   3.487   6.858   5.529
 6007SOL     OW18919   0.665   4.491   5.657
 6007SOL    HW118920   0.650   4.439   5.573
 6007SOL    HW218921   0.723   4.438   5.719
 6008SOL     OW18922   2.374   4.445   5.375
 6008SOL    HW118923   2.350   4.541   5.384
 6008SOL    HW218924   2.332   4.407   5.292
 6009SOL     OW18925   4.453   5.486   2.975
 6009SOL    HW118926   4.524   5.509   3.041
 6009SOL    HW218927   4.409   5.569   2.942
 6010SOL     OW18928   0.368   4.092   4.553
 6010SOL    HW118929   0.356   4.114   4.650
 6010SOL    HW218930   0.279   4.086   4.508
 6011SOL     OW18931   5.380   1.744   2.862
 6011SOL    HW118932   5.328   1.693   2.793
 6011SOL    HW218933   5.322   1.816   2.900
 6012SOL     OW18934   6.066   0.703   6.507
 6012SOL    HW118935   6.064   0.754   6.594
 6012SOL    HW218936   6.153   0.656   6.498
 6013SOL     OW18937   5.195   0.936   2.575
 6013SOL    HW118938   5.256   0.909   2.500
 6013SOL    HW218939   5.138   1.013   2.546
 6014SOL     OW18940   3.470   3.223   4.544
 6014SOL    HW118941   3.392   3.283   4.530
 6014SOL    HW218942   3.442   3.128   4.530
 6015SOL     OW18943   6.305   2.332   4.422
 6015SOL    HW118944   6.243   2.307   4.497
 6015SOL    HW218945   6.372   2.259   4.409
 6016SOL     OW18946   5.001   1.845   4.794
 6016SOL    HW118947   5.004   1.935   4.749
 6016SOL    HW218948   5.010   1.773   4.725
 6017SOL     OW18949   6.901   3.319   5.061
 6017SOL    HW118950   6.928   3.375   5.139
 6017SOL    HW218951   6.917   3.369   4.976
 6018SOL     OW18952   3.109   0.888   5.123
 6018SOL    HW118953   3.171   0.812   5.142
 6018SOL    HW218954   3.015   0.856   5.131
 6019SOL     OW18955   0.680   4.036   6.327
 6019SOL    HW118956   0.738   4.057   6.249
 6019SOL    HW218957   0.688   4.108   6.396
 6020SOL     OW18958   0.729   5.228   0.441
 6020SOL    HW118959   0.751   5.293   0.368
 6020SOL    HW218960   0.802   5.229   0.509
 6021SOL     OW18961   3.985   0.471   2.368
 6021SOL    HW118962   4.034   0.432   2.290
 6021SOL    HW218963   4.043   0.540   2.412
 6022SOL     OW18964   6.319   0.968   3.015
 6022SOL    HW118965   6.313   0.893   2.949
 6022SOL    HW218966   6.261   0.947   3.094
 6023SOL     OW18967   4.715   0.687   1.230
 6023SOL    HW118968   4.673   0.599   1.252
 6023SOL    HW218969   4.750   0.685   1.136
 6024SOL     OW18970   0.452   4.608   1.037
 6024SOL    HW118971   0.366   4.630   1.083
 6024SOL    HW218972   0.435   4.583   0.942
 6025SOL     OW18973   2.681   1.404   4.089
 6025SOL    HW118974   2.718   1.345   4.161
 6025SOL    HW218975   2.593   1.442   4.119
 6026SOL     OW18976   6.387   4.011   4.098
 6026SOL    HW118977   6.466   4.047   4.048
 6026SOL    HW218978   6.419   3.958   4.176
 6027SOL     OW18979   5.874   3.675   6.086
 6027SOL    HW118980   5.949   3.737   6.109
 6027SOL    HW218981   5.834   3.702   5.998
 6028SOL     OW18982   5.658   5.140   7.017
 6028SOL    HW118983   5.724   5.208   6.985
 6028SOL    HW218984   5.640   5.153   0.089
 6029SOL     OW18985   2.645   0.814   2.857
 6029SOL    HW118986   2.570   0.871   2.824
 6029SOL    HW218987   2.709   0.796   2.783
 6030SOL     OW18988   4.942   3.759   4.839
 6030SOL    HW118989   4.885   3.733   4.762
 6030SOL    HW218990   4.899   3.729   4.924
 6031SOL     OW18991   0.647   5.914   3.948
 6031SOL    HW118992   0.565   5.857   3.945
 6031SOL    HW218993   0.693   5.902   4.036
 6032SOL     OW18994   3.555   6.890   3.922
 6032SOL    HW118995   3.517   6.802   3.951
 6032SOL    HW218996   3.482   6.948   3.887
 6033SOL     OW18997   2.386   2.516   2.516
 6033SOL    HW118998   2.457   2.474   2.459
 6033SOL    HW218999   2.305   2.536   2.461
 6034SOL     OW19000   1.201   0.283   6.735
 6034SOL    HW119001   1.177   0.216   6.665
 6034SOL    HW219002   1.249   0.238   6.810
 6035SOL     OW19003   1.082   0.946   2.791
 6035SOL    HW119004   1.033   1.018   2.742
 6035SOL    HW219005   1.025   0.863   2.794
 6036SOL     OW19006   5.836   4.354   1.201
 6036SOL    HW119007   5.883   4.368   1.113
 6036SOL    HW219008   5.805   4.260   1.208
 6037SOL     OW19009   4.218   1.489   1.106
 6037SOL    HW119010   4.305   1.442   1.116
 6037SOL    HW219011   4.231   1.587   1.121
 6038SOL     OW19012   1.114   2.196   6.798
 6038SOL    HW119013   1.179   2.271   6.811
 6038SOL    HW219014   1.133   2.150   6.711
 6039SOL     OW19015   3.690   4.158   4.047
 6039SOL    HW119016   3.722   4.063   4.038
 6039SOL    HW219017   3.733   4.201   4.126
 6040SOL     OW19018   1.625   1.604   6.986
 6040SOL    HW119019   1.701   1.635   6.929
 6040SOL    HW219020   1.582   1.525   6.943
 6041SOL     OW19021   2.842   2.272   5.665
 6041SOL    HW119022   2.920   2.325   5.629
 6041SOL    HW219023   2.845   2.180   5.627
 6042SOL     OW19024   3.541   6.174   3.419
 6042SOL    HW119025   3.550   6.075   3.429
 6042SOL    HW219026   3.558   6.199   3.324
 6043SOL     OW19027   1.876   0.744   3.928
 6043SOL    HW119028   1.960   0.692   3.912
 6043SOL    HW219029   1.893   0.817   3.994
 6044SOL     OW19030   1.944   1.757   1.610
 6044SOL    HW119031   1.991   1.812   1.541
 6044SOL    HW219032   1.957   1.799   1.700
 6045SOL     OW19033   5.118   3.028   3.472
 6045SOL    HW119034   5.036   3.084   3.461
 6045SOL    HW219035   5.122   2.991   3.565
 6046SOL     OW19036   3.549   2.525   1.702
 6046SOL    HW119037   3.556   2.613   1.750
 6046SOL    HW219038   3.595   2.454   1.755
 6047SOL     OW19039   5.790   1.787   0.390
 6047SOL    HW119040   5.794   1.713   0.457
 6047SOL    HW219041   5.715   1.849   0.414
 6048SOL     OW19042   5.451   5.148   5.010
 6048SOL    HW119043   5.383   5.075   4.999
 6048SOL    HW219044   5.442   5.213   4.935
 6049SOL     OW19045   5.333   5.189   5.882
 6049SOL    HW119046   5.334   5.262   5.951
 6049SOL    HW219047   5.379   5.222   5.800
 6050SOL     OW19048   3.015   5.781   0.906
 6050SOL    HW119049   3.052   5.687   0.908
 6050SOL    HW219050   2.975   5.802   0.996
 6051SOL     OW19051   0.193   1.699   2.797
 6051SOL    HW119052   0.177   1.600   2.790
 6051SOL    HW219053   0.265   1.725   2.732
 6052SOL     OW19054   5.417   6.774   1.095
 6052SOL    HW119055   5.497   6.731   1.053
 6052SOL    HW219056   5.337   6.763   1.036
 6053SOL     OW19057   4.252   1.410   6.153
 6053SOL    HW119058   4.303   1.327   6.130
 6053SOL    HW219059   4.215   1.451   6.070
 6054SOL     OW19060   3.544   5.432   0.777
 6054SOL    HW119061   3.623   5.432   0.838
 6054SOL    HW219062   3.575   5.423   0.683
 6055SOL     OW19063   3.225   5.607   6.399
 6055SOL    HW119064   3.189   5.665   6.473
 6055SOL    HW219065   3.211   5.511   6.422
 6056SOL     OW19066   5.791   3.662   4.755
 6056SOL    HW119067   5.779   3.575   4.803
 6056SOL    HW219068   5.825   3.644   4.663
 6057SOL     OW19069   4.938   0.322   2.547
 6057SOL    HW119070   5.007   0.364   2.606
 6057SOL    HW219071   4.929   0.225   2.572
 6058SOL     OW19072   6.162   3.241   0.464
 6058SOL    HW119073   6.134   3.159   0.414
 6058SOL    HW219074   6.228   3.293   0.409
 6059SOL     OW19075   5.273   4.032   5.876
 6059SOL    HW119076   5.291   4.119   5.922
 6059SOL    HW219077   5.177   4.028   5.850
 6060SOL     OW19078   3.436   3.170   0.365
 6060SOL    HW119079   3.438   3.264   0.398
 6060SOL    HW219080   3.451   3.107   0.441
 6061SOL     OW19081   3.659   4.862   0.657
 6061SOL    HW119082   3.708   4.778   0.684
 6061SOL    HW219083   3.566   4.838   0.630
 6062SOL     OW19084   2.817   2.002   7.011
 6062SOL    HW119085   2.803   1.931   0.054
 6062SOL    HW219086   2.766   2.084   0.011
 6063SOL     OW19087   4.307   4.080   5.889
 6063SOL    HW119088   4.280   4.149   5.821
 6063SOL    HW219089   4.321   4.124   5.978
 6064SOL     OW19090   0.165   0.690   0.563
 6064SOL    HW119091   0.220   0.611   0.535
 6064SOL    HW219092   0.197   0.721   0.653
 6065SOL     OW19093   1.378   5.128   2.147
 6065SOL    HW119094   1.374   5.090   2.239
 6065SOL    HW219095   1.308   5.084   2.090
 6066SOL     OW19096   5.398   0.982   3.555
 6066SOL    HW119097   5.371   1.069   3.597
 6066SOL    HW219098   5.319   0.921   3.551
 6067SOL     OW19099   6.112   6.826   5.428
 6067SOL    HW119100   6.161   6.871   5.354
 6067SOL    HW219101   6.023   6.870   5.440
 6068SOL     OW19102   4.915   1.374   4.632
 6068SOL    HW119103   4.859   1.349   4.553
 6068SOL    HW219104   4.959   1.293   4.670
 6069SOL     OW19105   0.211   2.730   5.792
 6069SOL    HW119106   0.118   2.765   5.796
 6069SOL    HW219107   0.235   2.710   5.697
 6070SOL     OW19108   3.413   2.225   1.743
 6070SOL    HW119109   3.496   2.281   1.736
 6070SOL    HW219110   3.421   2.147   1.681
 6071SOL     OW19111   6.858   6.163   4.822
 6071SOL    HW119112   6.876   6.191   4.917
 6071SOL    HW219113   6.928   6.097   4.794
 6072SOL     OW19114   0.844   1.639   0.682
 6072SOL    HW119115   0.767   1.599   0.732
 6072SOL    HW219116   0.809   1.696   0.607
 6073SOL     OW19117   4.910   3.015   1.005
 6073SOL    HW119118   4.986   3.069   0.970
 6073SOL    HW219119   4.930   2.987   1.099
 6074SOL     OW19120   1.114   6.538   2.316
 6074SOL    HW119121   1.032   6.579   2.356
 6074SOL    HW219122   1.190   6.548   2.380
 6075SOL     OW19123   4.425   6.483   6.556
 6075SOL    HW119124   4.396   6.526   6.471
 6075SOL    HW219125   4.444   6.386   6.541
 6076SOL     OW19126   2.415   4.855   4.193
 6076SOL    HW119127   2.506   4.848   4.232
 6076SOL    HW219128   2.357   4.783   4.229
 6077SOL     OW19129   5.842   6.650   1.288
 6077SOL    HW119130   5.800   6.620   1.373
 6077SOL    HW219131   5.896   6.733   1.305
 6078SOL     OW19132   4.250   4.208   0.549
 6078SOL    HW119133   4.296   4.258   0.476
 6078SOL    HW219134   4.260   4.258   0.635
 6079SOL     OW19135   4.543   4.454   6.724
 6079SOL    HW119136   4.634   4.415   6.709
 6079SOL    HW219137   4.516   4.441   6.819
 6080SOL     OW19138   1.083   4.662   1.109
 6080SOL    HW119139   1.171   4.623   1.080
 6080SOL    HW219140   1.034   4.594   1.165
 6081SOL     OW19141   0.346   3.910   5.304
 6081SOL    HW119142   0.445   3.902   5.291
 6081SOL    HW219143   0.299   3.876   5.223
 6082SOL     OW19144   4.151   0.285   1.554
 6082SOL    HW119145   4.214   0.208   1.563
 6082SOL    HW219146   4.116   0.311   1.644
 6083SOL     OW19147   5.112   6.776   6.951
 6083SOL    HW119148   5.193   6.833   6.938
 6083SOL    HW219149   5.107   6.746   0.020
 6084SOL     OW19150   0.695   6.515   2.114
 6084SOL    HW119151   0.786   6.493   2.149
 6084SOL    HW219152   0.704   6.585   2.043
 6085SOL     OW19153   5.939   6.643   6.910
 6085SOL    HW119154   5.905   6.616   6.999
 6085SOL    HW219155   6.029   6.686   6.920
 6086SOL     OW19156   4.012   3.531   6.711
 6086SOL    HW119157   4.010   3.620   6.665
 6086SOL    HW219158   3.977   3.460   6.649
 6087SOL     OW19159   4.505   6.483   0.178
 6087SOL    HW119160   4.479   6.498   0.273
 6087SOL    HW219161   4.458   6.401   0.143
 6088SOL     OW19162   5.044   6.201   4.962
 6088SOL    HW119163   5.127   6.232   5.008
 6088SOL    HW219164   5.001   6.279   4.915
 6089SOL     OW19165   6.613   1.868   2.093
 6089SOL    HW119166   6.635   1.947   2.036
 6089SOL    HW219167   6.542   1.894   2.159
 6090SOL     OW19168   3.053   5.357   4.201
 6090SOL    HW119169   3.089   5.436   4.149
 6090SOL    HW219170   2.954   5.363   4.206
 6091SOL     OW19171   2.525   0.953   1.478
 6091SOL    HW119172   2.469   0.903   1.543
 6091SOL    HW219173   2.604   0.992   1.526
 6092SOL     OW19174   4.373   0.037   2.062
 6092SOL    HW119175   4.460   0.086   2.070
 6092SOL    HW219176   4.360   7.003   2.141
 6093SOL     OW19177   1.688   1.629   2.281
 6093SOL    HW119178   1.589   1.640   2.268
 6093SOL    HW219179   1.709   1.640   2.378
 6094SOL     OW19180   0.709   6.787   4.282
 6094SOL    HW119181   0.760   6.764   4.200
 6094SOL    HW219182   0.731   6.723   4.355
 6095SOL     OW19183   4.353   5.523   0.245
 6095SOL    HW119184   4.283   5.519   0.174
 6095SOL    HW219185   4.310   5.549   0.332
 6096SOL     OW19186   5.599   6.352   2.165
 6096SOL    HW119187   5.688   6.398   2.159
 6096SOL    HW219188   5.547   6.368   2.082
 6097SOL     OW19189   1.284   6.113   2.023
 6097SOL    HW119190   1.337   6.197   2.035
 6097SOL    HW219191   1.200   6.134   1.973
 6098SOL     OW19192   6.812   0.697   5.403
 6098SOL    HW119193   6.841   0.779   5.353
 6098SOL    HW219194   6.762   0.636   5.342
 6099SOL     OW19195   5.612   6.336   5.724
 6099SOL    HW119196   5.555   6.290   5.656
 6099SOL    HW219197   5.682   6.272   5.757
 6100SOL     OW19198   0.831   5.886   2.784
 6100SOL    HW119199   0.739   5.901   2.747
 6100SOL    HW219200   0.899   5.901   2.712
 6101SOL     OW19201   6.724   1.924   1.513
 6101SOL    HW119202   6.815   1.950   1.546
 6101SOL    HW219203   6.669   1.891   1.590
 6102SOL     OW19204   4.438   6.377   2.560
 6102SOL    HW119205   4.365   6.430   2.516
 6102SOL    HW219206   4.397   6.301   2.611
 6103SOL     OW19207   6.815   1.802   1.087
 6103SOL    HW119208   6.781   1.713   1.055
 6103SOL    HW219209   6.850   1.854   1.009
 6104SOL     OW19210   6.301   1.524   4.834
 6104SOL    HW119211   6.244   1.451   4.796
 6104SOL    HW219212   6.260   1.613   4.814
 6105SOL     OW19213   2.804   5.445   5.608
 6105SOL    HW119214   2.861   5.404   5.679
 6105SOL    HW219215   2.841   5.423   5.518
 6106SOL     OW19216   0.658   3.713   0.149
 6106SOL    HW119217   0.694   3.802   0.178
 6106SOL    HW219218   0.633   3.659   0.229
 6107SOL     OW19219   5.110   5.186   4.849
 6107SOL    HW119220   5.047   5.244   4.902
 6107SOL    HW219221   5.058   5.140   4.777
 6108SOL     OW19222   1.285   1.373   2.077
 6108SOL    HW119223   1.240   1.462   2.073
 6108SOL    HW219224   1.251   1.322   2.156
 6109SOL     OW19225   5.276   0.326   3.700
 6109SOL    HW119226   5.373   0.307   3.687
 6109SOL    HW219227   5.240   0.269   3.774
 6110SOL     OW19228   0.738   2.176   6.044
 6110SOL    HW119229   0.718   2.088   6.087
 6110SOL    HW219230   0.802   2.227   6.102
 6111SOL     OW19231   1.279   3.623   1.820
 6111SOL    HW119232   1.269   3.722   1.823
 6111SOL    HW219233   1.376   3.600   1.833
 6112SOL     OW19234   3.229   0.507   2.386
 6112SOL    HW119235   3.317   0.539   2.350
 6112SOL    HW219236   3.195   0.431   2.331
 6113SOL     OW19237   2.347   4.413   6.794
 6113SOL    HW119238   2.390   4.495   6.754
 6113SOL    HW219239   2.345   4.340   6.726
 6114SOL     OW19240   5.023   1.714   1.458
 6114SOL    HW119241   4.953   1.766   1.408
 6114SOL    HW219242   5.018   1.618   1.431
 6115SOL     OW19243   0.616   1.240   5.593
 6115SOL    HW119244   0.581   1.334   5.590
 6115SOL    HW219245   0.693   1.231   5.530
 6116SOL     OW19246   3.975   2.164   5.272
 6116SOL    HW119247   3.894   2.201   5.317
 6116SOL    HW219248   3.950   2.085   5.216
 6117SOL     OW19249   1.233   2.014   2.971
 6117SOL    HW119250   1.281   2.100   2.991
 6117SOL    HW219251   1.290   1.937   3.001
 6118SOL     OW19252   6.167   1.276   0.968
 6118SOL    HW119253   6.179   1.375   0.959
 6118SOL    HW219254   6.209   1.231   0.889
 6119SOL     OW19255   0.249   2.478   0.214
 6119SOL    HW119256   0.318   2.537   0.255
 6119SOL    HW219257   0.286   2.437   0.130
 6120SOL     OW19258   2.210   6.912   5.362
 6120SOL    HW119259   2.181   6.866   5.445
 6120SOL    HW219260   2.205   7.011   5.375
 6121SOL     OW19261   0.387   3.667   5.686
 6121SOL    HW119262   0.361   3.743   5.627
 6121SOL    HW219263   0.426   3.702   5.771
 6122SOL     OW19264   5.089   6.166   5.655
 6122SOL    HW119265   5.120   6.155   5.561
 6122SOL    HW219266   5.023   6.241   5.660
 6123SOL     OW19267   5.131   1.313   5.619
 6123SOL    HW119268   5.057   1.246   5.614
 6123SOL    HW219269   5.217   1.271   5.589
 6124SOL     OW19270   2.319   0.193   4.940
 6124SOL    HW119271   2.257   0.115   4.939
 6124SOL    HW219272   2.267   0.277   4.958
 6125SOL     OW19273   2.497   4.247   0.210
 6125SOL    HW119274   2.482   4.326   0.269
 6125SOL    HW219275   2.445   4.259   0.125
 6126SOL     OW19276   0.657   2.331   5.057
 6126SOL    HW119277   0.698   2.360   5.143
 6126SOL    HW219278   0.563   2.301   5.073
 6127SOL     OW19279   4.326   1.218   1.525
 6127SOL    HW119280   4.376   1.301   1.553
 6127SOL    HW219281   4.248   1.204   1.585
 6128SOL     OW19282   5.381   5.799   0.659
 6128SOL    HW119283   5.420   5.886   0.628
 6128SOL    HW219284   5.365   5.803   0.757
 6129SOL     OW19285   2.105   4.301   3.459
 6129SOL    HW119286   2.117   4.333   3.553
 6129SOL    HW219287   2.162   4.355   3.398
 6130SOL     OW19288   5.489   2.744   2.140
 6130SOL    HW119289   5.389   2.742   2.133
 6130SOL    HW219290   5.515   2.776   2.232
 6131SOL     OW19291   6.905   2.106   2.105
 6131SOL    HW119292   6.867   2.197   2.125
 6131SOL    HW219293   7.004   2.114   2.094
 6132SOL     OW19294   3.541   1.771   6.720
 6132SOL    HW119295   3.497   1.684   6.741
 6132SOL    HW219296   3.510   1.803   6.631
 6133SOL     OW19297   1.534   2.278   3.673
 6133SOL    HW119298   1.467   2.351   3.654
 6133SOL    HW219299   1.529   2.209   3.601
 6134SOL     OW19300   5.411   6.409   6.224
 6134SOL    HW119301   5.369   6.325   6.192
 6134SOL    HW219302   5.352   6.452   6.293
 6135SOL     OW19303   6.359   0.038   0.076
 6135SOL    HW119304   6.454   0.025   0.106
 6135SOL    HW219305   6.321   0.118   0.123
 6136SOL     OW19306   1.610   3.121   1.228
 6136SOL    HW119307   1.643   3.155   1.139
 6136SOL    HW219308   1.522   3.166   1.249
 6137SOL     OW19309   0.988   4.116   3.554
 6137SOL    HW119310   1.015   4.195   3.498
 6137SOL    HW219311   1.070   4.067   3.582
 6138SOL     OW19312   4.128   0.149   2.042
 6138SOL    HW119313   4.071   0.083   2.091
 6138SOL    HW219314   4.224   0.126   2.054
 6139SOL     OW19315   0.929   6.722   6.162
 6139SOL    HW119316   0.910   6.674   6.077
 6139SOL    HW219317   0.885   6.811   6.161
 6140SOL     OW19318   1.275   0.298   3.027
 6140SOL    HW119319   1.255   0.282   2.931
 6140SOL    HW219320   1.231   0.382   3.057
 6141SOL     OW19321   0.767   0.390   6.203
 6141SOL    HW119322   0.763   0.470   6.263
 6141SOL    HW219323   0.698   0.400   6.131
 6142SOL     OW19324   0.982   1.020   7.004
 6142SOL    HW119325   1.043   0.941   7.011
 6142SOL    HW219326   1.036   1.103   6.997
 6143SOL     OW19327   6.839   3.883   0.096
 6143SOL    HW119328   6.934   3.885   0.063
 6143SOL    HW219329   6.808   3.976   0.114
 6144SOL     OW19330   4.654   4.248   3.215
 6144SOL    HW119331   4.634   4.264   3.118
 6144SOL    HW219332   4.582   4.289   3.271
 6145SOL     OW19333   5.857   4.264   3.865
 6145SOL    HW119334   5.929   4.254   3.934
 6145SOL    HW219335   5.768   4.265   3.911
 6146SOL     OW19336   3.783   0.230   4.311
 6146SOL    HW119337   3.871   0.270   4.286
 6146SOL    HW219338   3.783   0.209   4.409
 6147SOL     OW19339   1.750   3.123   4.818
 6147SOL    HW119340   1.686   3.105   4.743
 6147SOL    HW219341   1.843   3.129   4.781
 6148SOL     OW19342   3.973   4.839   6.717
 6148SOL    HW119343   3.946   4.788   6.636
 6148SOL    HW219344   4.033   4.915   6.692
 6149SOL     OW19345   2.138   0.125   2.204
 6149SOL    HW119346   2.055   0.072   2.217
 6149SOL    HW219347   2.118   0.223   2.215
 6150SOL     OW19348   6.425   4.216   6.733
 6150SOL    HW119349   6.485   4.143   6.765
 6150SOL    HW219350   6.375   4.254   6.810
 6151SOL     OW19351   5.578   5.288   4.442
 6151SOL    HW119352   5.601   5.192   4.430
 6151SOL    HW219353   5.575   5.310   4.539
 6152SOL     OW19354   1.137   5.707   4.034
 6152SOL    HW119355   1.055   5.712   4.091
 6152SOL    HW219356   1.207   5.654   4.081
 6153SOL     OW19357   5.070   5.627   0.745
 6153SOL    HW119358   5.154   5.678   0.759
 6153SOL    HW219359   5.027   5.609   0.833
 6154SOL     OW19360   4.893   3.575   2.829
 6154SOL    HW119361   4.868   3.634   2.753
 6154SOL    HW219362   4.979   3.528   2.809
 6155SOL     OW19363   2.454   1.019   2.786
 6155SOL    HW119364   2.368   1.029   2.835
 6155SOL    HW219365   2.518   1.090   2.814
 6156SOL     OW19366   5.387   4.240   1.618
 6156SOL    HW119367   5.340   4.220   1.532
 6156SOL    HW219368   5.458   4.308   1.602
 6157SOL     OW19369   0.617   2.320   3.565
 6157SOL    HW119370   0.665   2.407   3.561
 6157SOL    HW219371   0.545   2.318   3.496
 6158SOL     OW19372   3.326   2.295   6.198
 6158SOL    HW119373   3.307   2.196   6.196
 6158SOL    HW219374   3.362   2.323   6.109
 6159SOL     OW19375   5.271   2.826   0.049
 6159SOL    HW119376   5.355   2.776   0.073
 6159SOL    HW219377   5.196   2.761   0.036
 6160SOL     OW19378   6.919   0.230   6.105
 6160SOL    HW119379   6.874   0.255   6.191
 6160SOL    HW219380   6.870   0.155   6.061
 6161SOL     OW19381   5.130   2.823   6.152
 6161SOL    HW119382   5.121   2.757   6.226
 6161SOL    HW219383   5.155   2.913   6.189
 6162SOL     OW19384   5.680   6.695   3.152
 6162SOL    HW119385   5.689   6.718   3.249
 6162SOL    HW219386   5.657   6.599   3.142
 6163SOL     OW19387   5.261   6.190   2.827
 6163SOL    HW119388   5.252   6.274   2.774
 6163SOL    HW219389   5.300   6.118   2.769
 6164SOL     OW19390   3.738   4.174   4.322
 6164SOL    HW119391   3.648   4.137   4.345
 6164SOL    HW219392   3.783   4.206   4.405
 6165SOL     OW19393   4.212   2.333   0.299
 6165SOL    HW119394   4.214   2.385   0.385
 6165SOL    HW219395   4.303   2.335   0.257
 6166SOL     OW19396   6.754   1.956   7.022
 6166SOL    HW119397   6.801   1.936   6.936
 6166SOL    HW219398   6.735   2.054   0.001
 6167SOL     OW19399   1.603   4.809   2.914
 6167SOL    HW119400   1.668   4.844   2.846
 6167SOL    HW219401   1.566   4.885   2.967
 6168SOL     OW19402   6.392   2.689   3.479
 6168SOL    HW119403   6.480   2.714   3.520
 6168SOL    HW219404   6.335   2.643   3.547
 6169SOL     OW19405   0.910   0.745   6.127
 6169SOL    HW119406   0.895   0.816   6.059
 6169SOL    HW219407   0.922   0.656   6.081
 6170SOL     OW19408   3.429   4.362   6.748
 6170SOL    HW119409   3.437   4.305   6.666
 6170SOL    HW219410   3.485   4.323   6.821
 6171SOL     OW19411   1.220   3.994   2.456
 6171SOL    HW119412   1.155   3.961   2.524
 6171SOL    HW219413   1.174   4.006   2.368
 6172SOL     OW19414   0.327   0.753   2.055
 6172SOL    HW119415   0.344   0.689   2.130
 6172SOL    HW219416   0.414   0.786   2.019
 6173SOL     OW19417   0.763   4.904   2.560
 6173SOL    HW119418   0.794   4.816   2.596
 6173SOL    HW219419   0.842   4.965   2.549
 6174SOL     OW19420   5.980   4.661   2.737
 6174SOL    HW119421   5.897   4.714   2.722
 6174SOL    HW219422   6.059   4.710   2.698
 6175SOL     OW19423   5.778   6.197   2.630
 6175SOL    HW119424   5.748   6.153   2.714
 6175SOL    HW219425   5.809   6.290   2.650
 6176SOL     OW19426   6.243   3.467   6.558
 6176SOL    HW119427   6.176   3.403   6.597
 6176SOL    HW219428   6.205   3.509   6.476
 6177SOL     OW19429   5.229   0.893   1.105
 6177SOL    HW119430   5.280   0.979   1.111
 6177SOL    HW219431   5.222   0.852   1.195
 6178SOL     OW19432   4.946   4.841   1.680
 6178SOL    HW119433   4.978   4.877   1.767
 6178SOL    HW219434   4.884   4.764   1.696
 6179SOL     OW19435   0.063   3.688   4.929
 6179SOL    HW119436   7.007   3.645   4.890
 6179SOL    HW219437   0.120   3.618   4.972
 6180SOL     OW19438   3.331   6.828   0.338
 6180SOL    HW119439   3.243   6.826   0.385
 6180SOL    HW219440   3.316   6.841   0.240
 6181SOL     OW19441   4.651   6.595   0.427
 6181SOL    HW119442   4.599   6.521   0.468
 6181SOL    HW219443   4.747   6.567   0.417
 6182SOL     OW19444   5.034   5.525   5.344
 6182SOL    HW119445   4.998   5.435   5.320
 6182SOL    HW219446   5.128   5.516   5.377
 6183SOL     OW19447   1.815   0.222   2.929
 6183SOL    HW119448   1.871   0.295   2.967
 6183SOL    HW219449   1.718   0.246   2.936
 6184SOL     OW19450   1.570   0.148   0.093
 6184SOL    HW119451   1.537   0.235   0.055
 6184SOL    HW219452   1.575   0.155   0.192
 6185SOL     OW19453   1.071   3.800   6.832
 6185SOL    HW119454   1.020   3.743   6.768
 6185SOL    HW219455   1.006   3.853   6.887
 6186SOL     OW19456   5.585   0.131   4.239
 6186SOL    HW119457   5.659   0.192   4.211
 6186SOL    HW219458   5.557   0.074   4.162
 6187SOL     OW19459   5.275   4.922   3.714
 6187SOL    HW119460   5.219   4.947   3.793
 6187SOL    HW219461   5.235   4.842   3.669
 6188SOL     OW19462   2.177   6.367   1.405
 6188SOL    HW119463   2.243   6.369   1.480
 6188SOL    HW219464   2.188   6.282   1.354
 6189SOL     OW19465   5.211   4.860   3.276
 6189SOL    HW119466   5.191   4.848   3.179
 6189SOL    HW219467   5.161   4.791   3.329
 6190SOL     OW19468   5.596   3.978   6.250
 6190SOL    HW119469   5.538   3.911   6.204
 6190SOL    HW219470   5.568   4.070   6.224
 6191SOL     OW19471   5.572   2.215   0.800
 6191SOL    HW119472   5.622   2.293   0.838
 6191SOL    HW219473   5.621   2.130   0.822
 6192SOL     OW19474   3.004   3.589   0.539
 6192SOL    HW119475   2.906   3.570   0.531
 6192SOL    HW219476   3.028   3.598   0.635
 6193SOL     OW19477   4.627   0.221   2.028
 6193SOL    HW119478   4.642   0.307   1.980
 6193SOL    HW219479   4.675   0.147   1.980
 6194SOL     OW19480   2.200   0.140   0.616
 6194SOL    HW119481   2.191   0.040   0.613
 6194SOL    HW219482   2.183   0.178   0.525
 6195SOL     OW19483   4.215   5.220   5.631
 6195SOL    HW119484   4.160   5.203   5.549
 6195SOL    HW219485   4.230   5.134   5.680
 6196SOL     OW19486   0.268   2.830   6.206
 6196SOL    HW119487   0.281   2.777   6.123
 6196SOL    HW219488   0.216   2.913   6.185
 6197SOL     OW19489   3.109   4.241   0.875
 6197SOL    HW119490   3.150   4.151   0.888
 6197SOL    HW219491   3.146   4.304   0.942
 6198SOL     OW19492   3.702   6.062   2.933
 6198SOL    HW119493   3.787   6.087   2.978
 6198SOL    HW219494   3.715   6.062   2.834
 6199SOL     OW19495   0.008   0.178   0.776
 6199SOL    HW119496   0.097   0.133   0.785
 6199SOL    HW219497   0.021   0.272   0.744
 6200SOL     OW19498   2.507   1.421   6.656
 6200SOL    HW119499   2.593   1.436   6.607
 6200SOL    HW219500   2.435   1.478   6.616
 6201SOL     OW19501   2.378   5.089   5.614
 6201SOL    HW119502   2.405   5.011   5.671
 6201SOL    HW219503   2.421   5.172   5.648
 6202SOL     OW19504   4.109   1.804   1.599
 6202SOL    HW119505   4.031   1.823   1.540
 6202SOL    HW219506   4.165   1.886   1.608
 6203SOL     OW19507   5.003   0.250   3.713
 6203SOL    HW119508   5.029   0.263   3.809
 6203SOL    HW219509   5.030   0.330   3.660
 6204SOL     OW19510   0.465   4.617   5.258
 6204SOL    HW119511   0.493   4.696   5.313
 6204SOL    HW219512   0.501   4.626   5.166
 6205SOL     OW19513   5.268   5.407   6.740
 6205SOL    HW119514   5.242   5.435   6.647
 6205SOL    HW219515   5.241   5.478   6.805
 6206SOL     OW19516   7.003   0.194   2.244
 6206SOL    HW119517   6.997   0.115   2.184
 6206SOL    HW219518   0.047   0.177   2.314
 6207SOL     OW19519   1.425   4.041   4.731
 6207SOL    HW119520   1.373   3.981   4.669
 6207SOL    HW219521   1.453   3.988   4.811
 6208SOL     OW19522   6.063   0.587   5.772
 6208SOL    HW119523   6.107   0.535   5.845
 6208SOL    HW219524   6.130   0.608   5.701
 6209SOL     OW19525   3.642   6.197   0.089
 6209SOL    HW119526   3.714   6.147   0.041
 6209SOL    HW219527   3.629   6.286   0.045
 6210SOL     OW19528   5.572   4.353   3.296
 6210SOL    HW119529   5.621   4.267   3.282
 6210SOL    HW219530   5.623   4.410   3.362
 6211SOL     OW19531   2.648   0.029   6.349
 6211SOL    HW119532   2.712   0.098   6.315
 6211SOL    HW219533   2.699   6.987   6.403
 6212SOL     OW19534   0.162   5.923   3.032
 6212SOL    HW119535   0.144   5.853   2.963
 6212SOL    HW219536   0.190   5.879   3.117
 6213SOL     OW19537   5.732   6.981   6.252
 6213SOL    HW119538   5.822   6.978   6.208
 6213SOL    HW219539   5.742   6.981   6.351
 6214SOL     OW19540   5.951   4.912   3.085
 6214SOL    HW119541   5.852   4.924   3.083
 6214SOL    HW219542   5.973   4.814   3.082
 6215SOL     OW19543   3.667   1.591   0.020
 6215SOL    HW119544   3.754   1.608   0.065
 6215SOL    HW219545   3.630   1.503   0.050
 6216SOL     OW19546   6.294   1.806   1.853
 6216SOL    HW119547   6.382   1.769   1.881
 6216SOL    HW219548   6.221   1.746   1.886
 6217SOL     OW19549   5.321   2.678   1.725
 6217SOL    HW119550   5.341   2.761   1.777
 6217SOL    HW219551   5.235   2.639   1.756
 6218SOL     OW19552   3.615   4.918   3.783
 6218SOL    HW119553   3.562   4.962   3.856
 6218SOL    HW219554   3.708   4.954   3.783
 6219SOL     OW19555   1.266   1.621   4.771
 6219SOL    HW119556   1.231   1.679   4.697
 6219SOL    HW219557   1.225   1.650   4.858
 6220SOL     OW19558   1.863   4.684   5.535
 6220SOL    HW119559   1.896   4.605   5.587
 6220SOL    HW219560   1.769   4.705   5.563
 6221SOL     OW19561   5.098   5.032   5.233
 6221SOL    HW119562   5.105   5.088   5.316
 6221SOL    HW219563   5.012   5.052   5.186
 6222SOL     OW19564   0.826   6.682   1.128
 6222SOL    HW119565   0.895   6.615   1.154
 6222SOL    HW219566   0.835   6.763   1.186
 6223SOL     OW19567   6.077   3.402   4.509
 6223SOL    HW119568   6.149   3.349   4.555
 6223SOL    HW219569   6.089   3.396   4.410
 6224SOL     OW19570   1.803   1.707   6.410
 6224SOL    HW119571   1.781   1.767   6.332
 6224SOL    HW219572   1.719   1.684   6.458
 6225SOL     OW19573   3.292   3.492   1.521
 6225SOL    HW119574   3.267   3.445   1.606
 6225SOL    HW219575   3.390   3.511   1.521
 6226SOL     OW19576   5.998   1.551   3.785
 6226SOL    HW119577   6.093   1.576   3.764
 6226SOL    HW219578   5.944   1.635   3.794
 6227SOL     OW19579   3.349   4.841   6.218
 6227SOL    HW119580   3.296   4.759   6.197
 6227SOL    HW219581   3.371   4.842   6.316
 6228SOL     OW19582   0.204   2.287   3.134
 6228SOL    HW119583   0.221   2.221   3.207
 6228SOL    HW219584   0.113   2.272   3.096
 6229SOL     OW19585   1.794   2.032   3.316
 6229SOL    HW119586   1.844   1.957   3.359
 6229SOL    HW219587   1.707   2.046   3.365
 6230SOL     OW19588   1.385   1.407   4.900
 6230SOL    HW119589   1.355   1.319   4.864
 6230SOL    HW219590   1.338   1.481   4.852
 6231SOL     OW19591   6.873   5.144   1.429
 6231SOL    HW119592   6.808   5.108   1.361
 6231SOL    HW219593   6.883   5.243   1.416
 6232SOL     OW19594   6.922   1.239   6.813
 6232SOL    HW119595   6.967   1.319   6.853
 6232SOL    HW219596   6.988   1.165   6.804
 6233SOL     OW19597   5.371   1.879   6.622
 6233SOL    HW119598   5.311   1.891   6.700
 6233SOL    HW219599   5.452   1.936   6.633
 6234SOL     OW19600   0.808   1.197   5.042
 6234SOL    HW119601   0.819   1.226   4.947
 6234SOL    HW219602   0.734   1.248   5.085
 6235SOL     OW19603   1.560   6.730   3.253
 6235SOL    HW119604   1.571   6.689   3.343
 6235SOL    HW219605   1.463   6.747   3.235
 6236SOL     OW19606   0.547   4.992   1.114
 6236SOL    HW119607   0.452   4.983   1.143
 6236SOL    HW219608   0.606   4.994   1.195
 6237SOL     OW19609   4.831   5.877   0.594
 6237SOL    HW119610   4.796   5.969   0.609
 6237SOL    HW219611   4.854   5.836   0.682
 6238SOL     OW19612   4.584   5.113   2.714
 6238SOL    HW119613   4.678   5.143   2.728
 6238SOL    HW219614   4.525   5.153   2.784
 6239SOL     OW19615   2.728   6.312   1.914
 6239SOL    HW119616   2.692   6.381   1.977
 6239SOL    HW219617   2.726   6.348   1.821
 6240SOL     OW19618   2.915   1.893   0.737
 6240SOL    HW119619   2.887   1.962   0.803
 6240SOL    HW219620   2.968   1.935   0.664
 6241SOL     OW19621   2.269   1.237   2.900
 6241SOL    HW119622   2.344   1.302   2.888
 6241SOL    HW219623   2.214   1.235   2.816
 6242SOL     OW19624   5.662   1.429   3.346
 6242SOL    HW119625   5.612   1.344   3.360
 6242SOL    HW219626   5.596   1.504   3.334
 6243SOL     OW19627   5.948   6.885   3.260
 6243SOL    HW119628   5.973   6.879   3.356
 6243SOL    HW219629   5.856   6.848   3.247
 6244SOL     OW19630   1.569   2.242   1.888
 6244SOL    HW119631   1.479   2.207   1.866
 6244SOL    HW219632   1.617   2.267   1.804
 6245SOL     OW19633   3.046   4.315   1.680
 6245SOL    HW119634   3.101   4.353   1.606
 6245SOL    HW219635   3.020   4.388   1.743
 6246SOL     OW19636   2.765   2.773   6.599
 6246SOL    HW119637   2.835   2.719   6.646
 6246SOL    HW219638   2.777   2.766   6.500
 6247SOL     OW19639   0.214   6.477   3.668
 6247SOL    HW119640   0.270   6.425   3.733
 6247SOL    HW219641   0.118   6.471   3.693
 6248SOL     OW19642   0.569   3.417   1.345
 6248SOL    HW119643   0.604   3.423   1.439
 6248SOL    HW219644   0.638   3.377   1.286
 6249SOL     OW19645   0.560   4.574   0.329
 6249SOL    HW119646   0.487   4.611   0.386
 6249SOL    HW219647   0.539   4.479   0.305
 6250SOL     OW19648   6.415   6.199   0.415
 6250SOL    HW119649   6.396   6.193   0.317
 6250SOL    HW219650   6.344   6.150   0.465
 6251SOL     OW19651   3.880   6.638   0.998
 6251SOL    HW119652   3.791   6.650   0.955
 6251SOL    HW219653   3.889   6.700   1.076
 6252SOL     OW19654   2.041   6.182   4.597
 6252SOL    HW119655   2.026   6.262   4.539
 6252SOL    HW219656   2.106   6.120   4.552
 6253SOL     OW19657   2.340   4.360   2.463
 6253SOL    HW119658   2.359   4.385   2.557
 6253SOL    HW219659   2.410   4.397   2.403
 6254SOL     OW19660   5.086   1.031   6.915
 6254SOL    HW119661   5.095   1.119   6.869
 6254SOL    HW219662   5.000   0.988   6.888
 6255SOL     OW19663   1.215   1.151   1.683
 6255SOL    HW119664   1.280   1.177   1.612
 6255SOL    HW219665   1.253   1.076   1.738
 6256SOL     OW19666   4.248   5.022   2.928
 6256SOL    HW119667   4.325   5.083   2.947
 6256SOL    HW219668   4.276   4.927   2.942
 6257SOL     OW19669   5.668   2.318   1.198
 6257SOL    HW119670   5.703   2.249   1.262
 6257SOL    HW219671   5.582   2.354   1.232
 6258SOL     OW19672   4.514   0.930   3.080
 6258SOL    HW119673   4.469   0.894   2.998
 6258SOL    HW219674   4.560   1.016   3.058
 6259SOL     OW19675   3.047   1.343   1.084
 6259SOL    HW119676   3.037   1.290   1.167
 6259SOL    HW219677   3.079   1.435   1.107
 6260SOL     OW19678   3.315   4.112   0.472
 6260SOL    HW119679   3.228   4.099   0.426
 6260SOL    HW219680   3.388   4.066   0.420
 6261SOL     OW19681   3.377   6.817   6.698
 6261SOL    HW119682   3.412   6.883   6.764
 6261SOL    HW219683   3.441   6.740   6.691
 6262SOL     OW19684   2.023   4.157   0.773
 6262SOL    HW119685   2.084   4.197   0.840
 6262SOL    HW219686   2.019   4.215   0.691
 6263SOL     OW19687   0.268   5.995   6.280
 6263SOL    HW119688   0.176   6.036   6.276
 6263SOL    HW219689   0.320   6.038   6.353
 6264SOL     OW19690   1.965   0.241   0.998
 6264SOL    HW119691   1.928   0.286   0.917
 6264SOL    HW219692   2.015   0.159   0.970
 6265SOL     OW19693   2.936   4.522   1.432
 6265SOL    HW119694   2.991   4.456   1.381
 6265SOL    HW219695   2.975   4.613   1.423
 6266SOL     OW19696   4.392   0.759   4.412
 6266SOL    HW119697   4.401   0.838   4.473
 6266SOL    HW219698   4.295   0.743   4.393
 6267SOL     OW19699   3.253   6.855   0.050
 6267SOL    HW119700   3.302   6.777   0.010
 6267SOL    HW219701   3.296   6.940   0.021
 6268SOL     OW19702   2.591   5.906   3.169
 6268SOL    HW119703   2.610   5.940   3.261
 6268SOL    HW219704   2.505   5.945   3.137
 6269SOL     OW19705   6.757   5.913   2.081
 6269SOL    HW119706   6.795   5.821   2.068
 6269SOL    HW219707   6.785   5.972   2.005
 6270SOL     OW19708   1.634   0.363   5.856
 6270SOL    HW119709   1.571   0.309   5.913
 6270SOL    HW219710   1.721   0.374   5.903
 6271SOL     OW19711   6.555   2.739   5.836
 6271SOL    HW119712   6.547   2.703   5.928
 6271SOL    HW219713   6.496   2.820   5.826
 6272SOL     OW19714   0.728   2.995   4.976
 6272SOL    HW119715   0.748   3.092   4.992
 6272SOL    HW219716   0.773   2.940   5.046
 6273SOL     OW19717   1.239   0.501   2.137
 6273SOL    HW119718   1.152   0.493   2.089
 6273SOL    HW219719   1.241   0.586   2.189
 6274SOL     OW19720   2.555   5.407   5.286
 6274SOL    HW119721   2.554   5.447   5.378
 6274SOL    HW219722   2.645   5.369   5.266
 6275SOL     OW19723   2.942   6.627   5.472
 6275SOL    HW119724   2.917   6.704   5.413
 6275SOL    HW219725   2.875   6.619   5.546
 6276SOL     OW19726   1.644   5.002   3.346
 6276SOL    HW119727   1.650   5.087   3.399
 6276SOL    HW219728   1.625   4.926   3.408
 6277SOL     OW19729   4.401   2.439   2.922
 6277SOL    HW119730   4.467   2.513   2.913
 6277SOL    HW219731   4.413   2.374   2.847
 6278SOL     OW19732   4.658   0.369   4.915
 6278SOL    HW119733   4.693   0.276   4.904
 6278SOL    HW219734   4.694   0.409   4.999
 6279SOL     OW19735   3.716   1.090   0.256
 6279SOL    HW119736   3.636   1.067   0.311
 6279SOL    HW219737   3.767   1.007   0.234
 6280SOL     OW19738   0.312   2.750   5.549
 6280SOL    HW119739   0.310   2.774   5.451
 6280SOL    HW219740   0.336   2.832   5.602
 6281SOL     OW19741   2.512   6.275   5.689
 6281SOL    HW119742   2.495   6.373   5.691
 6281SOL    HW219743   2.608   6.258   5.666
 6282SOL     OW19744   1.420   0.130   4.563
 6282SOL    HW119745   1.448   0.224   4.545
 6282SOL    HW219746   1.418   0.115   4.662
 6283SOL     OW19747   6.151   2.429   4.935
 6283SOL    HW119748   6.093   2.445   5.015
 6283SOL    HW219749   6.245   2.414   4.965
 6284SOL     OW19750   1.918   5.625   5.166
 6284SOL    HW119751   1.981   5.577   5.226
 6284SOL    HW219752   1.966   5.658   5.085
 6285SOL     OW19753   1.352   3.154   3.869
 6285SOL    HW119754   1.360   3.206   3.784
 6285SOL    HW219755   1.350   3.056   3.847
 6286SOL     OW19756   6.681   1.466   3.877
 6286SOL    HW119757   6.764   1.421   3.844
 6286SOL    HW219758   6.633   1.508   3.800
 6287SOL     OW19759   4.748   4.332   2.340
 6287SOL    HW119760   4.740   4.365   2.246
 6287SOL    HW219761   4.747   4.410   2.403
 6288SOL     OW19762   5.460   4.045   1.969
 6288SOL    HW119763   5.479   4.084   2.059
 6288SOL    HW219764   5.546   4.026   1.922
 6289SOL     OW19765   1.517   2.873   3.335
 6289SOL    HW119766   1.482   2.921   3.255
 6289SOL    HW219767   1.569   2.793   3.307
 6290SOL     OW19768   5.520   3.808   4.241
 6290SOL    HW119769   5.604   3.768   4.277
 6290SOL    HW219770   5.466   3.846   4.316
 6291SOL     OW19771   4.075   3.888   3.956
 6291SOL    HW119772   4.128   3.967   3.986
 6291SOL    HW219773   4.087   3.876   3.857
 6292SOL     OW19774   0.438   3.225   3.160
 6292SOL    HW119775   0.509   3.194   3.223
 6292SOL    HW219776   0.426   3.324   3.170
 6293SOL     OW19777   4.177   6.835   0.045
 6293SOL    HW119778   4.259   6.786   0.016
 6293SOL    HW219779   4.150   6.901   7.000
 6294SOL     OW19780   3.718   5.200   3.236
 6294SOL    HW119781   3.768   5.181   3.320
 6294SOL    HW219782   3.691   5.113   3.193
 6295SOL     OW19783   5.021   5.666   5.640
 6295SOL    HW119784   5.119   5.671   5.620
 6295SOL    HW219785   5.007   5.630   5.733
 6296SOL     OW19786   6.833   0.517   4.199
 6296SOL    HW119787   6.760   0.509   4.265
 6296SOL    HW219788   6.897   0.588   4.228
 6297SOL     OW19789   5.302   0.068   5.320
 6297SOL    HW119790   5.239   0.079   5.242
 6297SOL    HW219791   5.276   7.012   5.372
 6298SOL     OW19792   1.643   3.968   6.408
 6298SOL    HW119793   1.723   4.020   6.378
 6298SOL    HW219794   1.653   3.872   6.382
 6299SOL     OW19795   6.021   2.529   6.248
 6299SOL    HW119796   5.926   2.503   6.262
 6299SOL    HW219797   6.081   2.454   6.275
 6300SOL     OW19798   5.499   0.706   4.695
 6300SOL    HW119799   5.577   0.671   4.643
 6300SOL    HW219800   5.511   0.804   4.711
 6301SOL     OW19801   2.553   0.035   1.347
 6301SOL    HW119802   2.465   0.053   1.392
 6301SOL    HW219803   2.560   0.091   1.265
 6302SOL     OW19804   1.002   1.133   3.893
 6302SOL    HW119805   1.002   1.199   3.817
 6302SOL    HW219806   0.966   1.046   3.860
 6303SOL     OW19807   2.525   0.709   4.988
 6303SOL    HW119808   2.550   0.806   4.993
 6303SOL    HW219809   2.533   0.668   5.079
 6304SOL     OW19810   2.594   0.782   1.281
 6304SOL    HW119811   2.556   0.837   1.355
 6304SOL    HW219812   2.538   0.700   1.267
 6305SOL     OW19813   6.283   6.567   1.133
 6305SOL    HW119814   6.300   6.594   1.228
 6305SOL    HW219815   6.184   6.557   1.118
 6306SOL     OW19816   0.097   3.404   4.542
 6306SOL    HW119817   0.084   3.491   4.589
 6306SOL    HW219818   0.134   3.420   4.451
 6307SOL     OW19819   3.536   4.810   5.807
 6307SOL    HW119820   3.464   4.847   5.749
 6307SOL    HW219821   3.577   4.884   5.860
 6308SOL     OW19822   1.297   1.540   5.313
 6308SOL    HW119823   1.234   1.599   5.364
 6308SOL    HW219824   1.389   1.580   5.314
 6309SOL     OW19825   4.957   3.651   3.920
 6309SOL    HW119826   5.034   3.712   3.902
 6309SOL    HW219827   4.944   3.643   4.019
 6310SOL     OW19828   2.175   4.598   4.042
 6310SOL    HW119829   2.158   4.648   3.957
 6310SOL    HW219830   2.165   4.659   4.120
 6311SOL     OW19831   5.981   0.712   5.231
 6311SOL    HW119832   5.986   0.719   5.131
 6311SOL    HW219833   6.073   0.702   5.268
 6312SOL     OW19834   4.346   5.148   5.977
 6312SOL    HW119835   4.265   5.158   5.919
 6312SOL    HW219836   4.397   5.066   5.949
 6313SOL     OW19837   1.303   6.234   3.345
 6313SOL    HW119838   1.291   6.148   3.395
 6313SOL    HW219839   1.217   6.284   3.345
 6314SOL     OW19840   3.640   6.161   1.721
 6314SOL    HW119841   3.682   6.097   1.785
 6314SOL    HW219842   3.595   6.234   1.773
 6315SOL     OW19843   4.453   2.360   0.121
 6315SOL    HW119844   4.392   2.296   0.075
 6315SOL    HW219845   4.454   2.447   0.071
 6316SOL     OW19846   4.603   2.335   6.252
 6316SOL    HW119847   4.700   2.327   6.279
 6316SOL    HW219848   4.554   2.387   6.322
 6317SOL     OW19849   5.613   6.438   3.239
 6317SOL    HW119850   5.568   6.414   3.153
 6317SOL    HW219851   5.626   6.355   3.293
 6318SOL     OW19852   2.599   2.247   5.383
 6318SOL    HW119853   2.672   2.302   5.342
 6318SOL    HW219854   2.595   2.158   5.336
 6319SOL     OW19855   0.535   3.184   3.707
 6319SOL    HW119856   0.595   3.209   3.783
 6319SOL    HW219857   0.492   3.266   3.669
 6320SOL     OW19858   6.172   4.354   3.458
 6320SOL    HW119859   6.076   4.330   3.441
 6320SOL    HW219860   6.228   4.271   3.452
 6321SOL     OW19861   2.931   5.205   1.040
 6321SOL    HW119862   2.922   5.300   1.070
 6321SOL    HW219863   2.893   5.196   0.948
 6322SOL     OW19864   1.590   2.245   6.348
 6322SOL    HW119865   1.519   2.176   6.331
 6322SOL    HW219866   1.654   2.247   6.271
 6323SOL     OW19867   3.572   2.554   1.417
 6323SOL    HW119868   3.490   2.547   1.361
 6323SOL    HW219869   3.553   2.519   1.509
 6324SOL     OW19870   4.278   0.700   6.002
 6324SOL    HW119871   4.323   0.775   5.954
 6324SOL    HW219872   4.198   0.670   5.949
 6325SOL     OW19873   1.541   2.612   1.788
 6325SOL    HW119874   1.631   2.588   1.826
 6325SOL    HW219875   1.477   2.628   1.863
 6326SOL     OW19876   5.320   5.548   1.012
 6326SOL    HW119877   5.315   5.612   0.935
 6326SOL    HW219878   5.318   5.454   0.977
 6327SOL     OW19879   7.009   0.096   5.173
 6327SOL    HW119880   6.921   0.140   5.152
 6327SOL    HW219881   0.015   0.045   5.092
 6328SOL     OW19882   2.381   3.641   6.751
 6328SOL    HW119883   2.282   3.626   6.741
 6328SOL    HW219884   2.422   3.561   6.794
 6329SOL     OW19885   1.034   1.229   3.650
 6329SOL    HW119886   0.981   1.235   3.565
 6329SOL    HW219887   1.130   1.213   3.628
 6330SOL     OW19888   4.774   0.634   0.936
 6330SOL    HW119889   4.698   0.698   0.926
 6330SOL    HW219890   4.794   0.593   0.847
 6331SOL     OW19891   6.947   2.670   0.704
 6331SOL    HW119892   0.003   2.630   0.664
 6331SOL    HW219893   6.935   2.636   0.798
 6332SOL     OW19894   6.143   5.226   1.853
 6332SOL    HW119895   6.118   5.272   1.938
 6332SOL    HW219896   6.138   5.291   1.777
 6333SOL     OW19897   3.840   5.079   3.451
 6333SOL    HW119898   3.822   5.134   3.533
 6333SOL    HW219899   3.778   5.000   3.450
 6334SOL     OW19900   2.312   6.915   2.885
 6334SOL    HW119901   2.410   6.914   2.869
 6334SOL    HW219902   2.270   6.989   2.831
 6335SOL     OW19903   5.656   1.841   0.126
 6335SOL    HW119904   5.719   1.806   0.195
 6335SOL    HW219905   5.562   1.826   0.157
 6336SOL     OW19906   0.030   2.447   5.002
 6336SOL    HW119907   0.047   2.488   4.912
 6336SOL    HW219908   0.055   2.513   5.074
 6337SOL     OW19909   5.049   3.590   6.382
 6337SOL    HW119910   5.056   3.598   6.282
 6337SOL    HW219911   5.025   3.496   6.406
 6338SOL     OW19912   2.655   2.355   2.499
 6338SOL    HW119913   2.624   2.332   2.407
 6338SOL    HW219914   2.726   2.425   2.493
 6339SOL     OW19915   0.555   2.524   3.845
 6339SOL    HW119916   0.631   2.535   3.781
 6339SOL    HW219917   0.574   2.447   3.906
 6340SOL     OW19918   2.319   5.469   3.293
 6340SOL    HW119919   2.331   5.514   3.381
 6340SOL    HW219920   2.352   5.374   3.299
 6341SOL     OW19921   6.826   4.864   3.957
 6341SOL    HW119922   6.801   4.848   4.053
 6341SOL    HW219923   6.797   4.786   3.902
 6342SOL     OW19924   2.464   2.134   1.942
 6342SOL    HW119925   2.561   2.157   1.931
 6342SOL    HW219926   2.444   2.119   2.038
 6343SOL     OW19927   5.053   2.606   0.019
 6343SOL    HW119928   4.996   2.533   0.056
 6343SOL    HW219929   5.055   2.600   6.945
 6344SOL     OW19930   6.646   3.276   5.824
 6344SOL    HW119931   6.681   3.286   5.731
 6344SOL    HW219932   6.704   3.327   5.888
 6345SOL     OW19933   4.154   1.366   2.444
 6345SOL    HW119934   4.118   1.458   2.463
 6345SOL    HW219935   4.188   1.362   2.350
 6346SOL     OW19936   6.355   3.620   3.317
 6346SOL    HW119937   6.423   3.555   3.286
 6346SOL    HW219938   6.287   3.573   3.375
 6347SOL     OW19939   3.113   0.474   1.694
 6347SOL    HW119940   3.103   0.489   1.792
 6347SOL    HW219941   3.025   0.445   1.656
 6348SOL     OW19942   0.723   3.928   4.919
 6348SOL    HW119943   0.646   3.924   4.856
 6348SOL    HW219944   0.747   4.023   4.937
 6349SOL     OW19945   2.706   0.907   2.041
 6349SOL    HW119946   2.764   0.871   2.114
 6349SOL    HW219947   2.743   0.881   1.952
 6350SOL     OW19948   1.583   5.219   3.487
 6350SOL    HW119949   1.606   5.160   3.565
 6350SOL    HW219950   1.487   5.246   3.492
 6351SOL     OW19951   6.613   2.555   2.220
 6351SOL    HW119952   6.605   2.649   2.185
 6351SOL    HW219953   6.532   2.503   2.196
 6352SOL     OW19954   1.396   5.407   3.765
 6352SOL    HW119955   1.310   5.455   3.784
 6352SOL    HW219956   1.473   5.468   3.785
 6353SOL     OW19957   6.237   0.484   6.450
 6353SOL    HW119958   6.236   0.448   6.543
 6353SOL    HW219959   6.328   0.518   6.429
 6354SOL     OW19960   1.001   6.563   2.646
 6354SOL    HW119961   1.085   6.511   2.660
 6354SOL    HW219962   1.012   6.624   2.568
 6355SOL     OW19963   0.622   4.331   4.923
 6355SOL    HW119964   0.592   4.263   4.989
 6355SOL    HW219965   0.713   4.307   4.888
 6356SOL     OW19966   5.402   4.671   2.245
 6356SOL    HW119967   5.383   4.587   2.297
 6356SOL    HW219968   5.326   4.734   2.256
 6357SOL     OW19969   4.664   2.661   0.397
 6357SOL    HW119970   4.616   2.668   0.485
 6357SOL    HW219971   4.620   2.721   0.331
 6358SOL     OW19972   0.205   2.297   4.653
 6358SOL    HW119973   0.227   2.280   4.557
 6358SOL    HW219974   0.114   2.338   4.659
 6359SOL     OW19975   6.709   0.483   5.243
 6359SOL    HW119976   6.713   0.387   5.216
 6359SOL    HW219977   6.710   0.541   5.162
 6360SOL     OW19978   2.331   4.304   3.766
 6360SOL    HW119979   2.350   4.316   3.863
 6360SOL    HW219980   2.241   4.344   3.745
 6361SOL     OW19981   4.864   6.568   6.742
 6361SOL    HW119982   4.799   6.626   6.693
 6361SOL    HW219983   4.957   6.592   6.714
 6362SOL     OW19984   5.990   4.867   0.112
 6362SOL    HW119985   5.947   4.850   0.024
 6362SOL    HW219986   6.078   4.913   0.098
 6363SOL     OW19987   2.145   5.333   3.832
 6363SOL    HW119988   2.109   5.425   3.819
 6363SOL    HW219989   2.245   5.337   3.839
 6364SOL     OW19990   3.046   1.755   5.693
 6364SOL    HW119991   3.120   1.776   5.629
 6364SOL    HW219992   2.979   1.829   5.691
 6365SOL     OW19993   4.711   6.807   4.555
 6365SOL    HW119994   4.615   6.837   4.554
 6365SOL    HW219995   4.754   6.836   4.640
 6366SOL     OW19996   1.052   5.548   5.365
 6366SOL    HW119997   0.989   5.479   5.330
 6366SOL    HW219998   1.021   5.580   5.455
 6367SOL     OW19999   4.904   0.576   3.794
 6367SOL    HW120000   4.900   0.530   3.883
 6367SOL    HW220001   4.817   0.565   3.747
 6368SOL     OW20002   3.317   6.956   4.156
 6368SOL    HW120003   3.298   7.007   4.072
 6368SOL    HW220004   3.395   6.997   4.203
 6369SOL     OW20005   3.301   4.991   4.171
 6369SOL    HW120006   3.356   5.037   4.101
 6369SOL    HW220007   3.204   4.996   4.144
 6370SOL     OW20008   0.739   2.708   2.323
 6370SOL    HW120009   0.693   2.758   2.397
 6370SOL    HW220010   0.832   2.687   2.351
 6371SOL     OW20011   4.851   3.109   3.531
 6371SOL    HW120012   4.878   3.117   3.627
 6371SOL    HW220013   4.804   3.022   3.518
 6372SOL     OW20014   3.443   6.591   1.716
 6372SOL    HW120015   3.469   6.677   1.761
 6372SOL    HW220016   3.383   6.611   1.638
 6373SOL     OW20017   6.461   4.243   4.771
 6373SOL    HW120018   6.497   4.216   4.861
 6373SOL    HW220019   6.529   4.298   4.723
 6374SOL     OW20020   3.477   3.584   3.947
 6374SOL    HW120021   3.514   3.517   3.882
 6374SOL    HW220022   3.549   3.616   4.007
 6375SOL     OW20023   1.044   1.320   3.148
 6375SOL    HW120024   1.049   1.228   3.109
 6375SOL    HW220025   1.135   1.362   3.145
 6376SOL     OW20026   6.786   1.532   5.163
 6376SOL    HW120027   6.814   1.454   5.107
 6376SOL    HW220028   6.729   1.500   5.239
 6377SOL     OW20029   6.576   0.655   5.933
 6377SOL    HW120030   6.495   0.690   5.981
 6377SOL    HW220031   6.577   0.689   5.839
 6378SOL     OW20032   5.094   4.655   3.393
 6378SOL    HW120033   5.110   4.562   3.361
 6378SOL    HW220034   4.996   4.675   3.389
 6379SOL     OW20035   1.903   4.984   4.585
 6379SOL    HW120036   1.850   5.046   4.642
 6379SOL    HW220037   1.905   4.893   4.627
 6380SOL     OW20038   1.047   1.410   5.612
 6380SOL    HW120039   1.096   1.346   5.554
 6380SOL    HW220040   0.955   1.425   5.576
 6381SOL     OW20041   3.194   2.944   2.302
 6381SOL    HW120042   3.099   2.913   2.296
 6381SOL    HW220043   3.199   3.027   2.357
 6382SOL     OW20044   1.601   2.515   6.696
 6382SOL    HW120045   1.630   2.536   6.602
 6382SOL    HW220046   1.611   2.596   6.753
 6383SOL     OW20047   2.185   2.115   3.846
 6383SOL    HW120048   2.240   2.095   3.927
 6383SOL    HW220049   2.102   2.060   3.848
 6384SOL     OW20050   6.393   4.742   1.357
 6384SOL    HW120051   6.441   4.817   1.401
 6384SOL    HW220052   6.363   4.677   1.426
 6385SOL     OW20053   6.136   4.705   4.280
 6385SOL    HW120054   6.195   4.785   4.278
 6385SOL    HW220055   6.186   4.627   4.315
 6386SOL     OW20056   2.493   4.907   0.294
 6386SOL    HW120057   2.540   4.878   0.378
 6386SOL    HW220058   2.462   4.826   0.243
 6387SOL     OW20059   0.953   2.026   6.230
 6387SOL    HW120060   0.974   1.949   6.170
 6387SOL    HW220061   0.996   2.109   6.193
 6388SOL     OW20062   4.017   4.391   1.302
 6388SOL    HW120063   4.032   4.486   1.274
 6388SOL    HW220064   4.033   4.383   1.400
 6389SOL     OW20065   0.599   6.225   2.112
 6389SOL    HW120066   0.604   6.321   2.087
 6389SOL    HW220067   0.505   6.203   2.139
 6390SOL     OW20068   0.008   2.687   3.292
 6390SOL    HW120069   0.047   2.660   3.204
 6390SOL    HW220070   7.017   2.785   3.292
 6391SOL     OW20071   3.051   1.056   0.409
 6391SOL    HW120072   2.993   0.981   0.442
 6391SOL    HW220073   3.033   1.070   0.312
 6392SOL     OW20074   2.230   6.741   4.171
 6392SOL    HW120075   2.246   6.764   4.075
 6392SOL    HW220076   2.152   6.679   4.178
 6393SOL     OW20077   5.743   6.808   1.726
 6393SOL    HW120078   5.838   6.838   1.714
 6393SOL    HW220079   5.681   6.884   1.707
 6394SOL     OW20080   2.516   4.934   0.893
 6394SOL    HW120081   2.509   5.033   0.876
 6394SOL    HW220082   2.584   4.918   0.965
 6395SOL     OW20083   6.011   1.796   1.179
 6395SOL    HW120084   6.006   1.884   1.227
 6395SOL    HW220085   6.063   1.731   1.234
 6396SOL     OW20086   5.672   2.799   6.038
 6396SOL    HW120087   5.704   2.764   6.126
 6396SOL    HW220088   5.580   2.837   6.049
 6397SOL     OW20089   6.507   1.847   0.035
 6397SOL    HW120090   6.460   1.869   0.121
 6397SOL    HW220091   6.602   1.879   0.041
 6398SOL     OW20092   3.411   1.090   1.457
 6398SOL    HW120093   3.316   1.063   1.474
 6398SOL    HW220094   3.441   1.057   1.368
 6399SOL     OW20095   1.806   5.431   6.456
 6399SOL    HW120096   1.786   5.480   6.371
 6399SOL    HW220097   1.725   5.380   6.485
 6400SOL     OW20098   2.155   5.591   3.122
 6400SOL    HW120099   2.126   5.681   3.155
 6400SOL    HW220100   2.221   5.552   3.186
 6401SOL     OW20101   6.978   4.568   4.036
 6401SOL    HW120102   7.008   4.635   3.968
 6401SOL    HW220103   0.005   4.483   4.024
 6402SOL     OW20104   2.679   0.754   2.512
 6402SOL    HW120105   2.587   0.791   2.507
 6402SOL    HW220106   2.721   0.755   2.421
 6403SOL     OW20107   0.754   5.577   6.527
 6403SOL    HW120108   0.737   5.669   6.563
 6403SOL    HW220109   0.820   5.530   6.586
 6404SOL     OW20110   4.002   1.552   3.339
 6404SOL    HW120111   3.953   1.639   3.334
 6404SOL    HW220112   4.043   1.542   3.429
 6405SOL     OW20113   1.848   2.081   3.049
 6405SOL    HW120114   1.881   2.173   3.026
 6405SOL    HW220115   1.842   2.073   3.149
 6406SOL     OW20116   1.340   1.635   3.361
 6406SOL    HW120117   1.435   1.628   3.391
 6406SOL    HW220118   1.307   1.728   3.378
 6407SOL     OW20119   3.145   6.637   4.136
 6407SOL    HW120120   3.147   6.540   4.113
 6407SOL    HW220121   3.068   6.681   4.090
 6408SOL     OW20122   6.106   2.296   6.933
 6408SOL    HW120123   6.190   2.313   6.882
 6408SOL    HW220124   6.043   2.373   6.918
 6409SOL     OW20125   6.536   4.298   2.790
 6409SOL    HW120126   6.593   4.330   2.715
 6409SOL    HW220127   6.572   4.211   2.825
 6410SOL     OW20128   1.626   1.772   0.913
 6410SOL    HW120129   1.715   1.733   0.938
 6410SOL    HW220130   1.567   1.700   0.877
 6411SOL     OW20131   0.636   2.339   3.099
 6411SOL    HW120132   0.569   2.384   3.039
 6411SOL    HW220133   0.590   2.267   3.152
 6412SOL     OW20134   0.056   3.162   5.423
 6412SOL    HW120135   0.155   3.179   5.421
 6412SOL    HW220136   0.010   3.241   5.464
 6413SOL     OW20137   6.139   4.773   1.995
 6413SOL    HW120138   6.203   4.814   1.930
 6413SOL    HW220139   6.182   4.692   2.036
 6414SOL     OW20140   5.613   0.941   1.674
 6414SOL    HW120141   5.518   0.962   1.697
 6414SOL    HW220142   5.673   0.966   1.750
 6415SOL     OW20143   3.022   2.206   2.762
 6415SOL    HW120144   3.094   2.181   2.696
 6415SOL    HW220145   2.937   2.224   2.713
 6416SOL     OW20146   0.752   0.935   6.326
 6416SOL    HW120147   0.785   0.847   6.291
 6416SOL    HW220148   0.714   0.922   6.418
 6417SOL     OW20149   0.787   6.173   3.046
 6417SOL    HW120150   0.867   6.132   3.090
 6417SOL    HW220151   0.816   6.234   2.973
 6418SOL     OW20152   6.851   4.937   2.539
 6418SOL    HW120153   6.852   4.942   2.439
 6418SOL    HW220154   6.941   4.909   2.572
 6419SOL     OW20155   3.172   5.367   1.843
 6419SOL    HW120156   3.265   5.404   1.837
 6419SOL    HW220157   3.114   5.412   1.776
 6420SOL     OW20158   3.308   3.357   6.440
 6420SOL    HW120159   3.298   3.455   6.423
 6420SOL    HW220160   3.316   3.309   6.353
 6421SOL     OW20161   6.345   1.719   1.095
 6421SOL    HW120162   6.280   1.721   1.171
 6421SOL    HW220163   6.427   1.769   1.121
 6422SOL     OW20164   6.890   0.147   3.637
 6422SOL    HW120165   6.973   0.107   3.598
 6422SOL    HW220166   6.851   0.214   3.574
 6423SOL     OW20167   4.738   4.270   1.312
 6423SOL    HW120168   4.823   4.219   1.319
 6423SOL    HW220169   4.730   4.332   1.390
 6424SOL     OW20170   6.768   4.344   6.165
 6424SOL    HW120171   6.685   4.335   6.220
 6424SOL    HW220172   6.796   4.440   6.161
 6425SOL     OW20173   6.924   4.943   3.512
 6425SOL    HW120174   6.880   4.854   3.503
 6425SOL    HW220175   7.022   4.931   3.526
 6426SOL     OW20176   0.896   2.995   4.220
 6426SOL    HW120177   0.892   3.048   4.305
 6426SOL    HW220178   0.942   2.908   4.237
 6427SOL     OW20179   1.727   3.720   0.032
 6427SOL    HW120180   1.767   3.753   0.118
 6427SOL    HW220181   1.776   3.761   6.981
 6428SOL     OW20182   6.489   3.636   1.614
 6428SOL    HW120183   6.577   3.680   1.633
 6428SOL    HW220184   6.498   3.537   1.628
 6429SOL     OW20185   1.437   0.902   5.041
 6429SOL    HW120186   1.484   0.849   5.112
 6429SOL    HW220187   1.417   0.842   4.963
 6430SOL     OW20188   4.636   0.791   1.884
 6430SOL    HW120189   4.640   0.801   1.984
 6430SOL    HW220190   4.542   0.804   1.853
 6431SOL     OW20191   5.772   6.869   3.864
 6431SOL    HW120192   5.711   6.859   3.785
 6431SOL    HW220193   5.807   6.780   3.891
 6432SOL     OW20194   4.286   4.345   0.252
 6432SOL    HW120195   4.360   4.334   0.319
 6432SOL    HW220196   4.270   4.442   0.235
 6433SOL     OW20197   3.105   4.942   0.977
 6433SOL    HW120198   3.151   4.979   0.896
 6433SOL    HW220199   3.021   4.995   0.995
 6434SOL     OW20200   1.200   3.659   1.274
 6434SOL    HW120201   1.152   3.596   1.212
 6434SOL    HW220202   1.254   3.723   1.219
 6435SOL     OW20203   3.396   5.348   6.847
 6435SOL    HW120204   3.449   5.408   6.787
 6435SOL    HW220205   3.443   5.341   6.935
 6436SOL     OW20206   2.203   3.194   3.649
 6436SOL    HW120207   2.203   3.273   3.710
 6436SOL    HW220208   2.210   3.110   3.702
 6437SOL     OW20209   1.684   1.426   0.199
 6437SOL    HW120210   1.612   1.494   0.183
 6437SOL    HW220211   1.678   1.393   0.293
 6438SOL     OW20212   0.223   4.281   5.502
 6438SOL    HW120213   0.265   4.328   5.580
 6438SOL    HW220214   0.227   4.339   5.421
 6439SOL     OW20215   0.624   6.675   0.723
 6439SOL    HW120216   0.554   6.735   0.684
 6439SOL    HW220217   0.606   6.581   0.695
 6440SOL     OW20218   2.146   1.840   2.110
 6440SOL    HW120219   2.079   1.775   2.146
 6440SOL    HW220220   2.219   1.853   2.178
 6441SOL     OW20221   1.122   0.704   2.529
 6441SOL    HW120222   1.027   0.724   2.507
 6441SOL    HW220223   1.131   0.609   2.559
 6442SOL     OW20224   2.634   1.708   4.114
 6442SOL    HW120225   2.692   1.746   4.186
 6442SOL    HW220226   2.543   1.751   4.118
 6443SOL     OW20227   3.597   2.705   0.921
 6443SOL    HW120228   3.546   2.620   0.913
 6443SOL    HW220229   3.579   2.763   0.842
 6444SOL     OW20230   0.469   2.618   3.239
 6444SOL    HW120231   0.428   2.705   3.213
 6444SOL    HW220232   0.460   2.553   3.163
 6445SOL     OW20233   4.502   2.463   5.291
 6445SOL    HW120234   4.473   2.519   5.213
 6445SOL    HW220235   4.426   2.454   5.355
 6446SOL     OW20236   0.243   1.467   5.742
 6446SOL    HW120237   0.286   1.406   5.809
 6446SOL    HW220238   0.151   1.492   5.773
 6447SOL     OW20239   0.631   5.869   2.442
 6447SOL    HW120240   0.659   5.956   2.401
 6447SOL    HW220241   0.696   5.798   2.417
 6448SOL     OW20242   6.488   4.184   2.252
 6448SOL    HW120243   6.393   4.214   2.248
 6448SOL    HW220244   6.527   4.209   2.340
 6449SOL     OW20245   3.829   3.957   1.930
 6449SOL    HW120246   3.755   4.022   1.915
 6449SOL    HW220247   3.848   3.951   2.028
 6450SOL     OW20248   6.705   2.808   1.875
 6450SOL    HW120249   6.729   2.899   1.841
 6450SOL    HW220250   6.770   2.741   1.838
 6451SOL     OW20251   3.073   6.405   5.546
 6451SOL    HW120252   3.071   6.439   5.640
 6451SOL    HW220253   3.055   6.481   5.483
 6452SOL     OW20254   3.887   6.830   4.978
 6452SOL    HW120255   3.803   6.836   4.925
 6452SOL    HW220256   3.937   6.916   4.969
 6453SOL     OW20257   1.593   6.934   6.696
 6453SOL    HW120258   1.618   6.976   6.783
 6453SOL    HW220259   1.528   6.992   6.647
 6454SOL     OW20260   2.610   1.276   3.861
 6454SOL    HW120261   2.607   1.345   3.788
 6454SOL    HW220262   2.648   1.316   3.944
 6455SOL     OW20263   0.958   2.328   4.643
 6455SOL    HW120264   0.928   2.340   4.738
 6455SOL    HW220265   1.052   2.294   4.642
 6456SOL     OW20266   1.505   0.544   3.118
 6456SOL    HW120267   1.456   0.501   3.194
 6456SOL    HW220268   1.549   0.627   3.149
 6457SOL     OW20269   5.633   1.337   1.108
 6457SOL    HW120270   5.638   1.237   1.104
 6457SOL    HW220271   5.669   1.368   1.196
 6458SOL     OW20272   0.931   6.239   2.509
 6458SOL    HW120273   0.869   6.175   2.554
 6458SOL    HW220274   0.885   6.326   2.494
 6459SOL     OW20275   5.441   5.436   0.378
 6459SOL    HW120276   5.392   5.412   0.294
 6459SOL    HW220277   5.382   5.416   0.457
 6460SOL     OW20278   4.138   5.029   6.304
 6460SOL    HW120279   4.051   5.049   6.261
 6460SOL    HW220280   4.124   4.963   6.378
 6461SOL     OW20281   3.130   5.538   4.805
 6461SOL    HW120282   3.050   5.481   4.826
 6461SOL    HW220283   3.209   5.505   4.858
 6462SOL     OW20284   2.074   3.045   5.145
 6462SOL    HW120285   2.104   3.111   5.076
 6462SOL    HW220286   2.154   3.004   5.189
 6463SOL     OW20287   2.617   4.780   6.357
 6463SOL    HW120288   2.654   4.687   6.365
 6463SOL    HW220289   2.546   4.781   6.286
 6464SOL     OW20290   0.707   4.762   3.908
 6464SOL    HW120291   0.700   4.694   3.835
 6464SOL    HW220292   0.791   4.815   3.897
 6465SOL     OW20293   5.727   2.414   3.517
 6465SOL    HW120294   5.648   2.422   3.578
 6465SOL    HW220295   5.708   2.463   3.432
 6466SOL     OW20296   6.789   2.771   4.849
 6466SOL    HW120297   6.825   2.794   4.939
 6466SOL    HW220298   6.864   2.752   4.786
 6467SOL     OW20299   2.155   1.210   6.854
 6467SOL    HW120300   2.171   1.185   6.949
 6467SOL    HW220301   2.211   1.289   6.830
 6468SOL     OW20302   3.704   5.986   1.253
 6468SOL    HW120303   3.675   5.905   1.304
 6468SOL    HW220304   3.752   6.048   1.314
 6469SOL     OW20305   5.785   1.172   5.517
 6469SOL    HW120306   5.784   1.249   5.454
 6469SOL    HW220307   5.849   1.103   5.484
 6470SOL     OW20308   6.606   5.362   6.228
 6470SOL    HW120309   6.535   5.295   6.206
 6470SOL    HW220310   6.689   5.340   6.177
 6471SOL     OW20311   6.809   5.569   6.103
 6471SOL    HW120312   6.774   5.579   6.196
 6471SOL    HW220313   6.884   5.503   6.102
 6472SOL     OW20314   1.094   5.572   1.038
 6472SOL    HW120315   1.171   5.541   0.981
 6472SOL    HW220316   1.046   5.647   0.991
 6473SOL     OW20317   2.318   1.338   5.883
 6473SOL    HW120318   2.306   1.420   5.940
 6473SOL    HW220319   2.296   1.257   5.937
 6474SOL     OW20320   1.717   4.170   6.069
 6474SOL    HW120321   1.626   4.213   6.072
 6474SOL    HW220322   1.774   4.219   6.002
 6475SOL     OW20323   6.305   6.343   4.159
 6475SOL    HW120324   6.344   6.289   4.234
 6475SOL    HW220325   6.365   6.419   4.138
 6476SOL     OW20326   4.764   4.077   2.383
 6476SOL    HW120327   4.809   4.030   2.306
 6476SOL    HW220328   4.743   4.171   2.356
 6477SOL     OW20329   6.841   4.818   0.718
 6477SOL    HW120330   6.899   4.765   0.780
 6477SOL    HW220331   6.898   4.881   0.665
 6478SOL     OW20332   3.273   5.656   2.201
 6478SOL    HW120333   3.229   5.636   2.289
 6478SOL    HW220334   3.291   5.570   2.153
 6479SOL     OW20335   4.104   5.051   2.392
 6479SOL    HW120336   4.130   5.059   2.489
 6479SOL    HW220337   4.045   5.127   2.366
 6480SOL     OW20338   3.925   2.770   5.694
 6480SOL    HW120339   4.011   2.779   5.644
 6480SOL    HW220340   3.942   2.728   5.783
 6481SOL     OW20341   3.245   2.441   1.671
 6481SOL    HW120342   3.288   2.358   1.706
 6481SOL    HW220343   3.201   2.490   1.746
 6482SOL     OW20344   6.578   0.439   6.825
 6482SOL    HW120345   6.653   0.489   6.781
 6482SOL    HW220346   6.503   0.502   6.845
 6483SOL     OW20347   2.548   6.204   2.399
 6483SOL    HW120348   2.534   6.112   2.363
 6483SOL    HW220349   2.505   6.212   2.489
 6484SOL     OW20350   4.022   0.081   2.459
 6484SOL    HW120351   4.103   0.099   2.515
 6484SOL    HW220352   3.940   0.086   2.516
 6485SOL     OW20353   1.703   3.290   3.386
 6485SOL    HW120354   1.749   3.363   3.437
 6485SOL    HW220355   1.679   3.215   3.448
 6486SOL     OW20356   1.319   4.312   3.645
 6486SOL    HW120357   1.328   4.352   3.554
 6486SOL    HW220358   1.296   4.216   3.638
 6487SOL     OW20359   6.288   5.841   4.588
 6487SOL    HW120360   6.374   5.837   4.638
 6487SOL    HW220361   6.298   5.793   4.501
 6488SOL     OW20362   3.107   6.137   5.623
 6488SOL    HW120363   3.139   6.225   5.588
 6488SOL    HW220364   3.057   6.089   5.552
 6489SOL     OW20365   1.981   2.784   6.530
 6489SOL    HW120366   1.949   2.825   6.616
 6489SOL    HW220367   2.063   2.730   6.548
 6490SOL     OW20368   3.937   2.303   0.225
 6490SOL    HW120369   4.029   2.306   0.265
 6490SOL    HW220370   3.870   2.329   0.295
 6491SOL     OW20371   4.075   1.418   0.158
 6491SOL    HW120372   4.100   1.374   0.071
 6491SOL    HW220373   4.114   1.510   0.161
 6492SOL     OW20374   5.849   6.885   6.994
 6492SOL    HW120375   5.899   6.806   6.959
 6492SOL    HW220376   5.888   6.969   6.954
 6493SOL     OW20377   1.660   6.481   5.307
 6493SOL    HW120378   1.643   6.498   5.405
 6493SOL    HW220379   1.758   6.470   5.292
 6494SOL     OW20380   0.706   0.368   3.178
 6494SOL    HW120381   0.729   0.405   3.088
 6494SOL    HW220382   0.786   0.319   3.215
 6495SOL     OW20383   5.110   6.047   4.102
 6495SOL    HW120384   5.207   6.066   4.114
 6495SOL    HW220385   5.098   5.951   4.076
 6496SOL     OW20386   0.015   6.187   2.005
 6496SOL    HW120387   7.017   6.284   2.009
 6496SOL    HW220388   0.034   6.154   2.098
 6497SOL     OW20389   2.517   3.361   1.071
 6497SOL    HW120390   2.612   3.334   1.055
 6497SOL    HW220391   2.474   3.296   1.134
 6498SOL     OW20392   2.265   5.011   3.836
 6498SOL    HW120393   2.182   5.065   3.853
 6498SOL    HW220394   2.344   5.059   3.875
 6499SOL     OW20395   4.916   0.638   5.190
 6499SOL    HW120396   4.928   0.664   5.094
 6499SOL    HW220397   4.994   0.672   5.243
 6500SOL     OW20398   6.149   3.842   3.176
 6500SOL    HW120399   6.219   3.811   3.240
 6500SOL    HW220400   6.136   3.941   3.186
 6501SOL     OW20401   6.338   3.126   1.019
 6501SOL    HW120402   6.278   3.060   1.064
 6501SOL    HW220403   6.312   3.134   0.923
 6502SOL     OW20404   0.217   4.013   3.795
 6502SOL    HW120405   0.304   3.968   3.817
 6502SOL    HW220406   0.144   3.975   3.850
 6503SOL     OW20407   5.877   6.626   3.947
 6503SOL    HW120408   5.902   6.547   3.891
 6503SOL    HW220409   5.954   6.690   3.950
 6504SOL     OW20410   3.896   6.877   6.359
 6504SOL    HW120411   3.972   6.813   6.347
 6504SOL    HW220412   3.851   6.892   6.271
 6505SOL     OW20413   6.360   4.780   0.604
 6505SOL    HW120414   6.421   4.718   0.654
 6505SOL    HW220415   6.267   4.770   0.638
 6506SOL     OW20416   0.819   3.082   1.035
 6506SOL    HW120417   0.834   3.002   1.093
 6506SOL    HW220418   0.792   3.051   0.943
 6507SOL     OW20419   1.254   5.844   0.336
 6507SOL    HW120420   1.316   5.775   0.373
 6507SOL    HW220421   1.264   5.848   0.236
 6508SOL     OW20422   2.462   1.638   3.484
 6508SOL    HW120423   2.543   1.692   3.462
 6508SOL    HW220424   2.399   1.693   3.540
 6509SOL     OW20425   1.795   2.498   4.651
 6509SOL    HW120426   1.745   2.570   4.699
 6509SOL    HW220427   1.731   2.442   4.599
 6510SOL     OW20428   0.313   5.157   6.326
 6510SOL    HW120429   0.394   5.098   6.316
 6510SOL    HW220430   0.236   5.102   6.358
 6511SOL     OW20431   5.896   0.328   4.790
 6511SOL    HW120432   5.981   0.364   4.753
 6511SOL    HW220433   5.826   0.326   4.719
 6512SOL     OW20434   4.647   7.016   3.009
 6512SOL    HW120435   4.695   6.993   3.093
 6512SOL    HW220436   4.584   6.943   2.985
 6513SOL     OW20437   3.430   6.688   4.052
 6513SOL    HW120438   3.361   6.736   4.105
 6513SOL    HW220439   3.413   6.590   4.056
 6514SOL     OW20440   5.053   0.073   4.051
 6514SOL    HW120441   5.096   0.048   4.138
 6514SOL    HW220442   5.037   7.016   3.997
 6515SOL     OW20443   0.048   4.849   4.281
 6515SOL    HW120444   0.069   4.752   4.282
 6515SOL    HW220445   0.118   4.898   4.227
 6516SOL     OW20446   0.293   1.731   6.526
 6516SOL    HW120447   0.345   1.707   6.445
 6516SOL    HW220448   0.354   1.769   6.595
 6517SOL     OW20449   6.701   2.028   0.493
 6517SOL    HW120450   6.745   1.959   0.435
 6517SOL    HW220451   6.750   2.115   0.482
 6518SOL     OW20452   0.834   6.381   0.229
 6518SOL    HW120453   0.820   6.286   0.254
 6518SOL    HW220454   0.785   6.401   0.144
 6519SOL     OW20455   2.734   1.635   3.847
 6519SOL    HW120456   2.705   1.628   3.942
 6519SOL    HW220457   2.829   1.607   3.838
 6520SOL     OW20458   6.231   5.470   3.152
 6520SOL    HW120459   6.290   5.531   3.204
 6520SOL    HW220460   6.282   5.387   3.127
 6521SOL     OW20461   1.036   1.078   4.365
 6521SOL    HW120462   1.072   1.038   4.282
 6521SOL    HW220463   1.111   1.112   4.422
 6522SOL     OW20464   2.513   5.506   6.793
 6522SOL    HW120465   2.536   5.415   6.828
 6522SOL    HW220466   2.528   5.508   6.694
 6523SOL     OW20467   2.891   1.458   6.312
 6523SOL    HW120468   2.865   1.480   6.406
 6523SOL    HW220469   2.975   1.402   6.313
 6524SOL     OW20470   3.599   3.290   3.911
 6524SOL    HW120471   3.545   3.233   3.973
 6524SOL    HW220472   3.693   3.295   3.942
 6525SOL     OW20473   1.509   2.875   2.660
 6525SOL    HW120474   1.575   2.931   2.609
 6525SOL    HW220475   1.513   2.780   2.628
 6526SOL     OW20476   0.891   6.662   5.045
 6526SOL    HW120477   0.931   6.624   5.128
 6526SOL    HW220478   0.822   6.730   5.068
 6527SOL     OW20479   1.374   1.108   5.201
 6527SOL    HW120480   1.373   1.031   5.137
 6527SOL    HW220481   1.304   1.174   5.175
 6528SOL     OW20482   0.332   1.072   3.980
 6528SOL    HW120483   0.318   1.053   3.883
 6528SOL    HW220484   0.429   1.061   4.003
 6529SOL     OW20485   6.085   1.961   2.853
 6529SOL    HW120486   6.098   2.053   2.816
 6529SOL    HW220487   6.040   1.903   2.786
 6530SOL     OW20488   6.500   2.994   0.499
 6530SOL    HW120489   6.526   2.921   0.435
 6530SOL    HW220490   6.537   2.973   0.590
 6531SOL     OW20491   5.573   2.708   3.944
 6531SOL    HW120492   5.605   2.618   3.974
 6531SOL    HW220493   5.544   2.761   4.024
 6532SOL     OW20494   6.472   1.742   0.411
 6532SOL    HW120495   6.442   1.812   0.346
 6532SOL    HW220496   6.545   1.687   0.368
 6533SOL     OW20497   5.500   6.383   1.187
 6533SOL    HW120498   5.533   6.300   1.231
 6533SOL    HW220499   5.485   6.454   1.256
 6534SOL     OW20500   2.602   3.739   1.235
 6534SOL    HW120501   2.657   3.822   1.227
 6534SOL    HW220502   2.574   3.709   1.144
 6535SOL     OW20503   0.468   2.869   5.240
 6535SOL    HW120504   0.475   2.871   5.140
 6535SOL    HW220505   0.374   2.889   5.267
 6536SOL     OW20506   6.299   2.708   6.515
 6536SOL    HW120507   6.314   2.609   6.516
 6536SOL    HW220508   6.371   2.753   6.567
 6537SOL     OW20509   6.690   6.677   6.594
 6537SOL    HW120510   6.726   6.656   6.503
 6537SOL    HW220511   6.702   6.598   6.654
 6538SOL     OW20512   4.027   4.250   0.272
 6538SOL    HW120513   4.120   4.278   0.298
 6538SOL    HW220514   4.032   4.172   0.210
 6539SOL     OW20515   2.425   2.170   6.638
 6539SOL    HW120516   2.482   2.140   6.561
 6539SOL    HW220517   2.339   2.206   6.603
 6540SOL     OW20518   3.911   1.865   4.248
 6540SOL    HW120519   3.838   1.798   4.251
 6540SOL    HW220520   3.873   1.957   4.262
 6541SOL     OW20521   2.936   2.220   5.108
 6541SOL    HW120522   2.912   2.238   5.013
 6541SOL    HW220523   3.036   2.223   5.118
 6542SOL     OW20524   6.175   5.030   3.014
 6542SOL    HW120525   6.083   4.991   3.022
 6542SOL    HW220526   6.230   4.973   2.953
 6543SOL     OW20527   6.161   5.341   0.251
 6543SOL    HW120528   6.132   5.247   0.236
 6543SOL    HW220529   6.105   5.402   0.195
 6544SOL     OW20530   0.182   6.074   4.193
 6544SOL    HW120531   0.142   6.148   4.140
 6544SOL    HW220532   0.227   6.111   4.274
 6545SOL     OW20533   4.843   1.388   6.283
 6545SOL    HW120534   4.867   1.486   6.284
 6545SOL    HW220535   4.744   1.378   6.282
 6546SOL     OW20536   4.692   4.126   6.340
 6546SOL    HW120537   4.714   4.222   6.325
 6546SOL    HW220538   4.710   4.102   6.436
 6547SOL     OW20539   4.203   1.970   6.127
 6547SOL    HW120540   4.241   1.953   6.218
 6547SOL    HW220541   4.248   2.050   6.087
 6548SOL     OW20542   0.712   4.383   6.476
 6548SOL    HW120543   0.752   4.311   6.533
 6548SOL    HW220544   0.708   4.468   6.528
 6549SOL     OW20545   3.899   1.905   1.431
 6549SOL    HW120546   3.934   1.887   1.339
 6549SOL    HW220547   3.841   1.987   1.430
 6550SOL     OW20548   0.412   6.006   3.324
 6550SOL    HW120549   0.452   5.915   3.310
 6550SOL    HW220550   0.468   6.074   3.278
 6551SOL     OW20551   2.273   4.520   1.836
 6551SOL    HW120552   2.372   4.521   1.851
 6551SOL    HW220553   2.234   4.437   1.876
 6552SOL     OW20554   2.220   5.643   5.224
 6552SOL    HW120555   2.187   5.715   5.162
 6552SOL    HW220556   2.223   5.678   5.317
 6553SOL     OW20557   0.386   3.164   1.250
 6553SOL    HW120558   0.450   3.125   1.316
 6553SOL    HW220559   0.375   3.102   1.173
 6554SOL     OW20560   6.077   1.495   5.692
 6554SOL    HW120561   6.035   1.416   5.736
 6554SOL    HW220562   6.007   1.547   5.643
 6555SOL     OW20563   1.683   0.485   2.131
 6555SOL    HW120564   1.596   0.487   2.082
 6555SOL    HW220565   1.721   0.577   2.138
 6556SOL     OW20566   4.738   4.544   4.926
 6556SOL    HW120567   4.812   4.612   4.926
 6556SOL    HW220568   4.731   4.503   4.835
 6557SOL     OW20569   5.676   5.883   0.608
 6557SOL    HW120570   5.633   5.802   0.570
 6557SOL    HW220571   5.770   5.861   0.636
 6558SOL     OW20572   6.286   5.494   0.737
 6558SOL    HW120573   6.358   5.511   0.670
 6558SOL    HW220574   6.285   5.397   0.761
 6559SOL     OW20575   5.008   3.612   1.215
 6559SOL    HW120576   5.070   3.660   1.277
 6559SOL    HW220577   4.940   3.561   1.267
 6560SOL     OW20578   3.756   2.966   1.441
 6560SOL    HW120579   3.841   2.965   1.494
 6560SOL    HW220580   3.709   3.053   1.457
 6561SOL     OW20581   4.078   3.803   2.416
 6561SOL    HW120582   4.068   3.803   2.317
 6561SOL    HW220583   4.155   3.863   2.441
 6562SOL     OW20584   6.546   4.634   6.056
 6562SOL    HW120585   6.509   4.550   6.018
 6562SOL    HW220586   6.491   4.662   6.135
 6563SOL     OW20587   0.539   5.712   0.091
 6563SOL    HW120588   0.633   5.690   0.116
 6563SOL    HW220589   0.517   5.668   0.004
 6564SOL     OW20590   1.117   3.721   2.129
 6564SOL    HW120591   1.216   3.719   2.113
 6564SOL    HW220592   1.071   3.745   2.043
 6565SOL     OW20593   5.893   2.705   5.139
 6565SOL    HW120594   5.859   2.636   5.075
 6565SOL    HW220595   5.910   2.791   5.090
 6566SOL     OW20596   3.357   0.437   1.624
 6566SOL    HW120597   3.383   0.486   1.541
 6566SOL    HW220598   3.265   0.464   1.651
 6567SOL     OW20599   4.899   2.968   1.262
 6567SOL    HW120600   4.930   3.057   1.294
 6567SOL    HW220601   4.802   2.956   1.286
 6568SOL     OW20602   4.591   5.072   1.994
 6568SOL    HW120603   4.559   4.990   2.043
 6568SOL    HW220604   4.678   5.102   2.033
 6569SOL     OW20605   2.599   5.203   0.821
 6569SOL    HW120606   2.695   5.194   0.845
 6569SOL    HW220607   2.588   5.277   0.754
 6570SOL     OW20608   4.607   6.828   1.974
 6570SOL    HW120609   4.646   6.903   1.921
 6570SOL    HW220610   4.526   6.791   1.927
 6571SOL     OW20611   2.366   6.019   3.054
 6571SOL    HW120612   2.304   5.979   2.986
 6571SOL    HW220613   2.319   6.092   3.104
 6572SOL     OW20614   6.158   4.356   5.231
 6572SOL    HW120615   6.228   4.343   5.301
 6572SOL    HW220616   6.154   4.275   5.172
 6573SOL     OW20617   3.633   0.728   2.584
 6573SOL    HW120618   3.541   0.738   2.624
 6573SOL    HW220619   3.701   0.733   2.657
 6574SOL     OW20620   2.332   6.274   2.061
 6574SOL    HW120621   2.261   6.217   2.103
 6574SOL    HW220622   2.352   6.241   1.969
 6575SOL     OW20623   0.581   1.216   1.915
 6575SOL    HW120624   0.600   1.250   2.007
 6575SOL    HW220625   0.649   1.145   1.892
 6576SOL     OW20626   0.939   6.075   6.479
 6576SOL    HW120627   0.973   6.157   6.432
 6576SOL    HW220628   1.014   6.030   6.526
 6577SOL     OW20629   0.493   1.728   3.426
 6577SOL    HW120630   0.403   1.730   3.471
 6577SOL    HW220631   0.538   1.817   3.437
 6578SOL     OW20632   6.405   5.270   3.413
 6578SOL    HW120633   6.428   5.184   3.367
 6578SOL    HW220634   6.379   5.251   3.507
 6579SOL     OW20635   6.683   3.778   3.900
 6579SOL    HW120636   6.732   3.714   3.840
 6579SOL    HW220637   6.699   3.752   3.995
 6580SOL     OW20638   6.079   1.018   1.097
 6580SOL    HW120639   6.026   1.090   1.051
 6580SOL    HW220640   6.163   1.057   1.134
 6581SOL     OW20641   3.631   1.087   5.334
 6581SOL    HW120642   3.558   1.137   5.380
 6581SOL    HW220643   3.712   1.085   5.393
 6582SOL     OW20644   1.144   6.918   2.655
 6582SOL    HW120645   1.174   6.840   2.710
 6582SOL    HW220646   1.198   6.923   2.571
 6583SOL     OW20647   5.165   1.704   6.126
 6583SOL    HW120648   5.126   1.768   6.193
 6583SOL    HW220649   5.229   1.753   6.067
 6584SOL     OW20650   5.682   2.003   6.403
 6584SOL    HW120651   5.662   2.021   6.499
 6584SOL    HW220652   5.679   2.089   6.351
 6585SOL     OW20653   0.067   1.574   0.302
 6585SOL    HW120654   0.125   1.512   0.250
 6585SOL    HW220655   0.111   1.663   0.310
 6586SOL     OW20656   6.616   2.581   5.583
 6586SOL    HW120657   6.676   2.514   5.627
 6586SOL    HW220658   6.603   2.659   5.645
 6587SOL     OW20659   2.641   5.714   4.289
 6587SOL    HW120660   2.582   5.672   4.357
 6587SOL    HW220661   2.733   5.724   4.326
 6588SOL     OW20662   1.451   4.056   1.205
 6588SOL    HW120663   1.527   4.014   1.155
 6588SOL    HW220664   1.489   4.117   1.275
 6589SOL     OW20665   4.655   0.479   6.679
 6589SOL    HW120666   4.607   0.561   6.711
 6589SOL    HW220667   4.643   0.471   6.580
 6590SOL     OW20668   0.125   1.668   4.688
 6590SOL    HW120669   0.207   1.723   4.708
 6590SOL    HW220670   0.075   1.709   4.612
 6591SOL     OW20671   5.788   6.779   2.628
 6591SOL    HW120672   5.693   6.758   2.652
 6591SOL    HW220673   5.845   6.775   2.711
 6592SOL     OW20674   4.493   0.086   4.429
 6592SOL    HW120675   4.415   0.143   4.407
 6592SOL    HW220676   4.526   0.040   4.347
 6593SOL     OW20677   2.733   2.318   3.546
 6593SOL    HW120678   2.667   2.380   3.587
 6593SOL    HW220679   2.822   2.329   3.592
 6594SOL     OW20680   4.621   1.037   0.060
 6594SOL    HW120681   4.641   0.943   0.087
 6594SOL    HW220682   4.597   1.091   0.141
 6595SOL     OW20683   1.017   3.839   1.360
 6595SOL    HW120684   1.058   3.753   1.331
 6595SOL    HW220685   0.974   3.884   1.282
 6596SOL     OW20686   4.038   0.463   6.189
 6596SOL    HW120687   4.122   0.517   6.200
 6596SOL    HW220688   4.044   0.410   6.105
 6597SOL     OW20689   1.048   6.688   4.470
 6597SOL    HW120690   1.068   6.720   4.378
 6597SOL    HW220691   0.949   6.692   4.486
 6598SOL     OW20692   1.856   5.274   5.271
 6598SOL    HW120693   1.760   5.304   5.265
 6598SOL    HW220694   1.900   5.285   5.182
 6599SOL     OW20695   4.235   4.803   5.999
 6599SOL    HW120696   4.143   4.840   5.983
 6599SOL    HW220697   4.265   4.825   6.091
 6600SOL     OW20698   5.597   4.737   5.173
 6600SOL    HW120699   5.580   4.648   5.130
 6600SOL    HW220700   5.635   4.800   5.105
 6601SOL     OW20701   0.170   0.369   0.110
 6601SOL    HW120702   0.081   0.323   0.107
 6601SOL    HW220703   0.158   0.465   0.083
 6602SOL     OW20704   0.468   2.513   0.980
 6602SOL    HW120705   0.430   2.424   0.959
 6602SOL    HW220706   0.523   2.508   1.064
 6603SOL     OW20707   1.979   3.061   4.200
 6603SOL    HW120708   2.022   3.120   4.269
 6603SOL    HW220709   1.987   3.104   4.110
 6604SOL     OW20710   2.610   5.860   1.724
 6604SOL    HW120711   2.566   5.816   1.802
 6604SOL    HW220712   2.668   5.935   1.757
 6605SOL     OW20713   5.015   5.291   0.449
 6605SOL    HW120714   4.985   5.385   0.466
 6605SOL    HW220715   5.033   5.245   0.536
 6606SOL     OW20716   4.726   0.445   2.352
 6606SOL    HW120717   4.705   0.351   2.326
 6606SOL    HW220718   4.794   0.445   2.425
 6607SOL     OW20719   1.806   1.371   2.168
 6607SOL    HW120720   1.789   1.462   2.206
 6607SOL    HW220721   1.728   1.311   2.188
 6608SOL     OW20722   5.461   3.223   2.735
 6608SOL    HW120723   5.504   3.249   2.648
 6608SOL    HW220724   5.484   3.290   2.805
 6609SOL     OW20725   5.132   0.749   6.897
 6609SOL    HW120726   5.108   0.845   6.912
 6609SOL    HW220727   5.062   0.705   6.842
 6610SOL     OW20728   1.934   0.289   0.025
 6610SOL    HW120729   1.867   0.337   0.081
 6610SOL    HW220730   2.025   0.327   0.041
 6611SOL     OW20731   6.637   2.722   3.251
 6611SOL    HW120732   6.554   2.687   3.209
 6611SOL    HW220733   6.709   2.652   3.246
 6612SOL     OW20734   1.538   4.921   6.518
 6612SOL    HW120735   1.541   4.849   6.450
 6612SOL    HW220736   1.505   5.006   6.476
 6613SOL     OW20737   5.413   6.017   3.586
 6613SOL    HW120738   5.321   6.055   3.579
 6613SOL    HW220739   5.473   6.081   3.635
 6614SOL     OW20740   4.747   6.433   6.465
 6614SOL    HW120741   4.728   6.516   6.413
 6614SOL    HW220742   4.842   6.435   6.497
 6615SOL     OW20743   0.540   3.897   4.716
 6615SOL    HW120744   0.529   3.994   4.699
 6615SOL    HW220745   0.504   3.845   4.638
 6616SOL     OW20746   4.050   1.729   5.984
 6616SOL    HW120747   4.105   1.806   6.017
 6616SOL    HW220748   3.979   1.707   6.051
 6617SOL     OW20749   3.804   6.763   3.827
 6617SOL    HW120750   3.741   6.840   3.839
 6617SOL    HW220751   3.765   6.682   3.872
 6618SOL     OW20752   1.063   3.329   2.093
 6618SOL    HW120753   1.156   3.357   2.116
 6618SOL    HW220754   1.011   3.314   2.176
 6619SOL     OW20755   4.433   6.763   4.154
 6619SOL    HW120756   4.521   6.778   4.198
 6619SOL    HW220757   4.369   6.725   4.220
 6620SOL     OW20758   1.578   2.913   5.997
 6620SOL    HW120759   1.595   2.815   5.992
 6620SOL    HW220760   1.480   2.930   5.987
 6621SOL     OW20761   2.831   3.906   0.689
 6621SOL    HW120762   2.731   3.900   0.693
 6621SOL    HW220763   2.870   3.849   0.761
 6622SOL     OW20764   5.947   6.051   1.073
 6622SOL    HW120765   5.916   6.080   1.163
 6622SOL    HW220766   6.035   6.094   1.052
 6623SOL     OW20767   3.924   3.222   1.857
 6623SOL    HW120768   4.009   3.264   1.889
 6623SOL    HW220769   3.899   3.146   1.918
 6624SOL     OW20770   2.688   6.129   4.788
 6624SOL    HW120771   2.779   6.148   4.824
 6624SOL    HW220772   2.623   6.196   4.824
 6625SOL     OW20773   5.939   1.336   6.589
 6625SOL    HW120774   5.927   1.269   6.663
 6625SOL    HW220775   5.902   1.298   6.504
 6626SOL     OW20776   3.463   5.284   3.173
 6626SOL    HW120777   3.383   5.258   3.227
 6626SOL    HW220778   3.546   5.256   3.220
 6627SOL     OW20779   2.039   0.748   5.918
 6627SOL    HW120780   1.947   0.779   5.894
 6627SOL    HW220781   2.047   0.741   6.017
 6628SOL     OW20782   5.004   4.929   2.709
 6628SOL    HW120783   4.947   4.892   2.635
 6628SOL    HW220784   4.966   5.015   2.742
 6629SOL     OW20785   3.149   6.098   0.815
 6629SOL    HW120786   3.177   6.075   0.722
 6629SOL    HW220787   3.196   6.038   0.880
 6630SOL     OW20788   3.612   1.314   0.141
 6630SOL    HW120789   3.661   1.230   0.162
 6630SOL    HW220790   3.564   1.346   0.223
 6631SOL     OW20791   4.674   0.183   2.301
 6631SOL    HW120792   4.643   0.090   2.319
 6631SOL    HW220793   4.653   0.207   2.206
 6632SOL     OW20794   0.148   1.646   1.544
 6632SOL    HW120795   0.054   1.623   1.569
 6632SOL    HW220796   0.148   1.716   1.473
 6633SOL     OW20797   1.454   5.605   6.224
 6633SOL    HW120798   1.423   5.560   6.308
 6633SOL    HW220799   1.554   5.599   6.218
 6634SOL     OW20800   6.556   3.274   6.186
 6634SOL    HW120801   6.620   3.198   6.170
 6634SOL    HW220802   6.485   3.272   6.116
 6635SOL     OW20803   4.118   5.178   3.462
 6635SOL    HW120804   4.135   5.235   3.542
 6635SOL    HW220805   4.031   5.131   3.472
 6636SOL     OW20806   1.199   3.437   5.300
 6636SOL    HW120807   1.164   3.460   5.391
 6636SOL    HW220808   1.290   3.477   5.289
 6637SOL     OW20809   1.021   0.451   0.130
 6637SOL    HW120810   1.049   0.361   0.165
 6637SOL    HW220811   0.970   0.499   0.202
 6638SOL     OW20812   3.214   5.251   4.647
 6638SOL    HW120813   3.177   5.264   4.739
 6638SOL    HW220814   3.154   5.296   4.581
 6639SOL     OW20815   5.764   5.326   6.297
 6639SOL    HW120816   5.796   5.333   6.202
 6639SOL    HW220817   5.671   5.288   6.298
 6640SOL     OW20818   6.970   1.740   4.493
 6640SOL    HW120819   6.946   1.661   4.437
 6640SOL    HW220820   6.892   1.802   4.499
 6641SOL     OW20821   3.142   3.778   6.749
 6641SOL    HW120822   3.151   3.850   6.680
 6641SOL    HW220823   3.114   3.819   6.836
 6642SOL     OW20824   2.213   5.323   6.852
 6642SOL    HW120825   2.257   5.391   6.793
 6642SOL    HW220826   2.277   5.248   6.871
 6643SOL     OW20827   6.303   4.704   6.898
 6643SOL    HW120828   6.225   4.653   6.860
 6643SOL    HW220829   6.388   4.657   6.874
 6644SOL     OW20830   3.120   4.700   1.805
 6644SOL    HW120831   3.057   4.623   1.819
 6644SOL    HW220832   3.067   4.783   1.786
 6645SOL     OW20833   6.874   5.100   0.521
 6645SOL    HW120834   6.784   5.142   0.510
 6645SOL    HW220835   6.945   5.170   0.509
 6646SOL     OW20836   4.523   5.363   4.427
 6646SOL    HW120837   4.546   5.343   4.332
 6646SOL    HW220838   4.497   5.459   4.436
 6647SOL     OW20839   3.042   0.878   2.739
 6647SOL    HW120840   3.031   0.977   2.730
 6647SOL    HW220841   3.066   0.856   2.833
 6648SOL     OW20842   3.750   5.459   2.744
 6648SOL    HW120843   3.751   5.361   2.724
 6648SOL    HW220844   3.837   5.485   2.787
 6649SOL     OW20845   5.358   2.338   6.117
 6649SOL    HW120846   5.394   2.406   6.053
 6649SOL    HW220847   5.291   2.381   6.177
 6650SOL     OW20848   3.974   1.281   3.282
 6650SOL    HW120849   3.940   1.233   3.363
 6650SOL    HW220850   3.990   1.377   3.304
 6651SOL     OW20851   1.543   2.457   0.889
 6651SOL    HW120852   1.462   2.401   0.876
 6651SOL    HW220853   1.619   2.418   0.836
 6652SOL     OW20854   6.674   3.829   0.975
 6652SOL    HW120855   6.728   3.755   1.017
 6652SOL    HW220856   6.701   3.916   1.016
 6653SOL     OW20857   3.907   3.868   2.910
 6653SOL    HW120858   3.845   3.918   2.970
 6653SOL    HW220859   3.874   3.774   2.900
 6654SOL     OW20860   2.042   2.840   1.098
 6654SOL    HW120861   1.997   2.911   1.043
 6654SOL    HW220862   2.079   2.770   1.038
 6655SOL     OW20863   2.840   6.655   1.924
 6655SOL    HW120864   2.755   6.626   1.968
 6655SOL    HW220865   2.836   6.754   1.906
 6656SOL     OW20866   6.782   0.867   2.757
 6656SOL    HW120867   6.793   0.845   2.660
 6656SOL    HW220868   6.749   0.961   2.766
 6657SOL     OW20869   4.101   6.679   6.350
 6657SOL    HW120870   4.129   6.618   6.277
 6657SOL    HW220871   4.172   6.747   6.366
 6658SOL     OW20872   5.849   0.919   5.346
 6658SOL    HW120873   5.768   0.883   5.391
 6658SOL    HW220874   5.903   0.844   5.307
 6659SOL     OW20875   2.807   2.194   0.263
 6659SOL    HW120876   2.809   2.105   0.308
 6659SOL    HW220877   2.738   2.193   0.190
 6660SOL     OW20878   6.958   6.560   1.522
 6660SOL    HW120879   6.903   6.501   1.463
 6660SOL    HW220880   0.019   6.514   1.543
 6661SOL     OW20881   6.665   5.219   3.629
 6661SOL    HW120882   6.610   5.176   3.700
 6661SOL    HW220883   6.657   5.318   3.635
 6662SOL     OW20884   1.830   1.267   0.353
 6662SOL    HW120885   1.806   1.172   0.334
 6662SOL    HW220886   1.889   1.303   0.281
 6663SOL     OW20887   6.947   5.679   3.636
 6663SOL    HW120888   6.866   5.632   3.603
 6663SOL    HW220889   0.003   5.635   3.601
 6664SOL     OW20890   1.350   0.213   1.669
 6664SOL    HW120891   1.434   0.218   1.722
 6664SOL    HW220892   1.353   0.133   1.609
 6665SOL     OW20893   0.932   0.169   3.772
 6665SOL    HW120894   1.011   0.159   3.712
 6665SOL    HW220895   0.870   0.092   3.758
 6666SOL     OW20896   6.411   1.727   4.989
 6666SOL    HW120897   6.378   1.634   4.971
 6666SOL    HW220898   6.505   1.723   5.023
 6667SOL     OW20899   6.234   5.217   4.979
 6667SOL    HW120900   6.315   5.161   4.996
 6667SOL    HW220901   6.249   5.309   5.016
 6668SOL     OW20902   0.234   5.457   1.912
 6668SOL    HW120903   0.223   5.554   1.888
 6668SOL    HW220904   0.217   5.445   2.010
 6669SOL     OW20905   2.199   4.610   3.610
 6669SOL    HW120906   2.187   4.675   3.685
 6669SOL    HW220907   2.290   4.622   3.570
 6670SOL     OW20908   3.653   4.776   6.563
 6670SOL    HW120909   3.585   4.704   6.581
 6670SOL    HW220910   3.630   4.857   6.616
 6671SOL     OW20911   5.639   4.433   0.056
 6671SOL    HW120912   5.562   4.379   0.091
 6671SOL    HW220913   5.625   4.529   0.079
 6672SOL     OW20914   0.950   0.653   5.331
 6672SOL    HW120915   0.905   0.738   5.304
 6672SOL    HW220916   0.884   0.593   5.375
 6673SOL     OW20917   5.226   5.844   2.780
 6673SOL    HW120918   5.144   5.820   2.729
 6673SOL    HW220919   5.295   5.882   2.718
 6674SOL     OW20920   0.829   5.941   6.002
 6674SOL    HW120921   0.795   5.924   6.095
 6674SOL    HW220922   0.929   5.940   6.002
 6675SOL     OW20923   5.410   4.142   1.213
 6675SOL    HW120924   5.382   4.208   1.143
 6675SOL    HW220925   5.336   4.077   1.228
 6676SOL     OW20926   0.778   3.327   5.528
 6676SOL    HW120927   0.723   3.245   5.514
 6676SOL    HW220928   0.852   3.307   5.592
 6677SOL     OW20929   0.377   3.226   0.248
 6677SOL    HW120930   0.359   3.184   0.160
 6677SOL    HW220931   0.470   3.206   0.277
 6678SOL     OW20932   1.034   2.844   6.495
 6678SOL    HW120933   1.125   2.803   6.485
 6678SOL    HW220934   0.988   2.845   6.406
 6679SOL     OW20935   1.404   1.886   4.899
 6679SOL    HW120936   1.363   1.808   4.947
 6679SOL    HW220937   1.485   1.855   4.850
 6680SOL     OW20938   3.634   5.530   5.774
 6680SOL    HW120939   3.554   5.557   5.721
 6680SOL    HW220940   3.715   5.578   5.740
 6681SOL     OW20941   5.421   5.813   6.654
 6681SOL    HW120942   5.396   5.906   6.628
 6681SOL    HW220943   5.415   5.753   6.574
 6682SOL     OW20944   0.659   4.299   2.699
 6682SOL    HW120945   0.564   4.293   2.666
 6682SOL    HW220946   0.673   4.386   2.746
 6683SOL     OW20947   5.111   1.894   5.387
 6683SOL    HW120948   5.104   1.993   5.377
 6683SOL    HW220949   5.201   1.871   5.426
 6684SOL     OW20950   2.056   6.991   2.651
 6684SOL    HW120951   2.144   6.986   2.605
 6684SOL    HW220952   2.025   6.899   2.676
 6685SOL     OW20953   5.417   1.836   6.277
 6685SOL    HW120954   5.395   1.739   6.269
 6685SOL    HW220955   5.337   1.887   6.308
 6686SOL     OW20956   6.337   3.971   4.384
 6686SOL    HW120957   6.321   3.890   4.440
 6686SOL    HW220958   6.249   4.011   4.358
 6687SOL     OW20959   1.435   1.374   1.143
 6687SOL    HW120960   1.434   1.451   1.206
 6687SOL    HW220961   1.386   1.399   1.059
 6688SOL     OW20962   0.389   4.339   2.302
 6688SOL    HW120963   0.468   4.400   2.300
 6688SOL    HW220964   0.386   4.286   2.217
 6689SOL     OW20965   4.734   3.389   1.137
 6689SOL    HW120966   4.692   3.478   1.157
 6689SOL    HW220967   4.706   3.359   1.046
 6690SOL     OW20968   2.175   1.993   1.601
 6690SOL    HW120969   2.240   2.068   1.613
 6690SOL    HW220970   2.180   1.933   1.681
 6691SOL     OW20971   2.470   6.077   1.226
 6691SOL    HW120972   2.501   6.018   1.300
 6691SOL    HW220973   2.401   6.030   1.171
 6692SOL     OW20974   2.869   4.437   5.450
 6692SOL    HW120975   2.782   4.401   5.483
 6692SOL    HW220976   2.860   4.465   5.355
 6693SOL     OW20977   4.775   3.638   6.234
 6693SOL    HW120978   4.778   3.662   6.137
 6693SOL    HW220979   4.860   3.668   6.278
 6694SOL     OW20980   4.233   6.089   0.528
 6694SOL    HW120981   4.212   6.186   0.516
 6694SOL    HW220982   4.228   6.043   0.440
 6695SOL     OW20983   0.463   2.030   6.404
 6695SOL    HW120984   0.426   1.960   6.465
 6695SOL    HW220985   0.466   1.995   6.310
 6696SOL     OW20986   2.017   2.707   1.563
 6696SOL    HW120987   2.113   2.721   1.537
 6696SOL    HW220988   1.959   2.719   1.482
 6697SOL     OW20989   4.646   1.626   2.607
 6697SOL    HW120990   4.689   1.609   2.696
 6697SOL    HW220991   4.554   1.661   2.621
 6698SOL     OW20992   3.579   2.573   0.555
 6698SOL    HW120993   3.655   2.566   0.491
 6698SOL    HW220994   3.577   2.491   0.613
 6699SOL     OW20995   3.787   4.542   6.735
 6699SOL    HW120996   3.793   4.586   6.824
 6699SOL    HW220997   3.785   4.611   6.663
 6700SOL     OW20998   0.510   5.841   0.948
 6700SOL    HW120999   0.442   5.826   0.876
 6700SOL    HW221000   0.476   5.804   1.034
 6701SOL     OW21001   6.401   2.410   1.055
 6701SOL    HW121002   6.474   2.474   1.032
 6701SOL    HW221003   6.317   2.437   1.008
 6702SOL     OW21004   3.083   1.940   0.252
 6702SOL    HW121005   3.103   1.977   0.161
 6702SOL    HW221006   3.164   1.893   0.288
 6703SOL     OW21007   6.433   2.096   6.827
 6703SOL    HW121008   6.368   2.022   6.846
 6703SOL    HW221009   6.498   2.066   6.758
 6704SOL     OW21010   4.390   2.303   2.391
 6704SOL    HW121011   4.470   2.272   2.339
 6704SOL    HW221012   4.309   2.302   2.332
 6705SOL     OW21013   7.019   2.308   1.846
 6705SOL    HW121014   6.939   2.350   1.804
 6705SOL    HW221015   0.008   2.348   1.937
 6706SOL     OW21016   0.789   3.746   0.469
 6706SOL    HW121017   0.866   3.693   0.506
 6706SOL    HW221018   0.723   3.684   0.427
 6707SOL     OW21019   6.189   6.120   4.723
 6707SOL    HW121020   6.152   6.089   4.810
 6707SOL    HW221021   6.168   6.052   4.652
 6708SOL     OW21022   1.509   5.707   2.819
 6708SOL    HW121023   1.519   5.679   2.723
 6708SOL    HW221024   1.546   5.799   2.831
 6709SOL     OW21025   3.719   6.568   1.590
 6709SOL    HW121026   3.702   6.470   1.579
 6709SOL    HW221027   3.648   6.607   1.648
 6710SOL     OW21028   2.620   2.447   6.096
 6710SOL    HW121029   2.626   2.539   6.135
 6710SOL    HW221030   2.689   2.437   6.023
 6711SOL     OW21031   5.236   4.347   6.427
 6711SOL    HW121032   5.161   4.351   6.494
 6711SOL    HW221033   5.199   4.368   6.336
 6712SOL     OW21034   3.833   5.441   0.301
 6712SOL    HW121035   3.900   5.388   0.249
 6712SOL    HW221036   3.878   5.519   0.344
 6713SOL     OW21037   2.495   1.876   1.571
 6713SOL    HW121038   2.506   1.869   1.670
 6713SOL    HW221039   2.581   1.906   1.530
 6714SOL     OW21040   5.017   6.806   5.187
 6714SOL    HW121041   5.045   6.903   5.190
 6714SOL    HW221042   5.029   6.766   5.278
 6715SOL     OW21043   1.150   1.427   0.454
 6715SOL    HW121044   1.120   1.361   0.384
 6715SOL    HW221045   1.119   1.519   0.428
 6716SOL     OW21046   1.902   6.060   1.007
 6716SOL    HW121047   1.842   6.068   0.928
 6716SOL    HW221048   1.961   6.140   1.013
 6717SOL     OW21049   3.810   3.484   0.524
 6717SOL    HW121050   3.749   3.548   0.571
 6717SOL    HW221051   3.809   3.504   0.426
 6718SOL     OW21052   3.567   5.918   6.151
 6718SOL    HW121053   3.549   5.829   6.191
 6718SOL    HW221054   3.566   5.988   6.222
 6719SOL     OW21055   0.469   6.851   5.833
 6719SOL    HW121056   0.427   6.771   5.875
 6719SOL    HW221057   0.447   6.854   5.735
 6720SOL     OW21058   2.306   6.117   1.820
 6720SOL    HW121059   2.313   6.018   1.810
 6720SOL    HW221060   2.214   6.147   1.793
 6721SOL     OW21061   5.198   6.630   4.772
 6721SOL    HW121062   5.290   6.614   4.808
 6721SOL    HW221063   5.144   6.546   4.780
 6722SOL     OW21064   5.131   3.383   0.606
 6722SOL    HW121065   5.188   3.415   0.530
 6722SOL    HW221066   5.067   3.315   0.572
 6723SOL     OW21067   2.155   6.433   3.150
 6723SOL    HW121068   2.068   6.392   3.178
 6723SOL    HW221069   2.218   6.434   3.228
 6724SOL     OW21070   2.479   4.728   6.131
 6724SOL    HW121071   2.534   4.711   6.049
 6724SOL    HW221072   2.442   4.821   6.127
 6725SOL     OW21073   0.890   4.672   2.654
 6725SOL    HW121074   0.911   4.585   2.698
 6725SOL    HW221075   0.966   4.698   2.593
 6726SOL     OW21076   2.073   3.123   4.599
 6726SOL    HW121077   2.149   3.086   4.652
 6726SOL    HW221078   2.026   3.193   4.653
 6727SOL     OW21079   5.174   3.727   6.554
 6727SOL    HW121080   5.124   3.674   6.486
 6727SOL    HW221081   5.195   3.669   6.633
 6728SOL     OW21082   3.949   2.159   4.498
 6728SOL    HW121083   4.017   2.191   4.432
 6728SOL    HW221084   3.865   2.134   4.450
 6729SOL     OW21085   6.967   0.556   2.243
 6729SOL    HW121086   7.013   0.628   2.295
 6729SOL    HW221087   6.885   0.593   2.201
 6730SOL     OW21088   2.709   0.096   0.169
 6730SOL    HW121089   2.758   0.182   0.187
 6730SOL    HW221090   2.770   0.019   0.186
 6731SOL     OW21091   2.751   4.316   1.279
 6731SOL    HW121092   2.706   4.352   1.360
 6731SOL    HW221093   2.771   4.219   1.292
 6732SOL     OW21094   2.216   6.144   0.338
 6732SOL    HW121095   2.213   6.182   0.245
 6732SOL    HW221096   2.307   6.109   0.357
 6733SOL     OW21097   4.321   5.578   5.812
 6733SOL    HW121098   4.228   5.564   5.779
 6733SOL    HW221099   4.381   5.510   5.771
 6734SOL     OW21100   0.992   3.547   5.638
 6734SOL    HW121101   1.056   3.619   5.610
 6734SOL    HW221102   0.916   3.587   5.689
 6735SOL     OW21103   0.154   5.000   5.571
 6735SOL    HW121104   0.196   5.075   5.520
 6735SOL    HW221105   0.137   5.029   5.665
 6736SOL     OW21106   2.552   3.198   1.679
 6736SOL    HW121107   2.566   3.297   1.685
 6736SOL    HW221108   2.639   3.151   1.689
 6737SOL     OW21109   1.473   1.386   2.491
 6737SOL    HW121110   1.443   1.482   2.487
 6737SOL    HW221111   1.516   1.369   2.580
 6738SOL     OW21112   2.353   1.388   2.227
 6738SOL    HW121113   2.288   1.335   2.280
 6738SOL    HW221114   2.446   1.373   2.262
 6739SOL     OW21115   4.098   6.067   4.993
 6739SOL    HW121116   4.112   6.060   5.092
 6739SOL    HW221117   4.054   5.984   4.959
 6740SOL     OW21118   1.254   1.201   4.468
 6740SOL    HW121119   1.346   1.178   4.437
 6740SOL    HW221120   1.245   1.301   4.473
 6741SOL     OW21121   5.663   1.183   6.027
 6741SOL    HW121122   5.683   1.175   5.929
 6741SOL    HW221123   5.565   1.200   6.040
 6742SOL     OW21124   6.646   5.554   5.150
 6742SOL    HW121125   6.675   5.474   5.098
 6742SOL    HW221126   6.725   5.599   5.191
 6743SOL     OW21127   4.001   3.325   0.823
 6743SOL    HW121128   4.018   3.337   0.725
 6743SOL    HW221129   4.086   3.336   0.874
 6744SOL     OW21130   4.221   4.341   5.709
 6744SOL    HW121131   4.137   4.369   5.662
 6744SOL    HW221132   4.296   4.338   5.642
 6745SOL     OW21133   0.898   5.127   3.329
 6745SOL    HW121134   0.967   5.065   3.366
 6745SOL    HW221135   0.943   5.192   3.267
 6746SOL     OW21136   0.668   1.747   1.211
 6746SOL    HW121137   0.673   1.824   1.274
 6746SOL    HW221138   0.699   1.664   1.257
 6747SOL     OW21139   5.450   6.386   4.608
 6747SOL    HW121140   5.380   6.326   4.647
 6747SOL    HW221141   5.407   6.452   4.547
 6748SOL     OW21142   0.863   0.256   2.335
 6748SOL    HW121143   0.945   0.200   2.341
 6748SOL    HW221144   0.889   0.353   2.338
 6749SOL     OW21145   3.832   0.628   0.248
 6749SOL    HW121146   3.885   0.589   0.324
 6749SOL    HW221147   3.876   0.712   0.217
 6750SOL     OW21148   2.742   2.368   4.641
 6750SOL    HW121149   2.814   2.403   4.581
 6750SOL    HW221150   2.718   2.275   4.612
 6751SOL     OW21151   2.652   2.411   4.300
 6751SOL    HW121152   2.750   2.392   4.302
 6751SOL    HW221153   2.618   2.420   4.393
 6752SOL     OW21154   5.581   3.343   1.069
 6752SOL    HW121155   5.616   3.301   1.153
 6752SOL    HW221156   5.629   3.429   1.053
 6753SOL     OW21157   4.177   1.769   6.473
 6753SOL    HW121158   4.084   1.732   6.462
 6753SOL    HW221159   4.221   1.722   6.550
 6754SOL     OW21160   6.078   1.688   6.349
 6754SOL    HW121161   6.162   1.734   6.377
 6754SOL    HW221162   6.050   1.623   6.419
 6755SOL     OW21163   5.173   2.192   3.448
 6755SOL    HW121164   5.257   2.168   3.495
 6755SOL    HW221165   5.192   2.209   3.351
 6756SOL     OW21166   5.159   4.699   4.033
 6756SOL    HW121167   5.102   4.729   4.109
 6756SOL    HW221168   5.182   4.778   3.976
 6757SOL     OW21169   5.340   6.123   1.688
 6757SOL    HW121170   5.359   6.067   1.769
 6757SOL    HW221171   5.425   6.136   1.637
 6758SOL     OW21172   5.237   3.168   2.376
 6758SOL    HW121173   5.234   3.175   2.476
 6758SOL    HW221174   5.154   3.209   2.337
 6759SOL     OW21175   1.292   5.008   2.972
 6759SOL    HW121176   1.236   5.058   3.037
 6759SOL    HW221177   1.389   5.018   2.997
 6760SOL     OW21178   0.204   4.203   4.141
 6760SOL    HW121179   0.251   4.214   4.229
 6760SOL    HW221180   0.111   4.170   4.156
 6761SOL     OW21181   5.226   2.928   5.610
 6761SOL    HW121182   5.166   2.995   5.653
 6761SOL    HW221183   5.173   2.845   5.590
 6762SOL     OW21184   6.760   4.580   3.833
 6762SOL    HW121185   6.694   4.549   3.765
 6762SOL    HW221186   6.852   4.572   3.796
 6763SOL     OW21187   6.244   6.697   5.633
 6763SOL    HW121188   6.178   6.737   5.698
 6763SOL    HW221189   6.211   6.713   5.540
 6764SOL     OW21190   3.042   3.881   6.995
 6764SOL    HW121191   2.973   3.888   0.041
 6764SOL    HW221192   3.133   3.882   0.010
 6765SOL     OW21193   6.677   4.063   2.853
 6765SOL    HW121194   6.760   4.015   2.826
 6765SOL    HW221195   6.601   3.998   2.858
 6766SOL     OW21196   2.153   0.615   5.296
 6766SOL    HW121197   2.139   0.681   5.369
 6766SOL    HW221198   2.229   0.554   5.319
 6767SOL     OW21199   0.731   2.506   6.424
 6767SOL    HW121200   0.703   2.558   6.505
 6767SOL    HW221201   0.823   2.470   6.438
 6768SOL     OW21202   0.729   0.037   4.092
 6768SOL    HW121203   0.743   7.007   4.175
 6768SOL    HW221204   0.692   0.126   4.118
 6769SOL     OW21205   1.914   2.660   5.637
 6769SOL    HW121206   1.814   2.651   5.645
 6769SOL    HW221207   1.939   2.755   5.654
 6770SOL     OW21208   0.349   1.784   3.184
 6770SOL    HW121209   0.289   1.705   3.179
 6770SOL    HW221210   0.394   1.787   3.273
 6771SOL     OW21211   3.607   2.155   4.018
 6771SOL    HW121212   3.607   2.255   4.007
 6771SOL    HW221213   3.545   2.114   3.950
 6772SOL     OW21214   6.295   1.219   2.886
 6772SOL    HW121215   6.241   1.209   2.802
 6772SOL    HW221216   6.304   1.130   2.930
 6773SOL     OW21217   0.090   5.942   1.893
 6773SOL    HW121218   0.076   6.003   1.971
 6773SOL    HW221219   0.176   5.966   1.848
 6774SOL     OW21220   2.137   2.471   5.806
 6774SOL    HW121221   2.119   2.561   5.765
 6774SOL    HW221222   2.218   2.477   5.864
 6775SOL     OW21223   0.658   1.990   4.871
 6775SOL    HW121224   0.604   1.907   4.854
 6775SOL    HW221225   0.688   1.991   4.966
 6776SOL     OW21226   3.349   4.125   2.217
 6776SOL    HW121227   3.281   4.198   2.216
 6776SOL    HW221228   3.399   4.126   2.303
 6777SOL     OW21229   5.365   5.241   1.204
 6777SOL    HW121230   5.278   5.219   1.248
 6777SOL    HW221231   5.376   5.185   1.121
 6778SOL     OW21232   0.443   4.732   2.827
 6778SOL    HW121233   0.485   4.816   2.790
 6778SOL    HW221234   0.453   4.659   2.760
 6779SOL     OW21235   5.902   4.168   5.762
 6779SOL    HW121236   5.845   4.244   5.794
 6779SOL    HW221237   5.857   4.122   5.686
 6780SOL     OW21238   2.796   2.130   2.581
 6780SOL    HW121239   2.860   2.133   2.504
 6780SOL    HW221240   2.747   2.217   2.587
 6781SOL     OW21241   6.891   1.342   4.108
 6781SOL    HW121242   6.972   1.302   4.150
 6781SOL    HW221243   6.899   1.337   4.008
 6782SOL     OW21244   6.658   2.123   3.068
 6782SOL    HW121245   6.716   2.203   3.053
 6782SOL    HW221246   6.666   2.061   2.990
 6783SOL     OW21247   1.604   4.647   5.210
 6783SOL    HW121248   1.535   4.634   5.138
 6783SOL    HW221249   1.634   4.742   5.209
 6784SOL     OW21250   1.934   3.997   1.191
 6784SOL    HW121251   1.928   4.002   1.291
 6784SOL    HW221252   2.023   3.958   1.165
 6785SOL     OW21253   5.149   4.933   4.351
 6785SOL    HW121254   5.220   4.974   4.294
 6785SOL    HW221255   5.085   4.882   4.294
 6786SOL     OW21256   6.370   2.350   6.836
 6786SOL    HW121257   6.388   2.255   6.813
 6786SOL    HW221258   6.455   2.395   6.864
 6787SOL     OW21259   3.951   2.110   6.389
 6787SOL    HW121260   3.932   2.061   6.304
 6787SOL    HW221261   3.864   2.134   6.433
 6788SOL     OW21262   6.752   4.414   3.135
 6788SOL    HW121263   6.679   4.397   3.200
 6788SOL    HW221264   6.840   4.393   3.177
 6789SOL     OW21265   6.153   3.889   4.044
 6789SOL    HW121266   6.245   3.906   4.078
 6789SOL    HW221267   6.124   3.797   4.070
 6790SOL     OW21268   0.512   5.070   5.478
 6790SOL    HW121269   0.603   5.072   5.437
 6790SOL    HW221270   0.444   5.054   5.407
 6791SOL     OW21271   3.529   0.596   3.387
 6791SOL    HW121272   3.498   0.547   3.305
 6791SOL    HW221273   3.601   0.543   3.432
 6792SOL     OW21274   4.257   6.872   5.476
 6792SOL    HW121275   4.303   6.788   5.504
 6792SOL    HW221276   4.322   6.948   5.480
 6793SOL     OW21277   1.602   3.491   0.452
 6793SOL    HW121278   1.567   3.399   0.437
 6793SOL    HW221279   1.680   3.507   0.392
 6794SOL     OW21280   4.951   1.773   5.205
 6794SOL    HW121281   4.995   1.821   5.280
 6794SOL    HW221282   4.975   1.676   5.208
 6795SOL     OW21283   1.109   1.149   1.135
 6795SOL    HW121284   1.081   1.137   1.039
 6795SOL    HW221285   1.117   1.246   1.155
 6796SOL     OW21286   6.931   0.422   2.694
 6796SOL    HW121287   6.910   0.387   2.603
 6796SOL    HW221288   6.852   0.471   2.731
 6797SOL     OW21289   0.811   2.417   1.008
 6797SOL    HW121290   0.782   2.327   0.974
 6797SOL    HW221291   0.745   2.450   1.075
 6798SOL     OW21292   5.157   0.132   1.649
 6798SOL    HW121293   5.214   0.165   1.724
 6798SOL    HW221294   5.213   0.076   1.587
 6799SOL     OW21295   5.452   0.757   3.230
 6799SOL    HW121296   5.467   0.737   3.326
 6799SOL    HW221297   5.540   0.777   3.186
 6800SOL     OW21298   0.427   1.561   1.449
 6800SOL    HW121299   0.335   1.545   1.485
 6800SOL    HW221300   0.422   1.575   1.350
 6801SOL     OW21301   0.645   5.907   5.794
 6801SOL    HW121302   0.704   5.936   5.869
 6801SOL    HW221303   0.664   5.812   5.771
 6802SOL     OW21304   2.865   4.968   1.894
 6802SOL    HW121305   2.770   4.952   1.868
 6802SOL    HW221306   2.910   5.022   1.823
 6803SOL     OW21307   5.334   4.970   6.033
 6803SOL    HW121308   5.409   4.971   6.098
 6803SOL    HW221309   5.358   5.024   5.952
 6804SOL     OW21310   3.374   4.912   2.951
 6804SOL    HW121311   3.416   5.000   2.931
 6804SOL    HW221312   3.436   4.838   2.924
 6805SOL     OW21313   6.912   4.158   5.462
 6805SOL    HW121314   6.951   4.201   5.544
 6805SOL    HW221315   6.987   4.119   5.407
 6806SOL     OW21316   7.002   1.877   2.487
 6806SOL    HW121317   6.949   1.886   2.403
 6806SOL    HW221318   0.057   1.820   2.470
 6807SOL     OW21319   3.190   3.928   2.015
 6807SOL    HW121320   3.203   3.866   2.093
 6807SOL    HW221321   3.200   4.022   2.045
 6808SOL     OW21322   3.404   0.897   4.667
 6808SOL    HW121323   3.403   0.911   4.568
 6808SOL    HW221324   3.499   0.899   4.699
 6809SOL     OW21325   5.468   3.284   1.707
 6809SOL    HW121326   5.417   3.331   1.635
 6809SOL    HW221327   5.470   3.186   1.688
 6810SOL     OW21328   2.458   0.399   3.793
 6810SOL    HW121329   2.398   0.426   3.868
 6810SOL    HW221330   2.517   0.324   3.822
 6811SOL     OW21331   6.718   1.448   1.153
 6811SOL    HW121332   6.620   1.448   1.170
 6811SOL    HW221333   6.736   1.486   1.062
 6812SOL     OW21334   3.614   4.111   5.229
 6812SOL    HW121335   3.520   4.139   5.209
 6812SOL    HW221336   3.617   4.064   5.317
 6813SOL     OW21337   6.143   4.207   1.683
 6813SOL    HW121338   6.192   4.190   1.769
 6813SOL    HW221339   6.090   4.125   1.659
 6814SOL     OW21340   5.134   1.256   6.762
 6814SOL    HW121341   5.187   1.230   6.682
 6814SOL    HW221342   5.134   1.355   6.772
 6815SOL     OW21343   1.756   4.861   5.889
 6815SOL    HW121344   1.729   4.765   5.897
 6815SOL    HW221345   1.837   4.868   5.832
 6816SOL     OW21346   0.720   1.140   3.001
 6816SOL    HW121347   0.811   1.120   2.965
 6816SOL    HW221348   0.687   1.227   2.964
 6817SOL     OW21349   3.746   2.101   2.275
 6817SOL    HW121350   3.751   2.169   2.202
 6817SOL    HW221351   3.800   2.020   2.249
 6818SOL     OW21352   1.897   6.831   5.346
 6818SOL    HW121353   1.924   6.877   5.431
 6818SOL    HW221354   1.968   6.765   5.320
 6819SOL     OW21355   4.805   4.639   1.792
 6819SOL    HW121356   4.858   4.650   1.875
 6819SOL    HW221357   4.738   4.565   1.804
 6820SOL     OW21358   2.571   5.975   1.472
 6820SOL    HW121359   2.578   5.917   1.554
 6820SOL    HW221360   2.631   6.054   1.483
 6821SOL     OW21361   3.939   2.660   5.363
 6821SOL    HW121362   4.009   2.614   5.308
 6821SOL    HW221363   3.973   2.750   5.390
 6822SOL     OW21364   6.618   2.802   6.584
 6822SOL    HW121365   6.628   2.837   6.678
 6822SOL    HW221366   6.693   2.836   6.528
 6823SOL     OW21367   6.167   3.794   6.478
 6823SOL    HW121368   6.252   3.841   6.498
 6823SOL    HW221369   6.183   3.722   6.410
 6824SOL     OW21370   0.492   1.685   5.453
 6824SOL    HW121371   0.416   1.749   5.460
 6824SOL    HW221372   0.577   1.735   5.437
 6825SOL     OW21373   5.540   4.616   1.483
 6825SOL    HW121374   5.511   4.698   1.434
 6825SOL    HW221375   5.518   4.626   1.580
 6826SOL     OW21376   0.039   3.729   3.115
 6826SOL    HW121377   6.976   3.771   3.133
 6826SOL    HW221378   0.031   3.630   3.123
 6827SOL     OW21379   4.442   5.623   4.636
 6827SOL    HW121380   4.378   5.693   4.669
 6827SOL    HW221381   4.423   5.603   4.540
 6828SOL     OW21382   2.963   1.541   2.219
 6828SOL    HW121383   2.879   1.514   2.174
 6828SOL    HW221384   2.959   1.639   2.243
 6829SOL     OW21385   4.409   6.813   4.518
 6829SOL    HW121386   4.369   6.747   4.454
 6829SOL    HW221387   4.339   6.878   4.547
 6830SOL     OW21388   4.961   0.285   3.000
 6830SOL    HW121389   4.900   0.332   3.064
 6830SOL    HW221390   5.039   0.248   3.049
 6831SOL     OW21391   1.442   1.843   6.310
 6831SOL    HW121392   1.458   1.771   6.242
 6831SOL    HW221393   1.518   1.845   6.375
 6832SOL     OW21394   3.040   2.577   0.188
 6832SOL    HW121395   3.087   2.649   0.240
 6832SOL    HW221396   2.952   2.611   0.157
 6833SOL     OW21397   3.233   4.889   5.903
 6833SOL    HW121398   3.141   4.855   5.921
 6833SOL    HW221399   3.269   4.932   5.986
 6834SOL     OW21400   5.548   0.238   0.765
 6834SOL    HW121401   5.464   0.290   0.751
 6834SOL    HW221402   5.585   0.256   0.856
 6835SOL     OW21403   2.499   1.655   4.487
 6835SOL    HW121404   2.553   1.583   4.444
 6835SOL    HW221405   2.424   1.614   4.539
 6836SOL     OW21406   2.128   4.170   5.844
 6836SOL    HW121407   2.134   4.263   5.880
 6836SOL    HW221408   2.195   4.159   5.770
 6837SOL     OW21409   0.603   7.012   1.384
 6837SOL    HW121410   0.701   7.025   1.400
 6837SOL    HW221411   0.582   0.008   1.288
 6838SOL     OW21412   3.080   3.980   5.122
 6838SOL    HW121413   3.152   3.949   5.184
 6838SOL    HW221414   3.044   4.067   5.154
 6839SOL     OW21415   5.771   2.619   3.722
 6839SOL    HW121416   5.746   2.662   3.809
 6839SOL    HW221417   5.825   2.537   3.740
 6840SOL     OW21418   2.527   6.996   5.499
 6840SOL    HW121419   2.604   6.935   5.513
 6840SOL    HW221420   2.484   6.977   5.411
 6841SOL     OW21421   4.070   5.536   1.402
 6841SOL    HW121422   4.135   5.604   1.367
 6841SOL    HW221423   3.991   5.532   1.341
 6842SOL     OW21424   0.208   3.782   6.391
 6842SOL    HW121425   0.161   3.849   6.334
 6842SOL    HW221426   0.293   3.822   6.427
 6843SOL     OW21427   3.219   2.101   2.309
 6843SOL    HW121428   3.282   2.149   2.248
 6843SOL    HW221429   3.240   2.003   2.306
 6844SOL     OW21430   4.797   4.673   4.088
 6844SOL    HW121431   4.789   4.627   4.000
 6844SOL    HW221432   4.706   4.693   4.123
 6845SOL     OW21433   5.056   4.517   2.205
 6845SOL    HW121434   5.044   4.444   2.138
 6845SOL    HW221435   5.106   4.482   2.284
 6846SOL     OW21436   3.653   2.844   2.445
 6846SOL    HW121437   3.708   2.765   2.417
 6846SOL    HW221438   3.560   2.834   2.409
 6847SOL     OW21439   6.456   3.235   1.920
 6847SOL    HW121440   6.488   3.213   1.828
 6847SOL    HW221441   6.444   3.334   1.929
 6848SOL     OW21442   0.894   6.412   3.468
 6848SOL    HW121443   0.831   6.349   3.513
 6848SOL    HW221444   0.923   6.482   3.533
 6849SOL     OW21445   3.718   6.592   4.010
 6849SOL    HW121446   3.735   6.501   4.048
 6849SOL    HW221447   3.630   6.626   4.044
 6850SOL     OW21448   5.305   2.994   2.956
 6850SOL    HW121449   5.388   2.953   2.994
 6850SOL    HW221450   5.289   3.083   3.001
 6851SOL     OW21451   1.495   5.041   5.441
 6851SOL    HW121452   1.462   5.070   5.532
 6851SOL    HW221453   1.593   5.056   5.435
 6852SOL     OW21454   0.948   4.091   1.839
 6852SOL    HW121455   0.957   4.185   1.870
 6852SOL    HW221456   0.864   4.081   1.785
 6853SOL     OW21457   0.534   4.148   5.122
 6853SOL    HW121458   0.591   4.140   5.203
 6853SOL    HW221459   0.480   4.065   5.110
 6854SOL     OW21460   6.700   3.014   6.767
 6854SOL    HW121461   6.759   3.077   6.817
 6854SOL    HW221462   6.615   3.001   6.818
 6855SOL     OW21463   2.988   6.584   2.199
 6855SOL    HW121464   2.930   6.578   2.118
 6855SOL    HW221465   3.075   6.538   2.181
 6856SOL     OW21466   5.844   4.139   4.968
 6856SOL    HW121467   5.924   4.111   4.915
 6856SOL    HW221468   5.829   4.075   5.042
 6857SOL     OW21469   3.321   2.034   6.098
 6857SOL    HW121470   3.421   2.037   6.097
 6857SOL    HW221471   3.290   1.949   6.139
 6858SOL     OW21472   3.823   2.854   5.221
 6858SOL    HW121473   3.754   2.910   5.266
 6858SOL    HW221474   3.841   2.772   5.276
 6859SOL     OW21475   3.252   0.442   0.469
 6859SOL    HW121476   3.279   0.401   0.556
 6859SOL    HW221477   3.235   0.540   0.483
 6860SOL     OW21478   5.278   4.139   0.719
 6860SOL    HW121479   5.354   4.075   0.713
 6860SOL    HW221480   5.280   4.186   0.807
 6861SOL     OW21481   5.797   4.969   0.304
 6861SOL    HW121482   5.703   4.975   0.271
 6861SOL    HW221483   5.852   4.915   0.240
 6862SOL     OW21484   3.046   5.345   4.478
 6862SOL    HW121485   3.062   5.339   4.380
 6862SOL    HW221486   2.955   5.310   4.500
 6863SOL     OW21487   5.734   2.486   4.308
 6863SOL    HW121488   5.658   2.522   4.363
 6863SOL    HW221489   5.703   2.471   4.214
 6864SOL     OW21490   3.117   6.322   4.331
 6864SOL    HW121491   3.127   6.278   4.242
 6864SOL    HW221492   3.047   6.275   4.384
 6865SOL     OW21493   6.650   3.908   4.275
 6865SOL    HW121494   6.660   3.985   4.212
 6865SOL    HW221495   6.626   3.942   4.366
 6866SOL     OW21496   6.531   3.422   2.235
 6866SOL    HW121497   6.571   3.511   2.257
 6866SOL    HW221498   6.477   3.430   2.152
 6867SOL     OW21499   2.320   4.188   1.938
 6867SOL    HW121500   2.224   4.197   1.965
 6867SOL    HW221501   2.367   4.126   2.002
 6868SOL     OW21502   1.822   5.575   4.283
 6868SOL    HW121503   1.870   5.500   4.237
 6868SOL    HW221504   1.859   5.586   4.376
 6869SOL     OW21505   5.586   2.285   5.437
 6869SOL    HW121506   5.608   2.314   5.530
 6869SOL    HW221507   5.628   2.347   5.371
 6870SOL     OW21508   5.795   3.831   2.877
 6870SOL    HW121509   5.844   3.757   2.924
 6870SOL    HW221510   5.696   3.815   2.886
 6871SOL     OW21511   5.422   5.515   1.257
 6871SOL    HW121512   5.405   5.417   1.264
 6871SOL    HW221513   5.383   5.550   1.171
 6872SOL     OW21514   2.300   3.416   7.010
 6872SOL    HW121515   2.295   3.414   0.084
 6872SOL    HW221516   2.394   3.435   6.982
 6873SOL     OW21517   6.283   3.947   6.683
 6873SOL    HW121518   6.331   3.895   6.753
 6873SOL    HW221519   6.187   3.920   6.682
 6874SOL     OW21520   0.422   2.761   4.483
 6874SOL    HW121521   0.400   2.791   4.390
 6874SOL    HW221522   0.430   2.840   4.543
 6875SOL     OW21523   2.172   1.098   3.125
 6875SOL    HW121524   2.223   1.121   3.042
 6875SOL    HW221525   2.074   1.108   3.108
 6876SOL     OW21526   4.002   5.928   0.135
 6876SOL    HW121527   4.073   5.873   0.090
 6876SOL    HW221528   3.970   5.880   0.217
 6877SOL     OW21529   2.305   3.744   7.005
 6877SOL    HW121530   2.311   3.729   6.906
 6877SOL    HW221531   2.357   3.826   0.004
 6878SOL     OW21532   2.035   1.637   5.769
 6878SOL    HW121533   2.113   1.688   5.732
 6878SOL    HW221534   1.979   1.604   5.693
 6879SOL     OW21535   0.989   2.414   6.484
 6879SOL    HW121536   1.087   2.397   6.493
 6879SOL    HW221537   0.942   2.381   6.567
 6880SOL     OW21538   2.203   4.071   4.719
 6880SOL    HW121539   2.211   3.973   4.703
 6880SOL    HW221540   2.184   4.087   4.816
 6881SOL     OW21541   0.247   3.882   1.854
 6881SOL    HW121542   0.259   3.799   1.908
 6881SOL    HW221543   0.293   3.872   1.766
 6882SOL     OW21544   2.157   0.774   5.059
 6882SOL    HW121545   2.231   0.719   5.019
 6882SOL    HW221546   2.141   0.746   5.153
 6883SOL     OW21547   4.120   0.758   1.515
 6883SOL    HW121548   4.050   0.724   1.579
 6883SOL    HW221549   4.173   0.680   1.480
 6884SOL     OW21550   1.992   5.174   4.243
 6884SOL    HW121551   2.074   5.122   4.220
 6884SOL    HW221552   2.009   5.228   4.325
 6885SOL     OW21553   2.851   5.795   4.451
 6885SOL    HW121554   2.917   5.738   4.500
 6885SOL    HW221555   2.795   5.845   4.516
 6886SOL     OW21556   5.754   0.963   2.572
 6886SOL    HW121557   5.713   0.947   2.662
 6886SOL    HW221558   5.773   1.061   2.561
 6887SOL     OW21559   5.813   1.077   4.534
 6887SOL    HW121560   5.815   1.057   4.632
 6887SOL    HW221561   5.826   1.174   4.519
 6888SOL     OW21562   5.691   0.621   4.560
 6888SOL    HW121563   5.733   0.541   4.603
 6888SOL    HW221564   5.740   0.643   4.475
 6889SOL     OW21565   1.465   4.492   5.981
 6889SOL    HW121566   1.466   4.392   5.993
 6889SOL    HW221567   1.379   4.520   5.939
 6890SOL     OW21568   2.452   6.789   1.342
 6890SOL    HW121569   2.404   6.745   1.417
 6890SOL    HW221570   2.457   6.888   1.358
 6891SOL     OW21571   1.906   3.952   3.353
 6891SOL    HW121572   1.908   4.027   3.287
 6891SOL    HW221573   1.840   3.972   3.425
 6892SOL     OW21574   3.495   0.438   4.052
 6892SOL    HW121575   3.536   0.357   4.011
 6892SOL    HW221576   3.398   0.443   4.029
 6893SOL     OW21577   4.942   6.011   2.956
 6893SOL    HW121578   4.926   6.035   3.052
 6893SOL    HW221579   5.032   5.970   2.947
 6894SOL     OW21580   5.876   4.842   6.891
 6894SOL    HW121581   5.880   4.783   6.810
 6894SOL    HW221582   5.786   4.885   6.897
 6895SOL     OW21583   2.661   4.419   6.671
 6895SOL    HW121584   2.634   4.334   6.717
 6895SOL    HW221585   2.752   4.408   6.631
 6896SOL     OW21586   3.674   0.424   2.798
 6896SOL    HW121587   3.587   0.375   2.791
 6896SOL    HW221588   3.698   0.461   2.708
 6897SOL     OW21589   3.629   3.917   0.569
 6897SOL    HW121590   3.726   3.909   0.546
 6897SOL    HW221591   3.620   3.934   0.667
 6898SOL     OW21592   4.316   1.796   2.143
 6898SOL    HW121593   4.227   1.814   2.101
 6898SOL    HW221594   4.346   1.703   2.118
 6899SOL     OW21595   4.574   6.423   6.791
 6899SOL    HW121596   4.550   6.472   6.707
 6899SOL    HW221597   4.673   6.418   6.799
 6900SOL     OW21598   5.058   0.457   6.254
 6900SOL    HW121599   5.124   0.491   6.321
 6900SOL    HW221600   5.053   0.358   6.260
 6901SOL     OW21601   1.761   0.244   6.555
 6901SOL    HW121602   1.818   0.245   6.638
 6901SOL    HW221603   1.722   0.335   6.540
 6902SOL     OW21604   6.960   6.298   0.091
 6902SOL    HW121605   7.011   6.381   0.114
 6902SOL    HW221606   6.983   6.269   7.024
 6903SOL     OW21607   4.335   4.768   0.624
 6903SOL    HW121608   4.393   4.716   0.561
 6903SOL    HW221609   4.239   4.753   0.602
 6904SOL     OW21610   6.335   1.360   3.721
 6904SOL    HW121611   6.295   1.283   3.670
 6904SOL    HW221612   6.319   1.346   3.819
 6905SOL     OW21613   5.987   6.761   0.844
 6905SOL    HW121614   6.060   6.816   0.883
 6905SOL    HW221615   5.944   6.706   0.915
 6906SOL     OW21616   3.778   0.577   3.028
 6906SOL    HW121617   3.712   0.652   3.025
 6906SOL    HW221618   3.807   0.554   2.935
 6907SOL     OW21619   3.601   1.283   1.719
 6907SOL    HW121620   3.518   1.275   1.664
 6907SOL    HW221621   3.608   1.204   1.780
 6908SOL     OW21622   1.502   6.547   5.088
 6908SOL    HW121623   1.572   6.562   5.018
 6908SOL    HW221624   1.543   6.498   5.165
 6909SOL     OW21625   4.671   4.329   0.654
 6909SOL    HW121626   4.760   4.285   0.665
 6909SOL    HW221627   4.608   4.298   0.726
 6910SOL     OW21628   6.253   1.481   1.670
 6910SOL    HW121629   6.178   1.502   1.733
 6910SOL    HW221630   6.272   1.559   1.611
 6911SOL     OW21631   4.020   0.860   4.801
 6911SOL    HW121632   4.040   0.947   4.756
 6911SOL    HW221633   4.011   0.788   4.732
 6912SOL     OW21634   5.099   4.750   0.864
 6912SOL    HW121635   5.013   4.739   0.814
 6912SOL    HW221636   5.115   4.668   0.920
 6913SOL     OW21637   5.387   4.783   4.832
 6913SOL    HW121638   5.336   4.843   4.893
 6913SOL    HW221639   5.351   4.792   4.739
 6914SOL     OW21640   6.058   5.492   0.567
 6914SOL    HW121641   6.085   5.397   0.581
 6914SOL    HW221642   5.992   5.519   0.636
 6915SOL     OW21643   0.609   4.756   3.200
 6915SOL    HW121644   0.682   4.822   3.192
 6915SOL    HW221645   0.618   4.705   3.286
 6916SOL     OW21646   6.551   3.328   6.835
 6916SOL    HW121647   6.638   3.365   6.865
 6916SOL    HW221648   6.501   3.291   6.913
 6917SOL     OW21649   4.817   6.538   6.035
 6917SOL    HW121650   4.884   6.611   6.049
 6917SOL    HW221651   4.811   6.517   5.937
 6918SOL     OW21652   6.987   3.382   4.085
 6918SOL    HW121653   0.011   3.314   4.138
 6918SOL    HW221654   6.894   3.391   4.121
 6919SOL     OW21655   2.249   6.080   2.503
 6919SOL    HW121656   2.183   6.028   2.448
 6919SOL    HW221657   2.303   6.016   2.559
 6920SOL     OW21658   5.181   6.043   4.491
 6920SOL    HW121659   5.126   5.987   4.430
 6920SOL    HW221660   5.273   6.004   4.499
 6921SOL     OW21661   6.890   0.463   3.045
 6921SOL    HW121662   6.899   0.553   3.001
 6921SOL    HW221663   6.842   0.474   3.132
 6922SOL     OW21664   2.439   6.475   0.757
 6922SOL    HW121665   2.525   6.507   0.797
 6922SOL    HW221666   2.410   6.391   0.803
 6923SOL     OW21667   4.628   0.589   4.003
 6923SOL    HW121668   4.717   0.554   4.033
 6923SOL    HW221669   4.558   0.563   4.070
 6924SOL     OW21670   0.100   5.384   1.555
 6924SOL    HW121671   0.098   5.296   1.605
 6924SOL    HW221672   0.037   5.379   1.477
 6925SOL     OW21673   4.605   6.300   2.936
 6925SOL    HW121674   4.628   6.307   3.034
 6925SOL    HW221675   4.531   6.364   2.915
 6926SOL     OW21676   3.103   3.851   4.236
 6926SOL    HW121677   3.135   3.850   4.142
 6926SOL    HW221678   3.097   3.758   4.270
 6927SOL     OW21679   5.067   4.080   6.273
 6927SOL    HW121680   5.137   4.056   6.339
 6927SOL    HW221681   5.076   4.177   6.248
 6928SOL     OW21682   4.799   0.833   6.514
 6928SOL    HW121683   4.739   0.881   6.450
 6928SOL    HW221684   4.889   0.820   6.473
 6929SOL     OW21685   4.482   6.011   0.218
 6929SOL    HW121686   4.416   5.939   0.240
 6929SOL    HW221687   4.505   6.063   0.300
 6930SOL     OW21688   0.808   6.910   2.571
 6930SOL    HW121689   0.902   6.887   2.550
 6930SOL    HW221690   0.757   6.927   2.486
 6931SOL     OW21691   1.744   0.685   1.518
 6931SOL    HW121692   1.668   0.737   1.480
 6931SOL    HW221693   1.711   0.626   1.591
 6932SOL     OW21694   2.846   1.806   0.298
 6932SOL    HW121695   2.808   1.776   0.386
 6932SOL    HW221696   2.942   1.832   0.310
 6933SOL     OW21697   4.076   5.445   5.724
 6933SOL    HW121698   4.006   5.432   5.795
 6933SOL    HW221699   4.108   5.356   5.693
 6934SOL     OW21700   5.143   2.975   0.217
 6934SOL    HW121701   5.212   2.931   0.158
 6934SOL    HW221702   5.190   3.033   0.284
 6935SOL     OW21703   4.626   6.449   3.710
 6935SOL    HW121704   4.644   6.377   3.643
 6935SOL    HW221705   4.709   6.469   3.762
 6936SOL     OW21706   1.186   2.741   1.165
 6936SOL    HW121707   1.275   2.787   1.171
 6936SOL    HW221708   1.125   2.793   1.106
 6937SOL     OW21709   4.625   6.896   6.164
 6937SOL    HW121710   4.613   6.914   6.066
 6937SOL    HW221711   4.554   6.944   6.216
 6938SOL     OW21712   4.951   3.473   5.543
 6938SOL    HW121713   4.892   3.448   5.466
 6938SOL    HW221714   4.909   3.442   5.628
 6939SOL     OW21715   0.459   4.533   2.622
 6939SOL    HW121716   0.384   4.479   2.660
 6939SOL    HW221717   0.523   4.473   2.575
 6940SOL     OW21718   4.740   0.844   6.044
 6940SOL    HW121719   4.836   0.872   6.057
 6940SOL    HW221720   4.712   0.786   6.121
 6941SOL     OW21721   4.081   3.241   3.930
 6941SOL    HW121722   4.060   3.279   4.019
 6941SOL    HW221723   4.172   3.200   3.931
 6942SOL     OW21724   7.003   2.924   0.730
 6942SOL    HW121725   6.968   2.978   0.807
 6942SOL    HW221726   6.945   2.843   0.718
 6943SOL     OW21727   5.329   6.230   6.024
 6943SOL    HW121728   5.270   6.164   5.977
 6943SOL    HW221729   5.422   6.194   6.028
 6944SOL     OW21730   1.209   5.344   6.492
 6944SOL    HW121731   1.185   5.314   6.584
 6944SOL    HW221732   1.280   5.285   6.455
 6945SOL     OW21733   6.100   2.794   6.331
 6945SOL    HW121734   6.179   2.763   6.384
 6945SOL    HW221735   6.050   2.716   6.294
 6946SOL     OW21736   5.706   4.153   2.635
 6946SOL    HW121737   5.783   4.198   2.679
 6946SOL    HW221738   5.704   4.177   2.538
 6947SOL     OW21739   3.496   6.776   2.999
 6947SOL    HW121740   3.419   6.834   3.025
 6947SOL    HW221741   3.530   6.806   2.909
 6948SOL     OW21742   4.586   0.740   6.783
 6948SOL    HW121743   4.508   0.802   6.778
 6948SOL    HW221744   4.637   0.742   6.697
 6949SOL     OW21745   5.361   6.603   3.313
 6949SOL    HW121746   5.379   6.701   3.298
 6949SOL    HW221747   5.441   6.550   3.285
 6950SOL     OW21748   2.253   1.424   3.144
 6950SOL    HW121749   2.285   1.396   3.234
 6950SOL    HW221750   2.253   1.345   3.082
 6951SOL     OW21751   6.216   5.629   5.916
 6951SOL    HW121752   6.274   5.628   5.997
 6951SOL    HW221753   6.180   5.537   5.899
 6952SOL     OW21754   0.484   5.115   4.451
 6952SOL    HW121755   0.391   5.090   4.477
 6952SOL    HW221756   0.489   5.130   4.352
 6953SOL     OW21757   4.424   1.227   6.065
 6953SOL    HW121758   4.449   1.228   5.968
 6953SOL    HW221759   4.490   1.172   6.116
 6954SOL     OW21760   6.630   3.137   4.214
 6954SOL    HW121761   6.667   3.221   4.255
 6954SOL    HW221762   6.627   3.147   4.114
 6955SOL     OW21763   0.198   6.186   1.518
 6955SOL    HW121764   0.226   6.266   1.572
 6955SOL    HW221765   0.099   6.179   1.516
 6956SOL     OW21766   4.703   5.094   1.730
 6956SOL    HW121767   4.662   5.093   1.821
 6956SOL    HW221768   4.650   5.155   1.671
 6957SOL     OW21769   0.203   4.843   1.938
 6957SOL    HW121770   0.204   4.942   1.924
 6957SOL    HW221771   0.204   4.824   2.037
 6958SOL     OW21772   2.537   2.926   6.213
 6958SOL    HW121773   2.538   2.826   6.217
 6958SOL    HW221774   2.585   2.962   6.293
 6959SOL     OW21775   3.811   1.588   4.772
 6959SOL    HW121776   3.852   1.676   4.796
 6959SOL    HW221777   3.795   1.584   4.674
 6960SOL     OW21778   0.088   4.809   0.053
 6960SOL    HW121779   0.160   4.742   0.073
 6960SOL    HW221780   0.128   4.900   0.047
 6961SOL     OW21781   1.277   1.460   3.125
 6961SOL    HW121782   1.218   1.526   3.079
 6961SOL    HW221783   1.312   1.500   3.210
 6962SOL     OW21784   4.990   4.660   1.985
 6962SOL    HW121785   5.034   4.605   2.056
 6962SOL    HW221786   4.995   4.756   2.009
 6963SOL     OW21787   0.525   4.790   2.112
 6963SOL    HW121788   0.472   4.706   2.122
 6963SOL    HW221789   0.617   4.777   2.149
 6964SOL     OW21790   4.669   5.113   5.034
 6964SOL    HW121791   4.569   5.106   5.035
 6964SOL    HW221792   4.696   5.195   4.983
 6965SOL     OW21793   6.518   2.898   6.238
 6965SOL    HW121794   6.503   2.920   6.334
 6965SOL    HW221795   6.591   2.956   6.201
 6966SOL     OW21796   4.725   2.324   2.560
 6966SOL    HW121797   4.678   2.237   2.547
 6966SOL    HW221798   4.811   2.323   2.509
 6967SOL     OW21799   1.180   2.077   6.041
 6967SOL    HW121800   1.250   2.056   5.973
 6967SOL    HW221801   1.131   1.993   6.064
 6968SOL     OW21802   4.011   5.666   1.642
 6968SOL    HW121803   4.046   5.618   1.562
 6968SOL    HW221804   4.026   5.764   1.631
 6969SOL     OW21805   3.411   1.564   0.437
 6969SOL    HW121806   3.371   1.476   0.411
 6969SOL    HW221807   3.508   1.565   0.411
 6970SOL     OW21808   4.106   4.654   0.511
 6970SOL    HW121809   4.035   4.583   0.520
 6970SOL    HW221810   4.149   4.647   0.421
 6971SOL     OW21811   6.408   2.453   1.850
 6971SOL    HW121812   6.393   2.354   1.847
 6971SOL    HW221813   6.418   2.482   1.945
 6972SOL     OW21814   5.444   4.548   4.618
 6972SOL    HW121815   5.528   4.601   4.607
 6972SOL    HW221816   5.459   4.474   4.683
 6973SOL     OW21817   2.205   5.065   4.152
 6973SOL    HW121818   2.252   4.978   4.136
 6973SOL    HW221819   2.272   5.136   4.175
 6974SOL     OW21820   3.192   4.047   3.809
 6974SOL    HW121821   3.270   4.023   3.751
 6974SOL    HW221822   3.189   3.985   3.887
 6975SOL     OW21823   3.715   0.809   6.058
 6975SOL    HW121824   3.689   0.903   6.035
 6975SOL    HW221825   3.671   0.746   5.994
 6976SOL     OW21826   2.496   5.167   6.561
 6976SOL    HW121827   2.399   5.158   6.582
 6976SOL    HW221828   2.537   5.077   6.549
 6977SOL     OW21829   3.405   1.397   2.458
 6977SOL    HW121830   3.398   1.456   2.377
 6977SOL    HW221831   3.331   1.329   2.456
 6978SOL     OW21832   0.332   0.605   1.775
 6978SOL    HW121833   0.333   0.641   1.681
 6978SOL    HW221834   0.301   0.676   1.838
 6979SOL     OW21835   0.898   4.371   2.499
 6979SOL    HW121836   0.946   4.402   2.580
 6979SOL    HW221837   0.854   4.283   2.518
 6980SOL     OW21838   2.498   1.027   3.859
 6980SOL    HW121839   2.537   1.118   3.876
 6980SOL    HW221840   2.434   1.031   3.783
 6981SOL     OW21841   2.299   4.749   0.466
 6981SOL    HW121842   2.202   4.764   0.448
 6981SOL    HW221843   2.309   4.678   0.537
 6982SOL     OW21844   1.565   0.407   4.261
 6982SOL    HW121845   1.638   0.367   4.316
 6982SOL    HW221846   1.496   0.448   4.322
 6983SOL     OW21847   6.877   0.198   4.843
 6983SOL    HW121848   6.800   0.135   4.835
 6983SOL    HW221849   6.951   0.169   4.782
 6984SOL     OW21850   1.959   2.259   5.841
 6984SOL    HW121851   2.006   2.185   5.793
 6984SOL    HW221852   2.015   2.342   5.837
 6985SOL     OW21853   4.268   5.804   2.620
 6985SOL    HW121854   4.194   5.745   2.591
 6985SOL    HW221855   4.354   5.772   2.580
 6986SOL     OW21856   1.754   6.001   5.626
 6986SOL    HW121857   1.693   6.067   5.581
 6986SOL    HW221858   1.751   5.915   5.576
 6987SOL     OW21859   0.094   2.746   6.415
 6987SOL    HW121860   7.022   2.760   6.400
 6987SOL    HW221861   0.145   2.781   6.336
 6988SOL     OW21862   5.129   1.628   3.872
 6988SOL    HW121863   5.156   1.533   3.860
 6988SOL    HW221864   5.030   1.634   3.884
 6989SOL     OW21865   1.289   1.717   3.719
 6989SOL    HW121866   1.193   1.722   3.691
 6989SOL    HW221867   1.302   1.637   3.777
 6990SOL     OW21868   4.629   3.257   0.031
 6990SOL    HW121869   4.645   3.251   0.130
 6990SOL    HW221870   4.578   3.176   0.002
 6991SOL     OW21871   2.520   4.790   5.379
 6991SOL    HW121872   2.517   4.745   5.469
 6991SOL    HW221873   2.612   4.781   5.341
 6992SOL     OW21874   6.062   6.666   4.259
 6992SOL    HW121875   6.065   6.567   4.272
 6992SOL    HW221876   6.075   6.687   4.162
 6993SOL     OW21877   0.272   0.412   3.114
 6993SOL    HW121878   0.206   0.348   3.153
 6993SOL    HW221879   0.336   0.441   3.185
 6994SOL     OW21880   1.548   3.291   6.135
 6994SOL    HW121881   1.571   3.314   6.230
 6994SOL    HW221882   1.460   3.244   6.132
 6995SOL     OW21883   5.620   5.854   4.119
 6995SOL    HW121884   5.696   5.797   4.088
 6995SOL    HW221885   5.552   5.863   4.046
 6996SOL     OW21886   2.578   0.643   5.244
 6996SOL    HW121887   2.569   0.743   5.243
 6996SOL    HW221888   2.667   0.618   5.282
 6997SOL     OW21889   4.671   5.712   4.791
 6997SOL    HW121890   4.598   5.663   4.742
 6997SOL    HW221891   4.759   5.690   4.750
 6998SOL     OW21892   1.914   3.358   2.188
 6998SOL    HW121893   1.951   3.445   2.155
 6998SOL    HW221894   1.979   3.285   2.168
 6999SOL     OW21895   2.370   1.934   6.071
 6999SOL    HW121896   2.463   1.916   6.103
 6999SOL    HW221897   2.327   2.002   6.130
 7000SOL     OW21898   0.537   6.153   2.860
 7000SOL    HW121899   0.609   6.155   2.928
 7000SOL    HW221900   0.449   6.173   2.904
 7001SOL     OW21901   2.154   3.251   5.613
 7001SOL    HW121902   2.101   3.280   5.534
 7001SOL    HW221903   2.106   3.275   5.697
 7002SOL     OW21904   1.178   5.097   3.676
 7002SOL    HW121905   1.245   5.153   3.627
 7002SOL    HW221906   1.102   5.154   3.707
 7003SOL     OW21907   2.889   6.924   0.618
 7003SOL    HW121908   2.889   6.824   0.628
 7003SOL    HW221909   2.984   6.957   0.615
 7004SOL     OW21910   1.556   4.491   1.354
 7004SOL    HW121911   1.595   4.401   1.372
 7004SOL    HW221912   1.463   4.481   1.317
 7005SOL     OW21913   5.597   6.662   6.765
 7005SOL    HW121914   5.622   6.617   6.679
 7005SOL    HW221915   5.633   6.608   6.842
 7006SOL     OW21916   4.786   4.229   4.698
 7006SOL    HW121917   4.805   4.231   4.796
 7006SOL    HW221918   4.866   4.194   4.649
 7007SOL     OW21919   4.883   6.466   3.056
 7007SOL    HW121920   4.856   6.406   3.131
 7007SOL    HW221921   4.982   6.459   3.041
 7008SOL     OW21922   2.291   4.993   4.704
 7008SOL    HW121923   2.332   4.902   4.701
 7008SOL    HW221924   2.259   5.019   4.613
 7009SOL     OW21925   6.522   5.541   2.280
 7009SOL    HW121926   6.485   5.612   2.340
 7009SOL    HW221927   6.446   5.484   2.246
 7010SOL     OW21928   3.690   4.912   6.088
 7010SOL    HW121929   3.756   4.883   6.018
 7010SOL    HW221930   3.712   4.868   6.175
 7011SOL     OW21931   1.956   6.938   5.606
 7011SOL    HW121932   1.920   6.914   5.696
 7011SOL    HW221933   1.906   7.017   5.570
 7012SOL     OW21934   1.104   0.160   1.817
 7012SOL    HW121935   1.060   0.230   1.761
 7012SOL    HW221936   1.200   0.150   1.789
 7013SOL     OW21937   0.994   7.003   1.186
 7013SOL    HW121938   0.948   7.008   1.274
 7013SOL    HW221939   1.073   0.040   1.186
 7014SOL     OW21940   3.031   4.376   1.203
 7014SOL    HW121941   2.935   4.351   1.219
 7014SOL    HW221942   3.036   4.447   1.134
 7015SOL     OW21943   4.693   2.822   2.564
 7015SOL    HW121944   4.713   2.853   2.470
 7015SOL    HW221945   4.621   2.753   2.562
 7016SOL     OW21946   4.460   4.666   1.506
 7016SOL    HW121947   4.414   4.742   1.459
 7016SOL    HW221948   4.529   4.702   1.569
 7017SOL     OW21949   3.130   1.749   3.466
 7017SOL    HW121950   3.107   1.805   3.545
 7017SOL    HW221951   3.059   1.680   3.452
 7018SOL     OW21952   0.125   3.793   4.372
 7018SOL    HW121953   0.092   3.717   4.315
 7018SOL    HW221954   0.069   3.800   4.455
 7019SOL     OW21955   2.765   5.267   6.533
 7019SOL    HW121956   2.677   5.235   6.569
 7019SOL    HW221957   2.802   5.337   6.594
 7020SOL     OW21958   5.598   0.464   6.869
 7020SOL    HW121959   5.680   0.419   6.905
 7020SOL    HW221960   5.520   0.439   6.927
 7021SOL     OW21961   2.540   1.170   5.153
 7021SOL    HW121962   2.482   1.192   5.232
 7021SOL    HW221963   2.488   1.117   5.087
 7022SOL     OW21964   5.430   3.806   0.550
 7022SOL    HW121965   5.450   3.830   0.456
 7022SOL    HW221966   5.449   3.708   0.564
 7023SOL     OW21967   6.039   2.097   2.170
 7023SOL    HW121968   6.014   2.044   2.089
 7023SOL    HW221969   5.980   2.178   2.177
 7024SOL     OW21970   1.670   6.140   6.542
 7024SOL    HW121971   1.674   6.047   6.577
 7024SOL    HW221972   1.654   6.138   6.443
 7025SOL     OW21973   3.288   2.046   6.426
 7025SOL    HW121974   3.327   2.137   6.444
 7025SOL    HW221975   3.202   2.056   6.375
 7026SOL     OW21976   3.461   1.986   1.606
 7026SOL    HW121977   3.492   1.911   1.664
 7026SOL    HW221978   3.382   1.956   1.552
 7027SOL     OW21979   4.035   5.794   3.898
 7027SOL    HW121980   3.949   5.791   3.847
 7027SOL    HW221981   4.091   5.870   3.866
 7028SOL     OW21982   4.844   6.751   3.513
 7028SOL    HW121983   4.896   6.745   3.428
 7028SOL    HW221984   4.748   6.770   3.492
 7029SOL     OW21985   3.716   6.437   6.967
 7029SOL    HW121986   3.801   6.397   6.931
 7029SOL    HW221987   3.738   6.497   0.018
 7030SOL     OW21988   6.969   3.306   5.737
 7030SOL    HW121989   6.894   3.358   5.779
 7030SOL    HW221990   6.932   3.231   5.683
 7031SOL     OW21991   2.000   5.388   4.448
 7031SOL    HW121992   2.097   5.370   4.463
 7031SOL    HW221993   1.972   5.466   4.504
 7032SOL     OW21994   5.232   6.876   2.775
 7032SOL    HW121995   5.184   6.789   2.758
 7032SOL    HW221996   5.318   6.877   2.724
 7033SOL     OW21997   0.285   1.368   3.980
 7033SOL    HW121998   0.215   1.297   3.988
 7033SOL    HW221999   0.353   1.356   4.052
 7034SOL     OW22000   5.222   0.125   2.853
 7034SOL    HW122001   5.226   0.040   2.800
 7034SOL    HW222002   5.238   0.203   2.792
 7035SOL     OW22003   0.192   6.501   3.056
 7035SOL    HW122004   0.210   6.497   2.957
 7035SOL    HW222005   0.254   6.440   3.104
 7036SOL     OW22006   6.904   5.781   1.733
 7036SOL    HW122007   6.901   5.682   1.746
 7036SOL    HW222008   6.977   5.820   1.790
 7037SOL     OW22009   1.090   6.041   5.324
 7037SOL    HW122010   0.997   6.070   5.300
 7037SOL    HW222011   1.152   6.060   5.249
 7038SOL     OW22012   1.314   4.339   3.319
 7038SOL    HW122013   1.306   4.245   3.286
 7038SOL    HW222014   1.407   4.372   3.303
 7039SOL     OW22015   3.644   0.496   6.742
 7039SOL    HW122016   3.586   0.577   6.746
 7039SOL    HW222017   3.707   0.497   6.821
 7040SOL     OW22018   4.522   2.819   6.325
 7040SOL    HW122019   4.474   2.851   6.407
 7040SOL    HW222020   4.478   2.857   6.244
 7041SOL     OW22021   1.103   1.686   3.078
 7041SOL    HW122022   1.057   1.732   3.002
 7041SOL    HW222023   1.037   1.664   3.149
 7042SOL     OW22024   4.236   5.291   6.550
 7042SOL    HW122025   4.308   5.342   6.598
 7042SOL    HW222026   4.259   5.284   6.453
 7043SOL     OW22027   1.538   1.862   3.664
 7043SOL    HW122028   1.446   1.823   3.668
 7043SOL    HW222029   1.603   1.799   3.706
 7044SOL     OW22030   4.965   4.388   2.712
 7044SOL    HW122031   4.949   4.392   2.810
 7044SOL    HW222032   4.897   4.328   2.670
 7045SOL     OW22033   5.213   6.418   1.216
 7045SOL    HW122034   5.177   6.481   1.147
 7045SOL    HW222035   5.298   6.454   1.253
 7046SOL     OW22036   4.146   0.514   4.770
 7046SOL    HW122037   4.098   0.578   4.710
 7046SOL    HW222038   4.209   0.564   4.829
 7047SOL     OW22039   0.726   1.263   3.736
 7047SOL    HW122040   0.807   1.301   3.692
 7047SOL    HW222041   0.661   1.336   3.756
 7048SOL     OW22042   6.470   6.163   0.724
 7048SOL    HW122043   6.568   6.179   0.740
 7048SOL    HW222044   6.457   6.072   0.684
 7049SOL     OW22045   2.258   0.863   0.909
 7049SOL    HW122046   2.311   0.906   0.982
 7049SOL    HW222047   2.314   0.791   0.867
 7050SOL     OW22048   3.555   4.131   4.694
 7050SOL    HW122049   3.569   4.058   4.762
 7050SOL    HW222050   3.638   4.187   4.689
 7051SOL     OW22051   0.034   0.200   1.303
 7051SOL    HW122052   6.968   0.215   1.340
 7051SOL    HW222053   0.028   0.181   1.205
 7052SOL     OW22054   0.046   2.033   4.316
 7052SOL    HW122055   0.112   1.973   4.362
 7052SOL    HW222056   0.030   1.999   4.224
 7053SOL     OW22057   0.562   4.056   6.738
 7053SOL    HW122058   0.530   4.055   6.833
 7053SOL    HW222059   0.484   4.068   6.677
 7054SOL     OW22060   6.176   6.926   1.547
 7054SOL    HW122061   6.269   6.892   1.536
 7054SOL    HW222062   6.178   7.008   1.605
 7055SOL     OW22063   4.713   0.315   5.450
 7055SOL    HW122064   4.712   0.219   5.422
 7055SOL    HW222065   4.738   0.372   5.372
 7056SOL     OW22066   5.647   4.904   3.123
 7056SOL    HW122067   5.632   4.811   3.156
 7056SOL    HW222068   5.560   4.954   3.123
 7057SOL     OW22069   0.402   4.340   3.452
 7057SOL    HW122070   0.392   4.322   3.550
 7057SOL    HW222071   0.467   4.275   3.413
 7058SOL     OW22072   0.537   5.420   4.956
 7058SOL    HW122073   0.587   5.466   4.883
 7058SOL    HW222074   0.502   5.488   5.021
 7059SOL     OW22075   0.430   0.160   1.971
 7059SOL    HW122076   0.527   0.179   1.955
 7059SOL    HW222077   0.376   0.235   1.934
 7060SOL     OW22078   3.359   6.892   1.387
 7060SOL    HW122079   3.381   6.907   1.291
 7060SOL    HW222080   3.300   6.966   1.420
 7061SOL     OW22081   0.203   1.930   2.977
 7061SOL    HW122082   0.184   1.857   2.911
 7061SOL    HW222083   0.249   1.891   3.057
 7062SOL     OW22084   5.840   1.625   5.313
 7062SOL    HW122085   5.930   1.641   5.355
 7062SOL    HW222086   5.838   1.668   5.223
 7063SOL     OW22087   1.916   6.394   1.450
 7063SOL    HW122088   2.015   6.387   1.444
 7063SOL    HW222089   1.883   6.465   1.387
 7064SOL     OW22090   4.372   2.389   2.050
 7064SOL    HW122091   4.461   2.420   2.083
 7064SOL    HW222092   4.371   2.289   2.044
 7065SOL     OW22093   4.473   4.246   1.326
 7065SOL    HW122094   4.444   4.313   1.394
 7065SOL    HW222095   4.560   4.274   1.286
 7066SOL     OW22096   3.716   0.032   0.543
 7066SOL    HW122097   3.712   6.999   0.624
 7066SOL    HW222098   3.766   7.011   0.470
 7067SOL     OW22099   0.923   3.951   5.589
 7067SOL    HW122100   0.893   4.046   5.581
 7067SOL    HW222101   0.996   3.934   5.523
 7068SOL     OW22102   1.161   2.469   2.954
 7068SOL    HW122103   1.090   2.415   2.999
 7068SOL    HW222104   1.153   2.564   2.983
 7069SOL     OW22105   6.483   3.816   5.473
 7069SOL    HW122106   6.492   3.865   5.386
 7069SOL    HW222107   6.570   3.819   5.521
 7070SOL     OW22108   6.394   4.564   5.285
 7070SOL    HW122109   6.324   4.621   5.326
 7070SOL    HW222110   6.408   4.591   5.190
 7071SOL     OW22111   1.361   5.758   5.244
 7071SOL    HW122112   1.429   5.687   5.262
 7071SOL    HW222113   1.279   5.716   5.205
 7072SOL     OW22114   6.614   6.263   5.749
 7072SOL    HW122115   6.533   6.234   5.698
 7072SOL    HW222116   6.587   6.322   5.825
 7073SOL     OW22117   0.044   0.949   5.563
 7073SOL    HW122118   0.030   1.036   5.516
 7073SOL    HW222119   0.048   0.964   5.662
 7074SOL     OW22120   3.315   2.687   1.529
 7074SOL    HW122121   3.317   2.596   1.570
 7074SOL    HW222122   3.220   2.717   1.519
 7075SOL     OW22123   1.773   5.825   4.161
 7075SOL    HW122124   1.680   5.857   4.177
 7075SOL    HW222125   1.781   5.729   4.186
 7076SOL     OW22126   3.792   2.178   6.763
 7076SOL    HW122127   3.762   2.100   6.818
 7076SOL    HW222128   3.825   2.250   6.824
 7077SOL     OW22129   2.012   6.031   5.158
 7077SOL    HW122130   1.931   6.044   5.101
 7077SOL    HW222131   1.983   6.012   5.252
 7078SOL     OW22132   6.332   6.695   3.037
 7078SOL    HW122133   6.403   6.664   3.100
 7078SOL    HW222134   6.278   6.617   3.006
 7079SOL     OW22135   6.420   6.049   5.997
 7079SOL    HW122136   6.434   6.019   6.091
 7079SOL    HW222137   6.498   6.105   5.968
 7080SOL     OW22138   4.093   1.933   3.656
 7080SOL    HW122139   4.025   1.948   3.584
 7080SOL    HW222140   4.047   1.927   3.745
 7081SOL     OW22141   3.074   1.284   5.014
 7081SOL    HW122142   3.031   1.360   5.063
 7081SOL    HW222143   3.011   1.252   4.943
 7082SOL     OW22144   5.745   1.436   6.839
 7082SOL    HW122145   5.747   1.536   6.837
 7082SOL    HW222146   5.832   1.401   6.805
 7083SOL     OW22147   2.836   1.138   6.108
 7083SOL    HW122148   2.779   1.058   6.089
 7083SOL    HW222149   2.779   1.212   6.145
 7084SOL     OW22150   6.745   6.447   5.597
 7084SOL    HW122151   6.711   6.356   5.624
 7084SOL    HW222152   6.668   6.509   5.584
 7085SOL     OW22153   2.329   2.051   3.627
 7085SOL    HW122154   2.425   2.035   3.653
 7085SOL    HW222155   2.274   2.064   3.710
 7086SOL     OW22156   5.104   1.034   6.561
 7086SOL    HW122157   5.068   1.123   6.534
 7086SOL    HW222158   5.083   0.966   6.490
 7087SOL     OW22159   1.057   3.508   4.597
 7087SOL    HW122160   1.144   3.540   4.558
 7087SOL    HW222161   0.987   3.508   4.526
 7088SOL     OW22162   5.181   3.258   4.405
 7088SOL    HW122163   5.100   3.203   4.385
 7088SOL    HW222164   5.246   3.248   4.329
 7089SOL     OW22165   3.309   2.362   5.896
 7089SOL    HW122166   3.355   2.298   5.834
 7089SOL    HW222167   3.282   2.443   5.844
 7090SOL     OW22168   1.547   1.770   5.728
 7090SOL    HW122169   1.603   1.833   5.781
 7090SOL    HW222170   1.531   1.686   5.781
 7091SOL     OW22171   0.630   0.810   0.295
 7091SOL    HW122172   0.649   0.857   0.209
 7091SOL    HW222173   0.605   0.877   0.365
 7092SOL     OW22174   3.726   4.110   0.164
 7092SOL    HW122175   3.799   4.125   0.097
 7092SOL    HW222176   3.715   4.192   0.220
 7093SOL     OW22177   3.486   4.081   4.448
 7093SOL    HW122178   3.531   4.097   4.536
 7093SOL    HW222179   3.435   3.995   4.451
 7094SOL     OW22180   0.926   6.436   5.877
 7094SOL    HW122181   0.864   6.358   5.875
 7094SOL    HW222182   1.002   6.418   5.814
 7095SOL     OW22183   1.884   3.018   6.677
 7095SOL    HW122184   1.916   3.005   6.770
 7095SOL    HW222185   1.805   3.078   6.677
 7096SOL     OW22186   5.272   1.985   3.881
 7096SOL    HW122187   5.181   2.011   3.914
 7096SOL    HW222188   5.264   1.904   3.822
 7097SOL     OW22189   0.058   0.787   2.012
 7097SOL    HW122190   0.157   0.788   2.031
 7097SOL    HW222191   0.043   0.778   1.914
 7098SOL     OW22192   1.342   6.126   5.719
 7098SOL    HW122193   1.372   6.221   5.728
 7098SOL    HW222194   1.323   6.107   5.623
 7099SOL     OW22195   1.215   1.325   5.196
 7099SOL    HW122196   1.138   1.358   5.141
 7099SOL    HW222197   1.270   1.402   5.228
 7100SOL     OW22198   4.843   3.828   0.930
 7100SOL    HW122199   4.806   3.806   0.840
 7100SOL    HW222200   4.772   3.874   0.984
 7101SOL     OW22201   3.125   0.238   4.383
 7101SOL    HW122202   3.164   0.330   4.392
 7101SOL    HW222203   3.123   0.195   4.474
 7102SOL     OW22204   4.161   0.948   1.206
 7102SOL    HW122205   4.087   1.007   1.238
 7102SOL    HW222206   4.125   0.887   1.135
 7103SOL     OW22207   3.615   5.998   6.657
 7103SOL    HW122208   3.707   6.034   6.645
 7103SOL    HW222209   3.595   5.989   6.755
 7104SOL     OW22210   1.448   3.041   3.100
 7104SOL    HW122211   1.541   3.074   3.085
 7104SOL    HW222212   1.385   3.119   3.104
 7105SOL     OW22213   3.286   3.440   4.782
 7105SOL    HW122214   3.320   3.360   4.832
 7105SOL    HW222215   3.293   3.423   4.684
 7106SOL     OW22216   3.571   2.887   4.798
 7106SOL    HW122217   3.493   2.864   4.856
 7106SOL    HW222218   3.577   2.820   4.723
 7107SOL     OW22219   2.716   1.276   0.502
 7107SOL    HW122220   2.681   1.211   0.434
 7107SOL    HW222221   2.684   1.250   0.593
 7108SOL     OW22222   4.783   6.178   1.332
 7108SOL    HW122223   4.822   6.265   1.302
 7108SOL    HW222224   4.856   6.119   1.366
 7109SOL     OW22225   3.575   0.039   6.210
 7109SOL    HW122226   3.549   0.121   6.261
 7109SOL    HW222227   3.495   0.001   6.164
 7110SOL     OW22228   5.325   5.193   3.963
 7110SOL    HW122229   5.413   5.145   3.963
 7110SOL    HW222230   5.340   5.289   3.937
 7111SOL     OW22231   1.553   3.566   4.057
 7111SOL    HW122232   1.511   3.514   4.132
 7111SOL    HW222233   1.636   3.611   4.090
 7112SOL     OW22234   1.440   6.066   3.939
 7112SOL    HW122235   1.538   6.046   3.950
 7112SOL    HW222236   1.406   6.116   4.018
 7113SOL     OW22237   4.032   3.945   4.620
 7113SOL    HW122238   4.055   3.931   4.717
 7113SOL    HW222239   4.079   3.876   4.565
 7114SOL     OW22240   3.900   0.710   1.685
 7114SOL    HW122241   3.836   0.656   1.740
 7114SOL    HW222242   3.854   0.795   1.656
 7115SOL     OW22243   5.268   2.026   1.417
 7115SOL    HW122244   5.230   2.093   1.352
 7115SOL    HW222245   5.271   2.068   1.508
 7116SOL     OW22246   5.776   4.178   3.586
 7116SOL    HW122247   5.682   4.146   3.573
 7116SOL    HW222248   5.787   4.211   3.679
 7117SOL     OW22249   6.833   6.052   3.569
 7117SOL    HW122250   6.801   5.980   3.631
 7117SOL    HW222251   6.852   6.013   3.479
 7118SOL     OW22252   5.476   3.804   1.647
 7118SOL    HW122253   5.378   3.810   1.625
 7118SOL    HW222254   5.516   3.895   1.645
 7119SOL     OW22255   5.904   1.075   3.023
 7119SOL    HW122256   5.949   1.156   3.062
 7119SOL    HW222257   5.863   1.099   2.936
 7120SOL     OW22258   4.853   1.317   3.269
 7120SOL    HW122259   4.870   1.406   3.227
 7120SOL    HW222260   4.785   1.327   3.342
 7121SOL     OW22261   2.352   6.688   3.646
 7121SOL    HW122262   2.396   6.659   3.561
 7121SOL    HW222263   2.264   6.641   3.656
 7122SOL     OW22264   6.725   1.172   0.383
 7122SOL    HW122265   6.645   1.115   0.400
 7122SOL    HW222266   6.807   1.115   0.381
 7123SOL     OW22267   2.970   5.762   1.888
 7123SOL    HW122268   2.885   5.751   1.939
 7123SOL    HW222269   3.042   5.792   1.950
 7124SOL     OW22270   0.656   5.147   0.808
 7124SOL    HW122271   0.725   5.217   0.830
 7124SOL    HW222272   0.628   5.101   0.892
 7125SOL     OW22273   6.269   6.634   1.695
 7125SOL    HW122274   6.203   6.658   1.766
 7125SOL    HW222275   6.361   6.629   1.735
 7126SOL     OW22276   2.559   3.797   0.396
 7126SOL    HW122277   2.520   3.887   0.375
 7126SOL    HW222278   2.644   3.785   0.345
 7127SOL     OW22279   3.462   5.109   3.970
 7127SOL    HW122280   3.432   5.203   3.985
 7127SOL    HW222281   3.552   5.095   4.013
 7128SOL     OW22282   3.376   4.844   0.820
 7128SOL    HW122283   3.357   4.783   0.897
 7128SOL    HW222284   3.361   4.795   0.734
 7129SOL     OW22285   3.148   0.559   1.386
 7129SOL    HW122286   3.142   0.528   1.481
 7129SOL    HW222287   3.063   0.604   1.361
 7130SOL     OW22288   3.044   5.080   4.131
 7130SOL    HW122289   3.014   5.070   4.036
 7130SOL    HW222290   3.052   5.177   4.153
 7131SOL     OW22291   3.291   1.422   1.984
 7131SOL    HW122292   3.309   1.323   1.979
 7131SOL    HW222293   3.270   1.456   1.893
 7132SOL     OW22294   4.142   3.401   2.959
 7132SOL    HW122295   4.065   3.406   2.895
 7132SOL    HW222296   4.198   3.321   2.938
 7133SOL     OW22297   4.806   5.378   2.990
 7133SOL    HW122298   4.770   5.460   3.033
 7133SOL    HW222299   4.781   5.298   3.045
 7134SOL     OW22300   6.309   6.121   3.936
 7134SOL    HW122301   6.286   6.037   3.986
 7134SOL    HW222302   6.314   6.197   4.001
 7135SOL     OW22303   1.348   0.517   4.455
 7135SOL    HW122304   1.270   0.464   4.489
 7135SOL    HW222305   1.316   0.606   4.423
 7136SOL     OW22306   1.957   1.315   1.016
 7136SOL    HW122307   1.879   1.307   1.078
 7136SOL    HW222308   1.927   1.354   0.929
 7137SOL     OW22309   4.187   1.044   4.666
 7137SOL    HW122310   4.228   0.965   4.711
 7137SOL    HW222311   4.257   1.111   4.644
 7138SOL     OW22312   3.325   2.673   1.198
 7138SOL    HW122313   3.306   2.710   1.289
 7138SOL    HW222314   3.366   2.745   1.141
 7139SOL     OW22315   4.885   3.207   1.875
 7139SOL    HW122316   4.937   3.262   1.940
 7139SOL    HW222317   4.822   3.146   1.924
 7140SOL     OW22318   6.098   3.763   4.756
 7140SOL    HW122319   6.142   3.681   4.719
 7140SOL    HW222320   6.028   3.736   4.822
 7141SOL     OW22321   3.196   0.523   0.932
 7141SOL    HW122322   3.173   0.469   1.013
 7141SOL    HW222323   3.113   0.540   0.879
 7142SOL     OW22324   4.506   6.677   3.839
 7142SOL    HW122325   4.534   6.581   3.833
 7142SOL    HW222326   4.425   6.684   3.897
 7143SOL     OW22327   2.011   4.253   6.243
 7143SOL    HW122328   1.946   4.183   6.275
 7143SOL    HW222329   1.989   4.341   6.285
 7144SOL     OW22330   0.455   1.236   2.700
 7144SOL    HW122331   0.462   1.145   2.658
 7144SOL    HW222332   0.361   1.268   2.693
 7145SOL     OW22333   4.302   6.496   6.795
 7145SOL    HW122334   4.350   6.507   6.708
 7145SOL    HW222335   4.220   6.553   6.795
 7146SOL     OW22336   3.006   6.696   0.933
 7146SOL    HW122337   2.908   6.714   0.938
 7146SOL    HW222338   3.050   6.727   1.018
 7147SOL     OW22339   6.877   6.887   3.265
 7147SOL    HW122340   6.964   6.876   3.216
 7147SOL    HW222341   6.882   6.840   3.353
 7148SOL     OW22342   0.908   6.189   1.707
 7148SOL    HW122343   0.843   6.152   1.773
 7148SOL    HW222344   0.911   6.129   1.627
 7149SOL     OW22345   6.512   1.065   3.857
 7149SOL    HW122346   6.430   1.009   3.847
 7149SOL    HW222347   6.546   1.091   3.767
 7150SOL     OW22348   5.249   2.936   1.143
 7150SOL    HW122349   5.170   2.887   1.107
 7150SOL    HW222350   5.244   2.939   1.242
 7151SOL     OW22351   1.624   5.902   0.994
 7151SOL    HW122352   1.625   5.887   1.093
 7151SOL    HW222353   1.529   5.899   0.961
 7152SOL     OW22354   0.657   3.494   4.701
 7152SOL    HW122355   0.744   3.458   4.735
 7152SOL    HW222356   0.675   3.560   4.628
 7153SOL     OW22357   4.055   6.947   5.326
 7153SOL    HW122358   3.999   6.871   5.295
 7153SOL    HW222359   4.134   6.913   5.376
 7154SOL     OW22360   3.891   5.610   4.264
 7154SOL    HW122361   3.955   5.642   4.194
 7154SOL    HW222362   3.936   5.541   4.321
 7155SOL     OW22363   0.993   6.137   2.034
 7155SOL    HW122364   0.939   6.053   2.026
 7155SOL    HW222365   0.985   6.190   1.950
 7156SOL     OW22366   6.763   4.969   5.378
 7156SOL    HW122367   6.853   4.934   5.402
 7156SOL    HW222368   6.752   4.971   5.279
 7157SOL     OW22369   6.002   5.460   0.084
 7157SOL    HW122370   6.079   5.494   0.031
 7157SOL    HW222371   5.963   5.535   0.138
 7158SOL     OW22372   6.762   6.659   3.167
 7158SOL    HW122373   6.831   6.588   3.179
 7158SOL    HW222374   6.802   6.748   3.187
 7159SOL     OW22375   0.329   4.926   1.347
 7159SOL    HW122376   0.350   5.003   1.408
 7159SOL    HW222377   0.285   4.853   1.399
 7160SOL     OW22378   6.570   6.933   1.740
 7160SOL    HW122379   6.511   7.014   1.740
 7160SOL    HW222380   6.644   6.947   1.806
 7161SOL     OW22381   3.344   3.384   3.671
 7161SOL    HW122382   3.336   3.376   3.571
 7161SOL    HW222383   3.328   3.479   3.697
 7162SOL     OW22384   3.828   5.008   4.610
 7162SOL    HW122385   3.763   4.988   4.536
 7162SOL    HW222386   3.908   4.949   4.599
 7163SOL     OW22387   3.803   0.061   3.343
 7163SOL    HW122388   3.891   0.069   3.389
 7163SOL    HW222389   3.807   7.012   3.276
 7164SOL     OW22390   1.910   1.593   3.240
 7164SOL    HW122391   1.937   1.542   3.159
 7164SOL    HW222392   1.928   1.539   3.322
 7165SOL     OW22393   6.331   1.203   0.294
 7165SOL    HW122394   6.339   1.187   0.195
 7165SOL    HW222395   6.405   1.155   0.341
 7166SOL     OW22396   4.791   4.395   1.550
 7166SOL    HW122397   4.871   4.439   1.590
 7166SOL    HW222398   4.772   4.310   1.600
 7167SOL     OW22399   4.802   3.783   5.322
 7167SOL    HW122400   4.800   3.709   5.255
 7167SOL    HW222401   4.709   3.820   5.333
 7168SOL     OW22402   1.328   1.519   3.888
 7168SOL    HW122403   1.241   1.545   3.929
 7168SOL    HW222404   1.325   1.423   3.860
 7169SOL     OW22405   1.703   3.160   5.959
 7169SOL    HW122406   1.669   3.069   5.981
 7169SOL    HW222407   1.655   3.228   6.015
 7170SOL     OW22408   4.828   5.213   2.772
 7170SOL    HW122409   4.921   5.212   2.737
 7170SOL    HW222410   4.812   5.298   2.822
 7171SOL     OW22411   4.419   3.246   5.494
 7171SOL    HW122412   4.364   3.168   5.463
 7171SOL    HW222413   4.475   3.218   5.572
 7172SOL     OW22414   1.374   6.653   0.646
 7172SOL    HW122415   1.300   6.720   0.640
 7172SOL    HW222416   1.439   6.682   0.716
 7173SOL     OW22417   6.318   4.884   4.189
 7173SOL    HW122418   6.272   4.968   4.157
 7173SOL    HW222419   6.348   4.831   4.110
 7174SOL     OW22420   1.868   5.092   6.883
 7174SOL    HW122421   1.866   5.034   6.802
 7174SOL    HW222422   1.957   5.084   6.928
 7175SOL     OW22423   5.483   3.739   1.013
 7175SOL    HW122424   5.464   3.745   1.110
 7175SOL    HW222425   5.397   3.732   0.962
 7176SOL     OW22426   6.884   4.611   2.423
 7176SOL    HW122427   6.855   4.546   2.352
 7176SOL    HW222428   6.967   4.657   2.394
 7177SOL     OW22429   1.441   6.000   3.572
 7177SOL    HW122430   1.343   6.015   3.569
 7177SOL    HW222431   1.462   5.924   3.633
 7178SOL     OW22432   1.607   2.841   5.696
 7178SOL    HW122433   1.585   2.939   5.697
 7178SOL    HW222434   1.704   2.829   5.715
 7179SOL     OW22435   2.784   3.727   5.749
 7179SOL    HW122436   2.855   3.668   5.711
 7179SOL    HW222437   2.826   3.813   5.780
 7180SOL     OW22438   0.891   5.390   6.676
 7180SOL    HW122439   0.857   5.300   6.650
 7180SOL    HW222440   0.985   5.383   6.708
 7181SOL     OW22441   4.111   0.488   0.970
 7181SOL    HW122442   4.057   0.460   0.890
 7181SOL    HW222443   4.054   0.543   1.031
 7182SOL     OW22444   2.025   4.353   5.367
 7182SOL    HW122445   1.966   4.408   5.307
 7182SOL    HW222446   1.985   4.263   5.380
 7183SOL     OW22447   2.013   5.382   2.465
 7183SOL    HW122448   1.926   5.334   2.474
 7183SOL    HW222449   2.039   5.420   2.554
 7184SOL     OW22450   1.323   6.619   4.277
 7184SOL    HW122451   1.357   6.538   4.230
 7184SOL    HW222452   1.244   6.656   4.228
 7185SOL     OW22453   5.323   3.211   6.467
 7185SOL    HW122454   5.385   3.239   6.393
 7185SOL    HW222455   5.376   3.185   6.547
 7186SOL     OW22456   6.860   6.648   5.373
 7186SOL    HW122457   6.865   6.744   5.401
 7186SOL    HW222458   6.925   6.632   5.299
 7187SOL     OW22459   1.541   4.545   1.632
 7187SOL    HW122460   1.536   4.544   1.532
 7187SOL    HW222461   1.594   4.624   1.662
 7188SOL     OW22462   5.609   0.090   2.145
 7188SOL    HW122463   5.707   0.086   2.164
 7188SOL    HW222464   5.575   0.183   2.162
 7189SOL     OW22465   6.247   0.875   6.230
 7189SOL    HW122466   6.157   0.881   6.186
 7189SOL    HW222467   6.243   0.918   6.320
 7190SOL     OW22468   5.317   4.244   3.439
 7190SOL    HW122469   5.396   4.266   3.380
 7190SOL    HW222470   5.297   4.147   3.433
 7191SOL     OW22471   0.876   3.819   2.963
 7191SOL    HW122472   0.909   3.736   3.010
 7191SOL    HW222473   0.851   3.796   2.869
 7192SOL     OW22474   2.301   5.425   5.796
 7192SOL    HW122475   2.385   5.401   5.748
 7192SOL    HW222476   2.232   5.354   5.780
 7193SOL     OW22477   3.176   1.957   4.659
 7193SOL    HW122478   3.243   1.971   4.586
 7193SOL    HW222479   3.189   2.028   4.729
 7194SOL     OW22480   2.210   1.469   1.362
 7194SOL    HW122481   2.185   1.562   1.334
 7194SOL    HW222482   2.190   1.406   1.288
 7195SOL     OW22483   0.159   5.272   0.808
 7195SOL    HW122484   0.121   5.363   0.822
 7195SOL    HW222485   0.254   5.279   0.776
 7196SOL     OW22486   2.906   3.405   3.093
 7196SOL    HW122487   2.887   3.351   3.175
 7196SOL    HW222488   2.950   3.491   3.119
 7197SOL     OW22489   6.831   1.812   4.883
 7197SOL    HW122490   6.878   1.742   4.936
 7197SOL    HW222491   6.741   1.830   4.924
 7198SOL     OW22492   1.415   6.718   5.897
 7198SOL    HW122493   1.413   6.745   5.801
 7198SOL    HW222494   1.364   6.632   5.909
 7199SOL     OW22495   0.118   0.604   2.724
 7199SOL    HW122496   0.143   0.588   2.819
 7199SOL    HW222497   0.056   0.531   2.693
 7200SOL     OW22498   2.231   1.005   0.461
 7200SOL    HW122499   2.161   0.967   0.401
 7200SOL    HW222500   2.320   0.965   0.438
 7201SOL     OW22501   1.869   4.718   2.929
 7201SOL    HW122502   1.921   4.798   2.896
 7201SOL    HW222503   1.772   4.742   2.933
 7202SOL     OW22504   3.805   0.137   6.338
 7202SOL    HW122505   3.724   0.187   6.370
 7202SOL    HW222506   3.779   0.042   6.316
 7203SOL     OW22507   6.290   0.434   0.582
 7203SOL    HW122508   6.308   0.409   0.677
 7203SOL    HW222509   6.353   0.506   0.553
 7204SOL     OW22510   6.646   0.534   3.730
 7204SOL    HW122511   6.583   0.607   3.703
 7204SOL    HW222512   6.636   0.515   3.828
 7205SOL     OW22513   1.579   5.394   2.991
 7205SOL    HW122514   1.655   5.331   2.977
 7205SOL    HW222515   1.613   5.488   2.994
 7206SOL     OW22516   0.481   1.312   1.187
 7206SOL    HW122517   0.382   1.304   1.178
 7206SOL    HW222518   0.525   1.232   1.146
 7207SOL     OW22519   3.600   6.801   1.076
 7207SOL    HW122520   3.520   6.762   1.030
 7207SOL    HW222521   3.598   6.774   1.172
 7208SOL     OW22522   3.903   6.617   4.785
 7208SOL    HW122523   3.901   6.663   4.874
 7208SOL    HW222524   3.884   6.519   4.798
 7209SOL     OW22525   4.089   3.287   4.234
 7209SOL    HW122526   4.179   3.320   4.264
 7209SOL    HW222527   4.018   3.339   4.281
 7210SOL     OW22528   4.833   1.115   3.751
 7210SOL    HW122529   4.811   1.025   3.789
 7210SOL    HW222530   4.872   1.105   3.660
 7211SOL     OW22531   1.209   6.466   4.506
 7211SOL    HW122532   1.125   6.519   4.522
 7211SOL    HW222533   1.286   6.529   4.498
 7212SOL     OW22534   7.005   5.963   4.709
 7212SOL    HW122535   6.918   5.915   4.709
 7212SOL    HW222536   0.009   5.979   4.614
 7213SOL     OW22537   5.600   0.209   5.613
 7213SOL    HW122538   5.617   0.178   5.706
 7213SOL    HW222539   5.687   0.224   5.566
 7214SOL     OW22540   2.260   5.369   4.407
 7214SOL    HW122541   2.325   5.318   4.464
 7214SOL    HW222542   2.294   5.372   4.313
 7215SOL     OW22543   1.294   3.234   4.522
 7215SOL    HW122544   1.332   3.245   4.430
 7215SOL    HW222545   1.214   3.174   4.519
 7216SOL     OW22546   2.505   6.070   0.046
 7216SOL    HW122547   2.473   5.978   0.070
 7216SOL    HW222548   2.598   6.065   0.012
 7217SOL     OW22549   1.891   4.541   2.383
 7217SOL    HW122550   1.863   4.610   2.316
 7217SOL    HW222551   1.930   4.586   2.463
 7218SOL     OW22552   4.919   2.309   5.699
 7218SOL    HW122553   4.942   2.221   5.658
 7218SOL    HW222554   4.892   2.295   5.795
 7219SOL     OW22555   4.595   6.851   3.459
 7219SOL    HW122556   4.551   6.884   3.543
 7219SOL    HW222557   4.576   6.914   3.384
 7220SOL     OW22558   6.539   0.813   2.864
 7220SOL    HW122559   6.489   0.831   2.780
 7220SOL    HW222560   6.635   0.837   2.852
 7221SOL     OW22561   5.820   4.495   5.210
 7221SOL    HW122562   5.745   4.449   5.258
 7221SOL    HW222563   5.822   4.466   5.115
 7222SOL     OW22564   6.417   6.779   0.789
 7222SOL    HW122565   6.459   6.869   0.776
 7222SOL    HW222566   6.452   6.716   0.720
 7223SOL     OW22567   3.222   1.631   6.949
 7223SOL    HW122568   3.235   1.609   0.020
 7223SOL    HW222569   3.144   1.693   6.940
 7224SOL     OW22570   5.845   0.970   4.803
 7224SOL    HW122571   5.790   0.920   4.871
 7224SOL    HW222572   5.890   0.905   4.742
 7225SOL     OW22573   1.733   5.690   0.444
 7225SOL    HW122574   1.738   5.782   0.405
 7225SOL    HW222575   1.800   5.631   0.398
 7226SOL     OW22576   0.418   6.847   0.261
 7226SOL    HW122577   0.488   6.861   0.191
 7226SOL    HW222578   0.338   6.903   0.241
 7227SOL     OW22579   0.783   1.782   0.118
 7227SOL    HW122580   0.875   1.779   0.077
 7227SOL    HW222581   0.737   1.694   0.102
 7228SOL     OW22582   0.066   6.648   1.878
 7228SOL    HW122583   0.038   6.743   1.870
 7228SOL    HW222584   0.048   6.615   1.971
 7229SOL     OW22585   1.133   0.282   4.402
 7229SOL    HW122586   1.033   0.279   4.397
 7229SOL    HW222587   1.166   0.207   4.459
 7230SOL     OW22588   4.595   5.596   3.965
 7230SOL    HW122589   4.570   5.644   4.050
 7230SOL    HW222590   4.523   5.610   3.897
 7231SOL     OW22591   5.883   1.884   6.256
 7231SOL    HW122592   5.825   1.921   6.329
 7231SOL    HW222593   5.953   1.825   6.296
 7232SOL     OW22594   4.390   4.660   2.533
 7232SOL    HW122595   4.419   4.744   2.580
 7232SOL    HW222596   4.378   4.678   2.436
 7233SOL     OW22597   0.202   2.760   5.276
 7233SOL    HW122598   0.239   2.669   5.298
 7233SOL    HW222599   0.186   2.767   5.178
 7234SOL     OW22600   6.043   1.918   1.668
 7234SOL    HW122601   6.063   2.008   1.628
 7234SOL    HW222602   6.123   1.859   1.658
 7235SOL     OW22603   5.130   3.871   4.667
 7235SOL    HW122604   5.067   3.865   4.744
 7235SOL    HW222605   5.213   3.819   4.688
 7236SOL     OW22606   3.960   1.427   2.785
 7236SOL    HW122607   3.901   1.460   2.859
 7236SOL    HW222608   3.961   1.494   2.711
 7237SOL     OW22609   6.167   5.927   5.562
 7237SOL    HW122610   6.218   5.974   5.633
 7237SOL    HW222611   6.220   5.929   5.477
 7238SOL     OW22612   2.641   1.763   2.178
 7238SOL    HW122613   2.684   1.701   2.111
 7238SOL    HW222614   2.558   1.721   2.214
 7239SOL     OW22615   1.738   1.474   2.758
 7239SOL    HW122616   1.713   1.390   2.711
 7239SOL    HW222617   1.824   1.460   2.808
 7240SOL     OW22618   2.854   3.733   0.915
 7240SOL    HW122619   2.905   3.797   0.972
 7240SOL    HW222620   2.869   3.640   0.947
 7241SOL     OW22621   3.678   0.338   5.465
 7241SOL    HW122622   3.633   0.262   5.417
 7241SOL    HW222623   3.633   0.354   5.552
 7242SOL     OW22624   5.527   4.467   6.766
 7242SOL    HW122625   5.609   4.490   6.817
 7242SOL    HW222626   5.480   4.391   6.810
 7243SOL     OW22627   0.942   5.224   0.000
 7243SOL    HW122628   0.856   5.177   0.019
 7243SOL    HW222629   1.014   5.157   7.009
 7244SOL     OW22630   5.833   1.546   1.265
 7244SOL    HW122631   5.878   1.586   1.185
 7244SOL    HW222632   5.849   1.447   1.266
 7245SOL     OW22633   0.207   2.083   4.795
 7245SOL    HW122634   0.110   2.069   4.809
 7245SOL    HW222635   0.223   2.176   4.761
 7246SOL     OW22636   5.904   6.877   4.787
 7246SOL    HW122637   5.888   6.947   4.857
 7246SOL    HW222638   6.000   6.850   4.790
 7247SOL     OW22639   2.737   6.070   1.801
 7247SOL    HW122640   2.834   6.046   1.804
 7247SOL    HW222641   2.720   6.147   1.862
 7248SOL     OW22642   4.155   1.135   3.971
 7248SOL    HW122643   4.088   1.065   3.997
 7248SOL    HW222644   4.224   1.095   3.911
 7249SOL     OW22645   5.391   4.500   0.430
 7249SOL    HW122646   5.468   4.435   0.426
 7249SOL    HW222647   5.366   4.515   0.526
 7250SOL     OW22648   2.649   5.107   6.006
 7250SOL    HW122649   2.682   5.199   5.987
 7250SOL    HW222650   2.708   5.040   5.961
 7251SOL     OW22651   0.065   6.739   4.838
 7251SOL    HW122652   7.012   6.695   4.794
 7251SOL    HW222653   0.140   6.674   4.845
 7252SOL     OW22654   3.056   3.381   5.000
 7252SOL    HW122655   3.013   3.363   5.089
 7252SOL    HW222656   3.126   3.312   4.983
 7253SOL     OW22657   3.064   6.347   0.846
 7253SOL    HW122658   3.097   6.388   0.931
 7253SOL    HW222659   3.096   6.253   0.839
 7254SOL     OW22660   3.698   5.552   4.069
 7254SOL    HW122661   3.722   5.568   4.165
 7254SOL    HW222662   3.675   5.639   4.026
 7255SOL     OW22663   2.885   3.525   2.146
 7255SOL    HW122664   2.882   3.427   2.126
 7255SOL    HW222665   2.921   3.575   2.067
 7256SOL     OW22666   4.265   4.845   4.063
 7256SOL    HW122667   4.209   4.896   3.996
 7256SOL    HW222668   4.360   4.875   4.057
 7257SOL     OW22669   5.561   2.341   3.110
 7257SOL    HW122670   5.607   2.415   3.160
 7257SOL    HW222671   5.630   2.275   3.079
 7258SOL     OW22672   3.622   0.526   5.146
 7258SOL    HW122673   3.546   0.471   5.110
 7258SOL    HW222674   3.698   0.465   5.170
 7259SOL     OW22675   2.489   3.925   0.058
 7259SOL    HW122676   2.586   3.913   0.034
 7259SOL    HW222677   2.466   4.022   0.054
 7260SOL     OW22678   3.225   2.086   2.601
 7260SOL    HW122679   3.242   2.085   2.503
 7260SOL    HW222680   3.312   2.085   2.650
 7261SOL     OW22681   2.133   3.200   2.130
 7261SOL    HW122682   2.162   3.132   2.063
 7261SOL    HW222683   2.151   3.292   2.095
 7262SOL     OW22684   5.516   1.939   5.187
 7262SOL    HW122685   5.478   2.022   5.229
 7262SOL    HW222686   5.451   1.904   5.119
 7263SOL     OW22687   1.451   6.197   1.154
 7263SOL    HW122688   1.437   6.191   1.055
 7263SOL    HW222689   1.545   6.223   1.172
 7264SOL     OW22690   6.471   0.818   6.653
 7264SOL    HW122691   6.421   0.864   6.726
 7264SOL    HW222692   6.553   0.775   6.690
 7265SOL     OW22693   5.090   5.141   5.508
 7265SOL    HW122694   5.119   5.047   5.497
 7265SOL    HW222695   5.120   5.175   5.597
 7266SOL     OW22696   4.677   0.482   1.876
 7266SOL    HW122697   4.674   0.564   1.932
 7266SOL    HW222698   4.585   0.459   1.845
 7267SOL     OW22699   0.362   3.733   4.480
 7267SOL    HW122700   0.312   3.724   4.566
 7267SOL    HW222701   0.298   3.760   4.408
 7268SOL     OW22702   3.922   6.243   1.314
 7268SOL    HW122703   3.933   6.280   1.222
 7268SOL    HW222704   3.862   6.303   1.367
 7269SOL     OW22705   0.885   5.920   1.945
 7269SOL    HW122706   0.981   5.898   1.924
 7269SOL    HW222707   0.829   5.838   1.932
 7270SOL     OW22708   2.318   1.464   2.557
 7270SOL    HW122709   2.248   1.427   2.496
 7270SOL    HW222710   2.327   1.563   2.542
 7271SOL     OW22711   6.925   4.062   3.012
 7271SOL    HW122712   6.910   4.106   2.924
 7271SOL    HW222713   6.847   4.003   3.033
 7272SOL     OW22714   4.614   2.655   2.858
 7272SOL    HW122715   4.648   2.713   2.932
 7272SOL    HW222716   4.668   2.672   2.775
 7273SOL     OW22717   5.302   4.555   1.098
 7273SOL    HW122718   5.367   4.483   1.074
 7273SOL    HW222719   5.323   4.589   1.189
 7274SOL     OW22720   6.877   5.120   5.670
 7274SOL    HW122721   6.948   5.190   5.672
 7274SOL    HW222722   6.828   5.124   5.583
 7275SOL     OW22723   6.925   0.397   0.582
 7275SOL    HW122724   6.934   0.434   0.490
 7275SOL    HW222725   7.000   0.431   0.640
 7276SOL     OW22726   2.253   2.457   4.150
 7276SOL    HW122727   2.242   2.508   4.064
 7276SOL    HW222728   2.237   2.518   4.227
 7277SOL     OW22729   4.553   1.874   4.677
 7277SOL    HW122730   4.604   1.922   4.748
 7277SOL    HW222731   4.498   1.802   4.719
 7278SOL     OW22732   3.290   1.369   3.516
 7278SOL    HW122733   3.314   1.444   3.454
 7278SOL    HW222734   3.314   1.394   3.610
 7279SOL     OW22735   4.980   4.839   0.293
 7279SOL    HW122736   5.067   4.841   0.341
 7279SOL    HW222737   4.911   4.887   0.347
 7280SOL     OW22738   5.390   2.147   5.290
 7280SOL    HW122739   5.299   2.189   5.284
 7280SOL    HW222740   5.443   2.192   5.361
 7281SOL     OW22741   3.681   6.623   1.985
 7281SOL    HW122742   3.622   6.676   1.925
 7281SOL    HW222743   3.634   6.538   2.011
 7282SOL     OW22744   6.753   5.440   1.971
 7282SOL    HW122745   6.778   5.503   2.044
 7282SOL    HW222746   6.825   5.439   1.901
 7283SOL     OW22747   4.057   5.259   2.594
 7283SOL    HW122748   3.985   5.231   2.530
 7283SOL    HW222749   4.047   5.209   2.680
 7284SOL     OW22750   6.591   1.815   3.748
 7284SOL    HW122751   6.644   1.745   3.699
 7284SOL    HW222752   6.503   1.827   3.703
 7285SOL     OW22753   4.777   2.944   2.324
 7285SOL    HW122754   4.783   3.028   2.377
 7285SOL    HW222755   4.757   2.966   2.229
 7286SOL     OW22756   0.820   0.900   0.672
 7286SOL    HW122757   0.888   0.872   0.604
 7286SOL    HW222758   0.808   0.999   0.669
 7287SOL     OW22759   1.663   2.753   4.039
 7287SOL    HW122760   1.754   2.729   4.005
 7287SOL    HW222761   1.673   2.811   4.120
 7288SOL     OW22762   3.278   2.137   3.282
 7288SOL    HW122763   3.258   2.199   3.206
 7288SOL    HW222764   3.254   2.043   3.257
 7289SOL     OW22765   6.182   2.623   1.195
 7289SOL    HW122766   6.132   2.634   1.110
 7289SOL    HW222767   6.241   2.542   1.190
 7290SOL     OW22768   3.563   1.289   4.926
 7290SOL    HW122769   3.526   1.283   4.833
 7290SOL    HW222770   3.488   1.285   4.992
 7291SOL     OW22771   4.111   1.108   0.241
 7291SOL    HW122772   4.130   1.205   0.229
 7291SOL    HW222773   4.182   1.054   0.195
 7292SOL     OW22774   2.098   6.759   3.314
 7292SOL    HW122775   2.002   6.731   3.307
 7292SOL    HW222776   2.121   6.818   3.237
 7293SOL     OW22777   1.774   0.611   5.017
 7293SOL    HW122778   1.800   0.708   5.009
 7293SOL    HW222779   1.803   0.577   5.107
 7294SOL     OW22780   2.331   5.467   1.253
 7294SOL    HW122781   2.379   5.530   1.313
 7294SOL    HW222782   2.366   5.475   1.160
 7295SOL     OW22783   6.678   5.096   2.303
 7295SOL    HW122784   6.709   5.124   2.212
 7295SOL    HW222785   6.596   5.039   2.293
 7296SOL     OW22786   4.334   5.143   1.970
 7296SOL    HW122787   4.309   5.073   2.038
 7296SOL    HW222788   4.434   5.152   1.967
 7297SOL     OW22789   3.580   6.233   1.243
 7297SOL    HW122790   3.604   6.293   1.166
 7297SOL    HW222791   3.616   6.142   1.228
 7298SOL     OW22792   4.724   5.848   6.407
 7298SOL    HW122793   4.725   5.831   6.309
 7298SOL    HW222794   4.786   5.924   6.429
 7299SOL     OW22795   1.373   3.090   0.061
 7299SOL    HW122796   1.378   3.012   7.023
 7299SOL    HW222797   1.297   3.076   0.124
 7300SOL     OW22798   0.937   5.290   1.861
 7300SOL    HW122799   1.027   5.333   1.874
 7300SOL    HW222800   0.885   5.343   1.793
 7301SOL     OW22801   5.287   6.684   5.727
 7301SOL    HW122802   5.313   6.753   5.660
 7301SOL    HW222803   5.289   6.724   5.818
 7302SOL     OW22804   5.066   2.323   6.098
 7302SOL    HW122805   5.125   2.379   6.040
 7302SOL    HW222806   5.092   2.226   6.090
 7303SOL     OW22807   2.441   1.269   1.070
 7303SOL    HW122808   2.374   1.291   1.141
 7303SOL    HW222809   2.405   1.296   0.981
 7304SOL     OW22810   2.704   5.475   1.786
 7304SOL    HW122811   2.695   5.529   1.869
 7304SOL    HW222812   2.799   5.475   1.756
 7305SOL     OW22813   6.009   2.133   0.639
 7305SOL    HW122814   5.986   2.135   0.542
 7305SOL    HW222815   5.983   2.220   0.681
 7306SOL     OW22816   1.872   1.729   1.208
 7306SOL    HW122817   1.841   1.700   1.299
 7306SOL    HW222818   1.950   1.790   1.218
 7307SOL     OW22819   1.559   6.604   1.663
 7307SOL    HW122820   1.486   6.563   1.717
 7307SOL    HW222821   1.523   6.683   1.613
 7308SOL     OW22822   4.955   1.075   2.546
 7308SOL    HW122823   4.871   1.031   2.578
 7308SOL    HW222824   4.950   1.173   2.564
 7309SOL     OW22825   1.927   5.325   3.266
 7309SOL    HW122826   1.945   5.227   3.264
 7309SOL    HW222827   1.941   5.363   3.175
 7310SOL     OW22828   2.060   3.010   0.277
 7310SOL    HW122829   2.028   2.931   0.329
 7310SOL    HW222830   2.023   3.094   0.317
 7311SOL     OW22831   6.791   6.621   6.349
 7311SOL    HW122832   6.782   6.527   6.318
 7311SOL    HW222833   6.717   6.676   6.310
 7312SOL     OW22834   0.351   2.543   5.068
 7312SOL    HW122835   0.279   2.593   5.020
 7312SOL    HW222836   0.439   2.556   5.021
 7313SOL     OW22837   2.855   0.825   2.305
 7313SOL    HW122838   2.866   0.919   2.338
 7313SOL    HW222839   2.936   0.772   2.328
 7314SOL     OW22840   0.268   4.631   0.148
 7314SOL    HW122841   0.184   4.578   0.137
 7314SOL    HW222842   0.273   4.665   0.242
 7315SOL     OW22843   1.200   4.919   2.563
 7315SOL    HW122844   1.177   4.828   2.529
 7315SOL    HW222845   1.148   4.938   2.647
 7316SOL     OW22846   3.795   2.239   0.463
 7316SOL    HW122847   3.836   2.290   0.538
 7316SOL    HW222848   3.837   2.149   0.457
 7317SOL     OW22849   3.559   1.788   1.756
 7317SOL    HW122850   3.601   1.848   1.824
 7317SOL    HW222851   3.608   1.700   1.754
 7318SOL     OW22852   3.674   6.778   0.527
 7318SOL    HW122853   3.622   6.711   0.474
 7318SOL    HW222854   3.664   6.758   0.624
 7319SOL     OW22855   6.574   4.865   0.285
 7319SOL    HW122856   6.542   4.897   0.374
 7319SOL    HW222857   6.635   4.787   0.297
 7320SOL     OW22858   6.887   3.013   0.958
 7320SOL    HW122859   6.956   2.957   1.005
 7320SOL    HW222860   6.798   2.998   1.000
 7321SOL     OW22861   1.778   6.739   6.764
 7321SOL    HW122862   1.862   6.784   6.795
 7321SOL    HW222863   1.714   6.807   6.730
 7322SOL     OW22864   0.351   2.772   2.326
 7322SOL    HW122865   0.331   2.870   2.328
 7322SOL    HW222866   0.328   2.735   2.235
 7323SOL     OW22867   1.257   1.688   1.755
 7323SOL    HW122868   1.158   1.704   1.752
 7323SOL    HW222869   1.305   1.775   1.761
 7324SOL     OW22870   5.571   4.642   3.210
 7324SOL    HW122871   5.629   4.578   3.260
 7324SOL    HW222872   5.585   4.629   3.111
 7325SOL     OW22873   4.321   1.023   6.439
 7325SOL    HW122874   4.307   0.966   6.358
 7325SOL    HW222875   4.260   1.103   6.435
 7326SOL     OW22876   2.513   0.615   0.312
 7326SOL    HW122877   2.506   0.713   0.293
 7326SOL    HW222878   2.562   0.570   0.236
 7327SOL     OW22879   6.588   3.799   2.879
 7327SOL    HW122880   6.534   3.719   2.904
 7327SOL    HW222881   6.635   3.782   2.792
 7328SOL     OW22882   4.253   4.789   5.031
 7328SOL    HW122883   4.309   4.707   5.020
 7328SOL    HW222884   4.227   4.798   5.127
 7329SOL     OW22885   2.894   3.045   0.754
 7329SOL    HW122886   2.829   2.983   0.709
 7329SOL    HW222887   2.986   3.026   0.722
 7330SOL     OW22888   3.445   2.877   1.074
 7330SOL    HW122889   3.444   2.930   0.989
 7330SOL    HW222890   3.517   2.808   1.070
 7331SOL     OW22891   4.706   0.673   2.689
 7331SOL    HW122892   4.795   0.685   2.645
 7331SOL    HW222893   4.720   0.656   2.787
 7332SOL     OW22894   2.903   4.057   6.830
 7332SOL    HW122895   2.859   4.038   6.742
 7332SOL    HW222896   2.944   3.973   6.866
 7333SOL     OW22897   6.834   2.292   1.407
 7333SOL    HW122898   6.863   2.201   1.436
 7333SOL    HW222899   6.738   2.290   1.381
 7334SOL     OW22900   3.060   0.386   5.482
 7334SOL    HW122901   2.997   0.314   5.453
 7334SOL    HW222902   3.099   0.431   5.402
 7335SOL     OW22903   6.978   2.699   2.347
 7335SOL    HW122904   6.988   2.721   2.250
 7335SOL    HW222905   6.920   2.768   2.391
 7336SOL     OW22906   1.323   6.226   0.905
 7336SOL    HW122907   1.380   6.157   0.860
 7336SOL    HW222908   1.238   6.238   0.853
 7337SOL     OW22909   2.173   2.115   2.677
 7337SOL    HW122910   2.158   2.187   2.610
 7337SOL    HW222911   2.177   2.155   2.769
 7338SOL     OW22912   5.806   3.145   2.007
 7338SOL    HW122913   5.892   3.189   2.032
 7338SOL    HW222914   5.739   3.157   2.081
 7339SOL     OW22915   6.406   5.086   4.688
 7339SOL    HW122916   6.374   5.054   4.598
 7339SOL    HW222917   6.360   5.034   4.760
 7340SOL     OW22918   2.904   0.247   0.483
 7340SOL    HW122919   2.965   0.189   0.536
 7340SOL    HW222920   2.953   0.328   0.453
 7341SOL     OW22921   6.549   5.046   3.912
 7341SOL    HW122922   6.582   5.017   4.002
 7341SOL    HW222923   6.449   5.050   3.913
 7342SOL     OW22924   6.899   0.146   0.525
 7342SOL    HW122925   6.821   0.107   0.574
 7342SOL    HW222926   6.909   0.243   0.549
 7343SOL     OW22927   6.463   4.486   2.381
 7343SOL    HW122928   6.541   4.549   2.378
 7343SOL    HW222929   6.491   4.400   2.425
 7344SOL     OW22930   1.646   6.303   6.942
 7344SOL    HW122931   1.685   6.336   0.003
 7344SOL    HW222932   1.711   6.241   6.899
 7345SOL     OW22933   4.317   5.248   6.308
 7345SOL    HW122934   4.259   5.172   6.277
 7345SOL    HW222935   4.401   5.250   6.254
 7346SOL     OW22936   3.978   4.818   1.786
 7346SOL    HW122937   3.977   4.911   1.748
 7346SOL    HW222938   3.988   4.752   1.711
 7347SOL     OW22939   6.106   1.664   2.028
 7347SOL    HW122940   6.018   1.710   2.040
 7347SOL    HW222941   6.166   1.686   2.104
 7348SOL     OW22942   1.215   1.939   3.900
 7348SOL    HW122943   1.256   1.869   3.842
 7348SOL    HW222944   1.206   1.904   3.993
 7349SOL     OW22945   3.690   1.569   0.356
 7349SOL    HW122946   3.762   1.620   0.308
 7349SOL    HW222947   3.723   1.478   0.379
 7350SOL     OW22948   1.356   2.390   3.166
 7350SOL    HW122949   1.393   2.352   3.082
 7350SOL    HW222950   1.266   2.429   3.148
 7351SOL     OW22951   4.392   4.867   6.990
 7351SOL    HW122952   4.460   4.815   6.938
 7351SOL    HW222953   4.301   4.843   6.958
 7352SOL     OW22954   0.686   1.880   2.538
 7352SOL    HW122955   0.677   1.787   2.504
 7352SOL    HW222956   0.610   1.900   2.600
 7353SOL     OW22957   5.626   1.913   4.538
 7353SOL    HW122958   5.663   1.876   4.453
 7353SOL    HW222959   5.633   1.844   4.610
 7354SOL     OW22960   6.073   5.820   5.823
 7354SOL    HW122961   6.109   5.733   5.858
 7354SOL    HW222962   6.075   5.818   5.723
 7355SOL     OW22963   1.342   5.672   2.149
 7355SOL    HW122964   1.378   5.606   2.082
 7355SOL    HW222965   1.261   5.633   2.193
 7356SOL     OW22966   6.331   1.835   6.432
 7356SOL    HW122967   6.339   1.771   6.508
 7356SOL    HW222968   6.420   1.876   6.413
 7357SOL     OW22969   5.908   2.213   6.740
 7357SOL    HW122970   5.899   2.221   6.839
 7357SOL    HW222971   5.989   2.159   6.718
 7358SOL     OW22972   3.249   1.463   4.235
 7358SOL    HW122973   3.194   1.446   4.154
 7358SOL    HW222974   3.262   1.377   4.285
 7359SOL     OW22975   3.934   3.016   3.305
 7359SOL    HW122976   4.020   3.059   3.277
 7359SOL    HW222977   3.917   3.036   3.401
 7360SOL     OW22978   1.226   2.540   5.193
 7360SOL    HW122979   1.316   2.549   5.150
 7360SOL    HW222980   1.237   2.499   5.284
 7361SOL     OW22981   5.329   5.913   2.199
 7361SOL    HW122982   5.254   5.944   2.258
 7361SOL    HW222983   5.310   5.939   2.105
 7362SOL     OW22984   2.159   5.748   5.493
 7362SOL    HW122985   2.213   5.749   5.576
 7362SOL    HW222986   2.104   5.664   5.490
 7363SOL     OW22987   4.942   2.882   0.054
 7363SOL    HW122988   5.021   2.914   0.107
 7363SOL    HW222989   4.964   2.796   0.009
 7364SOL     OW22990   4.171   6.110   1.362
 7364SOL    HW122991   4.217   6.196   1.384
 7364SOL    HW222992   4.074   6.127   1.348
 7365SOL     OW22993   2.654   0.045   2.148
 7365SOL    HW122994   2.574   0.094   2.112
 7365SOL    HW222995   2.630   6.975   2.163
 7366SOL     OW22996   0.063   5.143   6.771
 7366SOL    HW122997   6.994   5.164   6.794
 7366SOL    HW222998   0.124   5.189   6.835
 7367SOL     OW22999   4.897   3.715   1.955
 7367SOL    HW123000   4.996   3.729   1.959
 7367SOL    HW223001   4.875   3.622   1.986
 7368SOL     OW23002   2.890   3.751   4.859
 7368SOL    HW123003   2.795   3.780   4.867
 7368SOL    HW223004   2.949   3.831   4.850
 7369SOL     OW23005   5.057   3.983   0.971
 7369SOL    HW123006   5.111   3.971   0.888
 7369SOL    HW223007   4.973   3.930   0.964
 7370SOL     OW23008   2.508   0.045   1.020
 7370SOL    HW123009   2.605   0.069   1.011
 7370SOL    HW223010   2.500   6.974   1.044
 7371SOL     OW23011   2.690   4.946   4.017
 7371SOL    HW123012   2.759   4.942   4.088
 7371SOL    HW223013   2.683   4.857   3.972
 7372SOL     OW23014   3.300   0.330   5.673
 7372SOL    HW123015   3.293   0.328   5.574
 7372SOL    HW223016   3.208   0.327   5.713
 7373SOL     OW23017   3.539   0.511   2.435
 7373SOL    HW123018   3.547   0.541   2.340
 7373SOL    HW223019   3.592   0.572   2.494
 7374SOL     OW23020   1.264   3.380   6.427
 7374SOL    HW123021   1.254   3.338   6.517
 7374SOL    HW223022   1.361   3.400   6.411
 7375SOL     OW23023   1.205   0.794   4.400
 7375SOL    HW123024   1.109   0.777   4.421
 7375SOL    HW223025   1.245   0.851   4.472
 7376SOL     OW23026   2.823   2.691   0.083
 7376SOL    HW123027   2.807   2.603   0.038
 7376SOL    HW223028   2.773   2.763   0.034
 7377SOL     OW23029   4.760   4.431   2.085
 7377SOL    HW123030   4.853   4.428   2.051
 7377SOL    HW223031   4.705   4.362   2.039
 7378SOL     OW23032   0.364   1.381   4.652
 7378SOL    HW123033   0.447   1.370   4.597
 7378SOL    HW223034   0.293   1.424   4.597
 7379SOL     OW23035   3.893   1.537   2.235
 7379SOL    HW123036   3.801   1.559   2.266
 7379SOL    HW223037   3.960   1.573   2.299
 7380SOL     OW23038   0.175   3.249   6.111
 7380SOL    HW123039   0.233   3.282   6.185
 7380SOL    HW223040   0.215   3.275   6.023
 7381SOL     OW23041   4.825   2.048   2.272
 7381SOL    HW123042   4.799   1.974   2.210
 7381SOL    HW223043   4.813   2.017   2.367
 7382SOL     OW23044   0.369   4.931   4.188
 7382SOL    HW123045   0.300   4.917   4.116
 7382SOL    HW223046   0.376   4.848   4.243
 7383SOL     OW23047   0.013   6.458   3.447
 7383SOL    HW123048   0.037   6.477   3.543
 7383SOL    HW223049   0.081   6.398   3.407
 7384SOL     OW23050   5.140   6.610   2.336
 7384SOL    HW123051   5.220   6.558   2.307
 7384SOL    HW223052   5.076   6.620   2.259
 7385SOL     OW23053   4.624   5.934   1.703
 7385SOL    HW123054   4.717   5.914   1.671
 7385SOL    HW223055   4.581   6.001   1.642
 7386SOL     OW23056   0.901   2.439   5.495
 7386SOL    HW123057   0.849   2.511   5.542
 7386SOL    HW223058   0.956   2.390   5.562
 7387SOL     OW23059   4.663   5.042   3.851
 7387SOL    HW123060   4.630   5.009   3.940
 7387SOL    HW223061   4.661   5.142   3.850
 7388SOL     OW23062   6.716   4.477   4.230
 7388SOL    HW123063   6.801   4.497   4.180
 7388SOL    HW223064   6.687   4.384   4.209
 7389SOL     OW23065   1.813   4.464   0.004
 7389SOL    HW123066   1.828   4.552   0.049
 7389SOL    HW223067   1.899   4.429   6.994
 7390SOL     OW23068   0.604   1.237   5.864
 7390SOL    HW123069   0.601   1.142   5.896
 7390SOL    HW223070   0.629   1.239   5.767
 7391SOL     OW23071   6.077   3.433   6.100
 7391SOL    HW123072   5.992   3.480   6.074
 7391SOL    HW223073   6.058   3.336   6.118
 7392SOL     OW23074   1.544   4.977   4.360
 7392SOL    HW123075   1.591   5.059   4.392
 7392SOL    HW223076   1.508   4.926   4.438
 7393SOL     OW23077   6.909   5.244   2.335
 7393SOL    HW123078   6.964   5.307   2.389
 7393SOL    HW223079   6.878   5.289   2.252
 7394SOL     OW23080   4.023   3.284   6.351
 7394SOL    HW123081   3.988   3.298   6.444
 7394SOL    HW223082   4.023   3.371   6.302
 7395SOL     OW23083   0.486   0.252   6.738
 7395SOL    HW123084   0.563   0.315   6.738
 7395SOL    HW223085   0.402   0.303   6.721
 7396SOL     OW23086   1.056   0.603   6.464
 7396SOL    HW123087   1.126   0.671   6.489
 7396SOL    HW223088   1.098   0.513   6.458
 7397SOL     OW23089   6.953   4.541   4.828
 7397SOL    HW123090   6.913   4.630   4.807
 7397SOL    HW223091   6.998   4.545   4.918
 7398SOL     OW23092   4.565   4.735   4.217
 7398SOL    HW123093   4.552   4.803   4.290
 7398SOL    HW223094   4.550   4.644   4.255
 7399SOL     OW23095   5.630   3.904   5.914
 7399SOL    HW123096   5.712   3.855   5.883
 7399SOL    HW223097   5.549   3.867   5.868
 7400SOL     OW23098   2.811   4.941   6.620
 7400SOL    HW123099   2.712   4.937   6.610
 7400SOL    HW223100   2.852   4.855   6.591
 7401SOL     OW23101   0.152   1.868   3.762
 7401SOL    HW123102   0.177   1.789   3.817
 7401SOL    HW223103   0.231   1.928   3.750
 7402SOL     OW23104   2.519   0.065   3.484
 7402SOL    HW123105   2.526   7.012   3.422
 7402SOL    HW223106   2.526   0.033   3.579
 7403SOL     OW23107   2.176   3.042   3.183
 7403SOL    HW123108   2.127   2.954   3.186
 7403SOL    HW223109   2.196   3.065   3.088
 7404SOL     OW23110   1.117   0.337   1.051
 7404SOL    HW123111   1.049   0.291   0.995
 7404SOL    HW223112   1.120   0.434   1.028
 7405SOL     OW23113   2.831   5.315   5.332
 7405SOL    HW123114   2.785   5.265   5.406
 7405SOL    HW223115   2.891   5.253   5.282
 7406SOL     OW23116   1.523   3.937   1.984
 7406SOL    HW123117   1.610   3.949   2.031
 7406SOL    HW223118   1.527   3.856   1.926
 7407SOL     OW23119   1.146   6.418   5.262
 7407SOL    HW123120   1.057   6.417   5.217
 7407SOL    HW223121   1.196   6.501   5.237
 7408SOL     OW23122   1.464   4.598   5.464
 7408SOL    HW123123   1.504   4.606   5.373
 7408SOL    HW223124   1.509   4.661   5.527
 7409SOL     OW23125   1.533   0.689   4.910
 7409SOL    HW123126   1.469   0.613   4.927
 7409SOL    HW223127   1.615   0.675   4.965
 7410SOL     OW23128   0.010   5.440   1.095
 7410SOL    HW123129   0.054   5.500   1.028
 7410SOL    HW223130   6.936   5.448   1.086
 7411SOL     OW23131   2.805   6.462   4.946
 7411SOL    HW123132   2.827   6.367   4.921
 7411SOL    HW223133   2.720   6.463   4.998
 7412SOL     OW23134   2.116   1.050   1.306
 7412SOL    HW123135   2.037   0.993   1.330
 7412SOL    HW223136   2.170   1.004   1.236
 7413SOL     OW23137   6.013   3.890   4.489
 7413SOL    HW123138   6.086   3.851   4.544
 7413SOL    HW223139   6.046   3.972   4.442
 7414SOL     OW23140   6.746   6.643   2.197
 7414SOL    HW123141   6.694   6.560   2.177
 7414SOL    HW223142   6.697   6.722   2.161
 7415SOL     OW23143   2.243   2.798   2.983
 7415SOL    HW123144   2.289   2.728   2.928
 7415SOL    HW223145   2.144   2.783   2.979
 7416SOL     OW23146   3.693   1.142   4.264
 7416SOL    HW123147   3.708   1.086   4.345
 7416SOL    HW223148   3.699   1.085   4.182
 7417SOL     OW23149   1.303   0.133   6.974
 7417SOL    HW123150   1.216   0.086   6.962
 7417SOL    HW223151   1.371   0.068   7.008
 7418SOL     OW23152   2.918   3.993   1.387
 7418SOL    HW123153   2.888   4.054   1.461
 7418SOL    HW223154   2.905   3.898   1.415
 7419SOL     OW23155   5.435   1.561   5.053
 7419SOL    HW123156   5.429   1.655   5.020
 7419SOL    HW223157   5.494   1.557   5.134
 7420SOL     OW23158   6.419   6.293   1.920
 7420SOL    HW123159   6.333   6.286   1.870
 7420SOL    HW223160   6.433   6.210   1.975
 7421SOL     OW23161   3.932   3.987   1.677
 7421SOL    HW123162   3.913   3.978   1.775
 7421SOL    HW223163   3.852   4.027   1.632
 7422SOL     OW23164   0.483   3.400   0.600
 7422SOL    HW123165   0.464   3.390   0.698
 7422SOL    HW223166   0.402   3.372   0.549
 7423SOL     OW23167   2.230   4.774   5.926
 7423SOL    HW123168   2.159   4.843   5.910
 7423SOL    HW223169   2.214   4.729   6.014
 7424SOL     OW23170   5.573   0.989   4.392
 7424SOL    HW123171   5.654   1.008   4.447
 7424SOL    HW223172   5.537   1.074   4.354
 7425SOL     OW23173   3.853   4.480   6.153
 7425SOL    HW123174   3.904   4.543   6.095
 7425SOL    HW223175   3.838   4.394   6.104
 7426SOL     OW23176   0.743   1.621   5.700
 7426SOL    HW123177   0.652   1.610   5.740
 7426SOL    HW223178   0.742   1.585   5.606
 7427SOL     OW23179   2.918   5.996   5.071
 7427SOL    HW123180   2.958   5.906   5.053
 7427SOL    HW223181   2.841   5.985   5.134
 7428SOL     OW23182   3.647   2.501   5.837
 7428SOL    HW123183   3.653   2.562   5.758
 7428SOL    HW223184   3.625   2.409   5.806
 7429SOL     OW23185   0.186   0.443   2.330
 7429SOL    HW123186   0.204   0.345   2.334
 7429SOL    HW223187   0.098   0.458   2.285
 7430SOL     OW23188   6.560   3.694   5.091
 7430SOL    HW123189   6.549   3.733   4.999
 7430SOL    HW223190   6.504   3.745   5.156
 7431SOL     OW23191   0.522   3.561   2.100
 7431SOL    HW123192   0.618   3.581   2.075
 7431SOL    HW223193   0.519   3.523   2.192
 7432SOL     OW23194   0.086   6.321   3.982
 7432SOL    HW123195   0.184   6.315   3.965
 7432SOL    HW223196   0.043   6.376   3.910
 7433SOL     OW23197   5.757   5.043   0.691
 7433SOL    HW123198   5.724   5.090   0.773
 7433SOL    HW223199   5.778   5.109   0.620
 7434SOL     OW23200   2.749   2.003   6.747
 7434SOL    HW123201   2.760   2.095   6.707
 7434SOL    HW223202   2.769   2.007   6.845
 7435SOL     OW23203   3.171   6.349   6.274
 7435SOL    HW123204   3.221   6.325   6.357
 7435SOL    HW223205   3.148   6.266   6.223
 7436SOL     OW23206   5.426   3.386   6.744
 7436SOL    HW123207   5.481   3.427   6.672
 7436SOL    HW223208   5.473   3.397   6.832
 7437SOL     OW23209   0.495   5.510   6.168
 7437SOL    HW123210   0.520   5.477   6.258
 7437SOL    HW223211   0.571   5.563   6.130
 7438SOL     OW23212   0.756   4.445   1.854
 7438SOL    HW123213   0.684   4.386   1.890
 7438SOL    HW223214   0.846   4.407   1.875
 7439SOL     OW23215   2.217   6.795   3.916
 7439SOL    HW123216   2.289   6.806   3.848
 7439SOL    HW223217   2.175   6.705   3.907
 7440SOL     OW23218   1.113   3.037   4.582
 7440SOL    HW123219   1.123   2.938   4.570
 7440SOL    HW223220   1.148   3.063   4.671
 7441SOL     OW23221   5.694   0.725   3.851
 7441SOL    HW123222   5.621   0.657   3.838
 7441SOL    HW223223   5.668   0.787   3.925
 7442SOL     OW23224   1.114   1.663   6.471
 7442SOL    HW123225   1.199   1.610   6.469
 7442SOL    HW223226   1.110   1.722   6.390
 7443SOL     OW23227   1.093   1.329   6.279
 7443SOL    HW123228   1.014   1.288   6.233
 7443SOL    HW223229   1.088   1.310   6.377
 7444SOL     OW23230   0.183   3.365   5.866
 7444SOL    HW123231   0.251   3.351   5.794
 7444SOL    HW223232   0.091   3.351   5.828
 7445SOL     OW23233   5.306   1.315   1.240
 7445SOL    HW123234   5.338   1.237   1.186
 7445SOL    HW223235   5.330   1.400   1.193
 7446SOL     OW23236   6.695   3.555   1.301
 7446SOL    HW123237   6.755   3.572   1.223
 7446SOL    HW223238   6.672   3.641   1.346
 7447SOL     OW23239   1.656   4.300   0.423
 7447SOL    HW123240   1.652   4.250   0.336
 7447SOL    HW223241   1.693   4.392   0.407
 7448SOL     OW23242   5.428   0.286   5.391
 7448SOL    HW123243   5.493   0.247   5.457
 7448SOL    HW223244   5.366   0.214   5.359
 7449SOL     OW23245   5.064   2.031   2.061
 7449SOL    HW123246   5.025   2.080   2.139
 7449SOL    HW223247   4.991   1.979   2.016
 7450SOL     OW23248   4.182   2.278   3.006
 7450SOL    HW123249   4.256   2.326   2.959
 7450SOL    HW223250   4.109   2.256   2.941
 7451SOL     OW23251   1.610   1.113   4.991
 7451SOL    HW123252   1.545   1.183   4.960
 7451SOL    HW223253   1.561   1.026   5.003
 7452SOL     OW23254   2.420   0.114   4.683
 7452SOL    HW123255   2.393   0.126   4.779
 7452SOL    HW223256   2.520   0.115   4.676
 7453SOL     OW23257   5.926   6.759   5.110
 7453SOL    HW123258   5.929   6.666   5.148
 7453SOL    HW223259   5.837   6.775   5.068
 7454SOL     OW23260   0.991   3.792   1.880
 7454SOL    HW123261   0.965   3.888   1.872
 7454SOL    HW223262   1.072   3.775   1.824
 7455SOL     OW23263   5.205   2.735   0.766
 7455SOL    HW123264   5.116   2.746   0.809
 7455SOL    HW223265   5.248   2.824   0.755
 7456SOL     OW23266   1.372   3.524   4.966
 7456SOL    HW123267   1.291   3.576   4.995
 7456SOL    HW223268   1.348   3.465   4.889
 7457SOL     OW23269   5.709   1.243   5.107
 7457SOL    HW123270   5.709   1.278   5.200
 7457SOL    HW223271   5.620   1.202   5.087
 7458SOL     OW23272   2.891   0.330   0.080
 7458SOL    HW123273   2.951   0.393   0.129
 7458SOL    HW223274   2.886   0.357   7.009
 7459SOL     OW23275   4.923   0.036   5.849
 7459SOL    HW123276   4.855   0.110   5.838
 7459SOL    HW223277   4.883   6.987   5.902
 7460SOL     OW23278   1.199   4.521   0.733
 7460SOL    HW123279   1.261   4.562   0.666
 7460SOL    HW223280   1.105   4.530   0.702
 7461SOL     OW23281   5.297   1.019   5.571
 7461SOL    HW123282   5.387   1.061   5.587
 7461SOL    HW223283   5.288   0.995   5.475
 7462SOL     OW23284   2.266   2.075   2.208
 7462SOL    HW123285   2.222   2.029   2.131
 7462SOL    HW223286   2.201   2.085   2.282
 7463SOL     OW23287   4.403   3.348   1.521
 7463SOL    HW123288   4.377   3.251   1.515
 7463SOL    HW223289   4.350   3.392   1.594
 7464SOL     OW23290   4.397   6.074   1.222
 7464SOL    HW123291   4.300   6.095   1.238
 7464SOL    HW223292   4.405   5.994   1.163
 7465SOL     OW23293   2.307   0.017   1.767
 7465SOL    HW123294   2.362   0.096   1.742
 7465SOL    HW223295   2.225   0.048   1.815
 7466SOL     OW23296   0.005   0.351   6.627
 7466SOL    HW123297   0.018   0.311   6.537
 7466SOL    HW223298   0.040   0.289   6.697
 7467SOL     OW23299   0.398   1.966   0.806
 7467SOL    HW123300   0.308   1.949   0.848
 7467SOL    HW223301   0.385   2.001   0.713
 7468SOL     OW23302   5.626   1.939   2.812
 7468SOL    HW123303   5.617   1.841   2.791
 7468SOL    HW223304   5.541   1.971   2.853
 7469SOL     OW23305   1.077   0.603   6.955
 7469SOL    HW123306   1.045   0.534   7.021
 7469SOL    HW223307   1.126   0.557   6.881
 7470SOL     OW23308   0.144   2.088   2.126
 7470SOL    HW123309   0.143   1.989   2.138
 7470SOL    HW223310   0.161   2.133   2.213
 7471SOL     OW23311   6.433   6.493   5.337
 7471SOL    HW123312   6.444   6.433   5.258
 7471SOL    HW223313   6.417   6.587   5.305
 7472SOL     OW23314   4.093   6.926   4.509
 7472SOL    HW123315   4.074   6.829   4.527
 7472SOL    HW223316   4.052   6.952   4.422
 7473SOL     OW23317   6.817   3.351   4.286
 7473SOL    HW123318   6.806   3.424   4.354
 7473SOL    HW223319   6.888   3.288   4.317
 7474SOL     OW23320   3.629   0.970   4.047
 7474SOL    HW123321   3.631   1.006   3.954
 7474SOL    HW223322   3.638   0.870   4.045
 7475SOL     OW23323   3.791   0.345   1.699
 7475SOL    HW123324   3.880   0.336   1.744
 7475SOL    HW223325   3.787   0.432   1.649
 7476SOL     OW23326   4.384   5.628   4.367
 7476SOL    HW123327   4.352   5.597   4.278
 7476SOL    HW223328   4.305   5.640   4.428
 7477SOL     OW23329   4.330   0.981   3.832
 7477SOL    HW123330   4.323   0.885   3.805
 7477SOL    HW223331   4.317   1.039   3.751
 7478SOL     OW23332   2.695   3.684   6.998
 7478SOL    HW123333   2.731   3.767   0.017
 7478SOL    HW223334   2.767   3.614   6.996
 7479SOL     OW23335   4.437   0.305   0.789
 7479SOL    HW123336   4.452   0.250   0.707
 7479SOL    HW223337   4.517   0.300   0.848
 7480SOL     OW23338   5.687   5.615   1.249
 7480SOL    HW123339   5.693   5.557   1.330
 7480SOL    HW223340   5.593   5.619   1.218
 7481SOL     OW23341   5.759   4.526   0.643
 7481SOL    HW123342   5.799   4.605   0.690
 7481SOL    HW223343   5.676   4.555   0.595
 7482SOL     OW23344   4.698   0.989   2.723
 7482SOL    HW123345   4.676   0.892   2.734
 7482SOL    HW223346   4.625   1.035   2.673
 7483SOL     OW23347   3.905   1.965   4.674
 7483SOL    HW123348   3.931   2.051   4.629
 7483SOL    HW223349   3.871   1.901   4.606
 7484SOL     OW23350   1.772   6.451   1.684
 7484SOL    HW123351   1.827   6.422   1.606
 7484SOL    HW223352   1.711   6.525   1.656
 7485SOL     OW23353   3.093   5.715   5.436
 7485SOL    HW123354   3.153   5.783   5.393
 7485SOL    HW223355   3.008   5.709   5.384
 7486SOL     OW23356   3.198   6.259   5.066
 7486SOL    HW123357   3.110   6.232   5.104
 7486SOL    HW223358   3.196   6.356   5.043
 7487SOL     OW23359   3.079   6.427   3.380
 7487SOL    HW123360   3.174   6.456   3.368
 7487SOL    HW223361   3.065   6.338   3.337
 7488SOL     OW23362   3.027   6.956   5.697
 7488SOL    HW123363   3.012   7.013   5.777
 7488SOL    HW223364   3.099   6.995   5.640
 7489SOL     OW23365   4.485   2.059   3.756
 7489SOL    HW123366   4.521   1.970   3.783
 7489SOL    HW223367   4.551   2.131   3.780
 7490SOL     OW23368   0.015   0.900   0.932
 7490SOL    HW123369   0.048   0.957   0.857
 7490SOL    HW223370   6.985   0.826   0.895
 7491SOL     OW23371   6.932   5.749   6.664
 7491SOL    HW123372   6.955   5.685   6.736
 7491SOL    HW223373   6.953   5.709   6.575
 7492SOL     OW23374   1.917   2.530   5.388
 7492SOL    HW123375   1.982   2.563   5.319
 7492SOL    HW223376   1.913   2.595   5.464
 7493SOL     OW23377   5.954   4.078   6.276
 7493SOL    HW123378   5.877   4.127   6.235
 7493SOL    HW223379   5.925   4.037   6.362
 7494SOL     OW23380   5.874   0.662   1.945
 7494SOL    HW123381   5.834   0.571   1.927
 7494SOL    HW223382   5.801   0.725   1.971
 7495SOL     OW23383   2.469   1.739   0.287
 7495SOL    HW123384   2.397   1.739   0.217
 7495SOL    HW223385   2.457   1.817   0.347
 7496SOL     OW23386   0.912   5.256   6.054
 7496SOL    HW123387   1.010   5.274   6.064
 7496SOL    HW223388   0.888   5.172   6.103
 7497SOL     OW23389   2.728   5.023   2.205
 7497SOL    HW123390   2.736   4.923   2.208
 7497SOL    HW223391   2.706   5.052   2.111
 7498SOL     OW23392   2.601   1.342   4.635
 7498SOL    HW123393   2.528   1.378   4.692
 7498SOL    HW223394   2.617   1.246   4.658
 7499SOL     OW23395   5.110   6.876   4.674
 7499SOL    HW123396   5.175   6.950   4.655
 7499SOL    HW223397   5.159   6.798   4.714
 7500SOL     OW23398   4.605   5.812   2.087
 7500SOL    HW123399   4.617   5.747   2.011
 7500SOL    HW223400   4.620   5.905   2.053
 7501SOL     OW23401   1.064   3.338   3.732
 7501SOL    HW123402   1.005   3.258   3.748
 7501SOL    HW223403   1.059   3.399   3.811
 7502SOL     OW23404   2.103   1.069   5.074
 7502SOL    HW123405   2.096   0.971   5.094
 7502SOL    HW223406   2.014   1.112   5.084
 7503SOL     OW23407   2.740   0.476   6.833
 7503SOL    HW123408   2.833   0.498   6.860
 7503SOL    HW223409   2.722   0.379   6.848
 7504SOL     OW23410   4.265   6.510   3.386
 7504SOL    HW123411   4.281   6.420   3.346
 7504SOL    HW223412   4.353   6.554   3.403
 7505SOL     OW23413   1.895   1.066   5.383
 7505SOL    HW123414   1.809   1.043   5.428
 7505SOL    HW223415   1.876   1.108   5.294
 7506SOL     OW23416   3.393   0.944   2.356
 7506SOL    HW123417   3.407   0.909   2.448
 7506SOL    HW223418   3.477   0.934   2.303
 7507SOL     OW23419   0.169   6.313   6.010
 7507SOL    HW123420   0.253   6.366   6.006
 7507SOL    HW223421   0.090   6.375   6.009
 7508SOL     OW23422   5.726   6.374   3.615
 7508SOL    HW123423   5.689   6.466   3.631
 7508SOL    HW223424   5.794   6.378   3.542
 7509SOL     OW23425   5.391   4.220   6.796
 7509SOL    HW123426   5.390   4.191   6.701
 7509SOL    HW223427   5.467   4.177   6.844
 7510SOL     OW23428   3.314   4.122   4.984
 7510SOL    HW123429   3.295   4.121   4.885
 7510SOL    HW223430   3.383   4.053   5.005
 7511SOL     OW23431   1.479   0.325   2.519
 7511SOL    HW123432   1.563   0.320   2.466
 7511SOL    HW223433   1.480   0.406   2.578
 7512SOL     OW23434   2.464   3.079   1.449
 7512SOL    HW123435   2.515   3.129   1.518
 7512SOL    HW223436   2.419   3.000   1.491
 7513SOL     OW23437   1.273   2.569   5.895
 7513SOL    HW123438   1.270   2.473   5.924
 7513SOL    HW223439   1.367   2.594   5.874
 7514SOL     OW23440   3.008   6.001   1.772
 7514SOL    HW123441   2.982   5.911   1.808
 7514SOL    HW223442   3.093   6.031   1.815
 7515SOL     OW23443   0.603   6.898   2.896
 7515SOL    HW123444   0.678   6.931   2.838
 7515SOL    HW223445   0.562   6.974   2.945
 7516SOL     OW23446   0.121   7.001   4.228
 7516SOL    HW123447   0.022   7.012   4.212
 7516SOL    HW223448   0.169   7.010   4.141
 7517SOL     OW23449   0.223   3.602   1.155
 7517SOL    HW123450   0.199   3.647   1.069
 7517SOL    HW223451   0.141   3.592   1.211
 7518SOL     OW23452   4.011   5.643   3.315
 7518SOL    HW123453   4.079   5.584   3.273
 7518SOL    HW223454   4.030   5.652   3.413
 7519SOL     OW23455   1.214   6.819   4.949
 7519SOL    HW123456   1.232   6.815   4.851
 7519SOL    HW223457   1.140   6.884   4.966
 7520SOL     OW23458   1.820   6.662   3.324
 7520SOL    HW123459   1.736   6.709   3.298
 7520SOL    HW223460   1.840   6.680   3.420
 7521SOL     OW23461   4.452   4.488   5.335
 7521SOL    HW123462   4.410   4.552   5.399
 7521SOL    HW223463   4.385   4.461   5.266
 7522SOL     OW23464   2.369   1.191   0.091
 7522SOL    HW123465   2.428   1.227   0.019
 7522SOL    HW223466   2.349   1.263   0.157
 7523SOL     OW23467   5.579   0.471   5.713
 7523SOL    HW123468   5.513   0.401   5.687
 7523SOL    HW223469   5.643   0.486   5.638
 7524SOL     OW23470   0.216   1.823   5.616
 7524SOL    HW123471   0.139   1.761   5.628
 7524SOL    HW223472   0.222   1.885   5.694
 7525SOL     OW23473   1.947   0.406   0.410
 7525SOL    HW123474   1.884   0.383   0.336
 7525SOL    HW223475   2.019   0.336   0.415
 7526SOL     OW23476   3.626   3.160   4.771
 7526SOL    HW123477   3.561   3.199   4.705
 7526SOL    HW223478   3.609   3.062   4.781
 7527SOL     OW23479   5.445   4.381   2.764
 7527SOL    HW123480   5.355   4.425   2.773
 7527SOL    HW223481   5.510   4.446   2.725
 7528SOL     OW23482   4.333   2.888   0.531
 7528SOL    HW123483   4.274   2.962   0.563
 7528SOL    HW223484   4.429   2.915   0.543
 7529SOL     OW23485   4.567   1.167   3.857
 7529SOL    HW123486   4.639   1.138   3.794
 7529SOL    HW223487   4.483   1.186   3.805
 7530SOL     OW23488   6.862   3.933   2.330
 7530SOL    HW123489   6.957   3.959   2.350
 7530SOL    HW223490   6.832   3.980   2.247
 7531SOL     OW23491   4.315   1.785   3.662
 7531SOL    HW123492   4.252   1.851   3.620
 7531SOL    HW223493   4.314   1.799   3.761
 7532SOL     OW23494   5.752   6.012   1.952
 7532SOL    HW123495   5.652   6.006   1.959
 7532SOL    HW223496   5.777   6.046   1.862
 7533SOL     OW23497   3.307   1.204   3.910
 7533SOL    HW123498   3.340   1.284   3.859
 7533SOL    HW223499   3.351   1.201   4.000
 7534SOL     OW23500   4.169   6.244   5.770
 7534SOL    HW123501   4.093   6.310   5.769
 7534SOL    HW223502   4.135   6.156   5.803
 7535SOL     OW23503   2.593   2.044   5.666
 7535SOL    HW123504   2.649   1.970   5.702
 7535SOL    HW223505   2.651   2.109   5.616
 7536SOL     OW23506   4.358   5.236   4.616
 7536SOL    HW123507   4.409   5.265   4.535
 7536SOL    HW223508   4.263   5.217   4.590
 7537SOL     OW23509   1.696   4.465   4.626
 7537SOL    HW123510   1.708   4.476   4.527
 7537SOL    HW223511   1.705   4.368   4.650
 7538SOL     OW23512   3.426   3.203   2.802
 7538SOL    HW123513   3.352   3.260   2.837
 7538SOL    HW223514   3.387   3.127   2.750
 7539SOL     OW23515   1.864   3.145   5.303
 7539SOL    HW123516   1.873   3.120   5.399
 7539SOL    HW223517   1.950   3.128   5.256
 7540SOL     OW23518   2.543   0.917   0.043
 7540SOL    HW123519   2.536   1.012   0.012
 7540SOL    HW223520   2.613   0.870   7.016
 7541SOL     OW23521   6.182   2.445   5.505
 7541SOL    HW123522   6.182   2.533   5.553
 7541SOL    HW223523   6.274   2.407   5.504
 7542SOL     OW23524   1.274   0.063   5.959
 7542SOL    HW123525   1.221   0.141   5.990
 7542SOL    HW223526   1.220   7.005   5.970
 7543SOL     OW23527   4.148   3.071   0.591
 7543SOL    HW123528   4.085   3.131   0.543
 7543SOL    HW223529   4.097   3.007   0.648
 7544SOL     OW23530   1.334   2.103   2.688
 7544SOL    HW123531   1.312   2.018   2.640
 7544SOL    HW223532   1.251   2.158   2.698
 7545SOL     OW23533   4.621   0.096   2.587
 7545SOL    HW123534   4.667   0.119   2.673
 7545SOL    HW223535   4.583   0.178   2.546
 7546SOL     OW23536   5.165   0.914   0.313
 7546SOL    HW123537   5.072   0.891   0.284
 7546SOL    HW223538   5.163   0.951   0.406
 7547SOL     OW23539   4.037   0.524   0.434
 7547SOL    HW123540   4.052   0.501   0.530
 7547SOL    HW223541   4.069   0.449   0.376
 7548SOL     OW23542   2.229   1.760   1.302
 7548SOL    HW123543   2.222   1.750   1.401
 7548SOL    HW223544   2.175   1.839   1.272
 7549SOL     OW23545   5.440   1.386   2.371
 7549SOL    HW123546   5.419   1.408   2.276
 7549SOL    HW223547   5.376   1.435   2.431
 7550SOL     OW23548   1.815   5.759   2.380
 7550SOL    HW123549   1.792   5.708   2.463
 7550SOL    HW223550   1.732   5.778   2.328
 7551SOL     OW23551   4.534   3.776   6.931
 7551SOL    HW123552   4.630   3.777   6.959
 7551SOL    HW223553   4.493   3.687   6.951
 7552SOL     OW23554   2.322   5.850   4.295
 7552SOL    HW123555   2.303   5.763   4.342
 7552SOL    HW223556   2.418   5.851   4.265
 7553SOL     OW23557   4.330   4.604   5.780
 7553SOL    HW123558   4.293   4.652   5.859
 7553SOL    HW223559   4.286   4.515   5.771
 7554SOL     OW23560   5.006   1.428   0.750
 7554SOL    HW123561   4.970   1.451   0.660
 7554SOL    HW223562   5.080   1.492   0.773
 7555SOL     OW23563   0.653   5.343   5.522
 7555SOL    HW123564   0.615   5.349   5.615
 7555SOL    HW223565   0.577   5.332   5.457
 7556SOL     OW23566   0.925   3.403   4.812
 7556SOL    HW123567   0.993   3.369   4.877
 7556SOL    HW223568   0.970   3.437   4.730
 7557SOL     OW23569   5.121   4.328   6.164
 7557SOL    HW123570   5.060   4.396   6.123
 7557SOL    HW223571   5.199   4.313   6.104
 7558SOL     OW23572   2.019   2.744   4.202
 7558SOL    HW123573   2.082   2.714   4.273
 7558SOL    HW223574   2.021   2.844   4.196
 7559SOL     OW23575   6.113   5.088   0.891
 7559SOL    HW123576   6.091   4.995   0.863
 7559SOL    HW223577   6.195   5.087   0.948
 7560SOL     OW23578   4.851   6.746   0.990
 7560SOL    HW123579   4.814   6.835   1.016
 7560SOL    HW223580   4.832   6.728   0.894
 7561SOL     OW23581   0.494   3.295   0.862
 7561SOL    HW123582   0.578   3.345   0.841
 7561SOL    HW223583   0.461   3.322   0.953
 7562SOL     OW23584   5.667   6.459   5.243
 7562SOL    HW123585   5.679   6.482   5.340
 7562SOL    HW223586   5.570   6.465   5.220
 7563SOL     OW23587   2.708   0.416   1.812
 7563SOL    HW123588   2.763   0.437   1.893
 7563SOL    HW223589   2.638   0.486   1.801
 7564SOL     OW23590   5.046   6.826   3.002
 7564SOL    HW123591   4.962   6.853   2.955
 7564SOL    HW223592   5.125   6.863   2.954
 7565SOL     OW23593   4.798   5.236   6.513
 7565SOL    HW123594   4.873   5.174   6.536
 7565SOL    HW223595   4.836   5.323   6.480
 7566SOL     OW23596   6.779   5.436   4.137
 7566SOL    HW123597   6.793   5.338   4.152
 7566SOL    HW223598   6.807   5.459   4.044
 7567SOL     OW23599   2.274   4.330   5.625
 7567SOL    HW123600   2.253   4.418   5.667
 7567SOL    HW223601   2.273   4.338   5.526
 7568SOL     OW23602   5.587   5.828   3.403
 7568SOL    HW123603   5.534   5.743   3.408
 7568SOL    HW223604   5.555   5.891   3.474
 7569SOL     OW23605   4.268   5.966   6.589
 7569SOL    HW123606   4.269   5.870   6.615
 7569SOL    HW223607   4.297   6.022   6.666
 7570SOL     OW23608   5.903   4.629   4.458
 7570SOL    HW123609   5.941   4.615   4.367
 7570SOL    HW223610   5.977   4.631   4.525
 7571SOL     OW23611   5.740   3.791   2.136
 7571SOL    HW123612   5.685   3.823   2.214
 7571SOL    HW223613   5.802   3.719   2.167
 7572SOL     OW23614   4.814   0.869   4.040
 7572SOL    HW123615   4.720   0.894   4.066
 7572SOL    HW223616   4.851   0.804   4.106
 7573SOL     OW23617   7.000   5.609   4.706
 7573SOL    HW123618   0.061   5.595   4.754
 7573SOL    HW223619   7.015   5.603   4.607
 7574SOL     OW23620   6.200   1.212   3.526
 7574SOL    HW123621   6.169   1.118   3.510
 7574SOL    HW223622   6.233   1.251   3.440
 7575SOL     OW23623   4.165   1.476   5.886
 7575SOL    HW123624   4.157   1.575   5.896
 7575SOL    HW223625   4.217   1.454   5.804
 7576SOL     OW23626   6.043   4.620   0.181
 7576SOL    HW123627   6.038   4.711   0.140
 7576SOL    HW223628   5.957   4.600   0.228
 7577SOL     OW23629   6.257   0.931   4.580
 7577SOL    HW123630   6.235   0.938   4.678
 7577SOL    HW223631   6.240   1.018   4.536
 7578SOL     OW23632   2.242   6.293   4.360
 7578SOL    HW123633   2.329   6.342   4.370
 7578SOL    HW223634   2.166   6.357   4.376
 7579SOL     OW23635   3.959   2.145   2.518
 7579SOL    HW123636   3.984   2.192   2.603
 7579SOL    HW223637   3.878   2.187   2.478
 7580SOL     OW23638   1.801   3.611   2.961
 7580SOL    HW123639   1.762   3.561   3.039
 7580SOL    HW223640   1.804   3.708   2.984
 7581SOL     OW23641   5.272   1.438   0.389
 7581SOL    HW123642   5.286   1.360   0.328
 7581SOL    HW223643   5.226   1.512   0.339
 7582SOL     OW23644   3.744   1.578   0.701
 7582SOL    HW123645   3.778   1.621   0.785
 7582SOL    HW223646   3.812   1.586   0.629
 7583SOL     OW23647   5.978   3.896   2.038
 7583SOL    HW123648   5.897   3.858   2.081
 7583SOL    HW223649   5.971   3.996   2.035
 7584SOL     OW23650   2.721   6.633   1.313
 7584SOL    HW123651   2.738   6.539   1.286
 7584SOL    HW223652   2.625   6.644   1.339
 7585SOL     OW23653   1.979   4.340   6.713
 7585SOL    HW123654   2.003   4.422   6.661
 7585SOL    HW223655   1.887   4.350   6.751
 7586SOL     OW23656   2.786   0.157   2.628
 7586SOL    HW123657   2.861   0.091   2.635
 7586SOL    HW223658   2.788   0.217   2.708
 7587SOL     OW23659   1.815   1.986   0.038
 7587SOL    HW123660   1.907   1.963   0.068
 7587SOL    HW223661   1.779   1.913   7.006
 7588SOL     OW23662   0.476   5.057   2.016
 7588SOL    HW123663   0.502   4.972   2.064
 7588SOL    HW223664   0.538   5.071   1.939
 7589SOL     OW23665   5.936   5.932   0.327
 7589SOL    HW123666   5.895   5.982   0.251
 7589SOL    HW223667   5.918   5.980   0.413
 7590SOL     OW23668   2.667   1.994   5.239
 7590SOL    HW123669   2.599   1.932   5.277
 7590SOL    HW223670   2.667   1.986   5.139
 7591SOL     OW23671   0.226   4.963   0.385
 7591SOL    HW123672   0.196   4.952   0.290
 7591SOL    HW223673   0.223   5.060   0.409
 7592SOL     OW23674   6.344   4.978   6.861
 7592SOL    HW123675   6.326   4.880   6.871
 7592SOL    HW223676   6.259   5.029   6.875
 7593SOL     OW23677   5.607   2.563   6.785
 7593SOL    HW123678   5.541   2.579   6.858
 7593SOL    HW223679   5.588   2.475   6.742
 7594SOL     OW23680   0.770   5.588   3.322
 7594SOL    HW123681   0.852   5.639   3.348
 7594SOL    HW223682   0.729   5.547   3.404
 7595SOL     OW23683   0.120   3.534   6.300
 7595SOL    HW123684   0.154   3.625   6.322
 7595SOL    HW223685   0.196   3.470   6.292
 7596SOL     OW23686   5.393   4.736   2.635
 7596SOL    HW123687   5.307   4.696   2.603
 7596SOL    HW223688   5.456   4.663   2.662
 7597SOL     OW23689   3.220   5.361   2.131
 7597SOL    HW123690   3.154   5.356   2.056
 7597SOL    HW223691   3.244   5.268   2.159
 7598SOL     OW23692   7.002   0.210   2.804
 7598SOL    HW123693   6.967   0.148   2.734
 7598SOL    HW223694   6.973   0.304   2.783
 7599SOL     OW23695   5.944   1.369   2.995
 7599SOL    HW123696   5.975   1.459   3.025
 7599SOL    HW223697   5.979   1.350   2.903
 7600SOL     OW23698   1.547   0.043   2.565
 7600SOL    HW123699   1.488   0.123   2.556
 7600SOL    HW223700   1.643   0.071   2.557
 7601SOL     OW23701   1.972   5.848   3.649
 7601SOL    HW123702   1.932   5.932   3.612
 7601SOL    HW223703   2.044   5.872   3.714
 7602SOL     OW23704   2.360   4.298   4.753
 7602SOL    HW123705   2.334   4.203   4.740
 7602SOL    HW223706   2.450   4.303   4.797
 7603SOL     OW23707   1.065   6.072   6.925
 7603SOL    HW123708   1.145   6.074   6.865
 7603SOL    HW223709   0.983   6.057   6.871
 7604SOL     OW23710   3.539   5.742   4.293
 7604SOL    HW123711   3.534   5.842   4.293
 7604SOL    HW223712   3.453   5.704   4.258
 7605SOL     OW23713   1.521   5.133   0.140
 7605SOL    HW123714   1.572   5.148   0.225
 7605SOL    HW223715   1.423   5.136   0.159
 7606SOL     OW23716   0.265   2.964   1.971
 7606SOL    HW123717   0.238   2.895   1.904
 7606SOL    HW223718   0.346   3.013   1.938
 7607SOL     OW23719   4.750   6.922   0.381
 7607SOL    HW123720   4.678   6.862   0.413
 7607SOL    HW223721   4.753   6.921   0.281
 7608SOL     OW23722   3.011   3.679   3.138
 7608SOL    HW123723   3.031   3.712   3.046
 7608SOL    HW223724   2.990   3.757   3.197
 7609SOL     OW23725   0.089   3.662   3.553
 7609SOL    HW123726   0.112   3.759   3.560
 7609SOL    HW223727   0.168   3.607   3.581
 7610SOL     OW23728   5.725   0.695   1.352
 7610SOL    HW123729   5.686   0.690   1.260
 7610SOL    HW223730   5.791   0.769   1.357
 7611SOL     OW23731   1.343   1.697   6.946
 7611SOL    HW123732   1.317   1.784   6.986
 7611SOL    HW223733   1.429   1.666   6.985
 7612SOL     OW23734   3.729   1.443   4.157
 7612SOL    HW123735   3.829   1.445   4.153
 7612SOL    HW223736   3.698   1.348   4.159
 7613SOL     OW23737   4.674   1.340   1.453
 7613SOL    HW123738   4.652   1.251   1.413
 7613SOL    HW223739   4.590   1.382   1.487
 7614SOL     OW23740   3.975   2.188   2.064
 7614SOL    HW123741   4.015   2.213   1.977
 7614SOL    HW223742   3.875   2.197   2.059
 7615SOL     OW23743   4.454   5.169   6.734
 7615SOL    HW123744   4.536   5.114   6.749
 7615SOL    HW223745   4.468   5.230   6.656
 7616SOL     OW23746   0.712   3.879   4.187
 7616SOL    HW123747   0.758   3.846   4.104
 7616SOL    HW223748   0.618   3.847   4.188
 7617SOL     OW23749   3.024   6.033   3.530
 7617SOL    HW123750   2.997   5.949   3.484
 7617SOL    HW223751   3.084   6.011   3.607
 7618SOL     OW23752   1.503   2.260   6.634
 7618SOL    HW123753   1.515   2.223   6.542
 7618SOL    HW223754   1.550   2.348   6.642
 7619SOL     OW23755   5.568   2.967   5.209
 7619SOL    HW123756   5.522   2.988   5.295
 7619SOL    HW223757   5.580   2.868   5.202
 7620SOL     OW23758   3.706   6.919   0.794
 7620SOL    HW123759   3.662   7.002   0.828
 7620SOL    HW223760   3.803   6.922   0.816
 7621SOL     OW23761   1.067   0.608   0.456
 7621SOL    HW123762   0.992   0.576   0.398
 7621SOL    HW223763   1.143   0.639   0.399
 7622SOL     OW23764   4.849   2.632   1.734
 7622SOL    HW123765   4.789   2.670   1.805
 7622SOL    HW223766   4.796   2.618   1.650
 7623SOL     OW23767   4.370   5.970   6.327
 7623SOL    HW123768   4.315   6.030   6.268
 7623SOL    HW223769   4.335   5.974   6.421
 7624SOL     OW23770   0.394   2.412   3.400
 7624SOL    HW123771   0.434   2.493   3.358
 7624SOL    HW223772   0.295   2.412   3.386
 7625SOL     OW23773   5.737   1.188   0.767
 7625SOL    HW123774   5.780   1.143   0.689
 7625SOL    HW223775   5.792   1.174   0.849
 7626SOL     OW23776   0.269   6.697   5.126
 7626SOL    HW123777   0.288   6.603   5.098
 7626SOL    HW223778   0.341   6.757   5.091
 7627SOL     OW23779   6.478   2.951   0.767
 7627SOL    HW123780   6.407   3.021   0.761
 7627SOL    HW223781   6.438   2.865   0.799
 7628SOL     OW23782   2.621   0.562   1.538
 7628SOL    HW123783   2.602   0.467   1.511
 7628SOL    HW223784   2.562   0.624   1.486
 7629SOL     OW23785   6.339   6.261   2.246
 7629SOL    HW123786   6.385   6.172   2.240
 7629SOL    HW223787   6.244   6.251   2.216
 7630SOL     OW23788   6.525   6.756   2.371
 7630SOL    HW123789   6.509   6.663   2.405
 7630SOL    HW223790   6.537   6.753   2.272
 7631SOL     OW23791   1.002   1.937   5.487
 7631SOL    HW123792   0.993   1.885   5.572
 7631SOL    HW223793   1.049   1.881   5.418
 7632SOL     OW23794   4.341   2.284   0.993
 7632SOL    HW123795   4.357   2.382   1.002
 7632SOL    HW223796   4.286   2.253   1.071
 7633SOL     OW23797   5.212   3.507   0.054
 7633SOL    HW123798   5.296   3.453   0.055
 7633SOL    HW223799   5.161   3.487   6.996
 7634SOL     OW23800   1.452   1.013   2.721
 7634SOL    HW123801   1.434   0.944   2.650
 7634SOL    HW223802   1.403   0.987   2.805
 7635SOL     OW23803   2.735   5.740   5.610
 7635SOL    HW123804   2.783   5.657   5.581
 7635SOL    HW223805   2.708   5.731   5.706
 7636SOL     OW23806   1.249   1.140   3.903
 7636SOL    HW123807   1.151   1.126   3.888
 7636SOL    HW223808   1.298   1.131   3.816
 7637SOL     OW23809   1.585   6.835   3.925
 7637SOL    HW123810   1.580   6.826   4.025
 7637SOL    HW223811   1.637   6.918   3.902
 7638SOL     OW23812   5.826   5.684   1.682
 7638SOL    HW123813   5.875   5.618   1.626
 7638SOL    HW223814   5.892   5.738   1.736
 7639SOL     OW23815   0.853   1.603   6.470
 7639SOL    HW123816   0.952   1.600   6.484
 7639SOL    HW223817   0.824   1.698   6.454
 7640SOL     OW23818   2.740   2.666   0.721
 7640SOL    HW123819   2.836   2.651   0.746
 7640SOL    HW223820   2.681   2.638   0.797
 7641SOL     OW23821   0.742   4.738   1.902
 7641SOL    HW123822   0.725   4.640   1.896
 7641SOL    HW223823   0.654   4.787   1.906
 7642SOL     OW23824   2.863   1.637   2.684
 7642SOL    HW123825   2.807   1.630   2.601
 7642SOL    HW223826   2.942   1.696   2.665
 7643SOL     OW23827   4.555   2.476   3.547
 7643SOL    HW123828   4.510   2.485   3.636
 7643SOL    HW223829   4.573   2.380   3.528
 7644SOL     OW23830   6.465   2.529   2.462
 7644SOL    HW123831   6.428   2.620   2.480
 7644SOL    HW223832   6.535   2.535   2.391
 7645SOL     OW23833   4.746   5.120   6.770
 7645SOL    HW123834   4.752   5.162   6.679
 7645SOL    HW223835   4.735   5.190   6.839
 7646SOL     OW23836   1.832   2.356   2.568
 7646SOL    HW123837   1.788   2.369   2.479
 7646SOL    HW223838   1.855   2.446   2.606
 7647SOL     OW23839   1.642   3.301   1.831
 7647SOL    HW123840   1.593   3.368   1.775
 7647SOL    HW223841   1.740   3.323   1.829
 7648SOL     OW23842   4.323   1.528   3.301
 7648SOL    HW123843   4.295   1.437   3.271
 7648SOL    HW223844   4.289   1.545   3.393
 7649SOL     OW23845   0.917   0.514   2.322
 7649SOL    HW123846   0.971   0.576   2.378
 7649SOL    HW223847   0.821   0.518   2.350
 7650SOL     OW23848   6.417   3.081   2.128
 7650SOL    HW123849   6.437   3.138   2.048
 7650SOL    HW223850   6.432   3.133   2.212
 7651SOL     OW23851   2.378   0.320   0.325
 7651SOL    HW123852   2.466   0.316   0.371
 7651SOL    HW223853   2.380   0.394   0.257
 7652SOL     OW23854   5.918   3.544   3.850
 7652SOL    HW123855   5.987   3.526   3.779
 7652SOL    HW223856   5.962   3.588   3.928
 7653SOL     OW23857   2.350   1.640   1.039
 7653SOL    HW123858   2.251   1.624   1.027
 7653SOL    HW223859   2.400   1.567   0.993
 7654SOL     OW23860   4.841   2.529   3.236
 7654SOL    HW123861   4.767   2.572   3.286
 7654SOL    HW223862   4.803   2.471   3.163
 7655SOL     OW23863   4.006   0.020   4.275
 7655SOL    HW123864   3.963   0.008   4.185
 7655SOL    HW223865   4.009   0.117   4.299
 7656SOL     OW23866   0.338   5.556   5.764
 7656SOL    HW123867   0.433   5.529   5.778
 7656SOL    HW223868   0.291   5.557   5.852
 7657SOL     OW23869   3.198   2.119   2.972
 7657SOL    HW123870   3.146   2.036   2.990
 7657SOL    HW223871   3.143   2.182   2.918
 7658SOL     OW23872   4.416   0.581   6.464
 7658SOL    HW123873   4.482   0.509   6.445
 7658SOL    HW223874   4.401   0.635   6.381
 7659SOL     OW23875   5.805   6.981   1.032
 7659SOL    HW123876   5.808   0.025   1.104
 7659SOL    HW223877   5.794   7.025   0.943
 7660SOL     OW23878   5.185   5.824   3.776
 7660SOL    HW123879   5.143   5.757   3.837
 7660SOL    HW223880   5.134   5.829   3.691
 7661SOL     OW23881   5.888   2.140   4.627
 7661SOL    HW123882   5.928   2.135   4.719
 7661SOL    HW223883   5.892   2.050   4.584
 7662SOL     OW23884   1.546   2.598   2.264
 7662SOL    HW123885   1.449   2.599   2.286
 7662SOL    HW223886   1.562   2.539   2.185
 7663SOL     OW23887   6.942   5.534   6.876
 7663SOL    HW123888   7.003   5.459   6.849
 7663SOL    HW223889   6.854   5.497   6.905
 7664SOL     OW23890   3.273   6.559   2.472
 7664SOL    HW123891   3.236   6.617   2.545
 7664SOL    HW223892   3.338   6.494   2.511
 7665SOL     OW23893   2.981   0.340   3.849
 7665SOL    HW123894   3.061   0.386   3.887
 7665SOL    HW223895   3.005   0.246   3.825
 7666SOL     OW23896   0.078   6.726   1.173
 7666SOL    HW123897   0.100   6.662   1.247
 7666SOL    HW223898   0.154   6.731   1.109
 7667SOL     OW23899   4.642   6.151   6.964
 7667SOL    HW123900   4.693   6.073   6.928
 7667SOL    HW223901   4.680   6.178   0.027
 7668SOL     OW23902   3.433   4.059   1.700
 7668SOL    HW123903   3.385   4.116   1.634
 7668SOL    HW223904   3.411   3.963   1.685
 7669SOL     OW23905   5.442   0.790   4.226
 7669SOL    HW123906   5.348   0.782   4.257
 7669SOL    HW223907   5.493   0.849   4.288
 7670SOL     OW23908   1.389   5.586   6.496
 7670SOL    HW123909   1.390   5.684   6.480
 7670SOL    HW223910   1.296   5.551   6.486
 7671SOL     OW23911   4.486   1.466   4.455
 7671SOL    HW123912   4.472   1.487   4.358
 7671SOL    HW223913   4.582   1.482   4.478
 7672SOL     OW23914   5.909   0.190   3.710
 7672SOL    HW123915   5.927   0.096   3.680
 7672SOL    HW223916   5.982   0.250   3.677
 7673SOL     OW23917   1.394   4.798   0.705
 7673SOL    HW123918   1.473   4.844   0.748
 7673SOL    HW223919   1.421   4.708   0.674
 7674SOL     OW23920   6.626   2.041   4.854
 7674SOL    HW123921   6.658   2.060   4.947
 7674SOL    HW223922   6.702   2.010   4.798
 7675SOL     OW23923   4.929   0.396   1.861
 7675SOL    HW123924   4.956   0.349   1.945
 7675SOL    HW223925   4.833   0.423   1.867
 7676SOL     OW23926   0.669   1.437   6.569
 7676SOL    HW123927   0.735   1.495   6.521
 7676SOL    HW223928   0.652   1.354   6.516
 7677SOL     OW23929   1.563   3.295   2.106
 7677SOL    HW123930   1.591   3.312   2.012
 7677SOL    HW223931   1.644   3.288   2.164
 7678SOL     OW23932   1.196   0.758   6.241
 7678SOL    HW123933   1.238   0.668   6.233
 7678SOL    HW223934   1.097   0.748   6.240
 7679SOL     OW23935   1.230   5.216   4.941
 7679SOL    HW123936   1.270   5.230   5.031
 7679SOL    HW223937   1.170   5.137   4.943
 7680SOL     OW23938   2.995   3.306   6.740
 7680SOL    HW123939   3.086   3.346   6.735
 7680SOL    HW223940   2.927   3.373   6.709
 7681SOL     OW23941   2.774   0.951   0.502
 7681SOL    HW123942   2.699   0.994   0.552
 7681SOL    HW223943   2.763   0.852   0.504
 7682SOL     OW23944   2.618   6.520   2.051
 7682SOL    HW123945   2.534   6.551   2.006
 7682SOL    HW223946   2.600   6.503   2.147
 7683SOL     OW23947   6.784   2.845   2.996
 7683SOL    HW123948   6.726   2.816   3.072
 7683SOL    HW223949   6.741   2.817   2.910
 7684SOL     OW23950   5.375   2.716   6.711
 7684SOL    HW123951   5.334   2.660   6.784
 7684SOL    HW223952   5.473   2.696   6.706
 7685SOL     OW23953   3.745   2.598   0.334
 7685SOL    HW123954   3.837   2.601   0.296
 7685SOL    HW223955   3.688   2.537   0.279
 7686SOL     OW23956   4.373   0.307   2.910
 7686SOL    HW123957   4.429   0.304   2.992
 7686SOL    HW223958   4.301   0.237   2.915
 7687SOL     OW23959   5.509   5.865   5.839
 7687SOL    HW123960   5.451   5.945   5.854
 7687SOL    HW223961   5.458   5.782   5.860
 7688SOL     OW23962   6.950   6.492   5.768
 7688SOL    HW123963   0.004   6.532   5.720
 7688SOL    HW223964   6.871   6.494   5.707
 7689SOL     OW23965   4.824   5.959   4.394
 7689SOL    HW123966   4.769   5.977   4.475
 7689SOL    HW223967   4.882   5.879   4.410
 7690SOL     OW23968   5.404   5.045   3.210
 7690SOL    HW123969   5.334   4.975   3.227
 7690SOL    HW223970   5.398   5.115   3.281
 7691SOL     OW23971   4.771   2.918   3.911
 7691SOL    HW123972   4.817   2.992   3.862
 7691SOL    HW223973   4.758   2.841   3.848
 7692SOL     OW23974   1.292   6.470   1.079
 7692SOL    HW123975   1.317   6.383   1.038
 7692SOL    HW223976   1.374   6.525   1.096
 7693SOL     OW23977   4.123   1.136   6.672
 7693SOL    HW123978   4.178   1.117   6.591
 7693SOL    HW223979   4.028   1.113   6.653
 7694SOL     OW23980   0.631   4.483   3.776
 7694SOL    HW123981   0.569   4.435   3.838
 7694SOL    HW223982   0.712   4.426   3.759
 7695SOL     OW23983   3.982   0.410   0.708
 7695SOL    HW123984   3.946   0.331   0.758
 7695SOL    HW223985   3.923   0.489   0.723
 7696SOL     OW23986   6.885   2.192   4.430
 7696SOL    HW123987   6.937   2.107   4.434
 7696SOL    HW223988   6.883   2.226   4.336
 7697SOL     OW23989   2.104   1.780   3.395
 7697SOL    HW123990   2.059   1.744   3.313
 7697SOL    HW223991   2.134   1.874   3.379
 7698SOL     OW23992   6.770   3.041   4.673
 7698SOL    HW123993   6.706   3.035   4.597
 7698SOL    HW223994   6.752   2.967   4.738
 7699SOL     OW23995   2.119   5.753   6.951
 7699SOL    HW123996   2.210   5.718   6.969
 7699SOL    HW223997   2.070   5.691   6.890
 7700SOL     OW23998   4.713   6.858   5.211
 7700SOL    HW123999   4.733   6.954   5.229
 7700SOL    HW224000   4.795   6.803   5.229
 7701SOL     OW24001   6.354   0.886   5.931
 7701SOL    HW124002   6.347   0.983   5.954
 7701SOL    HW224003   6.349   0.831   6.014
 7702SOL     OW24004   3.638   6.356   5.992
 7702SOL    HW124005   3.596   6.265   6.001
 7702SOL    HW224006   3.566   6.425   5.988
 7703SOL     OW24007   6.641   1.433   5.376
 7703SOL    HW124008   6.551   1.470   5.352
 7703SOL    HW224009   6.639   1.333   5.369
 7704SOL     OW24010   4.397   4.638   6.545
 7704SOL    HW124011   4.372   4.730   6.575
 7704SOL    HW224012   4.443   4.590   6.620
 7705SOL     OW24013   3.529   4.946   5.102
 7705SOL    HW124014   3.528   5.044   5.082
 7705SOL    HW224015   3.622   4.910   5.089
 7706SOL     OW24016   5.824   0.167   5.211
 7706SOL    HW124017   5.888   0.238   5.242
 7706SOL    HW224018   5.863   0.077   5.231
 7707SOL     OW24019   0.085   5.389   6.320
 7707SOL    HW124020   0.178   5.354   6.334
 7707SOL    HW224021   0.035   5.383   6.406
 7708SOL     OW24022   5.209   5.763   4.924
 7708SOL    HW124023   5.228   5.698   4.851
 7708SOL    HW224024   5.212   5.716   5.012
 7709SOL     OW24025   4.562   2.168   2.201
 7709SOL    HW124026   4.601   2.252   2.165
 7709SOL    HW224027   4.636   2.104   2.225
 7710SOL     OW24028   2.307   6.705   0.674
 7710SOL    HW124029   2.352   6.616   0.685
 7710SOL    HW224030   2.343   6.770   0.740
 7711SOL     OW24031   5.981   6.468   5.800
 7711SOL    HW124032   6.065   6.421   5.774
 7711SOL    HW224033   5.959   6.447   5.895
 7712SOL     OW24034   6.267   5.046   1.492
 7712SOL    HW124035   6.206   5.006   1.561
 7712SOL    HW224036   6.219   5.117   1.442
 7713SOL     OW24037   2.039   4.124   0.334
 7713SOL    HW124038   2.018   4.207   0.386
 7713SOL    HW224039   1.989   4.126   0.247
 7714SOL     OW24040   6.468   4.228   4.305
 7714SOL    HW124041   6.452   4.132   4.325
 7714SOL    HW224042   6.389   4.266   4.258
 7715SOL     OW24043   5.026   0.939   0.929
 7715SOL    HW124044   5.088   0.898   0.997
 7715SOL    HW224045   5.063   1.027   0.901
 7716SOL     OW24046   4.560   2.521   2.437
 7716SOL    HW124047   4.477   2.466   2.425
 7716SOL    HW224048   4.628   2.468   2.488
 7717SOL     OW24049   2.906   1.289   4.811
 7717SOL    HW124050   2.881   1.270   4.716
 7717SOL    HW224051   2.831   1.335   4.857
 7718SOL     OW24052   1.937   1.821   2.947
 7718SOL    HW124053   1.911   1.905   2.994
 7718SOL    HW224054   1.855   1.766   2.930
 7719SOL     OW24055   0.230   3.177   4.605
 7719SOL    HW124056   0.163   3.104   4.622
 7719SOL    HW224057   0.182   3.260   4.579
 7720SOL     OW24058   6.479   6.605   0.586
 7720SOL    HW124059   6.543   6.539   0.548
 7720SOL    HW224060   6.399   6.557   0.622
 7721SOL     OW24061   1.806   4.106   2.873
 7721SOL    HW124062   1.860   4.147   2.799
 7721SOL    HW224063   1.838   4.013   2.890
 7722SOL     OW24064   6.543   5.349   2.904
 7722SOL    HW124065   6.549   5.430   2.962
 7722SOL    HW224066   6.490   5.278   2.951
 7723SOL     OW24067   0.018   3.168   0.561
 7723SOL    HW124068   7.013   3.172   0.466
 7723SOL    HW224069   0.007   3.075   0.595
 7724SOL     OW24070   1.833   4.407   1.672
 7724SOL    HW124071   1.889   4.394   1.591
 7724SOL    HW224072   1.739   4.379   1.652
 7725SOL     OW24073   5.370   2.373   2.916
 7725SOL    HW124074   5.361   2.300   2.848
 7725SOL    HW224075   5.439   2.348   2.983
 7726SOL     OW24076   0.358   4.582   3.266
 7726SOL    HW124077   0.444   4.627   3.289
 7726SOL    HW224078   0.319   4.624   3.184
 7727SOL     OW24079   6.156   1.960   3.824
 7727SOL    HW124080   6.160   2.054   3.858
 7727SOL    HW224081   6.121   1.900   3.895
 7728SOL     OW24082   1.745   3.046   3.022
 7728SOL    HW124083   1.713   2.953   3.040
 7728SOL    HW224084   1.780   3.052   2.929
 7729SOL     OW24085   5.754   2.015   1.057
 7729SOL    HW124086   5.701   2.083   1.109
 7729SOL    HW224087   5.770   1.935   1.115
 7730SOL     OW24088   5.234   6.346   3.037
 7730SOL    HW124089   5.173   6.308   3.107
 7730SOL    HW224090   5.237   6.283   2.959
 7731SOL     OW24091   6.497   1.005   0.416
 7731SOL    HW124092   6.507   0.996   0.515
 7731SOL    HW224093   6.410   0.966   0.387
 7732SOL     OW24094   5.222   5.992   0.427
 7732SOL    HW124095   5.218   6.014   0.525
 7732SOL    HW224096   5.235   6.076   0.374
 7733SOL     OW24097   3.861   0.025   1.379
 7733SOL    HW124098   3.910   7.007   1.454
 7733SOL    HW224099   3.894   0.119   1.367
 7734SOL     OW24100   1.436   3.395   3.406
 7734SOL    HW124101   1.475   3.393   3.314
 7734SOL    HW224102   1.509   3.402   3.474
 7735SOL     OW24103   4.853   4.448   6.757
 7735SOL    HW124104   4.879   4.469   6.851
 7735SOL    HW224105   4.857   4.532   6.702
 7736SOL     OW24106   5.160   4.563   0.301
 7736SOL    HW124107   5.233   4.530   0.360
 7736SOL    HW224108   5.196   4.577   0.208
 7737SOL     OW24109   4.743   2.138   1.042
 7737SOL    HW124110   4.661   2.095   1.004
 7737SOL    HW224111   4.724   2.234   1.063
 7738SOL     OW24112   2.382   6.237   0.869
 7738SOL    HW124113   2.346   6.238   0.962
 7738SOL    HW224114   2.348   6.157   0.820
 7739SOL     OW24115   1.052   2.465   0.595
 7739SOL    HW124116   1.027   2.478   0.691
 7739SOL    HW224117   0.994   2.394   0.555
 7740SOL     OW24118   0.077   6.872   2.564
 7740SOL    HW124119   0.159   6.826   2.530
 7740SOL    HW224120   0.096   6.970   2.576
 7741SOL     OW24121   1.971   5.435   4.083
 7741SOL    HW124122   2.059   5.460   4.043
 7741SOL    HW224123   1.966   5.336   4.094
 7742SOL     OW24124   6.318   2.199   2.986
 7742SOL    HW124125   6.286   2.190   2.892
 7742SOL    HW224126   6.374   2.282   2.994
 7743SOL     OW24127   4.300   3.429   5.631
 7743SOL    HW124128   4.345   3.367   5.567
 7743SOL    HW224129   4.222   3.473   5.586
 7744SOL     OW24130   6.616   6.573   3.871
 7744SOL    HW124131   6.558   6.606   3.945
 7744SOL    HW224132   6.562   6.564   3.787
 7745SOL     OW24133   3.985   2.669   5.946
 7745SOL    HW124134   3.942   2.712   6.025
 7745SOL    HW224135   3.968   2.570   5.947
 7746SOL     OW24136   1.880   0.054   0.722
 7746SOL    HW124137   1.932   6.997   0.698
 7746SOL    HW224138   1.934   0.135   0.700
 7747SOL     OW24139   5.161   6.482   0.939
 7747SOL    HW124140   5.066   6.452   0.940
 7747SOL    HW224141   5.165   6.582   0.941
 7748SOL     OW24142   2.695   3.593   6.381
 7748SOL    HW124143   2.650   3.640   6.457
 7748SOL    HW224144   2.723   3.661   6.313
 7749SOL     OW24145   4.756   3.468   5.861
 7749SOL    HW124146   4.685   3.424   5.915
 7749SOL    HW224147   4.717   3.496   5.772
 7750SOL     OW24148   0.655   6.311   1.451
 7750SOL    HW124149   0.617   6.222   1.475
 7750SOL    HW224150   0.684   6.359   1.533
 7751SOL     OW24151   0.999   1.764   1.772
 7751SOL    HW124152   0.915   1.767   1.717
 7751SOL    HW224153   1.020   1.856   1.806
 7752SOL     OW24154   5.140   0.900   4.301
 7752SOL    HW124155   5.089   0.939   4.223
 7752SOL    HW224156   5.079   0.839   4.352
 7753SOL     OW24157   1.945   1.524   4.803
 7753SOL    HW124158   1.892   1.550   4.884
 7753SOL    HW224159   1.948   1.424   4.796
 7754SOL     OW24160   4.043   5.936   1.692
 7754SOL    HW124161   4.049   5.972   1.786
 7754SOL    HW224162   4.003   6.005   1.633
 7755SOL     OW24163   2.508   4.297   6.319
 7755SOL    HW124164   2.492   4.283   6.416
 7755SOL    HW224165   2.441   4.245   6.266
 7756SOL     OW24166   2.273   5.954   1.457
 7756SOL    HW124167   2.283   5.862   1.496
 7756SOL    HW224168   2.362   5.998   1.453
 7757SOL     OW24169   0.448   4.315   3.114
 7757SOL    HW124170   0.409   4.393   3.163
 7757SOL    HW224171   0.375   4.257   3.079
 7758SOL     OW24172   1.463   0.820   5.568
 7758SOL    HW124173   1.466   0.761   5.488
 7758SOL    HW224174   1.369   0.831   5.599
 7759SOL     OW24175   2.955   2.346   6.386
 7759SOL    HW124176   2.869   2.368   6.432
 7759SOL    HW224177   2.972   2.410   6.312
 7760SOL     OW24178   4.397   2.306   1.600
 7760SOL    HW124179   4.374   2.214   1.632
 7760SOL    HW224180   4.350   2.325   1.514
 7761SOL     OW24181   4.903   5.624   4.601
 7761SOL    HW124182   4.969   5.645   4.529
 7761SOL    HW224183   4.868   5.531   4.588
 7762SOL     OW24184   0.242   0.734   3.661
 7762SOL    HW124185   0.173   0.783   3.607
 7762SOL    HW224186   0.326   0.726   3.609
 7763SOL     OW24187   2.831   0.333   4.607
 7763SOL    HW124188   2.782   0.405   4.557
 7763SOL    HW224189   2.927   0.358   4.617
 7764SOL     OW24190   3.260   3.848   5.521
 7764SOL    HW124191   3.248   3.925   5.584
 7764SOL    HW224192   3.287   3.767   5.573
 7765SOL     OW24193   6.533   3.300   4.578
 7765SOL    HW124194   6.589   3.220   4.556
 7765SOL    HW224195   6.436   3.275   4.577
 7766SOL     OW24196   0.742   4.781   0.384
 7766SOL    HW124197   0.771   4.766   0.479
 7766SOL    HW224198   0.700   4.697   0.348
 7767SOL     OW24199   2.844   0.675   2.725
 7767SOL    HW124200   2.911   0.750   2.725
 7767SOL    HW224201   2.793   0.676   2.640
 7768SOL     OW24202   4.325   4.752   2.951
 7768SOL    HW124203   4.270   4.718   2.874
 7768SOL    HW224204   4.420   4.726   2.938
 7769SOL     OW24205   3.388   2.469   5.434
 7769SOL    HW124206   3.326   2.480   5.356
 7769SOL    HW224207   3.480   2.449   5.400
 7770SOL     OW24208   1.169   3.662   4.811
 7770SOL    HW124209   1.094   3.682   4.873
 7770SOL    HW224210   1.134   3.644   4.719
 7771SOL     OW24211   3.299   2.940   6.045
 7771SOL    HW124212   3.396   2.925   6.062
 7771SOL    HW224213   3.248   2.932   6.131
 7772SOL     OW24214   4.903   0.844   1.441
 7772SOL    HW124215   4.819   0.820   1.393
 7772SOL    HW224216   4.951   0.761   1.469
 7773SOL     OW24217   2.719   5.964   0.280
 7773SOL    HW124218   2.764   5.995   0.196
 7773SOL    HW224219   2.683   5.871   0.267
 7774SOL     OW24220   4.692   1.541   2.848
 7774SOL    HW124221   4.652   1.456   2.883
 7774SOL    HW224222   4.777   1.560   2.897
 7775SOL     OW24223   3.223   0.713   0.305
 7775SOL    HW124224   3.188   0.791   0.255
 7775SOL    HW224225   3.291   0.665   0.249
 7776SOL     OW24226   0.758   6.908   5.691
 7776SOL    HW124227   0.847   6.864   5.682
 7776SOL    HW224228   0.694   6.844   5.734
 7777SOL     OW24229   5.124   5.346   3.307
 7777SOL    HW124230   5.100   5.437   3.340
 7777SOL    HW224231   5.136   5.285   3.385
 7778SOL     OW24232   6.161   4.190   2.925
 7778SOL    HW124233   6.254   4.154   2.937
 7778SOL    HW224234   6.149   4.271   2.983
 7779SOL     OW24235   3.138   5.854   2.071
 7779SOL    HW124236   3.169   5.942   2.107
 7779SOL    HW224237   3.194   5.780   2.108
 7780SOL     OW24238   6.538   6.055   5.407
 7780SOL    HW124239   6.543   6.048   5.307
 7780SOL    HW224240   6.591   5.981   5.448
 7781SOL     OW24241   1.460   2.989   0.483
 7781SOL    HW124242   1.554   2.972   0.451
 7781SOL    HW224243   1.458   2.986   0.583
 7782SOL     OW24244   6.347   4.563   3.552
 7782SOL    HW124245   6.305   4.600   3.635
 7782SOL    HW224246   6.289   4.490   3.515
 7783SOL     OW24247   1.218   0.676   5.378
 7783SOL    HW124248   1.180   0.767   5.358
 7783SOL    HW224249   1.144   0.610   5.384
 7784SOL     OW24250   2.522   2.497   2.234
 7784SOL    HW124251   2.445   2.438   2.211
 7784SOL    HW224252   2.604   2.465   2.187
 7785SOL     OW24253   0.939   6.374   2.179
 7785SOL    HW124254   0.978   6.287   2.151
 7785SOL    HW224255   1.008   6.427   2.229
 7786SOL     OW24256   4.345   0.300   6.060
 7786SOL    HW124257   4.360   0.250   6.146
 7786SOL    HW224258   4.376   0.394   6.071
 7787SOL     OW24259   2.875   2.886   1.266
 7787SOL    HW124260   2.959   2.940   1.253
 7787SOL    HW224261   2.796   2.944   1.247
 7788SOL     OW24262   0.764   4.698   1.340
 7788SOL    HW124263   0.693   4.663   1.401
 7788SOL    HW224264   0.738   4.789   1.307
 7789SOL     OW24265   3.279   1.075   6.468
 7789SOL    HW124266   3.194   1.062   6.417
 7789SOL    HW224267   3.268   1.149   6.534
 7790SOL     OW24268   5.530   4.734   2.008
 7790SOL    HW124269   5.528   4.833   2.000
 7790SOL    HW224270   5.493   4.706   2.097
 7791SOL     OW24271   2.271   5.370   2.220
 7791SOL    HW124272   2.368   5.387   2.201
 7791SOL    HW224273   2.247   5.277   2.193
 7792SOL     OW24274   1.215   1.689   2.260
 7792SOL    HW124275   1.217   1.664   2.163
 7792SOL    HW224276   1.173   1.779   2.271
 7793SOL     OW24277   4.384   1.315   0.052
 7793SOL    HW124278   4.437   1.271   0.124
 7793SOL    HW224279   4.406   1.413   0.050
 7794SOL     OW24280   0.819   5.583   2.731
 7794SOL    HW124281   0.905   5.620   2.767
 7794SOL    HW224282   0.746   5.649   2.745
 7795SOL     OW24283   3.398   5.258   6.331
 7795SOL    HW124284   3.416   5.187   6.263
 7795SOL    HW224285   3.369   5.342   6.285
 7796SOL     OW24286   3.419   3.023   6.463
 7796SOL    HW124287   3.378   3.113   6.478
 7796SOL    HW224288   3.354   2.965   6.414
 7797SOL     OW24289   1.019   6.133   3.192
 7797SOL    HW124290   1.106   6.101   3.229
 7797SOL    HW224291   1.029   6.227   3.161
 7798SOL     OW24292   0.723   2.147   1.015
 7798SOL    HW124293   0.758   2.086   1.086
 7798SOL    HW224294   0.739   2.106   0.925
 7799SOL     OW24295   2.411   6.085   3.615
 7799SOL    HW124296   2.484   6.037   3.568
 7799SOL    HW224297   2.335   6.101   3.551
 7800SOL     OW24298   0.050   6.426   1.177
 7800SOL    HW124299   0.135   6.373   1.182
 7800SOL    HW224300   0.059   6.496   1.105
 7801SOL     OW24301   1.889   2.621   2.619
 7801SOL    HW124302   1.969   2.679   2.630
 7801SOL    HW224303   1.829   2.631   2.699
 7802SOL     OW24304   6.810   3.877   5.345
 7802SOL    HW124305   6.903   3.895   5.377
 7802SOL    HW224306   6.752   3.956   5.367
 7803SOL     OW24307   4.616   2.093   5.490
 7803SOL    HW124308   4.645   2.168   5.431
 7803SOL    HW224309   4.644   2.006   5.449
 7804SOL     OW24310   2.648   1.942   4.968
 7804SOL    HW124311   2.663   1.874   4.897
 7804SOL    HW224312   2.584   2.011   4.936
 7805SOL     OW24313   5.515   2.870   1.266
 7805SOL    HW124314   5.490   2.896   1.172
 7805SOL    HW224315   5.455   2.796   1.296
 7806SOL     OW24316   6.884   2.021   5.566
 7806SOL    HW124317   6.884   1.964   5.648
 7806SOL    HW224318   6.931   1.974   5.492
 7807SOL     OW24319   1.996   5.299   5.867
 7807SOL    HW124320   2.042   5.265   5.785
 7807SOL    HW224321   1.967   5.394   5.852
 7808SOL     OW24322   5.467   4.090   2.734
 7808SOL    HW124323   5.443   4.173   2.785
 7808SOL    HW224324   5.561   4.096   2.702
 7809SOL     OW24325   4.666   5.396   3.590
 7809SOL    HW124326   4.726   5.321   3.561
 7809SOL    HW224327   4.618   5.433   3.510
 7810SOL     OW24328   4.083   6.294   5.376
 7810SOL    HW124329   4.148   6.284   5.451
 7810SOL    HW224330   4.067   6.205   5.332
 7811SOL     OW24331   1.254   5.752   2.603
 7811SOL    HW124332   1.260   5.751   2.703
 7811SOL    HW224333   1.346   5.739   2.564
 7812SOL     OW24334   2.481   2.900   5.634
 7812SOL    HW124335   2.450   2.995   5.635
 7812SOL    HW224336   2.425   2.846   5.571
 7813SOL     OW24337   5.641   1.543   0.930
 7813SOL    HW124338   5.636   1.471   0.999
 7813SOL    HW224339   5.730   1.588   0.936
 7814SOL     OW24340   6.997   3.238   2.252
 7814SOL    HW124341   0.039   3.168   2.231
 7814SOL    HW224342   6.920   3.230   2.189
 7815SOL     OW24343   6.151   2.773   5.509
 7815SOL    HW124344   6.226   2.773   5.443
 7815SOL    HW224345   6.066   2.795   5.463
 7816SOL     OW24346   0.334   1.418   4.920
 7816SOL    HW124347   0.338   1.518   4.915
 7816SOL    HW224348   0.343   1.380   4.828
 7817SOL     OW24349   2.926   2.990   6.390
 7817SOL    HW124350   2.937   3.053   6.313
 7817SOL    HW224351   2.858   3.027   6.453
 7818SOL     OW24352   5.644   1.234   2.272
 7818SOL    HW124353   5.575   1.294   2.313
 7818SOL    HW224354   5.621   1.139   2.291
 7819SOL     OW24355   1.099   3.708   3.969
 7819SOL    HW124356   1.188   3.748   3.987
 7819SOL    HW224357   1.102   3.610   3.987
 7820SOL     OW24358   1.579   0.391   5.579
 7820SOL    HW124359   1.593   0.358   5.672
 7820SOL    HW224360   1.508   0.337   5.534
 7821SOL     OW24361   6.141   5.431   6.777
 7821SOL    HW124362   6.102   5.339   6.776
 7821SOL    HW224363   6.161   5.458   6.871
 7822SOL     OW24364   1.102   0.948   4.818
 7822SOL    HW124365   1.032   1.001   4.770
 7822SOL    HW224366   1.116   0.985   4.909
 7823SOL     OW24367   1.572   4.348   0.044
 7823SOL    HW124368   1.656   4.400   0.027
 7823SOL    HW224369   1.596   4.260   0.087
 7824SOL     OW24370   5.195   2.690   2.234
 7824SOL    HW124371   5.166   2.617   2.172
 7824SOL    HW224372   5.137   2.771   2.219
 7825SOL     OW24373   3.388   3.166   1.656
 7825SOL    HW124374   3.457   3.225   1.615
 7825SOL    HW224375   3.428   3.077   1.677
 7826SOL     OW24376   6.620   0.739   0.359
 7826SOL    HW124377   6.660   0.825   0.390
 7826SOL    HW224378   6.655   0.718   0.268
 7827SOL     OW24379   5.063   5.392   1.358
 7827SOL    HW124380   5.055   5.447   1.275
 7827SOL    HW224381   5.029   5.300   1.341
 7828SOL     OW24382   0.609   6.276   1.023
 7828SOL    HW124383   0.697   6.323   1.020
 7828SOL    HW224384   0.624   6.177   1.015
 7829SOL     OW24385   3.471   2.894   1.564
 7829SOL    HW124386   3.406   2.820   1.547
 7829SOL    HW224387   3.544   2.892   1.496
 7830SOL     OW24388   6.152   3.346   6.892
 7830SOL    HW124389   6.071   3.359   6.949
 7830SOL    HW224390   6.124   3.317   6.800
 7831SOL     OW24391   1.459   3.259   0.492
 7831SOL    HW124392   1.382   3.297   0.442
 7831SOL    HW224393   1.466   3.161   0.474
 7832SOL     OW24394   2.381   2.380   5.311
 7832SOL    HW124395   2.291   2.343   5.331
 7832SOL    HW224396   2.451   2.323   5.355
 7833SOL     OW24397   0.752   6.862   0.474
 7833SOL    HW124398   0.720   6.767   0.473
 7833SOL    HW224399   0.749   6.899   0.381
 7834SOL     OW24400   1.060   0.677   1.432
 7834SOL    HW124401   1.030   0.763   1.391
 7834SOL    HW224402   1.009   0.661   1.517
 7835SOL     OW24403   2.211   3.047   4.831
 7835SOL    HW124404   2.186   3.140   4.858
 7835SOL    HW224405   2.284   3.014   4.890
 7836SOL     OW24406   2.646   6.536   6.988
 7836SOL    HW124407   2.656   6.554   6.891
 7836SOL    HW224408   2.734   6.509   0.001
 7837SOL     OW24409   6.198   6.467   2.965
 7837SOL    HW124410   6.134   6.408   2.916
 7837SOL    HW224411   6.280   6.415   2.990
 7838SOL     OW24412   4.181   6.486   4.931
 7838SOL    HW124413   4.223   6.525   4.849
 7838SOL    HW224414   4.205   6.389   4.938
 7839SOL     OW24415   5.889   5.076   4.605
 7839SOL    HW124416   5.926   5.166   4.629
 7839SOL    HW224417   5.902   5.013   4.681
 7840SOL     OW24418   5.235   2.900   4.050
 7840SOL    HW124419   5.190   2.872   4.135
 7840SOL    HW224420   5.199   2.989   4.021
 7841SOL     OW24421   0.158   1.476   6.172
 7841SOL    HW124422   0.064   1.494   6.201
 7841SOL    HW224423   0.162   1.388   6.124
 7842SOL     OW24424   2.020   1.464   2.782
 7842SOL    HW124425   2.084   1.410   2.728
 7842SOL    HW224426   2.040   1.561   2.769
 7843SOL     OW24427   5.726   3.861   1.075
 7843SOL    HW124428   5.799   3.831   1.013
 7843SOL    HW224429   5.641   3.815   1.052
 7844SOL     OW24430   3.892   0.684   3.317
 7844SOL    HW124431   3.884   0.719   3.224
 7844SOL    HW224432   3.903   0.585   3.314
 7845SOL     OW24433   6.723   1.466   4.289
 7845SOL    HW124434   6.743   1.395   4.222
 7845SOL    HW224435   6.663   1.535   4.248
 7846SOL     OW24436   2.711   6.925   1.911
 7846SOL    HW124437   2.687   6.996   1.977
 7846SOL    HW224438   2.734   6.967   1.823
 7847SOL     OW24439   6.675   0.494   0.586
 7847SOL    HW124440   6.665   0.592   0.568
 7847SOL    HW224441   6.768   0.466   0.566
 7848SOL     OW24442   4.442   3.735   1.668
 7848SOL    HW124443   4.388   3.818   1.678
 7848SOL    HW224444   4.533   3.748   1.708
 7849SOL     OW24445   5.762   3.012   4.629
 7849SOL    HW124446   5.823   2.958   4.686
 7849SOL    HW224447   5.773   2.985   4.533
 7850SOL     OW24448   0.345   0.863   5.550
 7850SOL    HW124449   0.375   0.950   5.511
 7850SOL    HW224450   0.245   0.858   5.549
 7851SOL     OW24451   5.982   0.229   0.295
 7851SOL    HW124452   5.922   0.149   0.303
 7851SOL    HW224453   5.926   0.311   0.280
 7852SOL     OW24454   2.870   6.403   0.038
 7852SOL    HW124455   2.969   6.384   0.037
 7852SOL    HW224456   2.841   6.422   0.132
 7853SOL     OW24457   2.681   2.766   0.302
 7853SOL    HW124458   2.761   2.725   0.258
 7853SOL    HW224459   2.601   2.753   0.244
 7854SOL     OW24460   3.453   3.614   2.058
 7854SOL    HW124461   3.536   3.561   2.044
 7854SOL    HW224462   3.467   3.681   2.130
 7855SOL     OW24463   4.663   5.354   6.904
 7855SOL    HW124464   4.668   5.328   7.000
 7855SOL    HW224465   4.570   5.380   6.881
 7856SOL     OW24466   5.818   3.538   5.198
 7856SOL    HW124467   5.754   3.470   5.234
 7856SOL    HW224468   5.887   3.492   5.141
 7857SOL     OW24469   6.246   1.529   5.905
 7857SOL    HW124470   6.180   1.522   5.830
 7857SOL    HW224471   6.221   1.606   5.965
 7858SOL     OW24472   6.063   4.095   3.217
 7858SOL    HW124473   5.990   4.069   3.154
 7858SOL    HW224474   6.124   4.160   3.173
 7859SOL     OW24475   0.856   4.930   5.725
 7859SOL    HW124476   0.760   4.915   5.751
 7859SOL    HW224477   0.859   4.981   5.638
 7860SOL     OW24478   4.167   6.879   1.401
 7860SOL    HW124479   4.138   6.905   1.309
 7860SOL    HW224480   4.103   6.811   1.438
 7861SOL     OW24481   4.373   4.995   0.872
 7861SOL    HW124482   4.284   4.963   0.904
 7861SOL    HW224483   4.361   5.051   0.790
 7862SOL     OW24484   2.865   4.102   1.672
 7862SOL    HW124485   2.907   4.193   1.674
 7862SOL    HW224486   2.779   4.107   1.623
 7863SOL     OW24487   6.477   6.046   2.039
 7863SOL    HW124488   6.432   6.023   2.125
 7863SOL    HW224489   6.575   6.027   2.046
 7864SOL     OW24490   0.712   5.528   4.431
 7864SOL    HW124491   0.789   5.572   4.477
 7864SOL    HW224492   0.721   5.429   4.436
 7865SOL     OW24493   3.607   6.630   3.419
 7865SOL    HW124494   3.519   6.636   3.465
 7865SOL    HW224495   3.676   6.678   3.473
 7866SOL     OW24496   2.751   2.043   3.485
 7866SOL    HW124497   2.728   2.138   3.506
 7866SOL    HW224498   2.841   2.039   3.442
 7867SOL     OW24499   6.606   4.913   1.768
 7867SOL    HW124500   6.700   4.896   1.740
 7867SOL    HW224501   6.547   4.917   1.687
 7868SOL     OW24502   5.415   6.449   0.939
 7868SOL    HW124503   5.441   6.413   1.029
 7868SOL    HW224504   5.318   6.432   0.924
 7869SOL     OW24505   0.628   2.887   1.754
 7869SOL    HW124506   0.584   2.804   1.719
 7869SOL    HW224507   0.727   2.874   1.754
 7870SOL     OW24508   6.609   4.857   3.704
 7870SOL    HW124509   6.546   4.804   3.760
 7870SOL    HW224510   6.625   4.946   3.747
 7871SOL     OW24511   5.613   3.107   3.197
 7871SOL    HW124512   5.532   3.077   3.146
 7871SOL    HW224513   5.612   3.206   3.206
 7872SOL     OW24514   6.933   3.485   2.720
 7872SOL    HW124515   6.934   3.527   2.629
 7872SOL    HW224516   6.874   3.404   2.719
 7873SOL     OW24517   0.133   5.787   5.701
 7873SOL    HW124518   0.129   5.762   5.604
 7873SOL    HW224519   0.170   5.710   5.753
 7874SOL     OW24520   6.099   1.749   0.050
 7874SOL    HW124521   6.100   1.812   0.127
 7874SOL    HW224522   6.022   1.685   0.060
 7875SOL     OW24523   4.579   3.496   6.336
 7875SOL    HW124524   4.489   3.496   6.293
 7875SOL    HW224525   4.642   3.552   6.282
 7876SOL     OW24526   6.711   0.357   3.539
 7876SOL    HW124527   6.629   0.319   3.495
 7876SOL    HW224528   6.683   0.415   3.616
 7877SOL     OW24529   6.927   2.611   2.865
 7877SOL    HW124530   6.964   2.654   2.783
 7877SOL    HW224531   6.986   2.632   2.943
 7878SOL     OW24532   4.500   4.426   2.514
 7878SOL    HW124533   4.460   4.394   2.428
 7878SOL    HW224534   4.449   4.507   2.545
 7879SOL     OW24535   4.800   6.967   3.705
 7879SOL    HW124536   4.816   6.900   3.632
 7879SOL    HW224537   4.754   6.922   3.782
 7880SOL     OW24538   0.220   6.737   6.333
 7880SOL    HW124539   0.225   6.637   6.325
 7880SOL    HW224540   0.311   6.774   6.347
 7881SOL     OW24541   0.183   3.856   5.105
 7881SOL    HW124542   0.161   3.773   5.053
 7881SOL    HW224543   0.110   3.923   5.093
 7882SOL     OW24544   0.215   3.180   2.915
 7882SOL    HW124545   0.245   3.274   2.932
 7882SOL    HW224546   0.290   3.127   2.875
 7883SOL     OW24547   2.686   1.185   2.914
 7883SOL    HW124548   2.681   1.151   3.008
 7883SOL    HW224549   2.683   1.285   2.914
 7884SOL     OW24550   1.653   4.227   3.458
 7884SOL    HW124551   1.634   4.276   3.543
 7884SOL    HW224552   1.662   4.129   3.477
 7885SOL     OW24553   6.074   5.665   3.071
 7885SOL    HW124554   6.124   5.584   3.102
 7885SOL    HW224555   6.106   5.745   3.123
 7886SOL     OW24556   4.728   2.724   1.954
 7886SOL    HW124557   4.712   2.714   2.052
 7886SOL    HW224558   4.692   2.812   1.923
 7887SOL     OW24559   4.012   3.301   0.471
 7887SOL    HW124560   4.071   3.350   0.407
 7887SOL    HW224561   3.936   3.361   0.499
 7888SOL     OW24562   5.806   1.536   4.116
 7888SOL    HW124563   5.867   1.589   4.175
 7888SOL    HW224564   5.783   1.590   4.035
 7889SOL     OW24565   5.844   4.778   0.735
 7889SOL    HW124566   5.824   4.873   0.708
 7889SOL    HW224567   5.834   4.770   0.834
 7890SOL     OW24568   1.245   3.065   4.232
 7890SOL    HW124569   1.320   3.000   4.217
 7890SOL    HW224570   1.158   3.016   4.234
 7891SOL     OW24571   0.047   2.126   3.910
 7891SOL    HW124572   0.059   2.091   3.817
 7891SOL    HW224573   0.056   2.226   3.910
 7892SOL     OW24574   1.458   3.543   6.005
 7892SOL    HW124575   1.487   3.450   5.984
 7892SOL    HW224576   1.485   3.566   6.099
 7893SOL     OW24577   6.050   0.725   2.154
 7893SOL    HW124578   6.047   0.823   2.175
 7893SOL    HW224579   5.991   0.705   2.076
 7894SOL     OW24580   2.663   1.217   5.859
 7894SOL    HW124581   2.724   1.138   5.867
 7894SOL    HW224582   2.678   1.278   5.937
 7895SOL     OW24583   3.657   5.930   3.419
 7895SOL    HW124584   3.628   5.863   3.350
 7895SOL    HW224585   3.757   5.936   3.418
 7896SOL     OW24586   4.289   2.486   1.402
 7896SOL    HW124587   4.312   2.496   1.306
 7896SOL    HW224588   4.338   2.555   1.456
 7897SOL     OW24589   3.960   4.319   6.934
 7897SOL    HW124590   3.937   4.415   6.913
 7897SOL    HW224591   4.054   4.313   6.965
 7898SOL     OW24592   5.177   0.610   4.264
 7898SOL    HW124593   5.109   0.667   4.219
 7898SOL    HW224594   5.201   0.650   4.353
 7899SOL     OW24595   5.320   5.045   1.555
 7899SOL    HW124596   5.329   4.985   1.634
 7899SOL    HW224597   5.225   5.073   1.543
 7900SOL     OW24598   0.580   3.593   0.382
 7900SOL    HW124599   0.595   3.498   0.413
 7900SOL    HW224600   0.491   3.625   0.414
 7901SOL     OW24601   5.391   1.241   6.096
 7901SOL    HW124602   5.320   1.309   6.115
 7901SOL    HW224603   5.380   1.208   6.002
 7902SOL     OW24604   0.324   6.149   2.654
 7902SOL    HW124605   0.398   6.109   2.708
 7902SOL    HW224606   0.237   6.134   2.701
 7903SOL     OW24607   2.149   1.725   4.669
 7903SOL    HW124608   2.171   1.791   4.740
 7903SOL    HW224609   2.077   1.664   4.701
 7904SOL     OW24610   6.125   0.669   2.504
 7904SOL    HW124611   6.043   0.634   2.549
 7904SOL    HW224612   6.108   0.679   2.406
 7905SOL     OW24613   5.563   0.748   6.952
 7905SOL    HW124614   5.480   0.771   7.002
 7905SOL    HW224615   5.570   0.649   6.943
 7906SOL     OW24616   1.601   5.183   0.899
 7906SOL    HW124617   1.649   5.117   0.841
 7906SOL    HW224618   1.510   5.201   0.861
 7907SOL     OW24619   6.259   0.156   3.172
 7907SOL    HW124620   6.243   0.058   3.157
 7907SOL    HW224621   6.342   0.183   3.124
 7908SOL     OW24622   0.643   0.531   6.629
 7908SOL    HW124623   0.682   0.491   6.711
 7908SOL    HW224624   0.553   0.569   6.650
 7909SOL     OW24625   5.644   3.598   2.487
 7909SOL    HW124626   5.680   3.682   2.528
 7909SOL    HW224627   5.599   3.620   2.401
 7910SOL     OW24628   1.882   3.762   0.841
 7910SOL    HW124629   1.948   3.710   0.895
 7910SOL    HW224630   1.931   3.819   0.775
 7911SOL     OW24631   1.243   4.236   0.722
 7911SOL    HW124632   1.339   4.210   0.734
 7911SOL    HW224633   1.234   4.336   0.732
 7912SOL     OW24634   5.687   5.434   0.252
 7912SOL    HW124635   5.590   5.413   0.263
 7912SOL    HW224636   5.741   5.378   0.315
 7913SOL     OW24637   0.465   3.689   0.751
 7913SOL    HW124638   0.490   3.733   0.665
 7913SOL    HW224639   0.405   3.611   0.733
 7914SOL     OW24640   6.265   5.453   5.115
 7914SOL    HW124641   6.342   5.428   5.173
 7914SOL    HW224642   6.298   5.506   5.037
 7915SOL     OW24643   3.290   6.907   2.660
 7915SOL    HW124644   3.274   6.910   2.561
 7915SOL    HW224645   3.302   6.812   2.689
 7916SOL     OW24646   1.202   0.427   4.741
 7916SOL    HW124647   1.121   0.486   4.739
 7916SOL    HW224648   1.266   0.461   4.810
 7917SOL     OW24649   3.923   3.018   0.136
 7917SOL    HW124650   3.848   3.050   0.195
 7917SOL    HW224651   3.886   2.993   0.047
 7918SOL     OW24652   2.231   0.779   4.688
 7918SOL    HW124653   2.207   0.685   4.714
 7918SOL    HW224654   2.267   0.827   4.768
 7919SOL     OW24655   0.906   5.154   2.946
 7919SOL    HW124656   0.959   5.086   2.894
 7919SOL    HW224657   0.967   5.202   3.009
 7920SOL     OW24658   4.344   0.662   1.027
 7920SOL    HW124659   4.384   0.668   1.119
 7920SOL    HW224660   4.264   0.603   1.029
 7921SOL     OW24661   5.171   1.266   1.462
 7921SOL    HW124662   5.108   1.342   1.446
 7921SOL    HW224663   5.216   1.241   1.376
 7922SOL     OW24664   0.678   5.956   0.157
 7922SOL    HW124665   0.769   5.961   0.116
 7922SOL    HW224666   0.631   5.874   0.125
 7923SOL     OW24667   3.525   1.299   6.909
 7923SOL    HW124668   3.570   1.297   6.998
 7923SOL    HW224669   3.459   1.224   6.903
 7924SOL     OW24670   5.994   0.028   1.400
 7924SOL    HW124671   5.993   0.116   1.447
 7924SOL    HW224672   6.062   6.994   1.443
 7925SOL     OW24673   2.632   6.534   1.022
 7925SOL    HW124674   2.693   6.602   1.062
 7925SOL    HW224675   2.636   6.450   1.076
 7926SOL     OW24676   5.119   6.824   6.480
 7926SOL    HW124677   5.054   6.890   6.517
 7926SOL    HW224678   5.075   6.772   6.407
 7927SOL     OW24679   5.057   7.007   2.550
 7927SOL    HW124680   4.959   6.994   2.540
 7927SOL    HW224681   5.086   6.976   2.641
 7928SOL     OW24682   6.496   1.054   3.347
 7928SOL    HW124683   6.477   0.957   3.362
 7928SOL    HW224684   6.522   1.069   3.252
 7929SOL     OW24685   4.466   3.666   5.912
 7929SOL    HW124686   4.533   3.653   5.840
 7929SOL    HW224687   4.425   3.578   5.937
 7930SOL     OW24688   4.104   5.956   5.689
 7930SOL    HW124689   4.033   5.928   5.624
 7930SOL    HW224690   4.158   6.030   5.650
 7931SOL     OW24691   2.906   2.240   0.655
 7931SOL    HW124692   2.958   2.167   0.609
 7931SOL    HW224693   2.885   2.312   0.589
 7932SOL     OW24694   6.958   5.400   1.337
 7932SOL    HW124695   6.999   5.406   1.246
 7932SOL    HW224696   6.931   5.491   1.367
 7933SOL     OW24697   6.812   1.317   6.033
 7933SOL    HW124698   6.748   1.374   6.085
 7933SOL    HW224699   6.762   1.260   5.968
 7934SOL     OW24700   1.286   4.515   0.989
 7934SOL    HW124701   1.304   4.424   1.027
 7934SOL    HW224702   1.257   4.505   0.894
 7935SOL     OW24703   5.761   3.840   2.564
 7935SOL    HW124704   5.795   3.931   2.539
 7935SOL    HW224705   5.772   3.826   2.662
 7936SOL     OW24706   3.461   6.397   4.140
 7936SOL    HW124707   3.548   6.350   4.122
 7936SOL    HW224708   3.385   6.335   4.121
 7937SOL     OW24709   2.666   5.763   5.864
 7937SOL    HW124710   2.732   5.816   5.918
 7937SOL    HW224711   2.582   5.817   5.853
 7938SOL     OW24712   4.341   6.588   4.713
 7938SOL    HW124713   4.425   6.542   4.742
 7938SOL    HW224714   4.362   6.653   4.640
 7939SOL     OW24715   0.522   1.727   4.843
 7939SOL    HW124716   0.556   1.646   4.796
 7939SOL    HW224717   0.441   1.762   4.796
 7940SOL     OW24718   5.155   1.419   2.833
 7940SOL    HW124719   5.172   1.432   2.931
 7940SOL    HW224720   5.217   1.350   2.797
 7941SOL     OW24721   3.967   6.790   1.613
 7941SOL    HW124722   3.897   6.718   1.606
 7941SOL    HW224723   3.985   6.809   1.709
 7942SOL     OW24724   0.706   3.394   1.587
 7942SOL    HW124725   0.620   3.366   1.630
 7942SOL    HW224726   0.756   3.452   1.651
 7943SOL     OW24727   2.467   5.500   6.099
 7943SOL    HW124728   2.483   5.409   6.137
 7943SOL    HW224729   2.488   5.499   6.001
 7944SOL     OW24730   0.702   2.645   1.454
 7944SOL    HW124731   0.632   2.627   1.522
 7944SOL    HW224732   0.681   2.730   1.406
 7945SOL     OW24733   5.825   5.399   2.411
 7945SOL    HW124734   5.813   5.348   2.496
 7945SOL    HW224735   5.770   5.483   2.414
 7946SOL     OW24736   3.829   1.232   5.781
 7946SOL    HW124737   3.914   1.191   5.813
 7946SOL    HW224738   3.835   1.332   5.788
 7947SOL     OW24739   1.210   3.014   5.082
 7947SOL    HW124740   1.156   3.020   5.166
 7947SOL    HW224741   1.290   2.957   5.099
 7948SOL     OW24742   1.657   4.884   2.482
 7948SOL    HW124743   1.746   4.927   2.495
 7948SOL    HW224744   1.636   4.826   2.560
 7949SOL     OW24745   4.373   4.855   6.279
 7949SOL    HW124746   4.321   4.941   6.272
 7949SOL    HW224747   4.437   4.861   6.355
 7950SOL     OW24748   6.149   5.352   5.857
 7950SOL    HW124749   6.100   5.291   5.795
 7950SOL    HW224750   6.246   5.355   5.832
 7951SOL     OW24751   3.008   5.459   2.492
 7951SOL    HW124752   2.917   5.501   2.494
 7951SOL    HW224753   3.000   5.362   2.470
 7952SOL     OW24754   5.403   3.305   0.048
 7952SOL    HW124755   5.385   3.225   7.016
 7952SOL    HW224756   5.459   3.370   7.024
 7953SOL     OW24757   3.979   2.010   0.556
 7953SOL    HW124758   3.955   2.056   0.641
 7953SOL    HW224759   3.910   1.941   0.535
 7954SOL     OW24760   3.527   2.853   0.029
 7954SOL    HW124761   3.529   2.843   0.128
 7954SOL    HW224762   3.494   2.768   7.013
 7955SOL     OW24763   1.565   1.640   6.518
 7955SOL    HW124764   1.589   1.543   6.516
 7955SOL    HW224765   1.503   1.657   6.594
 7956SOL     OW24766   6.509   0.565   1.796
 7956SOL    HW124767   6.486   0.541   1.890
 7956SOL    HW224768   6.450   0.640   1.765
 7957SOL     OW24769   4.714   0.449   5.184
 7957SOL    HW124770   4.749   0.542   5.196
 7957SOL    HW224771   4.615   0.448   5.201
 7958SOL     OW24772   5.667   3.674   6.816
 7958SOL    HW124773   5.656   3.671   6.717
 7958SOL    HW224774   5.694   3.766   6.844
 7959SOL     OW24775   4.685   1.126   6.093
 7959SOL    HW124776   4.732   1.040   6.072
 7959SOL    HW224777   4.716   1.198   6.031
 7960SOL     OW24778   6.762   0.863   6.813
 7960SOL    HW124779   6.784   0.896   6.905
 7960SOL    HW224780   6.777   0.936   6.747
 7961SOL     OW24781   6.684   7.008   6.770
 7961SOL    HW124782   6.584   7.003   6.761
 7961SOL    HW224783   6.709   0.068   6.815
 7962SOL     OW24784   6.580   6.872   5.544
 7962SOL    HW124785   6.507   6.904   5.484
 7962SOL    HW224786   6.576   6.773   5.553
 7963SOL     OW24787   6.469   4.715   4.523
 7963SOL    HW124788   6.398   4.770   4.480
 7963SOL    HW224789   6.552   4.770   4.535
 7964SOL     OW24790   6.379   3.481   1.984
 7964SOL    HW124791   6.391   3.575   1.951
 7964SOL    HW224792   6.288   3.471   2.023
 7965SOL     OW24793   4.137   1.912   0.058
 7965SOL    HW124794   4.087   1.928   0.143
 7965SOL    HW224795   4.072   1.902   7.008
 7966SOL     OW24796   4.096   4.332   5.317
 7966SOL    HW124797   4.028   4.273   5.274
 7966SOL    HW224798   4.148   4.379   5.247
 7967SOL     OW24799   1.800   5.146   2.054
 7967SOL    HW124800   1.719   5.098   2.089
 7967SOL    HW224801   1.864   5.164   2.128
 7968SOL     OW24802   6.696   1.893   4.466
 7968SOL    HW124803   6.709   1.890   4.367
 7968SOL    HW224804   6.648   1.977   4.490
 7969SOL     OW24805   4.630   5.814   0.067
 7969SOL    HW124806   4.706   5.868   0.030
 7969SOL    HW224807   4.576   5.871   0.129
 7970SOL     OW24808   6.360   2.999   2.688
 7970SOL    HW124809   6.379   2.981   2.785
 7970SOL    HW224810   6.303   3.081   2.680
 7971SOL     OW24811   3.168   1.179   1.287
 7971SOL    HW124812   3.152   1.083   1.308
 7971SOL    HW224813   3.246   1.187   1.225
 7972SOL     OW24814   3.848   3.060   2.775
 7972SOL    HW124815   3.872   3.040   2.870
 7972SOL    HW224816   3.777   2.995   2.745
 7973SOL     OW24817   6.241   3.745   2.931
 7973SOL    HW124818   6.169   3.768   2.996
 7973SOL    HW224819   6.315   3.696   2.978
 7974SOL     OW24820   6.305   1.393   5.568
 7974SOL    HW124821   6.221   1.437   5.598
 7974SOL    HW224822   6.355   1.359   5.647
 7975SOL     OW24823   5.131   1.741   0.622
 7975SOL    HW124824   5.228   1.720   0.614
 7975SOL    HW224825   5.111   1.770   0.716
 7976SOL     OW24826   1.378   6.813   0.128
 7976SOL    HW124827   1.445   6.785   0.059
 7976SOL    HW224828   1.294   6.760   0.116
 7977SOL     OW24829   5.582   6.117   3.288
 7977SOL    HW124830   5.500   6.158   3.328
 7977SOL    HW224831   5.632   6.066   3.359
 7978SOL     OW24832   0.293   4.233   1.225
 7978SOL    HW124833   0.221   4.299   1.247
 7978SOL    HW224834   0.375   4.283   1.196
 7979SOL     OW24835   1.719   3.699   4.691
 7979SOL    HW124836   1.626   3.705   4.727
 7979SOL    HW224837   1.749   3.790   4.661
 7980SOL     OW24838   3.747   4.652   5.765
 7980SOL    HW124839   3.767   4.609   5.677
 7980SOL    HW224840   3.665   4.708   5.757
 7981SOL     OW24841   1.870   5.030   3.165
 7981SOL    HW124842   1.807   5.001   3.237
 7981SOL    HW224843   1.958   4.985   3.177
 7982SOL     OW24844   1.331   2.093   6.279
 7982SOL    HW124845   1.260   2.121   6.214
 7982SOL    HW224846   1.357   1.998   6.262
 7983SOL     OW24847   5.093   1.167   0.810
 7983SOL    HW124848   5.040   1.251   0.814
 7983SOL    HW224849   5.189   1.189   0.791
 7984SOL     OW24850   0.929   1.514   1.885
 7984SOL    HW124851   0.950   1.419   1.858
 7984SOL    HW224852   0.953   1.575   1.809
 7985SOL     OW24853   2.085   2.236   5.441
 7985SOL    HW124854   2.003   2.200   5.396
 7985SOL    HW224855   2.059   2.303   5.510
 7986SOL     OW24856   3.426   1.214   4.153
 7986SOL    HW124857   3.391   1.258   4.235
 7986SOL    HW224858   3.521   1.186   4.167
 7987SOL     OW24859   1.328   3.539   0.852
 7987SOL    HW124860   1.420   3.577   0.853
 7987SOL    HW224861   1.295   3.531   0.946
 7988SOL     OW24862   0.058   1.399   1.739
 7988SOL    HW124863   0.076   1.376   1.643
 7988SOL    HW224864   0.119   1.346   1.798
 7989SOL     OW24865   1.117   4.027   0.316
 7989SOL    HW124866   1.151   3.943   0.358
 7989SOL    HW224867   1.138   4.104   0.376
 7990SOL     OW24868   2.663   5.932   5.222
 7990SOL    HW124869   2.604   5.915   5.142
 7990SOL    HW224870   2.656   6.028   5.249
 7991SOL     OW24871   5.216   1.379   5.074
 7991SOL    HW124872   5.305   1.424   5.071
 7991SOL    HW224873   5.163   1.405   4.993
 7992SOL     OW24874   2.370   0.685   0.552
 7992SOL    HW124875   2.408   0.699   0.461
 7992SOL    HW224876   2.270   0.682   0.546
 7993SOL     OW24877   6.823   6.760   1.655
 7993SOL    HW124878   6.890   6.807   1.714
 7993SOL    HW224879   6.861   6.672   1.625
 7994SOL     OW24880   5.019   0.754   2.891
 7994SOL    HW124881   4.987   0.761   2.797
 7994SOL    HW224882   5.100   0.812   2.903
 7995SOL     OW24883   0.400   4.483   1.818
 7995SOL    HW124884   0.468   4.556   1.830
 7995SOL    HW224885   0.395   4.457   1.722
 7996SOL     OW24886   3.792   6.915   3.146
 7996SOL    HW124887   3.780   6.818   3.163
 7996SOL    HW224888   3.847   6.928   3.063
 7997SOL     OW24889   0.904   2.052   6.894
 7997SOL    HW124890   0.919   1.965   6.846
 7997SOL    HW224891   0.984   2.111   6.882
 7998SOL     OW24892   2.698   0.694   0.508
 7998SOL    HW124893   2.686   0.631   0.584
 7998SOL    HW224894   2.613   0.703   0.457
 7999SOL     OW24895   1.118   1.668   5.475
 7999SOL    HW124896   1.093   1.585   5.525
 7999SOL    HW224897   1.190   1.716   5.525
 8000SOL     OW24898   5.652   6.158   6.340
 8000SOL    HW124899   5.613   6.087   6.281
 8000SOL    HW224900   5.579   6.203   6.392
 8001SOL     OW24901   5.013   0.354   1.335
 8001SOL    HW124902   4.926   0.334   1.379
 8001SOL    HW224903   4.999   0.375   1.239
 8002SOL     OW24904   0.457   0.582   5.950
 8002SOL    HW124905   0.433   0.623   6.038
 8002SOL    HW224906   0.450   0.650   5.877
 8003SOL     OW24907   2.308   6.634   2.674
 8003SOL    HW124908   2.393   6.632   2.620
 8003SOL    HW224909   2.304   6.720   2.726
 8004SOL     OW24910   1.006   2.951   3.929
 8004SOL    HW124911   1.091   2.913   3.964
 8004SOL    HW224912   0.948   2.981   4.005
 8005SOL     OW24913   2.407   0.066   3.202
 8005SOL    HW124914   2.321   0.018   3.181
 8005SOL    HW224915   2.483   0.001   3.199
 8006SOL     OW24916   3.756   5.241   4.735
 8006SOL    HW124917   3.785   5.180   4.661
 8006SOL    HW224918   3.656   5.249   4.734
 8007SOL     OW24919   6.317   1.314   6.353
 8007SOL    HW124920   6.328   1.215   6.359
 8007SOL    HW224921   6.249   1.336   6.284
 8008SOL     OW24922   4.130   6.346   0.185
 8008SOL    HW124923   4.094   6.410   0.117
 8008SOL    HW224924   4.070   6.266   0.191
 8009SOL     OW24925   4.507   1.140   0.775
 8009SOL    HW124926   4.446   1.218   0.769
 8009SOL    HW224927   4.570   1.152   0.851
 8010SOL     OW24928   2.553   2.591   5.240
 8010SOL    HW124929   2.480   2.523   5.245
 8010SOL    HW224930   2.639   2.550   5.269
 8011SOL     OW24931   3.430   1.929   2.065
 8011SOL    HW124932   3.523   1.955   2.040
 8011SOL    HW224933   3.423   1.830   2.069
 8012SOL     OW24934   1.015   3.285   5.663
 8012SOL    HW124935   1.102   3.245   5.632
 8012SOL    HW224936   1.022   3.385   5.661
 8013SOL     OW24937   1.642   2.245   3.934
 8013SOL    HW124938   1.620   2.254   3.837
 8013SOL    HW224939   1.741   2.245   3.946
 8014SOL     OW24940   2.220   0.750   3.129
 8014SOL    HW124941   2.287   0.766   3.201
 8014SOL    HW224942   2.220   0.828   3.066
 8015SOL     OW24943   2.155   0.140   5.725
 8015SOL    HW124944   2.112   0.098   5.645
 8015SOL    HW224945   2.201   0.224   5.698
 8016SOL     OW24946   4.226   1.677   5.595
 8016SOL    HW124947   4.294   1.745   5.569
 8016SOL    HW224948   4.158   1.719   5.656
 8017SOL     OW24949   6.846   0.022   0.260
 8017SOL    HW124950   6.846   0.089   0.334
 8017SOL    HW224951   6.834   6.956   0.298
 8018SOL     OW24952   3.936   1.507   0.533
 8018SOL    HW124953   3.909   1.425   0.483
 8018SOL    HW224954   3.993   1.482   0.611
 8019SOL     OW24955   3.282   3.589   1.061
 8019SOL    HW124956   3.257   3.583   1.158
 8019SOL    HW224957   3.200   3.585   1.005
 8020SOL     OW24958   6.300   0.235   5.061
 8020SOL    HW124959   6.298   0.288   5.145
 8020SOL    HW224960   6.243   0.153   5.072
 8021SOL     OW24961   1.636   2.616   2.513
 8021SOL    HW124962   1.736   2.615   2.523
 8021SOL    HW224963   1.612   2.594   2.419
 8022SOL     OW24964   5.595   1.167   2.022
 8022SOL    HW124965   5.545   1.240   1.975
 8022SOL    HW224966   5.606   1.190   2.118
 8023SOL     OW24967   5.233   6.305   3.613
 8023SOL    HW124968   5.211   6.254   3.696
 8023SOL    HW224969   5.266   6.396   3.637
 8024SOL     OW24970   1.709   6.186   6.281
 8024SOL    HW124971   1.609   6.195   6.282
 8024SOL    HW224972   1.750   6.275   6.264
 8025SOL     OW24973   2.078   4.860   1.702
 8025SOL    HW124974   2.110   4.914   1.624
 8025SOL    HW224975   1.979   4.866   1.708
 8026SOL     OW24976   0.318   5.093   6.976
 8026SOL    HW124977   0.393   5.068   0.011
 8026SOL    HW224978   0.311   5.026   6.902
 8027SOL     OW24979   4.015   5.844   6.126
 8027SOL    HW124980   4.026   5.877   6.219
 8027SOL    HW224981   4.038   5.746   6.122
 8028SOL     OW24982   3.272   5.603   4.255
 8028SOL    HW124983   3.295   5.570   4.347
 8028SOL    HW224984   3.237   5.696   4.261
 8029SOL     OW24985   6.195   1.324   1.238
 8029SOL    HW124986   6.222   1.260   1.310
 8029SOL    HW224987   6.220   1.285   1.149
 8030SOL     OW24988   6.100   4.549   0.909
 8030SOL    HW124989   6.043   4.469   0.928
 8030SOL    HW224990   6.181   4.521   0.857
 8031SOL     OW24991   5.889   0.578   2.955
 8031SOL    HW124992   5.907   0.572   2.857
 8031SOL    HW224993   5.826   0.505   2.982
 8032SOL     OW24994   5.660   3.114   1.307
 8032SOL    HW124995   5.591   3.173   1.348
 8032SOL    HW224996   5.618   3.029   1.277
 8033SOL     OW24997   3.498   4.413   0.405
 8033SOL    HW124998   3.560   4.344   0.442
 8033SOL    HW224999   3.431   4.369   0.345
 8034SOL     OW25000   5.877   0.095   4.923
 8034SOL    HW125001   5.863   0.159   4.847
 8034SOL    HW225002   5.797   0.096   4.982
 8035SOL     OW25003   4.561   1.370   3.040
 8035SOL    HW125004   4.609   1.284   3.057
 8035SOL    HW225005   4.581   1.435   3.114
 8036SOL     OW25006   6.462   2.854   4.029
 8036SOL    HW125007   6.549   2.842   4.078
 8036SOL    HW225008   6.459   2.791   3.951
 8037SOL     OW25009   1.591   3.000   6.438
 8037SOL    HW125010   1.546   2.957   6.517
 8037SOL    HW225011   1.537   2.984   6.356
 8038SOL     OW25012   5.900   6.064   2.173
 8038SOL    HW125013   5.844   6.059   2.091
 8038SOL    HW225014   5.975   6.129   2.158
 8039SOL     OW25015   0.969   2.294   5.727
 8039SOL    HW125016   0.927   2.205   5.741
 8039SOL    HW225017   0.986   2.337   5.815
 8040SOL     OW25018   1.404   5.626   5.936
 8040SOL    HW125019   1.480   5.563   5.921
 8040SOL    HW225020   1.388   5.636   6.034
 8041SOL     OW25021   3.228   1.877   3.218
 8041SOL    HW125022   3.205   1.823   3.137
 8041SOL    HW225023   3.201   1.827   3.300
 8042SOL     OW25024   4.761   4.380   6.212
 8042SOL    HW125025   4.836   4.406   6.152
 8042SOL    HW225026   4.706   4.309   6.168
 8043SOL     OW25027   4.812   4.721   1.107
 8043SOL    HW125028   4.752   4.661   1.055
 8043SOL    HW225029   4.831   4.681   1.196
 8044SOL     OW25030   3.561   3.513   1.135
 8044SOL    HW125031   3.564   3.414   1.146
 8044SOL    HW225032   3.467   3.542   1.116
 8045SOL     OW25033   0.488   0.937   2.889
 8045SOL    HW125034   0.514   1.026   2.926
 8045SOL    HW225035   0.496   0.938   2.789
 8046SOL     OW25036   0.366   5.275   2.149
 8046SOL    HW125037   0.411   5.304   2.233
 8046SOL    HW225038   0.424   5.208   2.102
 8047SOL     OW25039   3.973   0.055   6.012
 8047SOL    HW125040   4.050   7.023   6.041
 8047SOL    HW225041   4.002   0.151   6.010
 8048SOL     OW25042   3.688   3.541   0.253
 8048SOL    HW125043   3.690   3.471   0.183
 8048SOL    HW225044   3.679   3.631   0.210
 8049SOL     OW25045   1.745   6.972   0.927
 8049SOL    HW125046   1.796   7.024   0.859
 8049SOL    HW225047   1.803   6.955   1.007
 8050SOL     OW25048   1.516   4.105   4.227
 8050SOL    HW125049   1.496   4.201   4.208
 8050SOL    HW225050   1.436   4.061   4.269
 8051SOL     OW25051   4.128   6.110   4.294
 8051SOL    HW125052   4.098   6.132   4.387
 8051SOL    HW225053   4.144   6.012   4.287
 8052SOL     OW25054   1.998   1.655   2.248
 8052SOL    HW125055   1.905   1.628   2.269
 8052SOL    HW225056   2.054   1.652   2.331
 8053SOL     OW25057   3.028   3.300   6.399
 8053SOL    HW125058   3.085   3.300   6.316
 8053SOL    HW225059   3.066   3.234   6.464
 8054SOL     OW25060   5.364   4.062   4.953
 8054SOL    HW125061   5.442   4.098   4.901
 8054SOL    HW225062   5.396   3.990   5.014
 8055SOL     OW25063   0.447   0.696   5.333
 8055SOL    HW125064   0.473   0.602   5.357
 8055SOL    HW225065   0.434   0.749   5.417
 8056SOL     OW25066   2.669   0.326   3.425
 8056SOL    HW125067   2.728   0.258   3.382
 8056SOL    HW225068   2.725   0.396   3.468
 8057SOL     OW25069   2.083   2.286   1.611
 8057SOL    HW125070   2.166   2.243   1.648
 8057SOL    HW225071   2.020   2.214   1.580
 8058SOL     OW25072   3.047   6.888   3.608
 8058SOL    HW125073   3.082   6.970   3.562
 8058SOL    HW225074   2.964   6.856   3.562
 8059SOL     OW25075   2.636   2.184   6.188
 8059SOL    HW125076   2.674   2.120   6.121
 8059SOL    HW225077   2.606   2.267   6.141
 8060SOL     OW25078   6.480   0.541   6.361
 8060SOL    HW125079   6.477   0.465   6.296
 8060SOL    HW225080   6.574   0.555   6.391
 8061SOL     OW25081   0.541   0.877   1.905
 8061SOL    HW125082   0.610   0.884   1.834
 8061SOL    HW225083   0.454   0.911   1.871
 8062SOL     OW25084   4.140   5.587   4.991
 8062SOL    HW125085   4.133   5.494   4.955
 8062SOL    HW225086   4.082   5.648   4.936
 8063SOL     OW25087   3.486   0.546   2.978
 8063SOL    HW125088   3.554   0.521   2.909
 8063SOL    HW225089   3.413   0.599   2.936
 8064SOL     OW25090   6.240   3.585   0.119
 8064SOL    HW125091   6.255   3.641   0.201
 8064SOL    HW225092   6.320   3.589   0.060
 8065SOL     OW25093   3.699   6.899   4.810
 8065SOL    HW125094   3.629   6.866   4.747
 8065SOL    HW225095   3.781   6.927   4.759
 8066SOL     OW25096   6.740   1.239   4.760
 8066SOL    HW125097   6.703   1.331   4.773
 8066SOL    HW225098   6.677   1.186   4.703
 8067SOL     OW25099   5.182   3.045   3.787
 8067SOL    HW125100   5.186   3.107   3.865
 8067SOL    HW225101   5.272   3.042   3.742
 8068SOL     OW25102   0.275   4.438   1.544
 8068SOL    HW125103   0.210   4.372   1.505
 8068SOL    HW225104   0.366   4.421   1.506
 8069SOL     OW25105   2.985   5.182   2.433
 8069SOL    HW125106   2.908   5.174   2.497
 8069SOL    HW225107   3.025   5.091   2.418
 8070SOL     OW25108   4.507   4.563   0.753
 8070SOL    HW125109   4.541   4.507   0.677
 8070SOL    HW225110   4.458   4.642   0.717
 8071SOL     OW25111   4.078   6.730   5.662
 8071SOL    HW125112   4.150   6.691   5.718
 8071SOL    HW225113   4.116   6.803   5.605
 8072SOL     OW25114   2.346   3.154   6.938
 8072SOL    HW125115   2.440   3.155   6.970
 8072SOL    HW225116   2.315   3.248   6.922
 8073SOL     OW25117   2.762   0.219   6.655
 8073SOL    HW125118   2.833   0.149   6.665
 8073SOL    HW225119   2.803   0.304   6.622
 8074SOL     OW25120   1.692   2.107   0.592
 8074SOL    HW125121   1.659   2.162   0.515
 8074SOL    HW225122   1.729   2.020   0.557
 8075SOL     OW25123   6.921   6.280   6.825
 8075SOL    HW125124   7.015   6.309   6.809
 8075SOL    HW225125   6.865   6.304   6.746
 8076SOL     OW25126   0.063   0.167   6.815
 8076SOL    HW125127   0.104   0.138   6.901
 8076SOL    HW225128   0.015   0.090   6.773
 8077SOL     OW25129   3.967   5.767   2.003
 8077SOL    HW125130   3.890   5.786   1.942
 8077SOL    HW225131   4.001   5.854   2.041
 8078SOL     OW25132   1.272   1.449   0.930
 8078SOL    HW125133   1.215   1.403   0.861
 8078SOL    HW225134   1.219   1.519   0.976
 8079SOL     OW25135   0.806   1.212   4.392
 8079SOL    HW125136   0.888   1.156   4.373
 8079SOL    HW225137   0.829   1.281   4.461
 8080SOL     OW25138   1.015   3.307   2.376
 8080SOL    HW125139   0.994   3.241   2.449
 8080SOL    HW225140   1.060   3.387   2.416
 8081SOL     OW25141   5.661   4.589   4.944
 8081SOL    HW125142   5.740   4.534   4.917
 8081SOL    HW225143   5.656   4.671   4.888
 8082SOL     OW25144   2.491   1.151   2.377
 8082SOL    HW125145   2.529   1.217   2.442
 8082SOL    HW225146   2.534   1.163   2.288
 8083SOL     OW25147   5.208   2.394   4.442
 8083SOL    HW125148   5.232   2.320   4.505
 8083SOL    HW225149   5.238   2.370   4.350
 8084SOL     OW25150   1.932   0.346   5.928
 8084SOL    HW125151   2.026   0.379   5.922
 8084SOL    HW225152   1.931   0.259   5.978
 8085SOL     OW25153   0.573   5.808   3.293
 8085SOL    HW125154   0.649   5.755   3.331
 8085SOL    HW225155   0.521   5.751   3.230
 8086SOL     OW25156   0.590   1.116   1.621
 8086SOL    HW125157   0.534   1.088   1.543
 8086SOL    HW225158   0.553   1.200   1.661
 8087SOL     OW25159   0.825   0.734   6.848
 8087SOL    HW125160   0.909   0.710   6.896
 8087SOL    HW225161   0.760   0.658   6.853
 8088SOL     OW25162   5.461   6.690   6.362
 8088SOL    HW125163   5.459   6.755   6.287
 8088SOL    HW225164   5.375   6.639   6.365
 8089SOL     OW25165   5.850   2.964   6.326
 8089SOL    HW125166   5.943   2.930   6.311
 8089SOL    HW225167   5.785   2.888   6.318
 8090SOL     OW25168   3.950   1.840   6.907
 8090SOL    HW125169   3.942   1.748   6.870
 8090SOL    HW225170   3.862   1.887   6.901
 8091SOL     OW25171   1.700   4.516   4.345
 8091SOL    HW125172   1.694   4.438   4.283
 8091SOL    HW225173   1.639   4.589   4.313
 8092SOL     OW25174   4.630   1.857   5.313
 8092SOL    HW125175   4.689   1.890   5.239
 8092SOL    HW225176   4.650   1.761   5.331
 8093SOL     OW25177   3.149   5.962   3.081
 8093SOL    HW125178   3.205   5.909   3.018
 8093SOL    HW225179   3.053   5.957   3.053
 8094SOL     OW25180   1.467   3.715   4.746
 8094SOL    HW125181   1.497   3.779   4.817
 8094SOL    HW225182   1.397   3.655   4.784
 8095SOL     OW25183   1.397   4.339   5.410
 8095SOL    HW125184   1.406   4.316   5.313
 8095SOL    HW225185   1.388   4.438   5.419
 8096SOL     OW25186   1.429   0.031   2.141
 8096SOL    HW125187   1.393   0.122   2.159
 8096SOL    HW225188   1.525   0.026   2.170
 8097SOL     OW25189   3.539   0.131   5.362
 8097SOL    HW125190   3.568   0.080   5.281
 8097SOL    HW225191   3.444   0.159   5.353
 8098SOL     OW25192   0.533   6.154   3.965
 8098SOL    HW125193   0.574   6.065   3.941
 8098SOL    HW225194   0.585   6.196   4.039
 8099SOL     OW25195   4.080   5.552   3.787
 8099SOL    HW125196   4.004   5.510   3.835
 8099SOL    HW225197   4.094   5.645   3.822
 8100SOL     OW25198   5.906   1.265   6.191
 8100SOL    HW125199   5.950   1.190   6.241
 8100SOL    HW225200   5.822   1.232   6.149
 8101SOL     OW25201   2.605   5.656   0.553
 8101SOL    HW125202   2.695   5.699   0.543
 8101SOL    HW225203   2.537   5.711   0.505
 8102SOL     OW25204   1.266   3.377   4.764
 8102SOL    HW125205   1.217   3.465   4.763
 8102SOL    HW225206   1.279   3.345   4.671
 8103SOL     OW25207   3.656   0.898   2.320
 8103SOL    HW125208   3.746   0.938   2.304
 8103SOL    HW225209   3.661   0.833   2.397
 8104SOL     OW25210   1.699   6.673   5.772
 8104SOL    HW125211   1.694   6.634   5.864
 8104SOL    HW225212   1.774   6.630   5.722
 8105SOL     OW25213   0.006   2.112   3.028
 8105SOL    HW125214   6.992   2.152   2.946
 8105SOL    HW225215   0.082   2.052   3.003
 8106SOL     OW25216   2.840   6.550   4.114
 8106SOL    HW125217   2.851   6.636   4.064
 8106SOL    HW225218   2.878   6.561   4.206
 8107SOL     OW25219   1.623   5.852   4.465
 8107SOL    HW125220   1.614   5.804   4.553
 8107SOL    HW225221   1.714   5.893   4.459
 8108SOL     OW25222   6.734   1.356   6.613
 8108SOL    HW125223   6.727   1.451   6.644
 8108SOL    HW225224   6.824   1.321   6.637
 8109SOL     OW25225   6.842   3.487   6.571
 8109SOL    HW125226   6.934   3.451   6.553
 8109SOL    HW225227   6.807   3.449   6.656
 8110SOL     OW25228   4.038   4.660   1.232
 8110SOL    HW125229   4.047   4.752   1.271
 8110SOL    HW225230   4.023   4.667   1.134
 8111SOL     OW25231   5.674   0.954   3.568
 8111SOL    HW125232   5.700   1.012   3.645
 8111SOL    HW225233   5.575   0.938   3.569
 8112SOL     OW25234   0.468   3.009   4.906
 8112SOL    HW125235   0.567   3.012   4.919
 8112SOL    HW225236   0.421   3.027   4.992
 8113SOL     OW25237   6.674   2.976   1.357
 8113SOL    HW125238   6.593   2.928   1.321
 8113SOL    HW225239   6.658   3.075   1.354
 8114SOL     OW25240   1.265   4.537   2.377
 8114SOL    HW125241   1.298   4.599   2.305
 8114SOL    HW225242   1.245   4.448   2.337
 8115SOL     OW25243   2.861   6.836   6.412
 8115SOL    HW125244   2.959   6.849   6.401
 8115SOL    HW225245   2.843   6.747   6.454
 8116SOL     OW25246   3.916   5.547   0.638
 8116SOL    HW125247   3.958   5.459   0.615
 8116SOL    HW225248   3.877   5.543   0.729
 8117SOL     OW25249   2.429   6.684   3.038
 8117SOL    HW125250   2.357   6.636   3.088
 8117SOL    HW225251   2.389   6.759   2.985
 8118SOL     OW25252   6.363   4.380   6.520
 8118SOL    HW125253   6.276   4.353   6.478
 8118SOL    HW225254   6.391   4.311   6.586
 8119SOL     OW25255   5.015   6.334   6.268
 8119SOL    HW125256   4.936   6.359   6.211
 8119SOL    HW225257   5.078   6.278   6.214
 8120SOL     OW25258   2.325   5.348   0.407
 8120SOL    HW125259   2.300   5.254   0.427
 8120SOL    HW225260   2.257   5.410   0.447
 8121SOL     OW25261   1.071   4.086   2.990
 8121SOL    HW125262   1.112   4.009   3.039
 8121SOL    HW225263   1.143   4.136   2.941
 8122SOL     OW25264   1.016   4.446   2.751
 8122SOL    HW125265   1.012   4.394   2.836
 8122SOL    HW225266   1.092   4.413   2.695
 8123SOL     OW25267   0.993   1.675   6.995
 8123SOL    HW125268   1.032   1.625   0.047
 8123SOL    HW225269   1.026   1.634   6.910
 8124SOL     OW25270   5.639   6.286   4.104
 8124SOL    HW125271   5.573   6.342   4.154
 8124SOL    HW225272   5.594   6.245   4.025
 8125SOL     OW25273   0.805   0.842   3.013
 8125SOL    HW125274   0.801   0.786   3.096
 8125SOL    HW225275   0.741   0.918   3.021
 8126SOL     OW25276   4.464   4.983   3.686
 8126SOL    HW125277   4.494   4.996   3.591
 8126SOL    HW225278   4.543   4.964   3.744
 8127SOL     OW25279   2.747   2.427   0.014
 8127SOL    HW125280   2.741   2.354   0.081
 8127SOL    HW225281   2.792   2.393   6.957
 8128SOL     OW25282   3.216   2.318   1.426
 8128SOL    HW125283   3.217   2.251   1.500
 8128SOL    HW225284   3.221   2.410   1.464
 8129SOL     OW25285   1.584   2.057   0.175
 8129SOL    HW125286   1.558   1.967   0.212
 8129SOL    HW225287   1.669   2.048   0.123
 8130SOL     OW25288   1.546   5.863   0.074
 8130SOL    HW125289   1.450   5.838   0.075
 8130SOL    HW225290   1.602   5.783   0.051
 8131SOL     OW25291   2.839   2.598   1.061
 8131SOL    HW125292   2.898   2.635   0.989
 8131SOL    HW225293   2.852   2.651   1.144
 8132SOL     OW25294   6.456   6.947   4.127
 8132SOL    HW125295   6.410   7.023   4.174
 8132SOL    HW225296   6.492   6.883   4.195
 8133SOL     OW25297   4.119   5.462   2.365
 8133SOL    HW125298   4.121   5.538   2.429
 8133SOL    HW225299   4.132   5.376   2.414
 8134SOL     OW25300   6.215   1.134   5.980
 8134SOL    HW125301   6.210   1.216   6.037
 8134SOL    HW225302   6.161   1.061   6.022
 8135SOL     OW25303   2.035   0.730   1.974
 8135SOL    HW125304   2.018   0.827   1.992
 8135SOL    HW225305   2.025   0.713   1.876
 8136SOL     OW25306   5.465   5.373   2.865
 8136SOL    HW125307   5.532   5.373   2.791
 8136SOL    HW225308   5.499   5.317   2.941
 8137SOL     OW25309   2.857   1.067   5.217
 8137SOL    HW125310   2.848   0.987   5.158
 8137SOL    HW225311   2.915   1.135   5.173
 8138SOL     OW25312   5.374   1.103   1.052
 8138SOL    HW125313   5.464   1.078   1.088
 8138SOL    HW225314   5.378   1.104   0.952
 8139SOL     OW25315   0.302   1.427   2.465
 8139SOL    HW125316   0.217   1.447   2.513
 8139SOL    HW225317   0.282   1.386   2.377
 8140SOL     OW25318   4.285   1.300   4.504
 8140SOL    HW125319   4.362   1.363   4.492
 8140SOL    HW225320   4.249   1.273   4.415
 8141SOL     OW25321   3.718   5.200   5.564
 8141SOL    HW125322   3.676   5.219   5.653
 8141SOL    HW225323   3.714   5.282   5.507
 8142SOL     OW25324   6.082   4.458   0.580
 8142SOL    HW125325   5.986   4.431   0.592
 8142SOL    HW225326   6.089   4.557   0.578
 8143SOL     OW25327   6.077   4.331   6.046
 8143SOL    HW125328   6.086   4.362   5.951
 8143SOL    HW225329   6.103   4.404   6.108
 8144SOL     OW25330   5.274   0.000   6.915
 8144SOL    HW125331   5.272   0.059   6.996
 8144SOL    HW225332   5.366   6.988   6.904
 8145SOL     OW25333   6.127   5.903   2.467
 8145SOL    HW125334   6.138   5.805   2.480
 8145SOL    HW225335   6.031   5.923   2.445
 8146SOL     OW25336   3.510   1.022   5.670
 8146SOL    HW125337   3.537   1.115   5.692
 8146SOL    HW225338   3.492   1.015   5.571
 8147SOL     OW25339   5.226   1.547   3.470
 8147SOL    HW125340   5.169   1.594   3.402
 8147SOL    HW225341   5.228   1.600   3.554
 8148SOL     OW25342   5.590   2.975   2.725
 8148SOL    HW125343   5.540   3.061   2.736
 8148SOL    HW225344   5.525   2.900   2.709
 8149SOL     OW25345   3.206   5.632   2.459
 8149SOL    HW125346   3.285   5.612   2.516
 8149SOL    HW225347   3.135   5.563   2.475
 8150SOL     OW25348   0.055   5.014   0.851
 8150SOL    HW125349   0.097   5.098   0.818
 8150SOL    HW225350   0.065   4.942   0.782
 8151SOL     OW25351   0.840   2.192   3.440
 8151SOL    HW125352   0.902   2.146   3.503
 8151SOL    HW225353   0.766   2.235   3.491
 8152SOL     OW25354   2.001   1.434   3.044
 8152SOL    HW125355   2.081   1.423   3.103
 8152SOL    HW225356   2.031   1.445   2.950
 8153SOL     OW25357   2.910   0.221   2.184
 8153SOL    HW125358   2.824   0.228   2.235
 8153SOL    HW225359   2.912   0.135   2.133
 8154SOL     OW25360   2.460   6.451   4.121
 8154SOL    HW125361   2.531   6.394   4.079
 8154SOL    HW225362   2.453   6.428   4.218
 8155SOL     OW25363   3.092   3.050   2.079
 8155SOL    HW125364   3.162   3.026   2.146
 8155SOL    HW225365   3.094   2.983   2.004
 8156SOL     OW25366   5.342   0.528   4.916
 8156SOL    HW125367   5.375   0.583   4.839
 8156SOL    HW225368   5.387   0.556   5.000
 8157SOL     OW25369   5.840   4.361   6.718
 8157SOL    HW125370   5.928   4.314   6.713
 8157SOL    HW225371   5.789   4.329   6.798
 8158SOL     OW25372   1.454   5.686   1.388
 8158SOL    HW125373   1.459   5.680   1.488
 8158SOL    HW225374   1.378   5.631   1.355
 8159SOL     OW25375   1.984   5.213   2.253
 8159SOL    HW125376   2.069   5.163   2.238
 8159SOL    HW225377   1.997   5.277   2.329
 8160SOL     OW25378   5.010   2.108   0.978
 8160SOL    HW125379   4.916   2.112   1.014
 8160SOL    HW225380   5.047   2.200   0.972
 8161SOL     OW25381   4.381   0.787   0.591
 8161SOL    HW125382   4.428   0.739   0.666
 8161SOL    HW225383   4.429   0.871   0.571
 8162SOL     OW25384   6.120   0.246   1.172
 8162SOL    HW125385   6.102   0.234   1.074
 8162SOL    HW225386   6.034   0.247   1.222
 8163SOL     OW25387   2.608   4.355   5.440
 8163SOL    HW125388   2.512   4.376   5.421
 8163SOL    HW225389   2.641   4.287   5.374
 8164SOL     OW25390   5.381   2.673   1.446
 8164SOL    HW125391   5.380   2.661   1.546
 8164SOL    HW225392   5.351   2.589   1.402
 8165SOL     OW25393   1.987   4.491   1.090
 8165SOL    HW125394   1.965   4.581   1.129
 8165SOL    HW225395   1.939   4.420   1.140
 8166SOL     OW25396   2.248   0.556   2.091
 8166SOL    HW125397   2.189   0.633   2.068
 8166SOL    HW225398   2.336   0.590   2.122
 8167SOL     OW25399   6.003   2.579   3.411
 8167SOL    HW125400   6.087   2.561   3.463
 8167SOL    HW225401   5.933   2.513   3.438
 8168SOL     OW25402   3.508   1.315   3.034
 8168SOL    HW125403   3.467   1.226   3.013
 8168SOL    HW225404   3.537   1.316   3.130
 8169SOL     OW25405   4.360   3.933   0.535
 8169SOL    HW125406   4.442   3.938   0.593
 8169SOL    HW225407   4.293   4.000   0.566
 8170SOL     OW25408   0.957   5.962   3.986
 8170SOL    HW125409   1.031   5.943   3.921
 8170SOL    HW225410   0.875   5.990   3.936
 8171SOL     OW25411   0.366   1.575   6.310
 8171SOL    HW125412   0.442   1.573   6.244
 8171SOL    HW225413   0.282   1.544   6.265
 8172SOL     OW25414   0.134   0.046   0.481
 8172SOL    HW125415   0.170   7.017   0.557
 8172SOL    HW225416   0.046   0.084   0.506
 8173SOL     OW25417   3.821   2.488   6.829
 8173SOL    HW125418   3.808   2.462   6.734
 8173SOL    HW225419   3.878   2.570   6.834
 8174SOL     OW25420   5.622   1.767   0.759
 8174SOL    HW125421   5.638   1.675   0.796
 8174SOL    HW225422   5.707   1.819   0.761
 8175SOL     OW25423   6.946   2.291   6.341
 8175SOL    HW125424   0.004   2.338   6.312
 8175SOL    HW225425   6.866   2.347   6.318
 8176SOL     OW25426   2.730   5.636   1.995
 8176SOL    HW125427   2.651   5.660   2.052
 8176SOL    HW225428   2.807   5.612   2.054
 8177SOL     OW25429   1.088   6.773   4.213
 8177SOL    HW125430   1.121   6.861   4.177
 8177SOL    HW225431   0.998   6.753   4.175
 8178SOL     OW25432   2.157   6.878   6.147
 8178SOL    HW125433   2.071   6.848   6.189
 8178SOL    HW225434   2.193   6.957   6.197
 8179SOL     OW25435   3.169   2.823   0.320
 8179SOL    HW125436   3.240   2.772   0.370
 8179SOL    HW225437   3.213   2.892   0.262
 8180SOL     OW25438   0.423   6.853   4.301
 8180SOL    HW125439   0.372   6.844   4.215
 8180SOL    HW225440   0.518   6.827   4.286
 8181SOL     OW25441   2.759   1.948   2.776
 8181SOL    HW125442   2.754   1.861   2.728
 8181SOL    HW225443   2.773   2.022   2.711
 8182SOL     OW25444   3.065   2.115   5.984
 8182SOL    HW125445   3.063   2.145   5.889
 8182SOL    HW225446   3.159   2.115   6.017
 8183SOL     OW25447   0.963   3.644   5.172
 8183SOL    HW125448   0.958   3.710   5.247
 8183SOL    HW225449   0.976   3.552   5.209
 8184SOL     OW25450   0.078   0.714   5.387
 8184SOL    HW125451   0.064   0.742   5.292
 8184SOL    HW225452   0.036   0.781   5.449
 8185SOL     OW25453   3.144   1.244   2.141
 8185SOL    HW125454   3.046   1.261   2.157
 8185SOL    HW225455   3.175   1.303   2.066
 8186SOL     OW25456   3.275   5.875   5.655
 8186SOL    HW125457   3.221   5.959   5.662
 8186SOL    HW225458   3.228   5.810   5.595
 8187SOL     OW25459   1.467   2.106   5.489
 8187SOL    HW125460   1.466   2.009   5.514
 8187SOL    HW225461   1.482   2.162   5.571
 8188SOL     OW25462   5.787   2.157   2.593
 8188SOL    HW125463   5.776   2.060   2.568
 8188SOL    HW225464   5.697   2.197   2.609
 8189SOL     OW25465   5.575   4.429   2.420
 8189SOL    HW125466   5.589   4.344   2.369
 8189SOL    HW225467   5.589   4.507   2.360
 8190SOL     OW25468   5.185   3.325   3.560
 8190SOL    HW125469   5.202   3.383   3.640
 8190SOL    HW225470   5.090   3.337   3.531
 8191SOL     OW25471   0.851   5.477   3.586
 8191SOL    HW125472   0.927   5.412   3.589
 8191SOL    HW225473   0.837   5.515   3.678
 8192SOL     OW25474   2.475   5.600   2.129
 8192SOL    HW125475   2.533   5.533   2.175
 8192SOL    HW225476   2.413   5.553   2.066
 8193SOL     OW25477   4.854   6.646   5.022
 8193SOL    HW125478   4.923   6.683   5.083
 8193SOL    HW225479   4.785   6.596   5.076
 8194SOL     OW25480   6.465   1.101   6.829
 8194SOL    HW125481   6.463   1.173   6.760
 8194SOL    HW225482   6.557   1.095   6.869
 8195SOL     OW25483   6.697   6.886   0.024
 8195SOL    HW125484   6.703   6.949   6.973
 8195SOL    HW225485   6.754   6.806   0.006
 8196SOL     OW25486   3.533   6.501   6.388
 8196SOL    HW125487   3.532   6.580   6.450
 8196SOL    HW225488   3.528   6.534   6.293
 8197SOL     OW25489   6.675   0.819   6.431
 8197SOL    HW125490   6.599   0.778   6.483
 8197SOL    HW225491   6.638   0.880   6.361
 8198SOL     OW25492   2.694   6.614   3.118
 8198SOL    HW125493   2.612   6.670   3.103
 8198SOL    HW225494   2.772   6.658   3.074
 8199SOL     OW25495   0.212   3.599   0.177
 8199SOL    HW125496   0.133   3.539   0.181
 8199SOL    HW225497   0.260   3.585   0.090
 8200SOL     OW25498   4.812   4.010   1.604
 8200SOL    HW125499   4.753   4.080   1.644
 8200SOL    HW225500   4.901   4.051   1.582
 8201SOL     OW25501   5.623   0.028   3.690
 8201SOL    HW125502   5.584   0.107   3.642
 8201SOL    HW225503   5.694   0.059   3.754
 8202SOL     OW25504   1.423   4.751   3.182
 8202SOL    HW125505   1.520   4.757   3.207
 8202SOL    HW225506   1.379   4.840   3.199
 8203SOL     OW25507   5.288   4.043   1.765
 8203SOL    HW125508   5.349   4.026   1.843
 8203SOL    HW225509   5.323   4.120   1.711
 8204SOL     OW25510   3.338   6.621   2.768
 8204SOL    HW125511   3.437   6.603   2.767
 8204SOL    HW225512   3.304   6.615   2.862
 8205SOL     OW25513   5.838   5.261   1.799
 8205SOL    HW125514   5.779   5.340   1.784
 8205SOL    HW225515   5.916   5.289   1.855
 8206SOL     OW25516   4.270   2.347   5.415
 8206SOL    HW125517   4.329   2.311   5.487
 8206SOL    HW225518   4.188   2.387   5.456
 8207SOL     OW25519   3.466   5.066   6.142
 8207SOL    HW125520   3.563   5.045   6.152
 8207SOL    HW225521   3.412   4.985   6.162
 8208SOL     OW25522   1.813   4.971   1.646
 8208SOL    HW125523   1.885   4.975   1.576
 8208SOL    HW225524   1.809   5.059   1.694
 8209SOL     OW25525   1.403   0.644   5.174
 8209SOL    HW125526   1.489   0.639   5.224
 8209SOL    HW225527   1.328   0.661   5.238
 8210SOL     OW25528   2.066   1.431   0.219
 8210SOL    HW125529   2.148   1.430   0.276
 8210SOL    HW225530   2.091   1.449   0.124
 8211SOL     OW25531   3.006   3.241   4.628
 8211SOL    HW125532   3.003   3.336   4.661
 8211SOL    HW225533   3.018   3.179   4.705
 8212SOL     OW25534   2.296   0.058   1.400
 8212SOL    HW125535   2.250   0.118   1.335
 8212SOL    HW225536   2.229   0.003   1.449
 8213SOL     OW25537   4.250   4.444   1.746
 8213SOL    HW125538   4.234   4.514   1.815
 8213SOL    HW225539   4.301   4.368   1.787
 8214SOL     OW25540   3.088   5.859   4.256
 8214SOL    HW125541   2.998   5.836   4.293
 8214SOL    HW225542   3.150   5.882   4.330
 8215SOL     OW25543   3.960   6.330   6.905
 8215SOL    HW125544   3.988   6.325   6.809
 8215SOL    HW225545   4.006   6.406   6.949
 8216SOL     OW25546   4.682   6.054   1.962
 8216SOL    HW125547   4.781   6.064   1.960
 8216SOL    HW225548   4.647   6.036   1.870
 8217SOL     OW25549   2.900   5.352   3.654
 8217SOL    HW125550   2.846   5.366   3.737
 8217SOL    HW225551   2.854   5.287   3.595
 8218SOL     OW25552   1.652   0.398   4.893
 8218SOL    HW125553   1.692   0.482   4.930
 8218SOL    HW225554   1.723   0.328   4.884
 8219SOL     OW25555   3.915   3.902   0.481
 8219SOL    HW125556   3.948   3.811   0.458
 8219SOL    HW225557   3.945   3.967   0.410
 8220SOL     OW25558   3.776   3.816   4.614
 8220SOL    HW125559   3.855   3.874   4.635
 8220SOL    HW225560   3.715   3.813   4.693
 8221SOL     OW25561   6.522   3.366   3.472
 8221SOL    HW125562   6.618   3.350   3.496
 8221SOL    HW225563   6.466   3.289   3.504
 8222SOL     OW25564   6.349   2.850   1.438
 8222SOL    HW125565   6.413   2.881   1.508
 8222SOL    HW225566   6.397   2.795   1.370
 8223SOL     OW25567   0.248   5.937   5.197
 8223SOL    HW125568   0.232   5.890   5.111
 8223SOL    HW225569   0.336   5.984   5.194
 8224SOL     OW25570   5.412   2.287   0.230
 8224SOL    HW125571   5.380   2.373   0.270
 8224SOL    HW225572   5.463   2.236   0.299
 8225SOL     OW25573   5.023   1.899   0.435
 8225SOL    HW125574   5.077   1.843   0.498
 8225SOL    HW225575   4.983   1.976   0.485
 8226SOL     OW25576   3.511   0.213   0.553
 8226SOL    HW125577   3.587   0.148   0.557
 8226SOL    HW225578   3.496   0.241   0.458
 8227SOL     OW25579   5.039   2.072   2.615
 8227SOL    HW125580   4.965   2.088   2.551
 8227SOL    HW225581   5.004   2.077   2.709
 8228SOL     OW25582   1.604   1.072   5.348
 8228SOL    HW125583   1.562   1.054   5.437
 8228SOL    HW225584   1.535   1.112   5.287
 8229SOL     OW25585   4.049   4.671   0.939
 8229SOL    HW125586   4.096   4.584   0.954
 8229SOL    HW225587   3.964   4.655   0.889
 8230SOL     OW25588   4.094   1.140   5.891
 8230SOL    HW125589   4.140   1.228   5.887
 8230SOL    HW225590   4.126   1.082   5.816
 8231SOL     OW25591   2.695   1.435   2.763
 8231SOL    HW125592   2.768   1.503   2.755
 8231SOL    HW225593   2.684   1.387   2.677
 8232SOL     OW25594   4.282   6.477   2.352
 8232SOL    HW125595   4.195   6.450   2.393
 8232SOL    HW225596   4.320   6.400   2.302
 8233SOL     OW25597   0.697   0.715   5.078
 8233SOL    HW125598   0.617   0.660   5.102
 8233SOL    HW225599   0.753   0.667   5.011
 8234SOL     OW25600   2.180   2.528   0.248
 8234SOL    HW125601   2.140   2.511   0.158
 8234SOL    HW225602   2.275   2.558   0.237
 8235SOL     OW25603   6.912   5.807   0.626
 8235SOL    HW125604   6.836   5.823   0.688
 8235SOL    HW225605   6.877   5.784   0.535
 8236SOL     OW25606   0.977   6.601   6.842
 8236SOL    HW125607   1.058   6.631   6.893
 8236SOL    HW225608   0.975   6.501   6.840
 8237SOL     OW25609   4.515   5.386   6.588
 8237SOL    HW125610   4.502   5.480   6.557
 8237SOL    HW225611   4.612   5.362   6.583
 8238SOL     OW25612   1.734   4.635   0.841
 8238SOL    HW125613   1.654   4.616   0.897
 8238SOL    HW225614   1.796   4.557   0.844
 8239SOL     OW25615   0.698   1.753   5.108
 8239SOL    HW125616   0.696   1.797   5.198
 8239SOL    HW225617   0.605   1.750   5.072
 8240SOL     OW25618   3.586   3.874   4.841
 8240SOL    HW125619   3.553   3.872   4.935
 8240SOL    HW225620   3.556   3.792   4.793
 8241SOL     OW25621   2.202   4.167   6.450
 8241SOL    HW125622   2.172   4.185   6.356
 8241SOL    HW225623   2.139   4.104   6.494
 8242SOL     OW25624   0.420   3.202   4.277
 8242SOL    HW125625   0.341   3.148   4.250
 8242SOL    HW225626   0.393   3.270   4.345
 8243SOL     OW25627   0.836   4.926   4.698
 8243SOL    HW125628   0.921   4.944   4.649
 8243SOL    HW225629   0.854   4.867   4.776
 8244SOL     OW25630   1.530   0.227   3.643
 8244SOL    HW125631   1.551   0.315   3.602
 8244SOL    HW225632   1.517   0.158   3.572
 8245SOL     OW25633   5.555   1.577   3.883
 8245SOL    HW125634   5.606   1.556   3.800
 8245SOL    HW225635   5.487   1.506   3.899
 8246SOL     OW25636   1.359   4.475   6.574
 8246SOL    HW125637   1.347   4.559   6.627
 8246SOL    HW225638   1.410   4.409   6.628
 8247SOL     OW25639   3.295   5.538   3.138
 8247SOL    HW125640   3.361   5.478   3.093
 8247SOL    HW225641   3.230   5.573   3.071
 8248SOL     OW25642   0.905   5.519   3.107
 8248SOL    HW125643   0.850   5.533   3.190
 8248SOL    HW225644   0.906   5.604   3.055
 8249SOL     OW25645   2.640   1.814   6.184
 8249SOL    HW125646   2.708   1.846   6.249
 8249SOL    HW225647   2.657   1.856   6.095
 8250SOL     OW25648   1.891   1.430   6.345
 8250SOL    HW125649   1.981   1.434   6.302
 8250SOL    HW225650   1.861   1.522   6.370
 8251SOL     OW25651   6.954   2.297   4.669
 8251SOL    HW125652   6.925   2.220   4.726
 8251SOL    HW225653   6.945   2.272   4.573
 8252SOL     OW25654   1.820   2.214   6.737
 8252SOL    HW125655   1.827   2.252   6.645
 8252SOL    HW225656   1.833   2.286   6.804
 8253SOL     OW25657   3.916   5.927   0.591
 8253SOL    HW125658   3.910   6.026   0.593
 8253SOL    HW225659   3.998   5.897   0.641
 8254SOL     OW25660   5.374   5.223   6.917
 8254SOL    HW125661   5.355   5.299   6.855
 8254SOL    HW225662   5.467   5.189   6.900
 8255SOL     OW25663   0.592   6.265   6.333
 8255SOL    HW125664   0.548   6.264   6.244
 8255SOL    HW225665   0.690   6.281   6.322
 8256SOL     OW25666   2.006   5.823   3.228
 8256SOL    HW125667   1.992   5.761   3.305
 8256SOL    HW225668   1.920   5.836   3.179
 8257SOL     OW25669   4.852   3.853   3.566
 8257SOL    HW125670   4.842   3.788   3.492
 8257SOL    HW225671   4.770   3.851   3.624
 8258SOL     OW25672   6.745   3.247   2.108
 8258SOL    HW125673   6.675   3.284   2.170
 8258SOL    HW225674   6.745   3.300   2.024
 8259SOL     OW25675   4.351   1.299   3.706
 8259SOL    HW125676   4.268   1.272   3.755
 8259SOL    HW225677   4.391   1.379   3.750
 8260SOL     OW25678   3.744   0.903   1.327
 8260SOL    HW125679   3.768   0.809   1.349
 8260SOL    HW225680   3.820   0.964   1.349
 8261SOL     OW25681   5.314   7.023   3.074
 8261SOL    HW125682   5.298   0.060   2.998
 8261SOL    HW225683   5.242   0.007   3.142
 8262SOL     OW25684   6.561   4.171   2.008
 8262SOL    HW125685   6.595   4.078   1.992
 8262SOL    HW225686   6.524   4.177   2.100
 8263SOL     OW25687   0.529   2.350   6.008
 8263SOL    HW125688   0.567   2.436   6.042
 8263SOL    HW225689   0.595   2.276   6.022
 8264SOL     OW25690   2.363   6.347   2.636
 8264SOL    HW125691   2.286   6.299   2.677
 8264SOL    HW225692   2.346   6.446   2.640
 8265SOL     OW25693   5.724   1.012   0.212
 8265SOL    HW125694   5.672   1.013   0.127
 8265SOL    HW225695   5.676   1.067   0.280
 8266SOL     OW25696   2.409   0.416   3.144
 8266SOL    HW125697   2.397   0.414   3.045
 8266SOL    HW225698   2.433   0.508   3.174
 8267SOL     OW25699   1.590   3.991   3.215
 8267SOL    HW125700   1.635   4.080   3.206
 8267SOL    HW225701   1.539   3.971   3.132
 8268SOL     OW25702   3.002   4.813   6.435
 8268SOL    HW125703   2.989   4.791   6.338
 8268SOL    HW225704   3.100   4.807   6.457
 8269SOL     OW25705   4.878   2.271   3.393
 8269SOL    HW125706   4.850   2.346   3.332
 8269SOL    HW225707   4.977   2.264   3.393
 8270SOL     OW25708   3.367   0.428   6.141
 8270SOL    HW125709   3.413   0.513   6.165
 8270SOL    HW225710   3.277   0.448   6.102
 8271SOL     OW25711   3.949   6.450   5.639
 8271SOL    HW125712   3.992   6.541   5.634
 8271SOL    HW225713   3.885   6.448   5.715
 8272SOL     OW25714   0.882   0.044   1.430
 8272SOL    HW125715   0.898   0.013   1.524
 8272SOL    HW225716   0.888   0.144   1.426
 8273SOL     OW25717   3.041   0.005   0.020
 8273SOL    HW125718   2.947   6.996   0.014
 8273SOL    HW225719   3.087   6.988   0.097
 8274SOL     OW25720   5.003   6.359   6.529
 8274SOL    HW125721   5.050   6.285   6.578
 8274SOL    HW225722   5.032   6.360   6.434
 8275SOL     OW25723   6.007   0.944   4.363
 8275SOL    HW125724   5.949   0.991   4.430
 8275SOL    HW225725   5.979   0.970   4.271
 8276SOL     OW25726   6.760   2.430   6.116
 8276SOL    HW125727   6.708   2.345   6.103
 8276SOL    HW225728   6.704   2.495   6.167
 8277SOL     OW25729   1.200   5.717   6.225
 8277SOL    HW125730   1.148   5.666   6.294
 8277SOL    HW225731   1.298   5.702   6.240
 8278SOL     OW25732   3.784   1.051   0.593
 8278SOL    HW125733   3.716   1.046   0.519
 8278SOL    HW225734   3.790   1.145   0.626
 8279SOL     OW25735   5.008   5.536   5.893
 8279SOL    HW125736   5.049   5.446   5.907
 8279SOL    HW225737   4.908   5.528   5.898
 8280SOL     OW25738   5.398   3.060   6.956
 8280SOL    HW125739   5.336   2.981   6.959
 8280SOL    HW225740   5.483   3.038   7.004
 8281SOL     OW25741   2.288   5.047   6.807
 8281SOL    HW125742   2.358   5.024   6.875
 8281SOL    HW225743   2.222   4.973   6.801
 8282SOL     OW25744   3.146   2.421   0.748
 8282SOL    HW125745   3.132   2.434   0.650
 8282SOL    HW225746   3.096   2.341   0.779
 8283SOL     OW25747   0.381   5.176   3.030
 8283SOL    HW125748   0.462   5.117   3.032
 8283SOL    HW225749   0.409   5.271   3.022
 8284SOL     OW25750   2.642   1.854   2.518
 8284SOL    HW125751   2.575   1.901   2.575
 8284SOL    HW225752   2.719   1.916   2.500
 8285SOL     OW25753   3.587   4.312   6.370
 8285SOL    HW125754   3.547   4.401   6.348
 8285SOL    HW225755   3.671   4.324   6.422
 8286SOL     OW25756   4.968   1.116   5.483
 8286SOL    HW125757   5.001   1.042   5.541
 8286SOL    HW225758   5.026   1.125   5.402
 8287SOL     OW25759   1.837   0.474   3.126
 8287SOL    HW125760   1.863   0.486   3.221
 8287SOL    HW225761   1.877   0.547   3.070
 8288SOL     OW25762   1.358   1.432   2.871
 8288SOL    HW125763   1.367   1.523   2.830
 8288SOL    HW225764   1.365   1.440   2.971
 8289SOL     OW25765   6.427   1.091   5.465
 8289SOL    HW125766   6.343   1.141   5.488
 8289SOL    HW225767   6.460   1.043   5.546
 8290SOL     OW25768   4.065   2.282   1.814
 8290SOL    HW125769   4.120   2.361   1.788
 8290SOL    HW225770   3.980   2.281   1.761
 8291SOL     OW25771   5.565   5.597   6.133
 8291SOL    HW125772   5.626   5.663   6.178
 8291SOL    HW225773   5.503   5.646   6.072
 8292SOL     OW25774   0.876   3.541   4.400
 8292SOL    HW125775   0.881   3.467   4.333
 8292SOL    HW225776   0.784   3.579   4.401
 8293SOL     OW25777   3.079   5.434   3.450
 8293SOL    HW125778   3.128   5.514   3.484
 8293SOL    HW225779   3.009   5.407   3.515
 8294SOL     OW25780   5.833   3.765   5.818
 8294SOL    HW125781   5.827   3.695   5.748
 8294SOL    HW225782   5.911   3.825   5.799
 8295SOL     OW25783   4.559   4.495   1.809
 8295SOL    HW125784   4.480   4.544   1.773
 8295SOL    HW225785   4.538   4.398   1.816
 8296SOL     OW25786   3.876   6.815   1.227
 8296SOL    HW125787   3.880   6.912   1.249
 8296SOL    HW225788   3.784   6.781   1.245
 8297SOL     OW25789   5.952   4.257   2.703
 8297SOL    HW125790   5.980   4.340   2.654
 8297SOL    HW225791   6.017   4.239   2.777
 8298SOL     OW25792   6.011   0.390   5.992
 8298SOL    HW125793   5.958   0.463   6.034
 8298SOL    HW225794   6.044   0.327   6.062
 8299SOL     OW25795   1.103   3.515   1.071
 8299SOL    HW125796   1.112   3.425   1.028
 8299SOL    HW225797   1.032   3.567   1.023
 8300SOL     OW25798   5.875   5.203   3.056
 8300SOL    HW125799   5.932   5.137   3.106
 8300SOL    HW225800   5.853   5.280   3.115
 8301SOL     OW25801   4.130   6.336   0.456
 8301SOL    HW125802   4.153   6.348   0.359
 8301SOL    HW225803   4.104   6.425   0.495
 8302SOL     OW25804   3.757   6.616   5.421
 8302SOL    HW125805   3.823   6.658   5.358
 8302SOL    HW225806   3.670   6.665   5.415
 8303SOL     OW25807   6.946   6.096   2.962
 8303SOL    HW125808   7.023   6.062   3.016
 8303SOL    HW225809   6.882   6.144   3.023
 8304SOL     OW25810   5.520   3.787   3.440
 8304SOL    HW125811   5.567   3.801   3.354
 8304SOL    HW225812   5.566   3.715   3.492
 8305SOL     OW25813   5.263   5.623   4.380
 8305SOL    HW125814   5.285   5.528   4.359
 8305SOL    HW225815   5.345   5.679   4.373
 8306SOL     OW25816   6.688   0.575   2.186
 8306SOL    HW125817   6.639   0.570   2.273
 8306SOL    HW225818   6.640   0.520   2.117
 8307SOL     OW25819   2.303   4.839   3.013
 8307SOL    HW125820   2.243   4.904   3.059
 8307SOL    HW225821   2.342   4.881   2.932
 8308SOL     OW25822   1.229   5.116   0.201
 8308SOL    HW125823   1.227   5.026   0.244
 8308SOL    HW225824   1.183   5.182   0.260
 8309SOL     OW25825   6.111   4.377   4.274
 8309SOL    HW125826   6.039   4.427   4.227
 8309SOL    HW225827   6.181   4.442   4.306
 8310SOL     OW25828   1.099   6.757   0.152
 8310SOL    HW125829   1.112   6.672   0.203
 8310SOL    HW225830   1.082   6.832   0.216
 8311SOL     OW25831   5.328   0.275   3.226
 8311SOL    HW125832   5.417   0.262   3.270
 8311SOL    HW225833   5.332   0.355   3.166
 8312SOL     OW25834   5.189   1.743   6.465
 8312SOL    HW125835   5.118   1.814   6.459
 8312SOL    HW225836   5.256   1.769   6.535
 8313SOL     OW25837   4.742   1.979   4.876
 8313SOL    HW125838   4.807   1.916   4.834
 8313SOL    HW225839   4.780   2.072   4.874
 8314SOL     OW25840   4.706   6.046   5.528
 8314SOL    HW125841   4.623   5.995   5.507
 8314SOL    HW225842   4.784   5.984   5.531
 8315SOL     OW25843   4.023   3.762   4.967
 8315SOL    HW125844   3.937   3.719   4.940
 8315SOL    HW225845   4.100   3.714   4.923
 8316SOL     OW25846   1.661   2.633   6.459
 8316SOL    HW125847   1.603   2.645   6.379
 8316SOL    HW225848   1.757   2.644   6.434
 8317SOL     OW25849   2.035   1.441   3.439
 8317SOL    HW125850   2.081   1.362   3.399
 8317SOL    HW225851   2.101   1.499   3.486
 8318SOL     OW25852   4.053   0.043   6.519
 8318SOL    HW125853   4.069   0.134   6.482
 8318SOL    HW225854   3.993   7.017   6.458
 8319SOL     OW25855   1.403   0.034   6.486
 8319SOL    HW125856   1.310   0.067   6.499
 8319SOL    HW225857   1.402   6.979   6.427
 8320SOL     OW25858   2.946   3.754   4.513
 8320SOL    HW125859   2.958   3.698   4.431
 8320SOL    HW225860   2.875   3.822   4.496
 8321SOL     OW25861   6.375   6.678   0.288
 8321SOL    HW125862   6.434   6.667   0.368
 8321SOL    HW225863   6.288   6.630   0.304
 8322SOL     OW25864   0.510   0.810   6.907
 8322SOL    HW125865   0.580   0.839   6.973
 8322SOL    HW225866   0.479   0.890   6.855
 8323SOL     OW25867   4.552   4.853   1.065
 8323SOL    HW125868   4.609   4.773   1.044
 8323SOL    HW225869   4.493   4.873   0.986
 8324SOL     OW25870   5.117   6.663   6.690
 8324SOL    HW125871   5.136   6.733   6.621
 8324SOL    HW225872   5.092   6.708   6.776
 8325SOL     OW25873   1.145   5.795   5.660
 8325SOL    HW125874   1.155   5.807   5.759
 8325SOL    HW225875   1.235   5.775   5.620
 8326SOL     OW25876   1.650   4.137   1.847
 8326SOL    HW125877   1.592   4.073   1.898
 8326SOL    HW225878   1.682   4.209   1.909
 8327SOL     OW25879   1.072   0.006   4.496
 8327SOL    HW125880   1.125   6.973   4.557
 8327SOL    HW225881   1.125   0.025   4.414
 8328SOL     OW25882   1.922   0.321   6.759
 8328SOL    HW125883   2.012   0.323   6.717
 8328SOL    HW225884   1.931   0.300   6.856
 8329SOL     OW25885   1.412   2.825   5.128
 8329SOL    HW125886   1.423   2.834   5.227
 8329SOL    HW225887   1.432   2.730   5.101
 8330SOL     OW25888   3.129   1.317   6.339
 8330SOL    HW125889   3.167   1.240   6.287
 8330SOL    HW225890   3.164   1.315   6.432
 8331SOL     OW25891   1.897   2.503   6.982
 8331SOL    HW125892   1.909   2.578   0.021
 8331SOL    HW225893   1.837   2.434   7.021
 8332SOL     OW25894   6.164   5.477   1.675
 8332SOL    HW125895   6.258   5.507   1.687
 8332SOL    HW225896   6.112   5.497   1.759
 8333SOL     OW25897   2.538   5.058   1.329
 8333SOL    HW125898   2.471   5.082   1.258
 8333SOL    HW225899   2.509   4.974   1.374
 8334SOL     OW25900   3.938   2.004   6.127
 8334SOL    HW125901   3.892   1.919   6.150
 8334SOL    HW225902   4.037   1.988   6.123
 8335SOL     OW25903   5.111   3.739   6.060
 8335SOL    HW125904   5.034   3.725   5.998
 8335SOL    HW225905   5.078   3.749   6.153
 8336SOL     OW25906   1.105   3.439   3.271
 8336SOL    HW125907   1.149   3.463   3.358
 8336SOL    HW225908   1.043   3.513   3.245
 8337SOL     OW25909   0.456   1.341   4.210
 8337SOL    HW125910   0.522   1.269   4.186
 8337SOL    HW225911   0.476   1.374   4.302
 8338SOL     OW25912   4.643   5.533   2.742
 8338SOL    HW125913   4.721   5.573   2.790
 8338SOL    HW225914   4.578   5.495   2.808
 8339SOL     OW25915   6.104   0.159   0.857
 8339SOL    HW125916   6.124   0.063   0.877
 8339SOL    HW225917   6.104   0.173   0.758
 8340SOL     OW25918   5.949   2.726   0.345
 8340SOL    HW125919   5.853   2.698   0.343
 8340SOL    HW225920   6.003   2.655   0.391
 8341SOL     OW25921   3.188   1.582   0.766
 8341SOL    HW125922   3.238   1.656   0.811
 8341SOL    HW225923   3.253   1.518   0.725
 8342SOL     OW25924   4.669   0.188   0.378
 8342SOL    HW125925   4.676   0.225   0.286
 8342SOL    HW225926   4.705   0.094   0.379
 8343SOL     OW25927   5.916   3.939   3.879
 8343SOL    HW125928   6.004   3.914   3.921
 8343SOL    HW225929   5.843   3.929   3.947
 8344SOL     OW25930   1.303   4.813   5.301
 8344SOL    HW125931   1.300   4.713   5.297
 8344SOL    HW225932   1.374   4.847   5.240
 8345SOL     OW25933   4.363   0.838   2.886
 8345SOL    HW125934   4.357   0.739   2.873
 8345SOL    HW225935   4.334   0.884   2.802
 8346SOL     OW25936   5.092   3.186   5.369
 8346SOL    HW125937   5.183   3.224   5.384
 8346SOL    HW225938   5.024   3.243   5.415
 8347SOL     OW25939   2.530   0.253   6.454
 8347SOL    HW125940   2.600   0.182   6.462
 8347SOL    HW225941   2.493   0.274   6.544
 8348SOL     OW25942   3.569   6.825   1.804
 8348SOL    HW125943   3.599   6.906   1.853
 8348SOL    HW225944   3.583   6.839   1.706
 8349SOL     OW25945   0.753   6.415   1.707
 8349SOL    HW125946   0.800   6.327   1.711
 8349SOL    HW225947   0.817   6.488   1.734
 8350SOL     OW25948   2.460   7.016   0.214
 8350SOL    HW125949   2.444   7.016   0.313
 8350SOL    HW225950   2.553   0.022   0.195
 8351SOL     OW25951   6.738   3.995   3.384
 8351SOL    HW125952   6.678   3.984   3.304
 8351SOL    HW225953   6.828   4.026   3.354
 8352SOL     OW25954   2.469   5.547   1.605
 8352SOL    HW125955   2.555   5.526   1.651
 8352SOL    HW225956   2.487   5.604   1.525
 8353SOL     OW25957   1.772   3.897   2.111
 8353SOL    HW125958   1.767   3.819   2.173
 8353SOL    HW225959   1.820   3.973   2.157
 8354SOL     OW25960   3.460   0.443   3.721
 8354SOL    HW125961   3.525   0.514   3.693
 8354SOL    HW225962   3.392   0.429   3.649
 8355SOL     OW25963   2.109   5.821   5.896
 8355SOL    HW125964   2.135   5.736   5.941
 8355SOL    HW225965   2.179   5.846   5.830
 8356SOL     OW25966   1.959   5.618   1.146
 8356SOL    HW125967   1.988   5.525   1.172
 8356SOL    HW225968   1.874   5.641   1.194
 8357SOL     OW25969   4.418   6.010   5.915
 8357SOL    HW125970   4.318   6.003   5.909
 8357SOL    HW225971   4.458   5.982   5.828
 8358SOL     OW25972   1.138   2.243   5.156
 8358SOL    HW125973   1.181   2.224   5.068
 8358SOL    HW225974   1.189   2.313   5.205
 8359SOL     OW25975   3.045   2.071   5.301
 8359SOL    HW125976   2.983   2.123   5.242
 8359SOL    HW225977   3.076   1.989   5.252
 8360SOL     OW25978   4.954   0.440   1.071
 8360SOL    HW125979   5.053   0.459   1.067
 8360SOL    HW225980   4.904   0.519   1.035
 8361SOL     OW25981   3.239   0.262   0.272
 8361SOL    HW125982   3.319   0.203   0.281
 8361SOL    HW225983   3.241   0.332   0.343
 8362SOL     OW25984   6.762   3.954   1.814
 8362SOL    HW125985   6.857   3.981   1.824
 8362SOL    HW225986   6.742   3.879   1.877
 8363SOL     OW25987   2.389   2.825   6.824
 8363SOL    HW125988   2.355   2.887   6.895
 8363SOL    HW225989   2.466   2.773   6.860
 8364SOL     OW25990   0.041   2.799   4.377
 8364SOL    HW125991   0.095   2.737   4.434
 8364SOL    HW225992   0.064   2.785   4.281
 8365SOL     OW25993   1.993   2.696   2.984
 8365SOL    HW125994   1.903   2.703   2.939
 8365SOL    HW225995   1.980   2.687   3.082
 8366SOL     OW25996   5.343   5.920   1.878
 8366SOL    HW125997   5.433   5.877   1.884
 8366SOL    HW225998   5.275   5.851   1.851
 8367SOL     OW25999   4.073   4.853   4.586
 8367SOL    HW126000   4.144   4.850   4.656
 8367SOL    HW226001   4.113   4.829   4.498
 8368SOL     OW26002   6.829   6.478   0.447
 8368SOL    HW126003   6.829   6.512   0.353
 8368SOL    HW226004   6.741   6.436   0.468
 8369SOL     OW26005   1.845   0.874   0.443
 8369SOL    HW126006   1.788   0.914   0.371
 8369SOL    HW226007   1.919   0.820   0.401
 8370SOL     OW26008   2.816   2.963   0.441
 8370SOL    HW126009   2.794   2.875   0.399
 8370SOL    HW226010   2.850   3.026   0.371
 8371SOL     OW26011   2.182   4.431   5.987
 8371SOL    HW126012   2.281   4.421   5.985
 8371SOL    HW226013   2.158   4.507   6.048
 8372SOL     OW26014   2.075   5.650   2.574
 8372SOL    HW126015   1.996   5.679   2.519
 8372SOL    HW226016   2.080   5.706   2.656
 8373SOL     OW26017   6.945   0.992   4.223
 8373SOL    HW126018   6.999   1.028   4.147
 8373SOL    HW226019   6.880   1.062   4.254
 8374SOL     OW26020   1.732   0.643   4.503
 8374SOL    HW126021   1.666   0.681   4.568
 8374SOL    HW226022   1.714   0.545   4.491
 8375SOL     OW26023   4.004   1.127   4.408
 8375SOL    HW126024   4.053   1.073   4.477
 8375SOL    HW226025   3.908   1.097   4.405
 8376SOL     OW26026   1.944   0.801   3.280
 8376SOL    HW126027   1.963   0.704   3.292
 8376SOL    HW226028   2.019   0.843   3.228
 8377SOL     OW26029   4.832   5.941   6.902
 8377SOL    HW126030   4.899   5.898   6.963
 8377SOL    HW226031   4.854   5.920   6.807
 8378SOL     OW26032   6.159   5.857   3.814
 8378SOL    HW126033   6.133   5.764   3.839
 8378SOL    HW226034   6.125   5.921   3.883
 8379SOL     OW26035   5.931   1.233   1.747
 8379SOL    HW126036   5.861   1.162   1.756
 8379SOL    HW226037   5.991   1.231   1.826
 8380SOL     OW26038   6.615   5.502   0.352
 8380SOL    HW126039   6.529   5.451   0.358
 8380SOL    HW226040   6.657   5.487   0.263
 8381SOL     OW26041   6.895   1.433   2.382
 8381SOL    HW126042   6.931   1.341   2.398
 8381SOL    HW226043   6.865   1.442   2.287
 8382SOL     OW26044   2.395   0.408   0.614
 8382SOL    HW126045   2.389   0.508   0.613
 8382SOL    HW226046   2.442   0.376   0.532
 8383SOL     OW26047   2.417   5.901   5.858
 8383SOL    HW126048   2.439   5.948   5.773
 8383SOL    HW226049   2.373   5.966   5.921
 8384SOL     OW26050   0.676   2.670   0.557
 8384SOL    HW126051   0.576   2.666   0.549
 8384SOL    HW226052   0.716   2.626   0.477
 8385SOL     OW26053   4.198   3.902   0.904
 8385SOL    HW126054   4.123   3.839   0.927
 8385SOL    HW226055   4.171   3.959   0.827
 8386SOL     OW26056   1.589   5.663   1.920
 8386SOL    HW126057   1.642   5.579   1.929
 8386SOL    HW226058   1.622   5.730   1.987
 8387SOL     OW26059   1.608   1.231   2.301
 8387SOL    HW126060   1.572   1.142   2.271
 8387SOL    HW226061   1.534   1.284   2.342
 8388SOL     OW26062   3.322   0.043   0.904
 8388SOL    HW126063   3.227   0.015   0.915
 8388SOL    HW226064   3.353   0.020   0.811
 8389SOL     OW26065   1.007   2.456   4.266
 8389SOL    HW126066   0.918   2.486   4.233
 8389SOL    HW226067   1.011   2.356   4.268
 8390SOL     OW26068   2.317   0.748   5.558
 8390SOL    HW126069   2.231   0.776   5.517
 8390SOL    HW226070   2.322   0.782   5.652
 8391SOL     OW26071   4.931   5.470   1.715
 8391SOL    HW126072   5.028   5.446   1.713
 8391SOL    HW226073   4.900   5.476   1.810
 8392SOL     OW26074   5.679   6.528   5.535
 8392SOL    HW126075   5.669   6.626   5.548
 8392SOL    HW226076   5.680   6.482   5.624
 8393SOL     OW26077   0.385   6.348   3.184
 8393SOL    HW126078   0.479   6.318   3.201
 8393SOL    HW226079   0.338   6.361   3.270
 8394SOL     OW26080   0.752   1.899   3.041
 8394SOL    HW126081   0.680   1.958   3.004
 8394SOL    HW226082   0.837   1.951   3.049
 8395SOL     OW26083   6.931   6.251   5.084
 8395SOL    HW126084   6.870   6.288   5.154
 8395SOL    HW226085   0.000   6.260   5.115
 8396SOL     OW26086   4.791   4.004   2.639
 8396SOL    HW126087   4.889   3.993   2.656
 8396SOL    HW226088   4.773   4.004   2.541
 8397SOL     OW26089   2.121   6.050   3.213
 8397SOL    HW126090   2.072   5.966   3.236
 8397SOL    HW226091   2.063   6.109   3.157
 8398SOL     OW26092   4.294   1.326   0.375
 8398SOL    HW126093   4.289   1.227   0.383
 8398SOL    HW226094   4.218   1.359   0.319
 8399SOL     OW26095   5.524   6.189   0.166
 8399SOL    HW126096   5.543   6.211   0.070
 8399SOL    HW226097   5.448   6.245   0.198
 8400SOL     OW26098   0.306   0.010   2.678
 8400SOL    HW126099   0.284   0.105   2.698
 8400SOL    HW226100   0.318   6.985   2.763
 8401SOL     OW26101   3.688   3.852   6.103
 8401SOL    HW126102   3.781   3.869   6.070
 8401SOL    HW226103   3.691   3.788   6.180
 8402SOL     OW26104   4.323   2.007   6.412
 8402SOL    HW126105   4.263   1.929   6.427
 8402SOL    HW226106   4.295   2.083   6.470
 8403SOL     OW26107   1.308   1.477   4.532
 8403SOL    HW126108   1.394   1.501   4.577
 8403SOL    HW226109   1.265   1.561   4.496
 8404SOL     OW26110   5.085   5.814   5.959
 8404SOL    HW126111   4.989   5.791   5.974
 8404SOL    HW226112   5.132   5.734   5.921
 8405SOL     OW26113   0.290   2.301   6.137
 8405SOL    HW126114   0.230   2.378   6.161
 8405SOL    HW226115   0.366   2.335   6.082
 8406SOL     OW26116   4.983   2.650   1.351
 8406SOL    HW126117   4.980   2.729   1.412
 8406SOL    HW226118   4.906   2.590   1.370
 8407SOL     OW26119   5.129   3.976   3.736
 8407SOL    HW126120   5.113   3.953   3.640
 8407SOL    HW226121   5.110   4.073   3.751
 8408SOL     OW26122   4.795   1.970   3.819
 8408SOL    HW126123   4.842   1.953   3.906
 8408SOL    HW226124   4.791   2.068   3.802
 8409SOL     OW26125   1.707   1.485   4.353
 8409SOL    HW126126   1.735   1.393   4.378
 8409SOL    HW226127   1.749   1.511   4.266
 8410SOL     OW26128   4.037   6.558   1.327
 8410SOL    HW126129   3.948   6.599   1.311
 8410SOL    HW226130   4.088   6.553   1.241
 8411SOL     OW26131   1.952   4.465   4.249
 8411SOL    HW126132   1.891   4.520   4.306
 8411SOL    HW226133   1.898   4.415   4.181
 8412SOL     OW26134   4.925   2.275   2.163
 8412SOL    HW126135   4.879   2.295   2.076
 8412SOL    HW226136   4.865   2.219   2.220
 8413SOL     OW26137   3.407   4.786   0.543
 8413SOL    HW126138   3.424   4.688   0.538
 8413SOL    HW226139   3.421   4.827   0.453
 8414SOL     OW26140   4.301   6.294   3.174
 8414SOL    HW126141   4.338   6.369   3.119
 8414SOL    HW226142   4.201   6.293   3.166
 8415SOL     OW26143   6.605   4.167   3.136
 8415SOL    HW126144   6.563   4.105   3.069
 8415SOL    HW226145   6.699   4.187   3.108
 8416SOL     OW26146   5.129   3.822   2.558
 8416SOL    HW126147   5.205   3.760   2.536
 8416SOL    HW226148   5.118   3.888   2.484
 8417SOL     OW26149   2.190   6.213   6.347
 8417SOL    HW126150   2.215   6.240   6.441
 8417SOL    HW226151   2.102   6.165   6.349
 8418SOL     OW26152   6.408   5.703   2.461
 8418SOL    HW126153   6.443   5.751   2.541
 8418SOL    HW226154   6.329   5.648   2.488
 8419SOL     OW26155   4.334   0.626   2.250
 8419SOL    HW126156   4.413   0.642   2.308
 8419SOL    HW226157   4.308   0.530   2.254
 8420SOL     OW26158   3.793   0.621   6.250
 8420SOL    HW126159   3.880   0.571   6.252
 8420SOL    HW226160   3.776   0.653   6.157
 8421SOL     OW26161   1.914   6.439   2.175
 8421SOL    HW126162   1.843   6.371   2.192
 8421SOL    HW226163   1.988   6.427   2.241
 8422SOL     OW26164   4.527   6.786   0.259
 8422SOL    HW126165   4.578   6.726   0.320
 8422SOL    HW226166   4.583   6.812   0.181
 8423SOL     OW26167   3.379   4.635   0.244
 8423SOL    HW126168   3.396   4.734   0.253
 8423SOL    HW226169   3.440   4.585   0.306
 8424SOL     OW26170   3.520   1.758   2.840
 8424SOL    HW126171   3.501   1.838   2.896
 8424SOL    HW226172   3.472   1.679   2.879
 8425SOL     OW26173   5.894   5.199   1.451
 8425SOL    HW126174   5.807   5.182   1.497
 8425SOL    HW226175   5.927   5.115   1.408
 8426SOL     OW26176   3.959   3.315   3.649
 8426SOL    HW126177   4.010   3.280   3.727
 8426SOL    HW226178   3.912   3.400   3.675
 8427SOL     OW26179   2.730   4.221   6.468
 8427SOL    HW126180   2.645   4.236   6.417
 8427SOL    HW226181   2.721   4.139   6.524
 8428SOL     OW26182   0.599   4.169   1.911
 8428SOL    HW126183   0.645   4.110   1.977
 8428SOL    HW226184   0.652   4.172   1.826
 8429SOL     OW26185   2.087   5.619   3.855
 8429SOL    HW126186   2.006   5.653   3.807
 8429SOL    HW226187   2.130   5.693   3.907
 8430SOL     OW26188   4.614   4.646   2.910
 8430SOL    HW126189   4.631   4.548   2.895
 8430SOL    HW226190   4.699   4.696   2.903
 8431SOL     OW26191   3.418   4.769   1.111
 8431SOL    HW126192   3.391   4.698   1.176
 8431SOL    HW226193   3.379   4.857   1.138
 8432SOL     OW26194   3.822   5.604   6.449
 8432SOL    HW126195   3.797   5.573   6.357
 8432SOL    HW226196   3.913   5.645   6.447
 8433SOL     OW26197   1.245   2.904   6.019
 8433SOL    HW126198   1.184   2.966   5.969
 8433SOL    HW226199   1.197   2.865   6.097
 8434SOL     OW26200   4.783   6.222   5.736
 8434SOL    HW126201   4.745   6.315   5.735
 8434SOL    HW226202   4.756   6.175   5.652
 8435SOL     OW26203   4.858   1.983   1.256
 8435SOL    HW126204   4.798   2.024   1.188
 8435SOL    HW226205   4.887   1.892   1.224
 8436SOL     OW26206   4.489   4.849   2.128
 8436SOL    HW126207   4.436   4.876   2.208
 8436SOL    HW226208   4.551   4.774   2.152
 8437SOL     OW26209   0.569   1.353   0.672
 8437SOL    HW126210   0.486   1.401   0.642
 8437SOL    HW226211   0.627   1.335   0.592
 8438SOL     OW26212   2.829   4.772   2.488
 8438SOL    HW126213   2.919   4.801   2.456
 8438SOL    HW226214   2.773   4.744   2.409
 8439SOL     OW26215   0.007   5.600   2.348
 8439SOL    HW126216   0.089   5.614   2.293
 8439SOL    HW226217   0.029   5.539   2.425
 8440SOL     OW26218   0.353   0.732   1.544
 8440SOL    HW126219   0.418   0.749   1.470
 8440SOL    HW226220   0.277   0.796   1.537
 8441SOL     OW26221   5.046   5.765   6.292
 8441SOL    HW126222   5.128   5.779   6.236
 8441SOL    HW226223   4.965   5.779   6.236
 8442SOL     OW26224   2.331   4.229   6.994
 8442SOL    HW126225   2.247   4.264   0.010
 8442SOL    HW226226   2.367   4.297   6.930
 8443SOL     OW26227   1.116   0.580   2.895
 8443SOL    HW126228   1.026   0.615   2.868
 8443SOL    HW226229   1.112   0.547   2.989
 8444SOL     OW26230   3.980   6.480   3.698
 8444SOL    HW126231   3.955   6.565   3.652
 8444SOL    HW226232   4.074   6.455   3.674
 8445SOL     OW26233   3.926   4.888   2.850
 8445SOL    HW126234   3.963   4.827   2.780
 8445SOL    HW226235   3.954   4.982   2.830
 8446SOL     OW26236   5.639   4.995   2.796
 8446SOL    HW126237   5.631   5.068   2.865
 8446SOL    HW226238   5.547   4.961   2.774
 8447SOL     OW26239   5.210   2.249   1.947
 8447SOL    HW126240   5.152   2.190   2.003
 8447SOL    HW226241   5.295   2.268   1.996
 8448SOL     OW26242   0.485   3.418   6.757
 8448SOL    HW126243   0.563   3.385   6.810
 8448SOL    HW226244   0.466   3.355   6.682
 8449SOL     OW26245   0.606   3.359   5.170
 8449SOL    HW126246   0.639   3.312   5.088
 8449SOL    HW226247   0.683   3.373   5.233
 8450SOL     OW26248   1.936   6.142   3.026
 8450SOL    HW126249   1.889   6.102   2.948
 8450SOL    HW226250   1.909   6.238   3.037
 8451SOL     OW26251   4.145   3.046   1.276
 8451SOL    HW126252   4.216   3.063   1.208
 8451SOL    HW226253   4.102   2.957   1.258
 8452SOL     OW26254   6.635   0.490   1.291
 8452SOL    HW126255   6.546   0.446   1.298
 8452SOL    HW226256   6.654   0.541   1.376
 8453SOL     OW26257   6.494   4.342   6.273
 8453SOL    HW126258   6.435   4.309   6.199
 8453SOL    HW226259   6.442   4.350   6.357
 8454SOL     OW26260   1.517   7.012   3.422
 8454SOL    HW126261   1.506   6.913   3.409
 8454SOL    HW226262   1.429   0.031   3.411
 8455SOL     OW26263   4.877   1.598   0.969
 8455SOL    HW126264   4.783   1.571   0.994
 8455SOL    HW226265   4.902   1.555   0.883
 8456SOL     OW26266   5.451   5.601   3.445
 8456SOL    HW126267   5.395   5.622   3.365
 8456SOL    HW226268   5.483   5.507   3.439
 8457SOL     OW26269   0.121   0.063   5.537
 8457SOL    HW126270   0.150   0.037   5.629
 8457SOL    HW226271   0.044   0.127   5.543
 8458SOL     OW26272   1.653   2.271   0.352
 8458SOL    HW126273   1.625   2.193   0.297
 8458SOL    HW226274   1.742   2.305   0.320
 8459SOL     OW26275   3.492   5.380   2.067
 8459SOL    HW126276   3.547   5.451   2.111
 8459SOL    HW226277   3.407   5.368   2.116
 8460SOL     OW26278   4.617   2.088   0.049
 8460SOL    HW126279   4.547   2.017   0.045
 8460SOL    HW226280   4.625   2.122   0.143
 8461SOL     OW26281   0.471   4.066   1.524
 8461SOL    HW126282   0.549   4.044   1.465
 8461SOL    HW226283   0.396   4.003   1.505
 8462SOL     OW26284   3.437   4.173   6.530
 8462SOL    HW126285   3.490   4.228   6.465
 8462SOL    HW226286   3.498   4.111   6.579
 8463SOL     OW26287   0.221   2.050   0.214
 8463SOL    HW126288   0.318   2.065   0.194
 8463SOL    HW226289   0.167   2.059   0.130
 8464SOL     OW26290   0.097   3.015   6.918
 8464SOL    HW126291   0.158   3.084   6.957
 8464SOL    HW226292   0.127   2.991   6.826
 8465SOL     OW26293   3.783   2.323   1.278
 8465SOL    HW126294   3.743   2.284   1.361
 8465SOL    HW226295   3.710   2.367   1.224
 8466SOL     OW26296   5.355   0.937   5.323
 8466SOL    HW126297   5.318   0.930   5.230
 8466SOL    HW226298   5.428   0.869   5.334
 8467SOL     OW26299   2.976   0.996   0.686
 8467SOL    HW126300   2.888   1.024   0.648
 8467SOL    HW226301   3.049   1.054   0.649
 8468SOL     OW26302   6.022   3.841   6.702
 8468SOL    HW126303   6.063   3.820   6.613
 8468SOL    HW226304   5.979   3.759   6.739
 8469SOL     OW26305   4.176   2.816   5.570
 8469SOL    HW126306   4.207   2.906   5.538
 8469SOL    HW226307   4.240   2.746   5.539
 8470SOL     OW26308   0.673   4.869   0.881
 8470SOL    HW126309   0.633   4.892   0.970
 8470SOL    HW226310   0.608   4.890   0.809
 8471SOL     OW26311   2.837   0.842   5.081
 8471SOL    HW126312   2.752   0.866   5.034
 8471SOL    HW226313   2.862   0.748   5.058
 8472SOL     OW26314   5.363   1.573   6.327
 8472SOL    HW126315   5.292   1.618   6.380
 8472SOL    HW226316   5.321   1.504   6.267
 8473SOL     OW26317   4.792   4.861   6.807
 8473SOL    HW126318   4.773   4.956   6.781
 8473SOL    HW226319   4.844   4.860   6.893
 8474SOL     OW26320   2.944   3.346   2.436
 8474SOL    HW126321   3.018   3.280   2.423
 8474SOL    HW226322   2.902   3.368   2.348
 8475SOL     OW26323   6.909   3.119   1.381
 8475SOL    HW126324   6.965   3.176   1.320
 8475SOL    HW226325   6.812   3.142   1.368
 8476SOL     OW26326   6.203   0.148   1.679
 8476SOL    HW126327   6.135   0.200   1.627
 8476SOL    HW226328   6.195   0.169   1.776
 8477SOL     OW26329   4.876   6.702   1.268
 8477SOL    HW126330   4.864   6.692   1.169
 8477SOL    HW226331   4.797   6.750   1.306
 8478SOL     OW26332   0.375   0.202   5.437
 8478SOL    HW126333   0.281   0.179   5.460
 8478SOL    HW226334   0.437   0.151   5.497
 8479SOL     OW26335   1.790   2.129   1.459
 8479SOL    HW126336   1.750   2.167   1.375
 8479SOL    HW226337   1.749   2.040   1.477
 8480SOL     OW26338   4.654   3.489   0.358
 8480SOL    HW126339   4.747   3.526   0.364
 8480SOL    HW226340   4.623   3.464   0.450
 8481SOL     OW26341   3.734   2.054   4.389
 8481SOL    HW126342   3.724   1.992   4.466
 8481SOL    HW226343   3.653   2.050   4.331
 8482SOL     OW26344   4.579   1.187   0.294
 8482SOL    HW126345   4.526   1.144   0.367
 8482SOL    HW226346   4.676   1.170   0.308
 8483SOL     OW26347   3.526   6.016   3.945
 8483SOL    HW126348   3.443   6.069   3.964
 8483SOL    HW226349   3.599   6.077   3.916
 8484SOL     OW26350   6.424   6.271   4.799
 8484SOL    HW126351   6.348   6.208   4.787
 8484SOL    HW226352   6.438   6.324   4.716
 8485SOL     OW26353   3.581   2.435   0.190
 8485SOL    HW126354   3.487   2.402   0.186
 8485SOL    HW226355   3.642   2.368   0.147
 8486SOL     OW26356   1.194   1.315   2.531
 8486SOL    HW126357   1.293   1.324   2.519
 8486SOL    HW226358   1.158   1.396   2.577
 8487SOL     OW26359   5.593   2.250   5.860
 8487SOL    HW126360   5.636   2.272   5.948
 8487SOL    HW226361   5.634   2.306   5.788
 8488SOL     OW26362   5.586   5.964   2.442
 8488SOL    HW126363   5.538   5.914   2.370
 8488SOL    HW226364   5.557   6.060   2.442
 8489SOL     OW26365   5.662   1.041   1.144
 8489SOL    HW126366   5.700   1.067   1.232
 8489SOL    HW226367   5.727   0.982   1.095
 8490SOL     OW26368   2.161   6.843   6.553
 8490SOL    HW126369   2.230   6.880   6.491
 8490SOL    HW226370   2.101   6.917   6.583
 8491SOL     OW26371   2.051   5.910   2.341
 8491SOL    HW126372   1.961   5.869   2.327
 8491SOL    HW226373   2.121   5.839   2.338
 8492SOL     OW26374   6.215   4.272   4.829
 8492SOL    HW126375   6.219   4.359   4.877
 8492SOL    HW226376   6.301   4.257   4.780
 8493SOL     OW26377   3.362   1.255   0.708
 8493SOL    HW126378   3.403   1.342   0.734
 8493SOL    HW226379   3.338   1.257   0.611
 8494SOL     OW26380   6.051   5.018   2.087
 8494SOL    HW126381   6.081   4.923   2.077
 8494SOL    HW226382   6.059   5.064   1.998
 8495SOL     OW26383   6.127   5.209   0.594
 8495SOL    HW126384   6.115   5.187   0.691
 8495SOL    HW226385   6.117   5.126   0.539
 8496SOL     OW26386   5.459   1.370   1.882
 8496SOL    HW126387   5.543   1.386   1.830
 8496SOL    HW226388   5.382   1.362   1.819
 8497SOL     OW26389   6.917   0.536   3.782
 8497SOL    HW126390   6.975   0.491   3.714
 8497SOL    HW226391   6.824   0.544   3.747
 8498SOL     OW26392   5.115   7.010   4.286
 8498SOL    HW126393   5.139   0.062   4.343
 8498SOL    HW226394   5.067   6.942   4.341
 8499SOL     OW26395   6.965   5.821   7.006
 8499SOL    HW126396   6.986   5.724   7.015
 8499SOL    HW226397   0.004   5.864   6.943
 8500SOL     OW26398   1.653   0.992   5.625
 8500SOL    HW126399   1.706   0.949   5.697
 8500SOL    HW226400   1.582   0.929   5.594
 8501SOL     OW26401   0.664   1.522   0.102
 8501SOL    HW126402   0.639   1.490   0.011
 8501SOL    HW226403   0.599   1.486   0.169
 8502SOL     OW26404   0.476   2.802   6.372
 8502SOL    HW126405   0.461   2.806   6.471
 8502SOL    HW226406   0.391   2.822   6.324
 8503SOL     OW26407   6.398   6.416   4.537
 8503SOL    HW126408   6.305   6.408   4.574
 8503SOL    HW226409   6.403   6.496   4.478
 8504SOL     OW26410   2.283   5.541   2.458
 8504SOL    HW126411   2.204   5.578   2.506
 8504SOL    HW226412   2.252   5.485   2.381
 8505SOL     OW26413   5.180   3.752   2.854
 8505SOL    HW126414   5.186   3.786   2.760
 8505SOL    HW226415   5.171   3.653   2.854
 8506SOL     OW26416   2.119   0.597   0.558
 8506SOL    HW126417   2.157   0.537   0.629
 8506SOL    HW226418   2.071   0.541   0.491
 8507SOL     OW26419   4.710   7.013   5.473
 8507SOL    HW126420   4.697   6.929   5.525
 8507SOL    HW226421   4.804   0.019   5.484
 8508SOL     OW26422   4.360   2.195   6.673
 8508SOL    HW126423   4.412   2.123   6.720
 8508SOL    HW226424   4.264   2.192   6.702
 8509SOL     OW26425   5.945   0.595   3.390
 8509SOL    HW126426   5.946   0.537   3.308
 8509SOL    HW226427   5.971   0.541   3.470
 8510SOL     OW26428   5.368   2.646   4.249
 8510SOL    HW126429   5.351   2.564   4.194
 8510SOL    HW226430   5.424   2.710   4.197
 8511SOL     OW26431   5.779   2.870   1.947
 8511SOL    HW126432   5.833   2.821   1.879
 8511SOL    HW226433   5.822   2.957   1.969
 8512SOL     OW26434   1.937   6.927   3.905
 8512SOL    HW126435   1.863   6.961   3.847
 8512SOL    HW226436   2.005   6.881   3.848
 8513SOL     OW26437   6.000   6.255   0.155
 8513SOL    HW126438   5.970   6.350   0.150
 8513SOL    HW226439   5.921   6.195   0.143
 8514SOL     OW26440   2.997   6.412   3.676
 8514SOL    HW126441   3.034   6.468   3.602
 8514SOL    HW226442   3.050   6.428   3.759
 8515SOL     OW26443   5.809   1.965   0.768
 8515SOL    HW126444   5.816   1.983   0.866
 8515SOL    HW226445   5.880   2.016   0.720
 8516SOL     OW26446   6.375   2.422   2.143
 8516SOL    HW126447   6.326   2.492   2.196
 8516SOL    HW226448   6.376   2.336   2.194
 8517SOL     OW26449   1.381   2.902   6.296
 8517SOL    HW126450   1.339   2.861   6.377
 8517SOL    HW226451   1.443   2.835   6.254
 8518SOL     OW26452   3.182   5.464   0.006
 8518SOL    HW126453   3.221   5.447   6.941
 8518SOL    HW226454   3.234   5.411   0.074
 8519SOL     OW26455   1.496   5.406   2.352
 8519SOL    HW126456   1.472   5.422   2.257
 8519SOL    HW226457   1.421   5.357   2.398
 8520SOL     OW26458   4.219   0.772   0.361
 8520SOL    HW126459   4.140   0.711   0.371
 8520SOL    HW226460   4.267   0.779   0.448
 8521SOL     OW26461   1.148   6.357   5.733
 8521SOL    HW126462   1.192   6.370   5.644
 8521SOL    HW226463   1.124   6.261   5.744
 8522SOL     OW26464   1.272   6.027   4.510
 8522SOL    HW126465   1.332   6.105   4.491
 8522SOL    HW226466   1.274   6.005   4.607
 8523SOL     OW26467   1.832   6.632   6.469
 8523SOL    HW126468   1.867   6.608   6.559
 8523SOL    HW226469   1.732   6.640   6.473
 8524SOL     OW26470   1.408   3.798   5.920
 8524SOL    HW126471   1.484   3.839   5.971
 8524SOL    HW226472   1.407   3.699   5.936
 8525SOL     OW26473   5.826   3.354   2.535
 8525SOL    HW126474   5.782   3.264   2.531
 8525SOL    HW226475   5.761   3.423   2.503
 8526SOL     OW26476   2.503   2.456   1.930
 8526SOL    HW126477   2.407   2.437   1.946
 8526SOL    HW226478   2.547   2.377   1.887
 8527SOL     OW26479   4.863   0.689   4.245
 8527SOL    HW126480   4.846   0.756   4.318
 8527SOL    HW226481   4.776   0.655   4.211
 8528SOL     OW26482   4.568   3.205   5.973
 8528SOL    HW126483   4.520   3.153   6.043
 8528SOL    HW226484   4.667   3.197   5.987
 8529SOL     OW26485   1.367   4.775   6.688
 8529SOL    HW126486   1.369   4.824   6.775
 8529SOL    HW226487   1.423   4.822   6.621
 8530SOL     OW26488   1.437   4.046   5.274
 8530SOL    HW126489   1.504   4.052   5.349
 8530SOL    HW226490   1.447   4.125   5.214
 8531SOL     OW26491   5.269   4.979   2.629
 8531SOL    HW126492   5.171   4.964   2.645
 8531SOL    HW226493   5.316   4.891   2.625
 8532SOL     OW26494   3.335   4.404   5.693
 8532SOL    HW126495   3.310   4.487   5.743
 8532SOL    HW226496   3.430   4.410   5.664
 8533SOL     OW26497   3.189   0.959   4.870
 8533SOL    HW126498   3.184   0.940   4.968
 8533SOL    HW226499   3.285   0.958   4.841
 8534SOL     OW26500   1.358   3.274   2.495
 8534SOL    HW126501   1.365   3.302   2.400
 8534SOL    HW226502   1.309   3.344   2.547
 8535SOL     OW26503   0.423   1.889   4.457
 8535SOL    HW126504   0.442   1.976   4.411
 8535SOL    HW226505   0.345   1.845   4.415
 8536SOL     OW26506   6.738   1.699   5.491
 8536SOL    HW126507   6.687   1.769   5.441
 8536SOL    HW226508   6.759   1.622   5.430
 8537SOL     OW26509   5.266   0.325   1.348
 8537SOL    HW126510   5.175   0.367   1.353
 8537SOL    HW226511   5.333   0.394   1.323
 8538SOL     OW26512   6.904   0.476   4.877
 8538SOL    HW126513   6.900   0.543   4.803
 8538SOL    HW226514   6.900   0.384   4.838
 8539SOL     OW26515   0.178   2.783   1.807
 8539SOL    HW126516   0.086   2.743   1.802
 8539SOL    HW226517   0.210   2.806   1.715
 8540SOL     OW26518   3.577   0.594   0.609
 8540SOL    HW126519   3.557   0.497   0.599
 8540SOL    HW226520   3.491   0.646   0.610
 8541SOL     OW26521   2.893   1.219   4.528
 8541SOL    HW126522   2.895   1.301   4.471
 8541SOL    HW226523   2.975   1.164   4.509
 8542SOL     OW26524   2.160   4.862   6.384
 8542SOL    HW126525   2.148   4.938   6.448
 8542SOL    HW226526   2.216   4.791   6.426
 8543SOL     OW26527   1.703   2.387   5.821
 8543SOL    HW126528   1.778   2.328   5.852
 8543SOL    HW226529   1.719   2.412   5.725
 8544SOL     OW26530   5.034   4.004   5.596
 8544SOL    HW126531   5.045   3.943   5.675
 8544SOL    HW226532   4.966   4.074   5.617
 8545SOL     OW26533   3.317   0.069   6.046
 8545SOL    HW126534   3.382   0.132   6.004
 8545SOL    HW226535   3.269   0.117   6.120
 8546SOL     OW26536   5.428   0.437   1.613
 8546SOL    HW126537   5.368   0.385   1.553
 8546SOL    HW226538   5.438   0.530   1.577
 8547SOL     OW26539   6.203   6.296   5.719
 8547SOL    HW126540   6.179   6.219   5.778
 8547SOL    HW226541   6.273   6.268   5.653
 8548SOL     OW26542   0.563   3.251   5.783
 8548SOL    HW126543   0.533   3.183   5.850
 8548SOL    HW226544   0.651   3.289   5.812
 8549SOL     OW26545   2.163   1.163   3.417
 8549SOL    HW126546   2.174   1.153   3.318
 8549SOL    HW226547   2.224   1.099   3.464
 8550SOL     OW26548   0.886   4.421   6.932
 8550SOL    HW126549   0.942   4.338   6.929
 8550SOL    HW226550   0.944   4.501   6.914
 8551SOL     OW26551   2.009   2.032   6.079
 8551SOL    HW126552   1.932   1.978   6.113
 8551SOL    HW226553   2.032   2.003   5.986
 8552SOL     OW26554   2.442   1.444   2.811
 8552SOL    HW126555   2.397   1.448   2.722
 8552SOL    HW226556   2.541   1.451   2.798
 8553SOL     OW26557   5.098   3.216   0.909
 8553SOL    HW126558   5.191   3.250   0.911
 8553SOL    HW226559   5.037   3.286   0.872
 8554SOL     OW26560   0.779   6.583   0.409
 8554SOL    HW126561   0.836   6.567   0.489
 8554SOL    HW226562   0.787   6.506   0.346
 8555SOL     OW26563   5.161   1.046   3.799
 8555SOL    HW126564   5.186   0.962   3.752
 8555SOL    HW226565   5.096   1.098   3.743
 8556SOL     OW26566   1.793   6.183   0.395
 8556SOL    HW126567   1.773   6.094   0.355
 8556SOL    HW226568   1.770   6.255   0.329
 8557SOL     OW26569   0.118   0.841   0.271
 8557SOL    HW126570   0.081   0.790   0.193
 8557SOL    HW226571   0.201   0.796   0.304
 8558SOL     OW26572   3.076   5.070   3.269
 8558SOL    HW126573   3.140   4.999   3.239
 8558SOL    HW226574   3.128   5.146   3.309
 8559SOL     OW26575   1.013   5.070   2.437
 8559SOL    HW126576   1.089   5.007   2.453
 8559SOL    HW226577   1.044   5.164   2.452
 8560SOL     OW26578   2.530   4.297   1.804
 8560SOL    HW126579   2.538   4.250   1.716
 8560SOL    HW226580   2.461   4.251   1.860
 8561SOL     OW26581   4.683   6.923   2.237
 8561SOL    HW126582   4.690   6.850   2.306
 8561SOL    HW226583   4.642   6.886   2.154
 8562SOL     OW26584   3.907   1.036   6.986
 8562SOL    HW126585   3.942   0.978   6.912
 8562SOL    HW226586   3.940   1.129   6.974
 8563SOL     OW26587   1.806   5.647   2.873
 8563SOL    HW126588   1.853   5.731   2.848
 8563SOL    HW226589   1.716   5.670   2.911
 8564SOL     OW26590   4.218   0.774   7.004
 8564SOL    HW126591   4.237   0.870   6.986
 8564SOL    HW226592   4.299   0.719   6.984
 8565SOL     OW26593   2.787   5.451   1.394
 8565SOL    HW126594   2.744   5.468   1.306
 8565SOL    HW226595   2.759   5.362   1.429
 8566SOL     OW26596   3.411   1.056   3.006
 8566SOL    HW126597   3.479   0.996   3.048
 8566SOL    HW226598   3.336   1.071   3.070
 8567SOL     OW26599   1.655   1.859   1.785
 8567SOL    HW126600   1.751   1.885   1.773
 8567SOL    HW226601   1.625   1.883   1.878
 8568SOL     OW26602   0.075   1.614   6.675
 8568SOL    HW126603   0.125   1.684   6.625
 8568SOL    HW226604   7.004   1.641   6.682
 8569SOL     OW26605   5.239   2.465   6.341
 8569SOL    HW126606   5.215   2.372   6.369
 8569SOL    HW226607   5.199   2.531   6.405
 8570SOL     OW26608   1.272   3.288   4.084
 8570SOL    HW126609   1.296   3.239   3.999
 8570SOL    HW226610   1.250   3.221   4.155
 8571SOL     OW26611   1.758   0.511   3.514
 8571SOL    HW126612   1.760   0.414   3.491
 8571SOL    HW226613   1.664   0.539   3.534
 8572SOL     OW26614   2.952   3.937   5.669
 8572SOL    HW126615   3.029   4.002   5.662
 8572SOL    HW226616   2.873   3.975   5.621
 8573SOL     OW26617   3.348   6.388   0.811
 8573SOL    HW126618   3.251   6.376   0.791
 8573SOL    HW226619   3.402   6.329   0.750
 8574SOL     OW26620   6.429   6.292   5.543
 8574SOL    HW126621   6.466   6.203   5.515
 8574SOL    HW226622   6.413   6.348   5.462
 8575SOL     OW26623   3.395   6.242   2.654
 8575SOL    HW126624   3.494   6.254   2.643
 8575SOL    HW226625   3.366   6.285   2.739
 8576SOL     OW26626   0.908   3.863   3.391
 8576SOL    HW126627   0.829   3.853   3.450
 8576SOL    HW226628   0.918   3.959   3.364
 8577SOL     OW26629   2.142   1.496   6.713
 8577SOL    HW126630   2.187   1.516   6.626
 8577SOL    HW226631   2.045   1.517   6.706
 8578SOL     OW26632   6.404   7.020   5.351
 8578SOL    HW126633   6.489   0.032   5.315
 8578SOL    HW226634   6.369   6.952   5.287
 8579SOL     OW26635   3.353   5.959   2.546
 8579SOL    HW126636   3.373   6.050   2.583
 8579SOL    HW226637   3.255   5.941   2.553
 8580SOL     OW26638   1.214   0.011   1.477
 8580SOL    HW126639   1.140   0.012   1.410
 8580SOL    HW226640   1.300   0.031   1.432
 8581SOL     OW26641   3.663   4.856   0.975
 8581SOL    HW126642   3.582   4.805   1.006
 8581SOL    HW226643   3.642   4.904   0.890
 8582SOL     OW26644   4.010   4.353   5.576
 8582SOL    HW126645   3.926   4.304   5.603
 8582SOL    HW226646   4.022   4.345   5.477
 8583SOL     OW26647   4.194   0.937   2.681
 8583SOL    HW126648   4.211   0.911   2.586
 8583SOL    HW226649   4.116   0.999   2.685
 8584SOL     OW26650   6.572   1.063   4.571
 8584SOL    HW126651   6.548   1.033   4.664
 8584SOL    HW226652   6.624   0.991   4.525
 8585SOL     OW26653   5.483   2.108   1.802
 8585SOL    HW126654   5.502   2.015   1.835
 8585SOL    HW226655   5.391   2.111   1.763
 8586SOL     OW26656   5.793   6.322   1.027
 8586SOL    HW126657   5.720   6.357   1.086
 8586SOL    HW226658   5.784   6.222   1.019
 8587SOL     OW26659   1.362   1.275   6.003
 8587SOL    HW126660   1.425   1.240   5.934
 8587SOL    HW226661   1.339   1.370   5.982
 8588SOL     OW26662   2.993   1.797   6.904
 8588SOL    HW126663   2.963   1.797   6.808
 8588SOL    HW226664   2.988   1.890   6.940
 8589SOL     OW26665   0.438   2.973   5.663
 8589SOL    HW126666   0.419   3.070   5.681
 8589SOL    HW226667   0.530   2.951   5.693
 8590SOL     OW26668   1.088   1.842   2.842
 8590SOL    HW126669   1.026   1.875   2.771
 8590SOL    HW226670   1.127   1.920   2.891
 8591SOL     OW26671   6.634   5.147   0.190
 8591SOL    HW126672   6.602   5.168   0.097
 8591SOL    HW226673   6.599   5.058   0.218
 8592SOL     OW26674   1.368   2.440   6.296
 8592SOL    HW126675   1.449   2.452   6.238
 8592SOL    HW226676   1.385   2.367   6.363
 8593SOL     OW26677   2.979   0.592   6.933
 8593SOL    HW126678   3.079   0.589   6.931
 8593SOL    HW226679   2.948   0.644   7.013
 8594SOL     OW26680   6.314   2.631   5.939
 8594SOL    HW126681   6.315   2.722   5.898
 8594SOL    HW226682   6.221   2.594   5.934
 8595SOL     OW26683   5.081   6.655   2.634
 8595SOL    HW126684   5.005   6.599   2.666
 8595SOL    HW226685   5.080   6.659   2.534
 8596SOL     OW26686   0.742   2.702   3.328
 8596SOL    HW126687   0.783   2.648   3.254
 8596SOL    HW226688   0.645   2.716   3.309
 8597SOL     OW26689   5.683   3.407   1.404
 8597SOL    HW126690   5.703   3.504   1.392
 8597SOL    HW226691   5.745   3.369   1.474
 8598SOL     OW26692   5.421   0.200   4.432
 8598SOL    HW126693   5.489   0.155   4.375
 8598SOL    HW226694   5.441   0.298   4.436
 8599SOL     OW26695   1.752   2.859   3.702
 8599SOL    HW126696   1.793   2.770   3.721
 8599SOL    HW226697   1.766   2.919   3.781
 8600SOL     OW26698   4.440   2.785   1.245
 8600SOL    HW126699   4.537   2.799   1.266
 8600SOL    HW226700   4.384   2.816   1.321
 8601SOL     OW26701   0.851   0.573   3.532
 8601SOL    HW126702   0.829   0.588   3.629
 8601SOL    HW226703   0.802   0.639   3.476
 8602SOL     OW26704   2.811   6.873   4.590
 8602SOL    HW126705   2.743   6.821   4.538
 8602SOL    HW226706   2.901   6.863   4.547
 8603SOL     OW26707   6.907   0.965   0.652
 8603SOL    HW126708   6.956   0.904   0.590
 8603SOL    HW226709   6.824   0.919   0.685
 8604SOL     OW26710   1.228   3.994   6.022
 8604SOL    HW126711   1.175   4.013   5.939
 8604SOL    HW226712   1.292   3.919   6.003
 8605SOL     OW26713   6.816   4.903   4.315
 8605SOL    HW126714   6.774   4.842   4.249
 8605SOL    HW226715   6.916   4.890   4.314
 8606SOL     OW26716   2.173   2.274   6.608
 8606SOL    HW126717   2.142   2.335   6.681
 8606SOL    HW226718   2.094   2.235   6.561
 8607SOL     OW26719   2.274   4.963   1.413
 8607SOL    HW126720   2.353   4.937   1.469
 8607SOL    HW226721   2.260   4.894   1.342
 8608SOL     OW26722   2.561   4.992   3.351
 8608SOL    HW126723   2.508   4.911   3.324
 8608SOL    HW226724   2.637   5.005   3.287
 8609SOL     OW26725   4.958   1.374   3.832
 8609SOL    HW126726   4.984   1.401   3.739
 8609SOL    HW226727   4.895   1.297   3.828
 8610SOL     OW26728   0.425   6.638   3.151
 8610SOL    HW126729   0.439   6.546   3.186
 8610SOL    HW226730   0.414   6.635   3.052
 8611SOL     OW26731   3.170   1.753   3.958
 8611SOL    HW126732   3.195   1.831   4.015
 8611SOL    HW226733   3.252   1.700   3.938
 8612SOL     OW26734   4.090   3.281   3.371
 8612SOL    HW126735   4.085   3.262   3.469
 8612SOL    HW226736   4.012   3.338   3.344
 8613SOL     OW26737   3.315   2.476   1.000
 8613SOL    HW126738   3.279   2.528   1.077
 8613SOL    HW226739   3.241   2.457   0.935
 8614SOL     OW26740   1.330   2.388   1.752
 8614SOL    HW126741   1.386   2.464   1.719
 8614SOL    HW226742   1.267   2.359   1.680
 8615SOL     OW26743   4.457   1.189   3.473
 8615SOL    HW126744   4.398   1.199   3.553
 8615SOL    HW226745   4.406   1.216   3.391
 8616SOL     OW26746   4.225   4.948   2.647
 8616SOL    HW126747   4.219   4.989   2.738
 8616SOL    HW226748   4.319   4.954   2.614
 8617SOL     OW26749   4.849   0.199   4.184
 8617SOL    HW126750   4.882   0.190   4.278
 8617SOL    HW226751   4.914   0.157   4.121
 8618SOL     OW26752   5.595   4.050   1.438
 8618SOL    HW126753   5.691   4.078   1.444
 8618SOL    HW226754   5.550   4.101   1.366
 8619SOL     OW26755   5.727   4.595   1.872
 8619SOL    HW126756   5.649   4.641   1.915
 8619SOL    HW226757   5.771   4.659   1.808
 8620SOL     OW26758   2.008   1.027   4.689
 8620SOL    HW126759   1.919   1.020   4.643
 8620SOL    HW226760   2.057   0.940   4.680
 8621SOL     OW26761   5.139   2.491   2.063
 8621SOL    HW126762   5.094   2.410   2.100
 8621SOL    HW226763   5.137   2.487   1.963
 8622SOL     OW26764   6.879   5.202   2.723
 8622SOL    HW126765   6.978   5.189   2.728
 8622SOL    HW226766   6.835   5.146   2.793
 8623SOL     OW26767   6.559   3.266   5.344
 8623SOL    HW126768   6.565   3.334   5.271
 8623SOL    HW226769   6.572   3.175   5.305
 8624SOL     OW26770   3.296   3.649   6.265
 8624SOL    HW126771   3.320   3.732   6.316
 8624SOL    HW226772   3.198   3.633   6.271
 8625SOL     OW26773   3.809   1.710   5.525
 8625SOL    HW126774   3.799   1.613   5.548
 8625SOL    HW226775   3.819   1.720   5.426
 8626SOL     OW26776   4.905   3.969   0.623
 8626SOL    HW126777   4.873   3.874   0.622
 8626SOL    HW226778   5.004   3.971   0.606
 8627SOL     OW26779   1.559   1.263   2.732
 8627SOL    HW126780   1.490   1.308   2.790
 8627SOL    HW226781   1.527   1.171   2.708
 8628SOL     OW26782   0.324   6.416   0.458
 8628SOL    HW126783   0.399   6.468   0.415
 8628SOL    HW226784   0.312   6.446   0.552
 8629SOL     OW26785   0.298   0.101   4.398
 8629SOL    HW126786   0.297   0.079   4.495
 8629SOL    HW226787   0.251   0.029   4.347
 8630SOL     OW26788   4.884   3.207   2.804
 8630SOL    HW126789   4.843   3.121   2.836
 8630SOL    HW226790   4.978   3.191   2.776
 8631SOL     OW26791   3.048   6.243   6.639
 8631SOL    HW126792   3.108   6.312   6.597
 8631SOL    HW226793   3.000   6.193   6.567
 8632SOL     OW26794   4.582   4.790   5.179
 8632SOL    HW126795   4.669   4.773   5.225
 8632SOL    HW226796   4.546   4.879   5.208
 8633SOL     OW26797   5.968   3.825   5.512
 8633SOL    HW126798   5.899   3.887   5.549
 8633SOL    HW226799   5.923   3.741   5.482
 8634SOL     OW26800   5.431   5.030   1.016
 8634SOL    HW126801   5.492   4.970   1.067
 8634SOL    HW226802   5.381   4.976   0.947
 8635SOL     OW26803   6.193   2.845   6.783
 8635SOL    HW126804   6.166   2.842   6.687
 8635SOL    HW226805   6.125   2.897   6.835
 8636SOL     OW26806   4.717   6.198   1.076
 8636SOL    HW126807   4.739   6.169   1.169
 8636SOL    HW226808   4.627   6.243   1.075
 8637SOL     OW26809   2.226   1.910   6.419
 8637SOL    HW126810   2.232   1.983   6.351
 8637SOL    HW226811   2.318   1.886   6.449
 8638SOL     OW26812   4.311   3.050   5.362
 8638SOL    HW126813   4.384   2.993   5.326
 8638SOL    HW226814   4.223   3.006   5.344
 8639SOL     OW26815   4.388   2.961   6.530
 8639SOL    HW126816   4.360   3.032   6.466
 8639SOL    HW226817   4.405   3.002   6.620
 8640SOL     OW26818   2.678   3.312   1.387
 8640SOL    HW126819   2.766   3.294   1.431
 8640SOL    HW226820   2.624   3.228   1.383
 8641SOL     OW26821   4.543   5.797   2.581
 8641SOL    HW126822   4.594   5.726   2.631
 8641SOL    HW226823   4.595   5.824   2.500
 8642SOL     OW26824   1.407   6.691   4.541
 8642SOL    HW126825   1.381   6.677   4.445
 8642SOL    HW226826   1.498   6.654   4.557
 8643SOL     OW26827   3.141   0.095   0.563
 8643SOL    HW126828   3.163   0.190   0.582
 8643SOL    HW226829   3.224   0.039   0.573
 8644SOL     OW26830   6.288   1.581   6.930
 8644SOL    HW126831   6.234   1.497   6.925
 8644SOL    HW226832   6.247   1.644   6.996
 8645SOL     OW26833   6.028   4.164   1.965
 8645SOL    HW126834   6.020   4.223   2.045
 8645SOL    HW226835   6.124   4.157   1.937
 8646SOL     OW26836   0.205   2.033   5.338
 8646SOL    HW126837   0.161   1.959   5.389
 8646SOL    HW226838   0.270   2.081   5.398
 8647SOL     OW26839   2.336   4.578   1.448
 8647SOL    HW126840   2.381   4.666   1.462
 8647SOL    HW226841   2.271   4.561   1.522
 8648SOL     OW26842   5.808   5.637   0.935
 8648SOL    HW126843   5.897   5.666   0.900
 8648SOL    HW226844   5.789   5.685   1.021
 8649SOL     OW26845   4.054   6.582   0.595
 8649SOL    HW126846   4.066   6.577   0.694
 8649SOL    HW226847   4.115   6.652   0.557
 8650SOL     OW26848   2.019   0.196   4.191
 8650SOL    HW126849   1.996   0.099   4.202
 8650SOL    HW226850   2.003   0.224   4.096
 8651SOL     OW26851   2.772   1.420   0.896
 8651SOL    HW126852   2.794   1.500   0.839
 8651SOL    HW226853   2.831   1.420   0.977
 8652SOL     OW26854   1.272   4.180   3.985
 8652SOL    HW126855   1.231   4.161   4.074
 8652SOL    HW226856   1.315   4.270   3.986
 8653SOL     OW26857   6.997   1.484   5.877
 8653SOL    HW126858   6.992   1.416   5.950
 8653SOL    HW226859   7.009   1.575   5.918
 8654SOL     OW26860   1.180   5.394   1.892
 8654SOL    HW126861   1.238   5.398   1.973
 8654SOL    HW226862   1.231   5.355   1.816
 8655SOL     OW26863   7.026   1.172   5.307
 8655SOL    HW126864   7.024   1.264   5.347
 8655SOL    HW226865   0.060   1.171   5.228
 8656SOL     OW26866   4.781   0.168   1.316
 8656SOL    HW126867   4.683   0.175   1.338
 8656SOL    HW226868   4.834   0.168   1.400
 8657SOL     OW26869   5.370   0.879   2.367
 8657SOL    HW126870   5.309   0.843   2.296
 8657SOL    HW226871   5.408   0.803   2.420
 8658SOL     OW26872   6.322   4.996   1.039
 8658SOL    HW126873   6.399   5.053   1.009
 8658SOL    HW226874   6.326   4.984   1.138
 8659SOL     OW26875   5.158   1.595   2.018
 8659SOL    HW126876   5.126   1.550   1.935
 8659SOL    HW226877   5.084   1.597   2.085
 8660SOL     OW26878   0.827   2.876   1.217
 8660SOL    HW126879   0.731   2.850   1.220
 8660SOL    HW226880   0.883   2.801   1.250
 8661SOL     OW26881   6.097   3.315   2.966
 8661SOL    HW126882   6.017   3.354   2.920
 8661SOL    HW226883   6.066   3.245   3.031
 8662SOL     OW26884   3.120   5.619   2.912
 8662SOL    HW126885   3.124   5.532   2.863
 8662SOL    HW226886   3.197   5.677   2.885
 8663SOL     OW26887   3.602   5.664   3.244
 8663SOL    HW126888   3.576   5.624   3.332
 8663SOL    HW226889   3.643   5.594   3.186
 8664SOL     OW26890   2.681   5.443   3.287
 8664SOL    HW126891   2.774   5.410   3.266
 8664SOL    HW226892   2.662   5.525   3.233
 8665SOL     OW26893   6.055   3.858   6.148
 8665SOL    HW126894   5.995   3.938   6.159
 8665SOL    HW226895   6.144   3.878   6.187
 8666SOL     OW26896   5.094   0.119   3.268
 8666SOL    HW126897   5.161   0.185   3.234
 8666SOL    HW226898   5.112   0.100   3.364
 8667SOL     OW26899   4.930   1.898   4.326
 8667SOL    HW126900   4.969   1.965   4.263
 8667SOL    HW226901   4.886   1.946   4.402
 8668SOL     OW26902   4.869   3.059   4.861
 8668SOL    HW126903   4.874   2.968   4.901
 8668SOL    HW226904   4.953   3.109   4.881
 8669SOL     OW26905   5.985   6.560   6.260
 8669SOL    HW126906   6.048   6.622   6.214
 8669SOL    HW226907   5.937   6.504   6.193
 8670SOL     OW26908   6.104   4.451   5.792
 8670SOL    HW126909   6.020   4.505   5.784
 8670SOL    HW226910   6.181   4.513   5.809
 8671SOL     OW26911   0.298   2.178   2.367
 8671SOL    HW126912   0.332   2.131   2.449
 8671SOL    HW226913   0.359   2.253   2.344
 8672SOL     OW26914   6.779   0.676   3.330
 8672SOL    HW126915   6.774   0.683   3.430
 8672SOL    HW226916   6.733   0.753   3.288
 8673SOL     OW26917   0.945   1.943   0.587
 8673SOL    HW126918   0.986   2.001   0.516
 8673SOL    HW226919   1.016   1.887   0.630
 8674SOL     OW26920   0.353   4.785   3.067
 8674SOL    HW126921   0.442   4.792   3.112
 8674SOL    HW226922   0.366   4.762   2.970
 8675SOL     OW26923   3.707   1.953   5.784
 8675SOL    HW126924   3.676   1.952   5.689
 8675SOL    HW226925   3.713   1.859   5.819
 8676SOL     OW26926   5.716   0.905   0.868
 8676SOL    HW126927   5.674   0.823   0.828
 8676SOL    HW226928   5.714   0.979   0.801
 8677SOL     OW26929   1.209   6.801   5.593
 8677SOL    HW126930   1.264   6.860   5.652
 8677SOL    HW226931   1.127   6.772   5.642
 8678SOL     OW26932   1.615   0.784   1.240
 8678SOL    HW126933   1.526   0.740   1.242
 8678SOL    HW226934   1.687   0.714   1.237
 8679SOL     OW26935   2.114   1.157   4.124
 8679SOL    HW126936   2.187   1.186   4.185
 8679SOL    HW226937   2.113   1.057   4.118
 8680SOL     OW26938   6.513   2.396   6.258
 8680SOL    HW126939   6.511   2.485   6.212
 8680SOL    HW226940   6.502   2.409   6.356
 8681SOL     OW26941   5.422   6.015   0.885
 8681SOL    HW126942   5.519   6.011   0.908
 8681SOL    HW226943   5.407   6.086   0.817
 8682SOL     OW26944   0.315   0.225   0.894
 8682SOL    HW126945   0.368   0.294   0.944
 8682SOL    HW226946   0.241   0.270   0.844
 8683SOL     OW26947   1.899   4.174   4.752
 8683SOL    HW126948   1.990   4.162   4.791
 8683SOL    HW226949   1.902   4.155   4.654
 8684SOL     OW26950   0.841   3.899   4.436
 8684SOL    HW126951   0.789   3.887   4.351
 8684SOL    HW226952   0.789   3.957   4.498
 8685SOL     OW26953   4.878   2.503   5.534
 8685SOL    HW126954   4.814   2.576   5.559
 8685SOL    HW226955   4.871   2.429   5.600
 8686SOL     OW26956   6.657   6.105   2.584
 8686SOL    HW126957   6.662   6.057   2.497
 8686SOL    HW226958   6.733   6.170   2.590
 8687SOL     OW26959   6.072   3.125   3.175
 8687SOL    HW126960   6.075   3.180   3.259
 8687SOL    HW226961   6.086   3.029   3.198
 8688SOL     OW26962   1.170   4.272   6.215
 8688SOL    HW126963   1.223   4.189   6.235
 8688SOL    HW226964   1.135   4.310   6.301
 8689SOL     OW26965   4.529   3.447   0.608
 8689SOL    HW126966   4.441   3.401   0.597
 8689SOL    HW226967   4.591   3.389   0.660
 8690SOL     OW26968   1.966   2.234   3.662
 8690SOL    HW126969   2.014   2.231   3.750
 8690SOL    HW226970   1.994   2.155   3.606
 8691SOL     OW26971   2.944   2.241   4.810
 8691SOL    HW126972   2.874   2.305   4.777
 8691SOL    HW226973   2.929   2.152   4.767
 8692SOL     OW26974   4.574   2.049   5.943
 8692SOL    HW126975   4.519   2.085   6.019
 8692SOL    HW226976   4.637   2.121   5.913
 8693SOL     OW26977   6.023   0.947   6.083
 8693SOL    HW126978   5.944   0.957   6.145
 8693SOL    HW226979   5.994   0.901   5.999
 8694SOL     OW26980   5.794   2.954   3.958
 8694SOL    HW126981   5.800   3.051   3.983
 8694SOL    HW226982   5.698   2.927   3.952
 8695SOL     OW26983   4.286   3.659   6.444
 8695SOL    HW126984   4.312   3.616   6.357
 8695SOL    HW226985   4.364   3.658   6.506
 8696SOL     OW26986   3.045   5.678   5.951
 8696SOL    HW126987   3.113   5.700   6.021
 8696SOL    HW226988   2.953   5.697   5.986
 8697SOL     OW26989   1.845   4.344   5.870
 8697SOL    HW126990   1.799   4.295   5.797
 8697SOL    HW226991   1.925   4.392   5.833
 8698SOL     OW26992   5.292   5.900   5.414
 8698SOL    HW126993   5.365   5.842   5.451
 8698SOL    HW226994   5.246   5.947   5.489
 8699SOL     OW26995   2.104   3.101   0.032
 8699SOL    HW126996   2.105   3.069   0.126
 8699SOL    HW226997   2.197   3.118   0.001
 8700SOL     OW26998   0.631   0.181   5.014
 8700SOL    HW126999   0.618   0.138   5.104
 8700SOL    HW227000   0.613   0.279   5.022
 8701SOL     OW27001   1.202   1.937   6.636
 8701SOL    HW127002   1.130   1.870   6.655
 8701SOL    HW227003   1.190   1.974   6.544
 8702SOL     OW27004   5.601   4.073   1.711
 8702SOL    HW127005   5.523   4.117   1.667
 8702SOL    HW227006   5.670   4.142   1.732
 8703SOL     OW27007   2.653   4.582   1.177
 8703SOL    HW127008   2.699   4.519   1.240
 8703SOL    HW227009   2.555   4.586   1.200
 8704SOL     OW27010   0.872   1.952   3.798
 8704SOL    HW127011   0.804   2.024   3.785
 8704SOL    HW227012   0.957   1.992   3.831
 8705SOL     OW27013   4.203   2.659   0.384
 8705SOL    HW127014   4.276   2.720   0.355
 8705SOL    HW227015   4.123   2.672   0.325
 8706SOL     OW27016   4.652   3.243   6.348
 8706SOL    HW127017   4.627   3.340   6.356
 8706SOL    HW227018   4.586   3.197   6.289
 8707SOL     OW27019   1.415   2.164   4.121
 8707SOL    HW127020   1.497   2.163   4.064
 8707SOL    HW227021   1.436   2.208   4.209
 8708SOL     OW27022   5.912   2.364   2.479
 8708SOL    HW127023   5.898   2.366   2.381
 8708SOL    HW227024   5.865   2.285   2.519
 8709SOL     OW27025   6.610   0.088   5.682
 8709SOL    HW127026   6.704   0.078   5.715
 8709SOL    HW227027   6.575   7.025   5.653
 8710SOL     OW27028   2.138   1.284   3.691
 8710SOL    HW127029   2.039   1.273   3.703
 8710SOL    HW227030   2.167   1.236   3.608
 8711SOL     OW27031   1.322   0.484   1.672
 8711SOL    HW127032   1.345   0.464   1.767
 8711SOL    HW227033   1.223   0.491   1.662
 8712SOL     OW27034   1.723   2.488   5.571
 8712SOL    HW127035   1.788   2.488   5.495
 8712SOL    HW227036   1.630   2.504   5.536
 8713SOL     OW27037   1.028   5.026   1.925
 8713SOL    HW127038   0.965   5.103   1.938
 8713SOL    HW227039   0.977   4.941   1.927
 8714SOL     OW27040   6.441   6.333   6.703
 8714SOL    HW127041   6.440   6.393   6.783
 8714SOL    HW227042   6.402   6.381   6.625
 8715SOL     OW27043   2.642   2.179   0.546
 8715SOL    HW127044   2.722   2.155   0.601
 8715SOL    HW227045   2.617   2.275   0.564
 8716SOL     OW27046   6.378   6.986   1.355
 8716SOL    HW127047   6.442   6.913   1.331
 8716SOL    HW227048   6.416   0.014   1.431
 8717SOL     OW27049   2.434   4.660   0.175
 8717SOL    HW127050   2.373   4.669   0.097
 8717SOL    HW227051   2.385   4.617   0.251
 8718SOL     OW27052   2.461   4.433   6.077
 8718SOL    HW127053   2.430   4.519   6.117
 8718SOL    HW227054   2.500   4.375   6.148
 8719SOL     OW27055   3.668   1.041   5.920
 8719SOL    HW127056   3.724   1.108   5.871
 8719SOL    HW227057   3.636   0.971   5.856
 8720SOL     OW27058   6.857   4.246   4.980
 8720SOL    HW127059   6.780   4.254   5.043
 8720SOL    HW227060   6.860   4.327   4.921
 8721SOL     OW27061   6.997   6.781   6.468
 8721SOL    HW127062   6.913   6.743   6.428
 8721SOL    HW227063   0.050   6.749   6.417
 8722SOL     OW27064   3.958   1.119   1.312
 8722SOL    HW127065   3.984   1.191   1.376
 8722SOL    HW227066   3.948   1.157   1.220
 8723SOL     OW27067   5.175   0.064   2.310
 8723SOL    HW127068   5.142   0.019   2.227
 8723SOL    HW227069   5.129   0.025   2.390
 8724SOL     OW27070   4.074   0.279   4.656
 8724SOL    HW127071   4.095   0.361   4.709
 8724SOL    HW227072   4.035   0.210   4.716
 8725SOL     OW27073   0.749   6.255   4.441
 8725SOL    HW127074   0.811   6.313   4.494
 8725SOL    HW227075   0.736   6.168   4.487
 8726SOL     OW27076   0.883   1.044   0.281
 8726SOL    HW127077   0.925   0.962   0.320
 8726SOL    HW227078   0.846   1.022   0.191
 8727SOL     OW27079   5.291   5.805   6.150
 8727SOL    HW127080   5.284   5.764   6.060
 8727SOL    HW227081   5.249   5.896   6.149
 8728SOL     OW27082   6.211   0.404   3.247
 8728SOL    HW127083   6.116   0.433   3.237
 8728SOL    HW227084   6.218   0.305   3.229
 8729SOL     OW27085   3.909   5.376   6.218
 8729SOL    HW127086   3.975   5.447   6.193
 8729SOL    HW227087   3.817   5.414   6.218
 8730SOL     OW27088   4.939   4.749   2.277
 8730SOL    HW127089   4.992   4.667   2.256
 8730SOL    HW227090   4.844   4.737   2.247
 8731SOL     OW27091   0.266   2.106   3.315
 8731SOL    HW127092   0.192   2.045   3.286
 8731SOL    HW227093   0.254   2.129   3.411
 8732SOL     OW27094   5.031   5.565   1.126
 8732SOL    HW127095   5.101   5.636   1.125
 8732SOL    HW227096   4.941   5.606   1.115
 8733SOL     OW27097   0.271   4.665   2.473
 8733SOL    HW127098   0.247   4.591   2.410
 8733SOL    HW227099   0.352   4.639   2.526
 8734SOL     OW27100   6.830   3.587   2.186
 8734SOL    HW127101   6.849   3.556   2.279
 8734SOL    HW227102   6.884   3.532   2.122
 8735SOL     OW27103   1.950   4.010   5.687
 8735SOL    HW127104   2.016   4.058   5.746
 8735SOL    HW227105   1.862   4.057   5.691
 8736SOL     OW27106   0.758   5.465   2.477
 8736SOL    HW127107   0.759   5.542   2.413
 8736SOL    HW227108   0.779   5.498   2.569
 8737SOL     OW27109   1.585   5.296   6.539
 8737SOL    HW127110   1.556   5.349   6.619
 8737SOL    HW227111   1.505   5.268   6.487
 8738SOL     OW27112   1.091   3.739   3.577
 8738SOL    HW127113   1.145   3.678   3.520
 8738SOL    HW227114   1.035   3.799   3.519
 8739SOL     OW27115   5.199   4.251   5.330
 8739SOL    HW127116   5.216   4.153   5.343
 8739SOL    HW227117   5.141   4.264   5.249
 8740SOL     OW27118   3.467   1.620   3.952
 8740SOL    HW127119   3.559   1.616   3.914
 8740SOL    HW227120   3.471   1.648   4.048
 8741SOL     OW27121   1.103   0.086   2.339
 8741SOL    HW127122   1.081   0.091   2.242
 8741SOL    HW227123   1.185   0.029   2.352
 8742SOL     OW27124   3.212   1.349   2.687
 8742SOL    HW127125   3.204   1.342   2.787
 8742SOL    HW227126   3.214   1.446   2.661
 8743SOL     OW27127   1.672   0.517   1.736
 8743SOL    HW127128   1.640   0.423   1.737
 8743SOL    HW227129   1.604   0.576   1.779
 8744SOL     OW27130   3.601   4.027   6.700
 8744SOL    HW127131   3.560   3.953   6.753
 8744SOL    HW227132   3.695   4.005   6.678
 8745SOL     OW27133   6.524   1.377   6.153
 8745SOL    HW127134   6.514   1.473   6.180
 8745SOL    HW227135   6.486   1.318   6.224
 8746SOL     OW27136   5.134   5.164   4.505
 8746SOL    HW127137   5.142   5.073   4.464
 8746SOL    HW227138   5.206   5.223   4.468
 8747SOL     OW27139   6.775   0.611   1.936
 8747SOL    HW127140   6.864   0.593   1.894
 8747SOL    HW227141   6.786   0.621   2.035
 8748SOL     OW27142   0.729   1.981   3.327
 8748SOL    HW127143   0.807   1.921   3.310
 8748SOL    HW227144   0.761   2.069   3.362
 8749SOL     OW27145   2.635   1.661   5.420
 8749SOL    HW127146   2.563   1.727   5.440
 8749SOL    HW227147   2.631   1.636   5.323
 8750SOL     OW27148   4.807   2.734   6.304
 8750SOL    HW127149   4.811   2.647   6.254
 8750SOL    HW227150   4.713   2.756   6.326
 8751SOL     OW27151   0.337   6.276   2.135
 8751SOL    HW127152   0.290   6.267   2.223
 8751SOL    HW227153   0.332   6.371   2.104
 8752SOL     OW27154   4.880   3.161   6.970
 8752SOL    HW127155   4.909   3.075   7.013
 8752SOL    HW227156   4.784   3.177   6.989
 8753SOL     OW27157   1.668   3.124   0.089
 8753SOL    HW127158   1.708   3.190   0.025
 8753SOL    HW227159   1.569   3.138   0.092
 8754SOL     OW27160   2.888   5.516   6.637
 8754SOL    HW127161   2.854   5.480   6.724
 8754SOL    HW227162   2.974   5.565   6.652
 8755SOL     OW27163   0.225   1.723   2.400
 8755SOL    HW127164   0.223   1.623   2.409
 8755SOL    HW227165   0.190   1.748   2.310
 8756SOL     OW27166   2.251   2.619   3.905
 8756SOL    HW127167   2.199   2.673   3.838
 8756SOL    HW227168   2.321   2.677   3.947
 8757SOL     OW27169   4.850   6.599   5.462
 8757SOL    HW127170   4.891   6.514   5.496
 8757SOL    HW227171   4.794   6.579   5.382
 8758SOL     OW27172   4.024   6.790   3.996
 8758SOL    HW127173   3.961   6.751   3.929
 8758SOL    HW227174   4.118   6.765   3.971
 8759SOL     OW27175   6.253   0.911   0.394
 8759SOL    HW127176   6.163   0.951   0.376
 8759SOL    HW227177   6.248   0.850   0.473
 8760SOL     OW27178   2.252   2.323   4.462
 8760SOL    HW127179   2.152   2.325   4.451
 8760SOL    HW227180   2.275   2.334   4.559
 8761SOL     OW27181   4.619   0.938   2.137
 8761SOL    HW127182   4.592   0.968   2.228
 8761SOL    HW227183   4.660   1.015   2.087
 8762SOL     OW27184   1.345   5.017   3.285
 8762SOL    HW127185   1.263   5.014   3.342
 8762SOL    HW227186   1.371   5.112   3.270
 8763SOL     OW27187   0.341   1.132   5.738
 8763SOL    HW127188   0.242   1.122   5.735
 8763SOL    HW227189   0.370   1.200   5.670
 8764SOL     OW27190   3.985   4.873   5.702
 8764SOL    HW127191   3.907   4.922   5.663
 8764SOL    HW227192   3.992   4.783   5.659
 8765SOL     OW27193   5.055   0.037   5.163
 8765SOL    HW127194   5.002   0.121   5.163
 8765SOL    HW227195   5.097   0.024   5.073
 8766SOL     OW27196   5.040   4.786   5.743
 8766SOL    HW127197   5.002   4.803   5.834
 8766SOL    HW227198   5.074   4.692   5.738
 8767SOL     OW27199   3.046   0.753   3.725
 8767SOL    HW127200   2.997   0.824   3.674
 8767SOL    HW227201   3.107   0.704   3.662
 8768SOL     OW27202   6.558   2.756   0.355
 8768SOL    HW127203   6.587   2.808   0.275
 8768SOL    HW227204   6.634   2.700   0.388
 8769SOL     OW27205   6.619   1.195   0.853
 8769SOL    HW127206   6.717   1.184   0.834
 8769SOL    HW227207   6.584   1.111   0.895
 8770SOL     OW27208   4.904   3.416   2.589
 8770SOL    HW127209   4.883   3.377   2.679
 8770SOL    HW227210   4.909   3.515   2.595
 8771SOL     OW27211   0.336   3.391   6.266
 8771SOL    HW127212   0.401   3.464   6.245
 8771SOL    HW227213   0.372   3.335   6.340
 8772SOL     OW27214   5.839   0.242   4.394
 8772SOL    HW127215   5.842   0.225   4.296
 8772SOL    HW227216   5.857   0.156   4.443
 8773SOL     OW27217   6.858   2.112   4.067
 8773SOL    HW127218   6.888   2.194   4.115
 8773SOL    HW227219   6.928   2.083   4.002
 8774SOL     OW27220   1.576   0.232   0.377
 8774SOL    HW127221   1.580   0.135   0.401
 8774SOL    HW227222   1.520   0.280   0.443
 8775SOL     OW27223   5.222   2.189   4.645
 8775SOL    HW127224   5.265   2.202   4.735
 8775SOL    HW227225   5.129   2.156   4.657
 8776SOL     OW27226   4.633   2.737   0.111
 8776SOL    HW127227   4.668   2.822   0.073
 8776SOL    HW227228   4.677   2.659   0.066
 8777SOL     OW27229   1.387   2.125   3.251
 8777SOL    HW127230   1.422   2.117   3.158
 8777SOL    HW227231   1.371   2.222   3.273
 8778SOL     OW27232   4.517   4.352   5.871
 8778SOL    HW127233   4.461   4.357   5.954
 8778SOL    HW227234   4.601   4.302   5.892
 8779SOL     OW27235   3.367   4.894   3.345
 8779SOL    HW127236   3.316   4.907   3.430
 8779SOL    HW227237   3.305   4.862   3.273
 8780SOL     OW27238   6.855   5.396   3.004
 8780SOL    HW127239   6.758   5.376   3.016
 8780SOL    HW227240   6.905   5.310   2.993
 8781SOL     OW27241   3.864   6.290   2.222
 8781SOL    HW127242   3.921   6.288   2.139
 8781SOL    HW227243   3.823   6.199   2.236
 8782SOL     OW27244   5.061   0.581   1.733
 8782SOL    HW127245   4.995   0.641   1.779
 8782SOL    HW227246   5.031   0.486   1.742
 8783SOL     OW27247   4.923   3.428   4.899
 8783SOL    HW127248   4.885   3.495   4.963
 8783SOL    HW227249   4.943   3.472   4.812
 8784SOL     OW27250   5.584   6.581   0.762
 8784SOL    HW127251   5.508   6.527   0.798
 8784SOL    HW227252   5.627   6.633   0.836
 8785SOL     OW27253   0.728   5.640   6.092
 8785SOL    HW127254   0.787   5.574   6.139
 8785SOL    HW227255   0.702   5.712   6.156
 8786SOL     OW27256   4.090   1.949   2.021
 8786SOL    HW127257   4.008   1.894   2.037
 8786SOL    HW227258   4.078   2.040   2.060
 8787SOL     OW27259   3.545   0.385   1.830
 8787SOL    HW127260   3.494   0.371   1.746
 8787SOL    HW227261   3.633   0.337   1.825
 8788SOL     OW27262   0.467   0.053   4.812
 8788SOL    HW127263   0.527   0.085   4.886
 8788SOL    HW227264   0.436   0.131   4.758
 8789SOL     OW27265   0.524   3.663   4.883
 8789SOL    HW127266   0.519   3.744   4.826
 8789SOL    HW227267   0.572   3.590   4.834
 8790SOL     OW27268   5.656   3.146   6.521
 8790SOL    HW127269   5.720   3.073   6.498
 8790SOL    HW227270   5.583   3.109   6.578
 8791SOL     OW27271   4.326   5.522   5.421
 8791SOL    HW127272   4.358   5.614   5.441
 8791SOL    HW227273   4.385   5.455   5.466
 8792SOL     OW27274   4.974   5.135   1.786
 8792SOL    HW127275   4.973   5.071   1.862
 8792SOL    HW227276   4.883   5.175   1.774
 8793SOL     OW27277   0.399   4.750   4.386
 8793SOL    HW127278   0.353   4.734   4.474
 8793SOL    HW227279   0.495   4.770   4.402
 8794SOL     OW27280   0.003   0.297   1.767
 8794SOL    HW127281   0.020   0.334   1.858
 8794SOL    HW227282   0.059   0.216   1.753
 8795SOL     OW27283   1.842   5.377   5.608
 8795SOL    HW127284   1.803   5.289   5.579
 8795SOL    HW227285   1.769   5.445   5.615
 8796SOL     OW27286   6.942   3.481   3.429
 8796SOL    HW127287   7.003   3.541   3.481
 8796SOL    HW227288   6.899   3.415   3.491
 8797SOL     OW27289   6.033   6.987   3.862
 8797SOL    HW127290   6.044   6.967   3.765
 8797SOL    HW227291   5.938   6.973   3.889
 8798SOL     OW27292   4.723   6.488   5.779
 8798SOL    HW127293   4.774   6.537   5.709
 8798SOL    HW227294   4.641   6.541   5.804
 8799SOL     OW27295   2.214   5.092   2.196
 8799SOL    HW127296   2.199   5.062   2.102
 8799SOL    HW227297   2.292   5.044   2.235
 8800SOL     OW27298   6.945   5.878   5.403
 8800SOL    HW127299   6.921   5.910   5.311
 8800SOL    HW227300   6.870   5.899   5.466
 8801SOL     OW27301   6.101   2.476   5.192
 8801SOL    HW127302   6.167   2.549   5.211
 8801SOL    HW227303   6.041   2.463   5.272
 8802SOL     OW27304   1.314   6.358   5.507
 8802SOL    HW127305   1.266   6.391   5.426
 8802SOL    HW227306   1.389   6.421   5.529
 8803SOL     OW27307   6.265   0.403   6.162
 8803SOL    HW127308   6.236   0.446   6.247
 8803SOL    HW227309   6.211   0.319   6.147
 8804SOL     OW27310   1.717   5.801   2.109
 8804SOL    HW127311   1.783   5.862   2.066
 8804SOL    HW227312   1.640   5.854   2.144
 8805SOL     OW27313   4.591   5.472   2.462
 8805SOL    HW127314   4.591   5.508   2.555
 8805SOL    HW227315   4.682   5.438   2.438
 8806SOL     OW27316   2.046   6.633   0.209
 8806SOL    HW127317   1.985   6.670   0.280
 8806SOL    HW227318   2.124   6.695   0.197
 8807SOL     OW27319   5.011   2.368   1.074
 8807SOL    HW127320   4.921   2.410   1.081
 8807SOL    HW227321   5.073   2.431   1.026
 8808SOL     OW27322   2.113   2.040   0.809
 8808SOL    HW127323   2.183   1.995   0.865
 8808SOL    HW227324   2.127   2.017   0.713
 8809SOL     OW27325   1.620   3.739   3.593
 8809SOL    HW127326   1.570   3.739   3.507
 8809SOL    HW227327   1.556   3.728   3.669
 8810SOL     OW27328   6.983   1.715   5.616
 8810SOL    HW127329   6.995   1.637   5.676
 8810SOL    HW227330   6.896   1.707   5.567
 8811SOL     OW27331   4.181   5.995   2.444
 8811SOL    HW127332   4.208   5.946   2.361
 8811SOL    HW227333   4.197   5.937   2.523
 8812SOL     OW27334   3.554   1.485   6.545
 8812SOL    HW127335   3.466   1.501   6.590
 8812SOL    HW227336   3.541   1.486   6.446
 8813SOL     OW27337   2.660   4.602   3.073
 8813SOL    HW127338   2.571   4.558   3.075
 8813SOL    HW227339   2.729   4.540   3.110
 8814SOL     OW27340   5.538   6.918   6.891
 8814SOL    HW127341   5.543   6.837   6.832
 8814SOL    HW227342   5.617   6.920   6.952
 8815SOL     OW27343   5.297   1.210   0.219
 8815SOL    HW127344   5.342   1.121   0.221
 8815SOL    HW227345   5.198   1.198   0.227
 8816SOL     OW27346   0.851   6.225   5.649
 8816SOL    HW127347   0.905   6.144   5.629
 8816SOL    HW227348   0.819   6.222   5.744
 8817SOL     OW27349   1.573   3.230   4.346
 8817SOL    HW127350   1.578   3.156   4.280
 8817SOL    HW227351   1.581   3.194   4.439
 8818SOL     OW27352   2.221   0.077   3.914
 8818SOL    HW127353   2.290   0.005   3.905
 8818SOL    HW227354   2.143   0.042   3.965
 8819SOL     OW27355   5.333   4.278   6.004
 8819SOL    HW127356   5.416   4.224   6.019
 8819SOL    HW227357   5.353   4.354   5.943
 8820SOL     OW27358   3.341   0.853   4.406
 8820SOL    HW127359   3.335   0.919   4.332
 8820SOL    HW227360   3.334   0.760   4.369
 8821SOL     OW27361   0.928   4.428   0.475
 8821SOL    HW127362   0.915   4.484   0.393
 8821SOL    HW227363   0.889   4.476   0.554
 8822SOL     OW27364   6.790   6.944   3.794
 8822SOL    HW127365   6.746   6.967   3.881
 8822SOL    HW227366   6.826   0.002   3.752
 8823SOL     OW27367   3.653   0.820   3.006
 8823SOL    HW127368   3.642   0.888   3.080
 8823SOL    HW227369   3.655   0.867   2.918
 8824SOL     OW27370   2.302   1.197   1.685
 8824SOL    HW127371   2.284   1.136   1.608
 8824SOL    HW227372   2.249   1.281   1.673
 8825SOL     OW27373   0.260   0.123   0.009
 8825SOL    HW127374   0.231   0.086   0.097
 8825SOL    HW227375   0.252   0.223   0.012
 8826SOL     OW27376   1.009   3.228   0.893
 8826SOL    HW127377   0.949   3.183   0.959
 8826SOL    HW227378   1.046   3.160   0.830
 8827SOL     OW27379   4.352   0.188   2.333
 8827SOL    HW127380   4.350   0.089   2.340
 8827SOL    HW227381   4.356   0.228   2.425
 8828SOL     OW27382   4.292   3.242   6.450
 8828SOL    HW127383   4.200   3.257   6.414
 8828SOL    HW227384   4.296   3.272   6.546
 8829SOL     OW27385   7.022   1.717   1.879
 8829SOL    HW127386   6.923   1.713   1.865
 8829SOL    HW227387   0.039   1.635   1.841
 8830SOL     OW27388   3.001   1.933   2.965
 8830SOL    HW127389   2.929   1.904   3.028
 8830SOL    HW227390   2.960   1.979   2.887
 8831SOL     OW27391   0.484   2.181   1.684
 8831SOL    HW127392   0.504   2.126   1.765
 8831SOL    HW227393   0.397   2.229   1.696
 8832SOL     OW27394   6.657   0.192   4.145
 8832SOL    HW127395   6.675   0.243   4.061
 8832SOL    HW227396   6.570   0.144   4.137
 8833SOL     OW27397   3.542   2.365   0.741
 8833SOL    HW127398   3.447   2.387   0.764
 8833SOL    HW227399   3.559   2.269   0.761
 8834SOL     OW27400   5.689   3.812   5.311
 8834SOL    HW127401   5.725   3.724   5.279
 8834SOL    HW227402   5.611   3.797   5.371
 8835SOL     OW27403   6.273   0.653   5.584
 8835SOL    HW127404   6.281   0.666   5.485
 8835SOL    HW227405   6.350   0.598   5.616
 8836SOL     OW27406   4.921   2.167   6.549
 8836SOL    HW127407   4.939   2.231   6.624
 8836SOL    HW227408   4.910   2.218   6.464
 8837SOL     OW27409   5.829   0.099   1.725
 8837SOL    HW127410   5.852   0.158   1.648
 8837SOL    HW227411   5.846   0.148   1.811
 8838SOL     OW27412   6.978   4.161   3.263
 8838SOL    HW127413   6.948   4.118   3.178
 8838SOL    HW227414   0.049   4.141   3.279
 8839SOL     OW27415   5.354   6.262   3.359
 8839SOL    HW127416   5.316   6.300   3.275
 8839SOL    HW227417   5.311   6.306   3.438
 8840SOL     OW27418   0.207   0.986   1.324
 8840SOL    HW127419   0.125   0.986   1.267
 8840SOL    HW227420   0.287   0.964   1.267
 8841SOL     OW27421   3.660   1.475   1.933
 8841SOL    HW127422   3.612   1.425   1.861
 8841SOL    HW227423   3.748   1.431   1.951
 8842SOL     OW27424   3.611   2.966   4.068
 8842SOL    HW127425   3.645   2.928   4.154
 8842SOL    HW227426   3.525   3.014   4.083
 8843SOL     OW27427   1.960   4.027   5.392
 8843SOL    HW127428   1.947   4.012   5.490
 8843SOL    HW227429   2.043   3.980   5.361
 8844SOL     OW27430   5.063   1.472   4.866
 8844SOL    HW127431   5.014   1.439   4.786
 8844SOL    HW227432   5.010   1.544   4.910
 8845SOL     OW27433   1.069   5.598   1.584
 8845SOL    HW127434   1.095   5.689   1.615
 8845SOL    HW227435   1.099   5.530   1.651
 8846SOL     OW27436   5.449   4.730   3.445
 8846SOL    HW127437   5.499   4.677   3.376
 8846SOL    HW227438   5.376   4.782   3.401
 8847SOL     OW27439   2.385   1.959   2.696
 8847SOL    HW127440   2.310   2.020   2.670
 8847SOL    HW227441   2.409   1.975   2.792
 8848SOL     OW27442   3.411   1.558   1.070
 8848SOL    HW127443   3.423   1.558   1.170
 8848SOL    HW227444   3.427   1.650   1.035
 8849SOL     OW27445   3.505   5.904   4.572
 8849SOL    HW127446   3.463   5.819   4.605
 8849SOL    HW227447   3.597   5.884   4.538
 8850SOL     OW27448   3.070   2.089   0.516
 8850SOL    HW127449   3.165   2.061   0.528
 8850SOL    HW227450   3.050   2.095   0.418
 8851SOL     OW27451   0.757   4.864   3.545
 8851SOL    HW127452   0.778   4.767   3.561
 8851SOL    HW227453   0.675   4.871   3.487
 8852SOL     OW27454   5.686   2.662   5.661
 8852SOL    HW127455   5.591   2.635   5.676
 8852SOL    HW227456   5.689   2.760   5.639
 8853SOL     OW27457   4.027   1.152   5.088
 8853SOL    HW127458   4.010   1.054   5.075
 8853SOL    HW227459   4.018   1.174   5.185
 8854SOL     OW27460   1.578   2.058   6.041
 8854SOL    HW127461   1.648   2.041   5.972
 8854SOL    HW227462   1.494   2.010   6.016
 8855SOL     OW27463   6.364   5.849   6.571
 8855SOL    HW127464   6.361   5.938   6.617
 8855SOL    HW227465   6.354   5.863   6.472
 8856SOL     OW27466   5.721   0.909   5.063
 8856SOL    HW127467   5.652   0.981   5.056
 8856SOL    HW227468   5.787   0.934   5.134
 8857SOL     OW27469   6.089   2.033   3.560
 8857SOL    HW127470   6.050   1.956   3.509
 8857SOL    HW227471   6.094   2.009   3.657
 8858SOL     OW27472   0.920   3.754   5.965
 8858SOL    HW127473   0.878   3.844   5.978
 8858SOL    HW227474   0.863   3.700   5.903
 8859SOL     OW27475   1.346   6.013   5.447
 8859SOL    HW127476   1.389   5.941   5.392
 8859SOL    HW227477   1.250   6.021   5.423
 8860SOL     OW27478   1.010   2.168   2.515
 8860SOL    HW127479   1.075   2.243   2.511
 8860SOL    HW227480   0.929   2.197   2.566
 8861SOL     OW27481   4.055   3.380   0.193
 8861SOL    HW127482   4.113   3.339   0.122
 8861SOL    HW227483   3.959   3.366   0.168
 8862SOL     OW27484   5.720   1.436   4.784
 8862SOL    HW127485   5.756   1.410   4.874
 8862SOL    HW227486   5.791   1.423   4.715
 8863SOL     OW27487   1.955   5.774   4.750
 8863SOL    HW127488   1.979   5.871   4.743
 8863SOL    HW227489   2.012   5.730   4.819
 8864SOL     OW27490   2.086   3.291   6.417
 8864SOL    HW127491   2.090   3.327   6.510
 8864SOL    HW227492   2.179   3.283   6.381
 8865SOL     OW27493   2.458   1.880   5.435
 8865SOL    HW127494   2.510   1.914   5.514
 8865SOL    HW227495   2.363   1.913   5.441
 8866SOL     OW27496   3.388   6.740   3.564
 8866SOL    HW127497   3.331   6.737   3.646
 8866SOL    HW227498   3.330   6.740   3.483
 8867SOL     OW27499   5.965   2.087   3.058
 8867SOL    HW127500   6.017   2.038   2.988
 8867SOL    HW227501   6.002   2.180   3.068
 8868SOL     OW27502   4.910   4.174   0.803
 8868SOL    HW127503   4.874   4.105   0.740
 8868SOL    HW227504   4.927   4.133   0.892
 8869SOL     OW27505   4.862   3.560   3.128
 8869SOL    HW127506   4.795   3.565   3.054
 8869SOL    HW227507   4.900   3.468   3.132
 8870SOL     OW27508   3.974   1.418   1.041
 8870SOL    HW127509   3.956   1.326   1.076
 8870SOL    HW227510   4.062   1.450   1.075
 8871SOL     OW27511   1.897   1.863   3.585
 8871SOL    HW127512   1.983   1.841   3.540
 8871SOL    HW227513   1.840   1.781   3.592
 8872SOL     OW27514   1.670   3.950   4.530
 8872SOL    HW127515   1.593   4.004   4.565
 8872SOL    HW227516   1.636   3.886   4.462
 8873SOL     OW27517   0.465   5.464   4.344
 8873SOL    HW127518   0.546   5.507   4.385
 8873SOL    HW227519   0.482   5.367   4.333
 8874SOL     OW27520   2.834   0.551   1.089
 8874SOL    HW127521   2.885   0.582   1.009
 8874SOL    HW227522   2.887   0.484   1.140
 8875SOL     OW27523   1.451   2.887   4.174
 8875SOL    HW127524   1.536   2.913   4.128
 8875SOL    HW227525   1.472   2.823   4.248
 8876SOL     OW27526   0.458   1.133   4.857
 8876SOL    HW127527   0.516   1.085   4.791
 8876SOL    HW227528   0.515   1.174   4.928
 8877SOL     OW27529   3.060   0.791   4.392
 8877SOL    HW127530   3.123   0.867   4.375
 8877SOL    HW227531   3.043   0.742   4.306
 8878SOL     OW27532   0.017   4.285   7.005
 8878SOL    HW127533   7.025   4.375   0.018
 8878SOL    HW227534   6.957   4.245   6.971
 8879SOL     OW27535   5.623   6.435   0.306
 8879SOL    HW127536   5.536   6.386   0.306
 8879SOL    HW227537   5.675   6.412   0.389
 8880SOL     OW27538   6.658   4.739   4.150
 8880SOL    HW127539   6.614   4.761   4.064
 8880SOL    HW227540   6.671   4.640   4.156
 8881SOL     OW27541   0.056   1.099   1.926
 8881SOL    HW127542   0.015   1.140   2.008
 8881SOL    HW227543   0.143   1.144   1.907
 8882SOL     OW27544   5.487   2.265   6.378
 8882SOL    HW127545   5.481   2.221   6.288
 8882SOL    HW227546   5.532   2.354   6.368
 8883SOL     OW27547   5.905   0.816   5.854
 8883SOL    HW127548   5.920   0.893   5.792
 8883SOL    HW227549   5.965   0.740   5.829
 8884SOL     OW27550   5.397   0.007   5.866
 8884SOL    HW127551   5.481   6.979   5.852
 8884SOL    HW227552   5.409   0.067   5.946
 8885SOL     OW27553   5.917   3.734   1.831
 8885SOL    HW127554   5.946   3.814   1.884
 8885SOL    HW227555   5.881   3.664   1.892
 8886SOL     OW27556   2.719   6.661   5.935
 8886SOL    HW127557   2.666   6.624   6.011
 8886SOL    HW227558   2.762   6.747   5.963
 8887SOL     OW27559   2.885   0.958   1.543
 8887SOL    HW127560   2.860   0.986   1.451
 8887SOL    HW227561   2.877   1.036   1.605
 8888SOL     OW27562   2.133   1.406   1.654
 8888SOL    HW127563   2.038   1.437   1.648
 8888SOL    HW227564   2.183   1.438   1.574
 8889SOL     OW27565   4.540   0.059   4.698
 8889SOL    HW127566   4.519   0.064   4.600
 8889SOL    HW227567   4.622   0.112   4.718
 8890SOL     OW27568   0.186   5.491   4.851
 8890SOL    HW127569   0.104   5.451   4.891
 8890SOL    HW227570   0.217   5.436   4.774
 8891SOL     OW27571   5.530   3.251   6.269
 8891SOL    HW127572   5.597   3.231   6.340
 8891SOL    HW227573   5.538   3.183   6.195
 8892SOL     OW27574   1.972   0.540   3.357
 8892SOL    HW127575   2.043   0.514   3.422
 8892SOL    HW227576   1.882   0.538   3.402
 8893SOL     OW27577   6.986   1.416   0.816
 8893SOL    HW127578   7.013   1.482   0.886
 8893SOL    HW227579   6.939   1.463   0.742
 8894SOL     OW27580   4.420   2.554   6.057
 8894SOL    HW127581   4.451   2.574   6.150
 8894SOL    HW227582   4.497   2.522   6.002
 8895SOL     OW27583   0.608   6.772   1.568
 8895SOL    HW127584   0.598   6.832   1.488
 8895SOL    HW227585   0.685   6.711   1.555
 8896SOL     OW27586   1.680   4.148   4.933
 8896SOL    HW127587   1.730   4.114   5.013
 8896SOL    HW227588   1.744   4.168   4.859
 8897SOL     OW27589   1.280   1.522   1.523
 8897SOL    HW127590   1.378   1.505   1.533
 8897SOL    HW227591   1.245   1.567   1.606
 8898SOL     OW27592   6.012   3.363   4.216
 8898SOL    HW127593   6.067   3.323   4.143
 8898SOL    HW227594   5.940   3.299   4.243
 8899SOL     OW27595   2.033   4.482   0.306
 8899SOL    HW127596   2.004   4.496   0.401
 8899SOL    HW227597   1.990   4.551   0.247
 8900SOL     OW27598   4.688   2.367   3.073
 8900SOL    HW127599   4.683   2.267   3.066
 8900SOL    HW227600   4.600   2.403   3.104
 8901SOL     OW27601   1.094   0.420   2.606
 8901SOL    HW127602   1.075   0.323   2.617
 8901SOL    HW227603   1.055   0.471   2.683
 8902SOL     OW27604   1.725   5.564   6.240
 8902SOL    HW127605   1.699   5.660   6.250
 8902SOL    HW227606   1.797   5.556   6.172
 8903SOL     OW27607   1.872   1.832   4.044
 8903SOL    HW127608   1.775   1.852   4.038
 8903SOL    HW227609   1.918   1.901   4.100
 8904SOL     OW27610   0.182   5.730   3.907
 8904SOL    HW127611   0.217   5.824   3.907
 8904SOL    HW227612   0.085   5.731   3.928
 8905SOL     OW27613   2.412   3.168   5.671
 8905SOL    HW127614   2.432   3.264   5.651
 8905SOL    HW227615   2.315   3.158   5.693
 8906SOL     OW27616   6.709   6.375   6.253
 8906SOL    HW127617   6.680   6.320   6.331
 8906SOL    HW227618   6.729   6.315   6.175
 8907SOL     OW27619   3.261   2.764   5.187
 8907SOL    HW127620   3.222   2.673   5.179
 8907SOL    HW227621   3.194   2.826   5.228
 8908SOL     OW27622   1.618   1.924   1.502
 8908SOL    HW127623   1.535   1.970   1.469
 8908SOL    HW227624   1.611   1.909   1.601
 8909SOL     OW27625   2.662   0.931   6.047
 8909SOL    HW127626   2.576   0.882   6.032
 8909SOL    HW227627   2.738   0.879   6.007
 8910SOL     OW27628   2.699   3.042   6.583
 8910SOL    HW127629   2.774   3.087   6.632
 8910SOL    HW227630   2.707   2.943   6.594
 8911SOL     OW27631   3.486   2.126   4.696
 8911SOL    HW127632   3.483   2.075   4.782
 8911SOL    HW227633   3.558   2.196   4.701
 8912SOL     OW27634   4.319   1.675   6.241
 8912SOL    HW127635   4.271   1.722   6.315
 8912SOL    HW227636   4.290   1.580   6.238
 8913SOL     OW27637   5.094   4.238   1.743
 8913SOL    HW127638   5.055   4.262   1.833
 8913SOL    HW227639   5.128   4.144   1.746
 8914SOL     OW27640   3.682   1.537   4.985
 8914SOL    HW127641   3.631   1.452   4.971
 8914SOL    HW227642   3.729   1.562   4.901
 8915SOL     OW27643   2.171   3.248   3.372
 8915SOL    HW127644   2.198   3.210   3.461
 8915SOL    HW227645   2.151   3.174   3.308
 8916SOL     OW27646   0.041   4.498   2.967
 8916SOL    HW127647   6.979   4.454   2.949
 8916SOL    HW227648   0.048   4.521   3.064
 8917SOL     OW27649   6.089   6.495   6.750
 8917SOL    HW127650   6.013   6.548   6.785
 8917SOL    HW227651   6.136   6.450   6.826
 8918SOL     OW27652   5.385   6.073   6.585
 8918SOL    HW127653   5.299   6.104   6.626
 8918SOL    HW227654   5.436   6.152   6.550
 8919SOL     OW27655   3.298   4.456   0.982
 8919SOL    HW127656   3.388   4.461   1.024
 8919SOL    HW227657   3.304   4.486   0.887
 8920SOL     OW27658   6.193   5.058   5.937
 8920SOL    HW127659   6.163   5.059   6.032
 8920SOL    HW227660   6.129   5.110   5.880
 8921SOL     OW27661   1.381   0.620   3.844
 8921SOL    HW127662   1.324   0.681   3.789
 8921SOL    HW227663   1.333   0.533   3.858
 8922SOL     OW27664   1.805   4.856   1.012
 8922SOL    HW127665   1.711   4.883   1.031
 8922SOL    HW227666   1.805   4.777   0.950
 8923SOL     OW27667   1.782   3.953   6.796
 8923SOL    HW127668   1.855   4.021   6.787
 8923SOL    HW227669   1.761   3.915   6.706
 8924SOL     OW27670   3.486   5.187   4.967
 8924SOL    HW127671   3.405   5.218   4.917
 8924SOL    HW227672   3.516   5.259   5.030
 8925SOL     OW27673   6.674   0.017   2.209
 8925SOL    HW127674   6.724   6.970   2.257
 8925SOL    HW227675   6.576   7.022   2.212
 8926SOL     OW27676   5.469   2.252   2.073
 8926SOL    HW127677   5.492   2.345   2.045
 8926SOL    HW227678   5.501   2.187   2.004
 8927SOL     OW27679   2.339   2.729   5.126
 8927SOL    HW127680   2.425   2.678   5.121
 8927SOL    HW227681   2.353   2.820   5.087
 8928SOL     OW27682   0.592   0.499   5.625
 8928SOL    HW127683   0.559   0.593   5.631
 8928SOL    HW227684   0.525   0.437   5.664
 8929SOL     OW27685   0.040   3.609   4.169
 8929SOL    HW127686   7.024   3.526   4.132
 8929SOL    HW227687   0.045   3.679   4.098
 8930SOL     OW27688   1.452   5.143   4.788
 8930SOL    HW127689   1.368   5.181   4.827
 8930SOL    HW227690   1.457   5.167   4.691
 8931SOL     OW27691   4.899   1.461   1.370
 8931SOL    HW127692   4.930   1.447   1.276
 8931SOL    HW227693   4.811   1.415   1.384
 8932SOL     OW27694   5.834   0.550   6.593
 8932SOL    HW127695   5.916   0.582   6.546
 8932SOL    HW227696   5.830   0.450   6.587
 8933SOL     OW27697   1.743   0.975   4.756
 8933SOL    HW127698   1.695   1.039   4.816
 8933SOL    HW227699   1.680   0.906   4.722
 8934SOL     OW27700   3.553   5.836   3.043
 8934SOL    HW127701   3.551   5.788   3.130
 8934SOL    HW227702   3.615   5.914   3.048
 8935SOL     OW27703   4.414   2.264   2.679
 8935SOL    HW127704   4.367   2.247   2.593
 8935SOL    HW227705   4.507   2.297   2.661
 8936SOL     OW27706   0.672   4.974   1.361
 8936SOL    HW127707   0.651   4.955   1.457
 8936SOL    HW227708   0.763   5.016   1.354
 8937SOL     OW27709   6.990   6.602   3.974
 8937SOL    HW127710   0.032   6.583   4.045
 8937SOL    HW227711   6.919   6.663   4.010
 8938SOL     OW27712   6.414   0.944   0.671
 8938SOL    HW127713   6.330   0.998   0.663
 8938SOL    HW227714   6.392   0.855   0.711
 8939SOL     OW27715   0.122   2.514   4.196
 8939SOL    HW127716   0.072   2.583   4.145
 8939SOL    HW227717   0.220   2.536   4.196
 8940SOL     OW27718   6.960   3.288   0.977
 8940SOL    HW127719   6.872   3.336   0.984
 8940SOL    HW227720   6.944   3.192   0.953
 8941SOL     OW27721   5.353   2.194   2.316
 8941SOL    HW127722   5.389   2.199   2.224
 8941SOL    HW227723   5.278   2.259   2.326
 8942SOL     OW27724   6.611   4.488   3.600
 8942SOL    HW127725   6.512   4.505   3.599
 8942SOL    HW227726   6.638   4.445   3.514
 8943SOL     OW27727   4.335   3.848   0.105
 8943SOL    HW127728   4.384   3.851   0.018
 8943SOL    HW227729   4.361   3.765   0.155
 8944SOL     OW27730   4.783   5.037   4.314
 8944SOL    HW127731   4.745   5.112   4.368
 8944SOL    HW227732   4.755   4.949   4.354
 8945SOL     OW27733   6.283   4.110   5.119
 8945SOL    HW127734   6.307   4.139   5.026
 8945SOL    HW227735   6.225   4.028   5.115
 8946SOL     OW27736   5.438   1.176   4.107
 8946SOL    HW127737   5.427   1.154   4.204
 8946SOL    HW227738   5.527   1.219   4.093
 8947SOL     OW27739   1.377   5.084   5.956
 8947SOL    HW127740   1.450   5.057   6.019
 8947SOL    HW227741   1.303   5.128   6.007
 8948SOL     OW27742   6.756   0.329   3.261
 8948SOL    HW127743   6.786   0.234   3.260
 8948SOL    HW227744   6.752   0.362   3.355
 8949SOL     OW27745   3.137   6.268   0.133
 8949SOL    HW127746   3.143   6.182   0.083
 8949SOL    HW227747   3.222   6.319   0.123
 8950SOL     OW27748   4.924   4.623   1.365
 8950SOL    HW127749   4.970   4.607   1.452
 8950SOL    HW227750   4.864   4.546   1.344
 8951SOL     OW27751   2.079   1.418   4.450
 8951SOL    HW127752   2.154   1.367   4.407
 8951SOL    HW227753   2.058   1.499   4.395
 8952SOL     OW27754   1.859   4.814   3.612
 8952SOL    HW127755   1.843   4.913   3.608
 8952SOL    HW227756   1.821   4.771   3.530
 8953SOL     OW27757   2.472   5.011   2.344
 8953SOL    HW127758   2.431   5.073   2.410
 8953SOL    HW227759   2.568   5.036   2.330
 8954SOL     OW27760   1.363   5.165   5.223
 8954SOL    HW127761   1.400   5.102   5.154
 8954SOL    HW227762   1.394   5.137   5.314
 8955SOL     OW27763   4.882   2.565   3.611
 8955SOL    HW127764   4.960   2.626   3.600
 8955SOL    HW227765   4.910   2.471   3.596
 8956SOL     OW27766   1.172   6.164   5.938
 8956SOL    HW127767   1.234   6.114   5.878
 8956SOL    HW227768   1.123   6.100   5.997
 8957SOL     OW27769   0.908   5.471   2.145
 8957SOL    HW127770   0.976   5.469   2.072
 8957SOL    HW227771   0.941   5.419   2.223
 8958SOL     OW27772   1.656   3.774   5.374
 8958SOL    HW127773   1.743   3.778   5.324
 8958SOL    HW227774   1.587   3.732   5.315
 8959SOL     OW27775   0.291   3.048   2.410
 8959SOL    HW127776   0.224   3.086   2.474
 8959SOL    HW227777   0.289   3.100   2.325
 8960SOL     OW27778   5.830   4.182   4.330
 8960SOL    HW127779   5.813   4.275   4.296
 8960SOL    HW227780   5.743   4.138   4.351
 8961SOL     OW27781   3.473   0.091   4.902
 8961SOL    HW127782   3.386   0.049   4.876
 8961SOL    HW227783   3.548   0.037   4.862
 8962SOL     OW27784   0.927   5.761   1.369
 8962SOL    HW127785   0.955   5.669   1.397
 8962SOL    HW227786   0.979   5.788   1.287
 8963SOL     OW27787   3.655   6.023   4.330
 8963SOL    HW127788   3.702   6.087   4.269
 8963SOL    HW227789   3.557   6.044   4.331
 8964SOL     OW27790   0.026   3.172   4.309
 8964SOL    HW127791   0.097   3.242   4.309
 8964SOL    HW227792   0.039   3.112   4.388
 8965SOL     OW27793   4.450   5.228   0.431
 8965SOL    HW127794   4.466   5.259   0.338
 8965SOL    HW227795   4.498   5.289   0.495
 8966SOL     OW27796   5.253   5.387   6.050
 8966SOL    HW127797   5.321   5.378   6.122
 8966SOL    HW227798   5.164   5.355   6.083
 8967SOL     OW27799   3.688   0.274   3.241
 8967SOL    HW127800   3.723   0.190   3.282
 8967SOL    HW227801   3.765   0.333   3.216
 8968SOL     OW27802   3.466   4.919   2.099
 8968SOL    HW127803   3.379   4.871   2.103
 8968SOL    HW227804   3.533   4.863   2.048
 8969SOL     OW27805   0.144   0.947   2.859
 8969SOL    HW127806   0.194   0.893   2.790
 8969SOL    HW227807   0.060   0.898   2.884
 8970SOL     OW27808   1.740   1.323   6.112
 8970SOL    HW127809   1.765   1.374   6.195
 8970SOL    HW227810   1.821   1.310   6.055
 8971SOL     OW27811   4.425   5.693   0.538
 8971SOL    HW127812   4.522   5.689   0.516
 8971SOL    HW227813   4.412   5.738   0.626
 8972SOL     OW27814   5.869   4.262   0.675
 8972SOL    HW127815   5.834   4.352   0.703
 8972SOL    HW227816   5.861   4.253   0.576
 8973SOL     OW27817   0.287   2.441   2.217
 8973SOL    HW127818   0.375   2.416   2.258
 8973SOL    HW227819   0.301   2.515   2.152
 8974SOL     OW27820   2.152   4.201   4.470
 8974SOL    HW127821   2.058   4.173   4.488
 8974SOL    HW227822   2.209   4.178   4.549
 8975SOL     OW27823   0.452   0.218   6.476
 8975SOL    HW127824   0.484   0.194   6.568
 8975SOL    HW227825   0.372   0.277   6.483
 8976SOL     OW27826   6.547   6.674   1.816
 8976SOL    HW127827   6.627   6.614   1.819
 8976SOL    HW227828   6.570   6.758   1.767
 8977SOL     OW27829   0.349   4.773   6.128
 8977SOL    HW127830   0.403   4.832   6.188
 8977SOL    HW227831   0.274   4.826   6.088
 8978SOL     OW27832   5.736   5.355   5.348
 8978SOL    HW127833   5.786   5.435   5.314
 8978SOL    HW227834   5.648   5.348   5.301
 8979SOL     OW27835   1.060   5.397   5.796
 8979SOL    HW127836   1.071   5.473   5.860
 8979SOL    HW227837   1.032   5.315   5.846
 8980SOL     OW27838   3.731   0.765   5.193
 8980SOL    HW127839   3.652   0.819   5.165
 8980SOL    HW227840   3.708   0.668   5.190
 8981SOL     OW27841   4.512   3.005   6.958
 8981SOL    HW127842   4.554   2.915   6.947
 8981SOL    HW227843   4.464   3.009   0.020
 8982SOL     OW27844   0.279   1.304   1.505
 8982SOL    HW127845   0.288   1.209   1.475
 8982SOL    HW227846   0.364   1.335   1.546
 8983SOL     OW27847   1.106   6.485   2.956
 8983SOL    HW127848   1.178   6.507   3.022
 8983SOL    HW227849   1.061   6.569   2.926
 8984SOL     OW27850   5.843   0.231   4.125
 8984SOL    HW127851   5.938   0.204   4.109
 8984SOL    HW227852   5.807   0.275   4.043
 8985SOL     OW27853   4.519   2.660   0.831
 8985SOL    HW127854   4.438   2.631   0.781
 8985SOL    HW227855   4.592   2.593   0.817
 8986SOL     OW27856   7.013   4.686   0.883
 8986SOL    HW127857   0.085   4.685   0.861
 8986SOL    HW227858   6.978   4.592   0.884
 8987SOL     OW27859   2.106   6.986   1.570
 8987SOL    HW127860   2.174   7.022   1.634
 8987SOL    HW227861   2.027   0.023   1.567
 8988SOL     OW27862   1.283   5.095   1.094
 8988SOL    HW127863   1.274   5.029   1.169
 8988SOL    HW227864   1.317   5.182   1.130
 8989SOL     OW27865   5.613   1.718   1.702
 8989SOL    HW127866   5.576   1.734   1.793
 8989SOL    HW227867   5.673   1.793   1.677
 8990SOL     OW27868   3.327   6.879   2.043
 8990SOL    HW127869   3.410   6.832   2.071
 8990SOL    HW227870   3.342   6.977   2.040
 8991SOL     OW27871   2.335   2.678   0.799
 8991SOL    HW127872   2.424   2.699   0.840
 8991SOL    HW227873   2.335   2.705   0.703
 8992SOL     OW27874   0.322   3.238   6.983
 8992SOL    HW127875   0.323   3.335   6.957
 8992SOL    HW227876   0.389   3.188   6.928
 8993SOL     OW27877   5.499   2.490   3.624
 8993SOL    HW127878   5.427   2.513   3.559
 8993SOL    HW227879   5.534   2.574   3.666
 8994SOL     OW27880   1.064   4.971   3.470
 8994SOL    HW127881   1.103   5.010   3.554
 8994SOL    HW227882   1.000   4.898   3.494
 8995SOL     OW27883   1.895   3.725   5.247
 8995SOL    HW127884   1.979   3.778   5.259
 8995SOL    HW227885   1.902   3.671   5.163
 8996SOL     OW27886   0.280   3.987   2.619
 8996SOL    HW127887   0.254   3.948   2.707
 8996SOL    HW227888   0.230   3.942   2.545
 8997SOL     OW27889   4.336   1.567   5.311
 8997SOL    HW127890   4.423   1.559   5.360
 8997SOL    HW227891   4.343   1.518   5.224
 8998SOL     OW27892   1.353   2.023   5.829
 8998SOL    HW127893   1.397   2.110   5.805
 8998SOL    HW227894   1.309   1.985   5.747
 8999SOL     OW27895   6.058   1.376   4.753
 8999SOL    HW127896   6.005   1.345   4.675
 8999SOL    HW227897   6.015   1.344   4.838
 9000SOL     OW27898   2.974   4.098   0.578
 9000SOL    HW127899   2.956   4.180   0.632
 9000SOL    HW227900   2.914   4.024   0.609
 9001SOL     OW27901   1.871   5.076   3.605
 9001SOL    HW127902   1.866   5.115   3.697
 9001SOL    HW227903   1.930   5.134   3.548
 9002SOL     OW27904   5.956   4.684   6.094
 9002SOL    HW127905   5.959   4.780   6.065
 9002SOL    HW227906   5.864   4.662   6.127
 9003SOL     OW27907   5.967   2.695   0.059
 9003SOL    HW127908   5.919   2.764   0.006
 9003SOL    HW227909   5.958   2.714   0.156
 9004SOL     OW27910   4.430   6.422   0.910
 9004SOL    HW127911   4.423   6.389   1.004
 9004SOL    HW227912   4.416   6.521   0.907
 9005SOL     OW27913   4.870   1.953   3.266
 9005SOL    HW127914   4.774   1.924   3.268
 9005SOL    HW227915   4.879   2.042   3.312
 9006SOL     OW27916   1.395   5.357   1.153
 9006SOL    HW127917   1.493   5.356   1.173
 9006SOL    HW227918   1.354   5.440   1.190
 9007SOL     OW27919   3.309   6.200   3.835
 9007SOL    HW127920   3.244   6.153   3.775
 9007SOL    HW227921   3.381   6.242   3.781
 9008SOL     OW27922   0.620   4.491   2.347
 9008SOL    HW127923   0.667   4.576   2.321
 9008SOL    HW227924   0.682   4.433   2.399
 9009SOL     OW27925   2.724   6.444   0.311
 9009SOL    HW127926   2.679   6.399   0.388
 9009SOL    HW227927   2.661   6.508   0.267
 9010SOL     OW27928   0.849   6.295   5.126
 9010SOL    HW127929   0.864   6.270   5.030
 9010SOL    HW227930   0.795   6.224   5.171
 9011SOL     OW27931   4.394   1.853   0.962
 9011SOL    HW127932   4.427   1.780   0.902
 9011SOL    HW227933   4.441   1.938   0.940
 9012SOL     OW27934   0.533   4.972   1.663
 9012SOL    HW127935   0.585   5.026   1.730
 9012SOL    HW227936   0.449   5.020   1.638
 9013SOL     OW27937   6.530   6.019   3.256
 9013SOL    HW127938   6.485   6.061   3.177
 9013SOL    HW227939   6.461   5.979   3.316
 9014SOL     OW27940   1.746   0.379   1.130
 9014SOL    HW127941   1.799   0.310   1.080
 9014SOL    HW227942   1.648   0.360   1.119
 9015SOL     OW27943   0.223   1.170   6.030
 9015SOL    HW127944   0.129   1.188   6.060
 9015SOL    HW227945   0.224   1.089   5.972
 9016SOL     OW27946   6.180   6.375   6.321
 9016SOL    HW127947   6.194   6.323   6.236
 9016SOL    HW227948   6.101   6.435   6.310
 9017SOL     OW27949   6.160   2.197   3.941
 9017SOL    HW127950   6.114   2.273   3.988
 9017SOL    HW227951   6.229   2.157   4.002
 9018SOL     OW27952   3.756   2.259   5.365
 9018SOL    HW127953   3.673   2.204   5.369
 9018SOL    HW227954   3.745   2.341   5.421
 9019SOL     OW27955   2.412   6.983   0.498
 9019SOL    HW127956   2.450   6.894   0.520
 9019SOL    HW227957   2.476   0.029   0.525
 9020SOL     OW27958   1.413   4.190   2.657
 9020SOL    HW127959   1.363   4.268   2.619
 9020SOL    HW227960   1.491   4.168   2.598
 9021SOL     OW27961   6.774   5.732   4.788
 9021SOL    HW127962   6.746   5.646   4.829
 9021SOL    HW227963   6.862   5.721   4.742
 9022SOL     OW27964   2.461   0.882   0.325
 9022SOL    HW127965   2.448   0.877   0.226
 9022SOL    HW227966   2.509   0.966   0.348
 9023SOL     OW27967   3.278   2.967   3.946
 9023SOL    HW127968   3.303   2.871   3.933
 9023SOL    HW227969   3.329   3.025   3.882
 9024SOL     OW27970   1.935   6.840   6.306
 9024SOL    HW127971   1.897   6.774   6.371
 9024SOL    HW227972   1.893   6.929   6.321
 9025SOL     OW27973   6.056   5.026   1.693
 9025SOL    HW127974   6.106   5.094   1.746
 9025SOL    HW227975   5.963   5.058   1.676
 9026SOL     OW27976   3.363   2.942   4.967
 9026SOL    HW127977   3.311   2.865   5.002
 9026SOL    HW227978   3.410   2.988   5.042
 9027SOL     OW27979   2.832   2.187   3.177
 9027SOL    HW127980   2.772   2.219   3.103
 9027SOL    HW227981   2.836   2.088   3.176
 9028SOL     OW27982   2.773   4.781   5.263
 9028SOL    HW127983   2.809   4.747   5.350
 9028SOL    HW227984   2.783   4.711   5.193
 9029SOL     OW27985   4.675   6.243   3.511
 9029SOL    HW127986   4.724   6.305   3.449
 9029SOL    HW227987   4.739   6.178   3.551
 9030SOL     OW27988   2.028   0.806   2.433
 9030SOL    HW127989   2.097   0.770   2.496
 9030SOL    HW227990   1.938   0.806   2.477
 9031SOL     OW27991   2.367   6.183   5.889
 9031SOL    HW127992   2.435   6.212   5.821
 9031SOL    HW227993   2.351   6.258   5.954
 9032SOL     OW27994   2.291   1.711   1.565
 9032SOL    HW127995   2.368   1.770   1.540
 9032SOL    HW227996   2.296   1.689   1.663
 9033SOL     OW27997   2.053   3.512   3.424
 9033SOL    HW127998   2.062   3.559   3.512
 9033SOL    HW227999   2.100   3.424   3.428
 9034SOL     OW28000   3.267   6.441   5.831
 9034SOL    HW128001   3.190   6.402   5.881
 9034SOL    HW228002   3.236   6.520   5.778
 9035SOL     OW28003   0.084   1.145   4.041
 9035SOL    HW128004   0.014   1.109   3.979
 9035SOL    HW228005   0.174   1.119   4.008
 9036SOL     OW28006   0.730   2.941   5.772
 9036SOL    HW128007   0.780   2.894   5.700
 9036SOL    HW228008   0.756   3.038   5.774
 9037SOL     OW28009   2.731   4.531   6.395
 9037SOL    HW128010   2.728   4.432   6.385
 9037SOL    HW228011   2.762   4.554   6.488
 9038SOL     OW28012   4.434   6.425   5.423
 9038SOL    HW128013   4.411   6.519   5.451
 9038SOL    HW228014   4.396   6.407   5.333
 9039SOL     OW28015   2.113   5.268   4.717
 9039SOL    HW128016   2.112   5.243   4.620
 9039SOL    HW228017   2.104   5.186   4.773
 9040SOL     OW28018   1.500   1.872   2.723
 9040SOL    HW128019   1.452   1.955   2.753
 9040SOL    HW228020   1.560   1.893   2.647
 9041SOL     OW28021   1.411   3.271   0.864
 9041SOL    HW128022   1.370   3.339   0.803
 9041SOL    HW228023   1.428   3.312   0.954
 9042SOL     OW28024   2.800   5.020   3.208
 9042SOL    HW128025   2.789   4.955   3.132
 9042SOL    HW228026   2.897   5.044   3.218
 9043SOL     OW28027   0.768   2.600   5.973
 9043SOL    HW128028   0.721   2.590   6.061
 9043SOL    HW228029   0.700   2.611   5.900
 9044SOL     OW28030   6.107   0.618   0.818
 9044SOL    HW128031   6.018   0.581   0.846
 9044SOL    HW228032   6.175   0.545   0.818
 9045SOL     OW28033   2.898   0.059   3.447
 9045SOL    HW128034   2.929   0.042   3.353
 9045SOL    HW228035   2.824   7.023   3.470
 9046SOL     OW28036   3.437   4.189   5.463
 9046SOL    HW128037   3.393   4.196   5.374
 9046SOL    HW228038   3.382   4.239   5.531
 9047SOL     OW28039   1.056   4.124   4.181
 9047SOL    HW128040   0.976   4.142   4.238
 9047SOL    HW228041   1.032   4.059   4.109
 9048SOL     OW28042   1.010   3.840   4.662
 9048SOL    HW128043   0.972   3.782   4.733
 9048SOL    HW228044   0.965   3.821   4.575
 9049SOL     OW28045   5.676   6.489   6.183
 9049SOL    HW128046   5.592   6.435   6.186
 9049SOL    HW228047   5.681   6.549   6.263
 9050SOL     OW28048   0.054   4.682   6.824
 9050SOL    HW128049   0.071   4.740   6.904
 9050SOL    HW228050   0.141   4.650   6.787
 9051SOL     OW28051   5.895   5.655   0.225
 9051SOL    HW128052   5.858   5.744   0.251
 9051SOL    HW228053   5.839   5.582   0.265
 9052SOL     OW28054   2.558   4.806   4.638
 9052SOL    HW128055   2.624   4.764   4.575
 9052SOL    HW228056   2.607   4.845   4.716
 9053SOL     OW28057   2.367   2.798   4.054
 9053SOL    HW128058   2.301   2.843   4.114
 9053SOL    HW228059   2.444   2.764   4.108
 9054SOL     OW28060   1.838   0.319   1.974
 9054SOL    HW128061   1.781   0.369   2.038
 9054SOL    HW228062   1.793   0.315   1.885
 9055SOL     OW28063   0.614   2.309   3.998
 9055SOL    HW128064   0.537   2.264   4.043
 9055SOL    HW228065   0.694   2.304   4.058
 9056SOL     OW28066   4.757   0.154   2.819
 9056SOL    HW128067   4.708   0.100   2.889
 9056SOL    HW228068   4.828   0.208   2.863
 9057SOL     OW28069   6.265   6.088   6.748
 9057SOL    HW128070   6.312   6.169   6.782
 9057SOL    HW228071   6.167   6.106   6.744
 9058SOL     OW28072   1.928   2.787   5.118
 9058SOL    HW128073   1.962   2.870   5.161
 9058SOL    HW228074   1.835   2.800   5.087
 9059SOL     OW28075   6.682   1.847   2.843
 9059SOL    HW128076   6.766   1.884   2.803
 9059SOL    HW228077   6.613   1.834   2.772
 9060SOL     OW28078   0.430   3.296   1.663
 9060SOL    HW128079   0.454   3.199   1.670
 9060SOL    HW228080   0.388   3.313   1.573
 9061SOL     OW28081   4.832   5.554   1.979
 9061SOL    HW128082   4.862   5.648   1.965
 9061SOL    HW228083   4.735   5.553   2.002
 9062SOL     OW28084   0.341   4.270   3.725
 9062SOL    HW128085   0.371   4.319   3.807
 9062SOL    HW228086   0.305   4.181   3.750
 9063SOL     OW28087   3.066   0.737   2.474
 9063SOL    HW128088   3.080   0.777   2.564
 9063SOL    HW228089   3.134   0.665   2.458
 9064SOL     OW28090   0.449   4.058   3.537
 9064SOL    HW128091   0.383   4.001   3.585
 9064SOL    HW228092   0.517   4.092   3.601
 9065SOL     OW28093   2.630   5.614   5.035
 9065SOL    HW128094   2.727   5.590   5.038
 9065SOL    HW228095   2.578   5.546   5.086
 9066SOL     OW28096   5.436   5.364   6.253
 9066SOL    HW128097   5.481   5.292   6.306
 9066SOL    HW228098   5.505   5.426   6.216
 9067SOL     OW28099   6.378   0.315   4.816
 9067SOL    HW128100   6.347   0.305   4.911
 9067SOL    HW228101   6.380   0.226   4.772
 9068SOL     OW28102   5.070   0.243   4.726
 9068SOL    HW128103   5.121   0.320   4.763
 9068SOL    HW228104   5.105   0.219   4.636
 9069SOL     OW28105   4.797   2.096   1.748
 9069SOL    HW128106   4.863   2.023   1.730
 9069SOL    HW228107   4.723   2.060   1.805
 9070SOL     OW28108   1.136   2.186   5.539
 9070SOL    HW128109   1.083   2.116   5.491
 9070SOL    HW228110   1.080   2.227   5.611
 9071SOL     OW28111   4.542   1.468   5.826
 9071SOL    HW128112   4.539   1.513   5.915
 9071SOL    HW228113   4.636   1.465   5.793
 9072SOL     OW28114   5.531   0.355   2.209
 9072SOL    HW128115   5.435   0.341   2.232
 9072SOL    HW228116   5.565   0.436   2.257
 9073SOL     OW28117   3.834   0.534   6.974
 9073SOL    HW128118   3.872   0.571   0.033
 9073SOL    HW228119   3.837   0.604   6.903
 9074SOL     OW28120   1.398   6.855   1.296
 9074SOL    HW128121   1.389   6.823   1.391
 9074SOL    HW228122   1.309   6.847   1.251
 9075SOL     OW28123   6.629   0.829   1.507
 9075SOL    HW128124   6.626   0.820   1.607
 9075SOL    HW228125   6.724   0.828   1.476
 9076SOL     OW28126   5.794   6.859   2.368
 9076SOL    HW128127   5.807   6.850   2.467
 9076SOL    HW228128   5.820   6.951   2.340
 9077SOL     OW28129   5.716   1.479   6.012
 9077SOL    HW128130   5.695   1.470   6.109
 9077SOL    HW228131   5.743   1.389   5.976
 9078SOL     OW28132   4.984   5.849   0.075
 9078SOL    HW128133   5.070   5.803   0.049
 9078SOL    HW228134   4.963   5.829   0.170
 9079SOL     OW28135   0.976   0.156   5.738
 9079SOL    HW128136   1.007   0.144   5.644
 9079SOL    HW228137   0.891   0.105   5.752
 9080SOL     OW28138   6.627   3.280   0.997
 9080SOL    HW128139   6.668   3.370   1.015
 9080SOL    HW228140   6.528   3.288   1.001
 9081SOL     OW28141   3.694   1.694   1.385
 9081SOL    HW128142   3.738   1.679   1.296
 9081SOL    HW228143   3.740   1.769   1.433
 9082SOL     OW28144   3.071   6.131   6.150
 9082SOL    HW128145   3.070   6.109   6.053
 9082SOL    HW228146   3.107   6.053   6.202
 9083SOL     OW28147   4.929   4.793   5.997
 9083SOL    HW128148   4.932   4.851   6.078
 9083SOL    HW228149   4.851   4.731   6.003
 9084SOL     OW28150   0.645   2.694   5.546
 9084SOL    HW128151   0.658   2.702   5.448
 9084SOL    HW228152   0.723   2.734   5.594
 9085SOL     OW28153   3.155   5.203   6.782
 9085SOL    HW128154   3.161   5.238   6.689
 9085SOL    HW228155   3.206   5.264   6.843
 9086SOL     OW28156   6.540   4.331   0.750
 9086SOL    HW128157   6.544   4.385   0.834
 9086SOL    HW228158   6.604   4.255   0.756
 9087SOL     OW28159   6.067   2.202   1.831
 9087SOL    HW128160   6.093   2.175   1.738
 9087SOL    HW228161   6.015   2.128   1.874
 9088SOL     OW28162   6.028   0.808   1.782
 9088SOL    HW128163   5.984   0.748   1.849
 9088SOL    HW228164   6.062   0.754   1.705
 9089SOL     OW28165   4.190   5.317   3.686
 9089SOL    HW128166   4.120   5.373   3.731
 9089SOL    HW228167   4.272   5.316   3.742
 9090SOL     OW28168   5.731   6.329   4.529
 9090SOL    HW128169   5.759   6.233   4.536
 9090SOL    HW228170   5.632   6.335   4.543
 9091SOL     OW28171   3.356   2.302   0.078
 9091SOL    HW128172   3.348   2.315   7.005
 9091SOL    HW228173   3.267   2.276   0.116
 9092SOL     OW28174   1.529   6.512   5.591
 9092SOL    HW128175   1.524   6.601   5.635
 9092SOL    HW228176   1.592   6.453   5.641
 9093SOL     OW28177   1.448   5.684   0.439
 9093SOL    HW128178   1.546   5.694   0.454
 9093SOL    HW228179   1.404   5.651   0.523
 9094SOL     OW28180   0.024   5.695   2.003
 9094SOL    HW128181   0.072   5.666   2.086
 9094SOL    HW228182   0.065   5.779   1.968
 9095SOL     OW28183   4.987   3.387   6.804
 9095SOL    HW128184   4.924   3.465   6.807
 9095SOL    HW228185   4.940   3.305   6.837
 9096SOL     OW28186   5.766   3.107   2.893
 9096SOL    HW128187   5.696   3.056   2.843
 9096SOL    HW228188   5.762   3.083   2.990
 9097SOL     OW28189   0.739   3.820   6.690
 9097SOL    HW128190   0.737   3.768   6.775
 9097SOL    HW228191   0.681   3.902   6.699
 9098SOL     OW28192   3.857   4.023   2.223
 9098SOL    HW128193   3.816   4.032   2.314
 9098SOL    HW228194   3.914   4.102   2.204
 9099SOL     OW28195   3.067   3.450   0.868
 9099SOL    HW128196   3.010   3.400   0.803
 9099SOL    HW228197   3.136   3.502   0.817
 9100SOL     OW28198   0.830   3.195   1.470
 9100SOL    HW128199   0.905   3.184   1.535
 9100SOL    HW228200   0.778   3.278   1.493
 9101SOL     OW28201   1.794   2.755   2.832
 9101SOL    HW128202   1.718   2.698   2.864
 9101SOL    HW228203   1.763   2.850   2.822
 9102SOL     OW28204   3.802   5.527   2.355
 9102SOL    HW128205   3.722   5.476   2.385
 9102SOL    HW228206   3.796   5.545   2.257
 9103SOL     OW28207   0.059   3.802   0.992
 9103SOL    HW128208   0.111   3.872   1.041
 9103SOL    HW228209   0.063   3.819   0.894
 9104SOL     OW28210   4.431   6.159   1.815
 9104SOL    HW128211   4.424   6.071   1.768
 9104SOL    HW228212   4.467   6.145   1.907
 9105SOL     OW28213   1.598   0.454   6.590
 9105SOL    HW128214   1.657   0.510   6.648
 9105SOL    HW228215   1.503   0.484   6.600
 9106SOL     OW28216   5.608   4.335   0.437
 9106SOL    HW128217   5.603   4.241   0.472
 9106SOL    HW228218   5.703   4.367   0.443
 9107SOL     OW28219   4.176   6.923   6.724
 9107SOL    HW128220   4.100   6.965   6.675
 9107SOL    HW228221   4.169   6.824   6.718
 9108SOL     OW28222   4.818   4.479   5.262
 9108SOL    HW128223   4.753   4.407   5.283
 9108SOL    HW228224   4.899   4.439   5.218
 9109SOL     OW28225   2.256   1.928   3.127
 9109SOL    HW128226   2.270   1.830   3.140
 9109SOL    HW228227   2.226   1.970   3.212
 9110SOL     OW28228   2.493   4.692   3.712
 9110SOL    HW128229   2.506   4.789   3.691
 9110SOL    HW228230   2.523   4.674   3.805
 9111SOL     OW28231   3.574   4.295   1.630
 9111SOL    HW128232   3.655   4.347   1.658
 9111SOL    HW228233   3.578   4.204   1.671
 9112SOL     OW28234   0.583   3.481   3.475
 9112SOL    HW128235   0.607   3.518   3.384
 9112SOL    HW228236   0.655   3.419   3.505
 9113SOL     OW28237   4.456   1.081   6.797
 9113SOL    HW128238   4.477   1.075   6.895
 9113SOL    HW228239   4.382   1.018   6.775
 9114SOL     OW28240   2.202   4.614   2.470
 9114SOL    HW128241   2.287   4.595   2.420
 9114SOL    HW228242   2.167   4.704   2.444
 9115SOL     OW28243   1.091   5.234   4.015
 9115SOL    HW128244   1.061   5.166   4.083
 9115SOL    HW228245   1.190   5.244   4.019
 9116SOL     OW28246   6.774   1.685   6.394
 9116SOL    HW128247   6.745   1.776   6.363
 9116SOL    HW228248   6.764   1.680   6.494
 9117SOL     OW28249   6.466   3.313   6.526
 9117SOL    HW128250   6.409   3.391   6.503
 9117SOL    HW228251   6.493   3.318   6.622
 9118SOL     OW28252   6.198   6.907   0.926
 9118SOL    HW128253   6.186   6.904   1.025
 9118SOL    HW228254   6.258   6.833   0.897
 9119SOL     OW28255   5.928   1.243   2.208
 9119SOL    HW128256   5.943   1.296   2.291
 9119SOL    HW228257   5.829   1.231   2.194
 9120SOL     OW28258   5.877   2.699   5.862
 9120SOL    HW128259   5.825   2.753   5.928
 9120SOL    HW228260   5.816   2.668   5.789
 9121SOL     OW28261   0.341   3.217   5.367
 9121SOL    HW128262   0.334   3.298   5.309
 9121SOL    HW228263   0.402   3.238   5.444
 9122SOL     OW28264   1.812   2.630   1.854
 9122SOL    HW128265   1.859   2.543   1.841
 9122SOL    HW228266   1.850   2.677   1.934
 9123SOL     OW28267   3.350   6.437   5.265
 9123SOL    HW128268   3.359   6.340   5.240
 9123SOL    HW228269   3.255   6.465   5.255
 9124SOL     OW28270   6.067   5.728   5.350
 9124SOL    HW128271   6.091   5.728   5.253
 9124SOL    HW228272   6.003   5.803   5.368
 9125SOL     OW28273   4.696   4.248   3.803
 9125SOL    HW128274   4.749   4.205   3.729
 9125SOL    HW228275   4.698   4.189   3.884
 9126SOL     OW28276   6.186   1.489   2.334
 9126SOL    HW128277   6.091   1.519   2.344
 9126SOL    HW228278   6.240   1.563   2.293
 9127SOL     OW28279   5.873   0.219   5.528
 9127SOL    HW128280   5.936   0.147   5.556
 9127SOL    HW228281   5.888   0.241   5.432
 9128SOL     OW28282   4.030   1.717   5.326
 9128SOL    HW128283   4.064   1.809   5.341
 9128SOL    HW228284   4.101   1.650   5.349
 9129SOL     OW28285   1.765   3.271   1.020
 9129SOL    HW128286   1.735   3.299   0.930
 9129SOL    HW228287   1.839   3.331   1.052
 9130SOL     OW28288   7.001   4.379   6.678
 9130SOL    HW128289   6.953   4.326   6.748
 9130SOL    HW228290   0.074   4.359   6.683
 9131SOL     OW28291   0.411   4.193   4.818
 9131SOL    HW128292   0.485   4.254   4.847
 9131SOL    HW228293   0.398   4.121   4.886
 9132SOL     OW28294   6.856   3.961   3.736
 9132SOL    HW128295   6.837   3.889   3.669
 9132SOL    HW228296   6.793   4.037   3.723
 9133SOL     OW28297   3.139   5.081   0.726
 9133SOL    HW128298   3.121   5.097   0.629
 9133SOL    HW228299   3.233   5.105   0.747
 9134SOL     OW28300   3.396   6.972   0.622
 9134SOL    HW128301   3.436   0.034   0.596
 9134SOL    HW228302   3.459   6.898   0.595
 9135SOL     OW28303   0.263   6.548   2.076
 9135SOL    HW128304   0.296   6.616   2.010
 9135SOL    HW228305   0.163   6.548   2.076
 9136SOL     OW28306   4.715   5.186   5.625
 9136SOL    HW128307   4.783   5.257   5.607
 9136SOL    HW228308   4.656   5.175   5.545
 9137SOL     OW28309   5.631   1.416   0.677
 9137SOL    HW128310   5.595   1.476   0.748
 9137SOL    HW228311   5.666   1.332   0.718
 9138SOL     OW28312   6.651   4.911   5.988
 9138SOL    HW128313   6.712   4.890   5.912
 9138SOL    HW228314   6.615   4.826   6.026
 9139SOL     OW28315   2.250   1.159   4.643
 9139SOL    HW128316   2.170   1.106   4.668
 9139SOL    HW228317   2.235   1.203   4.554
 9140SOL     OW28318   6.661   2.677   2.773
 9140SOL    HW128319   6.629   2.662   2.679
 9140SOL    HW228320   6.754   2.642   2.782
 9141SOL     OW28321   5.275   0.026   6.464
 9141SOL    HW128322   5.234   6.962   6.480
 9141SOL    HW228323   5.330   0.023   6.381
 9142SOL     OW28324   0.367   2.484   5.588
 9142SOL    HW128325   0.353   2.583   5.591
 9142SOL    HW228326   0.442   2.463   5.526
 9143SOL     OW28327   5.011   4.164   0.065
 9143SOL    HW128328   4.961   4.229   0.123
 9143SOL    HW228329   5.094   4.206   0.031
 9144SOL     OW28330   2.210   5.549   6.356
 9144SOL    HW128331   2.221   5.453   6.385
 9144SOL    HW228332   2.285   5.604   6.395
 9145SOL     OW28333   6.925   4.793   1.133
 9145SOL    HW128334   6.958   4.755   1.047
 9145SOL    HW228335   6.968   4.882   1.149
 9146SOL     OW28336   5.179   1.831   1.635
 9146SOL    HW128337   5.129   1.780   1.565
 9146SOL    HW228338   5.268   1.788   1.650
 9147SOL     OW28339   5.868   0.022   4.544
 9147SOL    HW128340   5.928   7.009   4.473
 9147SOL    HW228341   5.891   7.005   4.632
 9148SOL     OW28342   5.245   0.050   1.054
 9148SOL    HW128343   5.308   6.998   1.061
 9148SOL    HW228344   5.211   0.074   1.145
 9149SOL     OW28345   4.906   2.634   4.182
 9149SOL    HW128346   4.967   2.713   4.183
 9149SOL    HW228347   4.900   2.596   4.090
 9150SOL     OW28348   3.594   5.383   3.522
 9150SOL    HW128349   3.529   5.459   3.531
 9150SOL    HW228350   3.545   5.296   3.537
 9151SOL     OW28351   1.274   4.233   2.912
 9151SOL    HW128352   1.278   4.327   2.946
 9151SOL    HW228353   1.365   4.204   2.883
 9152SOL     OW28354   2.526   5.311   4.534
 9152SOL    HW128355   2.532   5.411   4.536
 9152SOL    HW228356   2.478   5.280   4.617
 9153SOL     OW28357   1.460   3.679   1.082
 9153SOL    HW128358   1.555   3.684   1.051
 9153SOL    HW228359   1.436   3.584   1.102
 9154SOL     OW28360   2.899   5.117   0.092
 9154SOL    HW128361   2.880   5.030   0.137
 9154SOL    HW228362   2.906   5.102   7.019
 9155SOL     OW28363   2.060   3.806   0.553
 9155SOL    HW128364   1.980   3.858   0.580
 9155SOL    HW228365   2.088   3.832   0.461
 9156SOL     OW28366   3.085   3.070   1.207
 9156SOL    HW128367   3.111   3.037   1.297
 9156SOL    HW228368   3.156   3.132   1.172
 9157SOL     OW28369   6.119   4.882   5.657
 9157SOL    HW128370   6.152   4.844   5.743
 9157SOL    HW228371   6.194   4.929   5.610
 9158SOL     OW28372   6.246   3.484   4.983
 9158SOL    HW128373   6.162   3.457   5.030
 9158SOL    HW228374   6.317   3.504   5.050
 9159SOL     OW28375   1.109   6.751   3.818
 9159SOL    HW128376   1.082   6.816   3.888
 9159SOL    HW228377   1.155   6.799   3.743
 9160SOL     OW28378   6.343   0.392   5.296
 9160SOL    HW128379   6.442   0.385   5.311
 9160SOL    HW228380   6.295   0.380   5.383
 9161SOL     OW28381   4.763   4.118   4.043
 9161SOL    HW128382   4.759   4.062   4.126
 9161SOL    HW228383   4.799   4.209   4.066
 9162SOL     OW28384   4.854   1.663   3.935
 9162SOL    HW128385   4.838   1.718   4.017
 9162SOL    HW228386   4.808   1.574   3.944
 9163SOL     OW28387   2.087   3.375   3.826
 9163SOL    HW128388   1.995   3.372   3.785
 9163SOL    HW228389   2.125   3.467   3.816
 9164SOL     OW28390   2.864   0.679   0.162
 9164SOL    HW128391   2.938   0.635   0.213
 9164SOL    HW228392   2.866   0.778   0.179
 9165SOL     OW28393   6.224   0.942   5.221
 9165SOL    HW128394   6.231   0.997   5.305
 9165SOL    HW228395   6.251   0.998   5.142
 9166SOL     OW28396   4.730   5.916   0.987
 9166SOL    HW128397   4.648   5.869   0.953
 9166SOL    HW228398   4.719   6.014   0.975
 9167SOL     OW28399   1.465   2.800   6.615
 9167SOL    HW128400   1.379   2.751   6.603
 9167SOL    HW228401   1.538   2.752   6.565
 9168SOL     OW28402   0.665   0.007   5.952
 9168SOL    HW128403   0.620   6.951   5.916
 9168SOL    HW228404   0.722   7.008   6.030
 9169SOL     OW28405   6.588   1.479   4.823
 9169SOL    HW128406   6.490   1.477   4.843
 9169SOL    HW228407   6.606   1.547   4.752
 9170SOL     OW28408   0.526   4.959   0.663
 9170SOL    HW128409   0.586   5.039   0.673
 9170SOL    HW228410   0.502   4.947   0.566
 9171SOL     OW28411   2.862   5.512   0.408
 9171SOL    HW128412   2.784   5.522   0.470
 9171SOL    HW228413   2.844   5.439   0.343
 9172SOL     OW28414   3.122   0.586   5.054
 9172SOL    HW128415   3.152   0.580   4.958
 9172SOL    HW228416   3.025   0.564   5.060
 9173SOL     OW28417   6.052   4.018   4.849
 9173SOL    HW128418   6.068   3.940   4.789
 9173SOL    HW228419   6.108   4.095   4.819
 9174SOL     OW28420   6.287   4.352   1.102
 9174SOL    HW128421   6.278   4.350   1.002
 9174SOL    HW228422   6.335   4.435   1.130
 9175SOL     OW28423   1.581   6.820   5.079
 9175SOL    HW128424   1.532   6.734   5.093
 9175SOL    HW228425   1.641   6.837   5.158
 9176SOL     OW28426   2.827   1.022   4.797
 9176SOL    HW128427   2.859   1.114   4.818
 9176SOL    HW228428   2.905   0.963   4.775
 9177SOL     OW28429   1.713   5.156   4.665
 9177SOL    HW128430   1.705   5.241   4.716
 9177SOL    HW228431   1.691   5.173   4.569
 9178SOL     OW28432   2.179   5.686   0.689
 9178SOL    HW128433   2.103   5.750   0.696
 9178SOL    HW228434   2.154   5.610   0.629
 9179SOL     OW28435   3.370   5.688   3.858
 9179SOL    HW128436   3.328   5.745   3.929
 9179SOL    HW228437   3.469   5.695   3.864
 9180SOL     OW28438   5.714   2.173   2.969
 9180SOL    HW128439   5.797   2.134   3.010
 9180SOL    HW228440   5.668   2.103   2.915
 9181SOL     OW28441   3.863   2.103   3.920
 9181SOL    HW128442   3.792   2.136   3.982
 9181SOL    HW228443   3.834   2.116   3.825
 9182SOL     OW28444   2.468   6.436   2.273
 9182SOL    HW128445   2.493   6.355   2.327
 9182SOL    HW228446   2.397   6.411   2.208
 9183SOL     OW28447   4.921   6.519   0.426
 9183SOL    HW128448   5.014   6.532   0.460
 9183SOL    HW228449   4.924   6.497   0.329
 9184SOL     OW28450   5.214   1.886   6.855
 9184SOL    HW128451   5.141   1.899   6.922
 9184SOL    HW228452   5.282   1.822   6.893
 9185SOL     OW28453   4.323   6.565   5.166
 9185SOL    HW128454   4.399   6.609   5.214
 9185SOL    HW228455   4.310   6.610   5.078
 9186SOL     OW28456   5.822   0.379   3.898
 9186SOL    HW128457   5.878   0.462   3.893
 9186SOL    HW228458   5.848   0.317   3.823
 9187SOL     OW28459   2.779   0.902   1.112
 9187SOL    HW128460   2.701   0.852   1.149
 9187SOL    HW228461   2.814   0.965   1.182
 9188SOL     OW28462   2.170   6.489   1.899
 9188SOL    HW128463   2.126   6.426   1.835
 9188SOL    HW228464   2.232   6.437   1.958
 9189SOL     OW28465   5.545   6.032   1.444
 9189SOL    HW128466   5.611   5.957   1.444
 9189SOL    HW228467   5.593   6.118   1.428
 9190SOL     OW28468   1.676   4.846   0.181
 9190SOL    HW128469   1.589   4.837   0.230
 9190SOL    HW228470   1.691   4.942   0.157
 9191SOL     OW28471   5.687   0.749   6.055
 9191SOL    HW128472   5.738   0.825   6.095
 9191SOL    HW228473   5.720   0.732   5.963
 9192SOL     OW28474   0.356   3.979   5.985
 9192SOL    HW128475   0.391   4.049   6.047
 9192SOL    HW228476   0.432   3.927   5.947
 9193SOL     OW28477   4.521   4.625   0.437
 9193SOL    HW128478   4.476   4.661   0.356
 9193SOL    HW228479   4.619   4.615   0.420
 9194SOL     OW28480   2.995   0.426   2.867
 9194SOL    HW128481   2.926   0.475   2.921
 9194SOL    HW228482   2.989   0.454   2.772
 9195SOL     OW28483   1.978   2.355   4.432
 9195SOL    HW128484   1.915   2.284   4.399
 9195SOL    HW228485   1.928   2.418   4.491
 9196SOL     OW28486   4.470   0.296   3.943
 9196SOL    HW128487   4.496   0.254   4.030
 9196SOL    HW228488   4.514   0.247   3.868
 9197SOL     OW28489   2.010   4.401   1.459
 9197SOL    HW128490   2.033   4.487   1.504
 9197SOL    HW228491   2.073   4.330   1.488
 9198SOL     OW28492   6.528   4.730   6.337
 9198SOL    HW128493   6.443   4.759   6.293
 9198SOL    HW228494   6.514   4.725   6.436
 9199SOL     OW28495   1.638   3.894   6.060
 9199SOL    HW128496   1.654   3.992   6.049
 9199SOL    HW228497   1.717   3.842   6.027
 9200SOL     OW28498   2.759   0.279   0.747
 9200SOL    HW128499   2.668   0.243   0.766
 9200SOL    HW228500   2.781   0.265   0.650
 9201SOL     OW28501   0.467   2.639   0.280
 9201SOL    HW128502   0.538   2.583   0.237
 9201SOL    HW228503   0.481   2.735   0.255
 9202SOL     OW28504   1.595   6.552   2.732
 9202SOL    HW128505   1.554   6.597   2.811
 9202SOL    HW228506   1.600   6.616   2.656
 9203SOL     OW28507   0.445   5.242   0.249
 9203SOL    HW128508   0.360   5.270   0.292
 9203SOL    HW228509   0.493   5.176   0.308
 9204SOL     OW28510   4.148   2.594   6.560
 9204SOL    HW128511   4.190   2.577   6.471
 9204SOL    HW228512   4.049   2.607   6.548
 9205SOL     OW28513   6.136   4.873   2.623
 9205SOL    HW128514   6.230   4.866   2.657
 9205SOL    HW228515   6.112   4.969   2.610
 9206SOL     OW28516   3.927   5.437   2.037
 9206SOL    HW128517   3.861   5.414   1.966
 9206SOL    HW228518   3.956   5.354   2.084
 9207SOL     OW28519   4.342   4.910   6.595
 9207SOL    HW128520   4.432   4.932   6.633
 9207SOL    HW228521   4.279   4.985   6.616
 9208SOL     OW28522   5.649   3.963   4.070
 9208SOL    HW128523   5.661   4.055   4.107
 9208SOL    HW228524   5.604   3.906   4.139
 9209SOL     OW28525   2.801   0.952   0.215
 9209SOL    HW128526   2.728   1.001   0.168
 9209SOL    HW228527   2.782   0.949   0.313
 9210SOL     OW28528   6.967   0.949   3.152
 9210SOL    HW128529   6.913   1.013   3.206
 9210SOL    HW228530   0.036   0.951   3.183
 9211SOL     OW28531   6.272   3.211   4.563
 9211SOL    HW128532   6.263   3.114   4.539
 9211SOL    HW228533   6.246   3.224   4.659
 9212SOL     OW28534   4.079   5.091   4.325
 9212SOL    HW128535   4.110   4.996   4.316
 9212SOL    HW228536   4.067   5.114   4.421
 9213SOL     OW28537   5.431   3.567   5.954
 9213SOL    HW128538   5.486   3.651   5.964
 9213SOL    HW228539   5.420   3.523   6.043
 9214SOL     OW28540   0.429   5.264   6.087
 9214SOL    HW128541   0.371   5.233   6.162
 9214SOL    HW228542   0.457   5.359   6.104
 9215SOL     OW28543   1.417   2.260   0.124
 9215SOL    HW128544   1.479   2.186   0.151
 9215SOL    HW228545   1.358   2.284   0.201
 9216SOL     OW28546   2.702   0.232   2.939
 9216SOL    HW128547   2.603   0.218   2.940
 9216SOL    HW228548   2.723   0.310   2.880
 9217SOL     OW28549   0.561   1.210   6.423
 9217SOL    HW128550   0.585   1.163   6.338
 9217SOL    HW228551   0.466   1.240   6.418
 9218SOL     OW28552   3.525   6.437   1.017
 9218SOL    HW128553   3.445   6.440   0.957
 9218SOL    HW228554   3.575   6.523   1.009
 9219SOL     OW28555   0.263   2.445   1.236
 9219SOL    HW128556   0.171   2.413   1.257
 9219SOL    HW228557   0.270   2.468   1.139
 9220SOL     OW28558   1.996   6.855   0.642
 9220SOL    HW128559   2.073   6.877   0.581
 9220SOL    HW228560   1.920   6.818   0.588
 9221SOL     OW28561   2.991   1.116   4.186
 9221SOL    HW128562   2.961   1.147   4.277
 9221SOL    HW228563   2.924   1.052   4.149
 9222SOL     OW28564   2.094   0.161   6.197
 9222SOL    HW128565   2.092   0.117   6.107
 9222SOL    HW228566   2.122   0.257   6.186
 9223SOL     OW28567   1.842   1.538   4.120
 9223SOL    HW128568   1.931   1.493   4.112
 9223SOL    HW228569   1.848   1.630   4.081
 9224SOL     OW28570   2.682   5.016   5.135
 9224SOL    HW128571   2.608   5.069   5.178
 9224SOL    HW228572   2.706   4.939   5.194
 9225SOL     OW28573   4.202   6.941   6.115
 9225SOL    HW128574   4.156   6.858   6.084
 9225SOL    HW228575   4.236   6.927   6.208
 9226SOL     OW28576   5.426   6.986   2.034
 9226SOL    HW128577   5.428   6.887   2.024
 9226SOL    HW228578   5.519   7.020   2.048
 9227SOL     OW28579   0.784   5.292   1.416
 9227SOL    HW128580   0.846   5.354   1.368
 9227SOL    HW228581   0.822   5.268   1.505
 9228SOL     OW28582   1.776   0.973   5.919
 9228SOL    HW128583   1.844   0.988   5.990
 9228SOL    HW228584   1.692   0.937   5.960
 9229SOL     OW28585   1.410   5.200   4.531
 9229SOL    HW128586   1.332   5.225   4.473
 9229SOL    HW228587   1.452   5.283   4.568
 9230SOL     OW28588   5.819   0.837   3.377
 9230SOL    HW128589   5.777   0.893   3.448
 9230SOL    HW228590   5.852   0.751   3.416
 9231SOL     OW28591   1.309   4.893   4.708
 9231SOL    HW128592   1.377   4.856   4.645
 9231SOL    HW228593   1.351   4.967   4.762
 9232SOL     OW28594   3.258   5.388   0.713
 9232SOL    HW128595   3.337   5.340   0.753
 9232SOL    HW228596   3.291   5.453   0.645
 9233SOL     OW28597   5.213   5.448   1.576
 9233SOL    HW128598   5.178   5.444   1.483
 9233SOL    HW228599   5.309   5.476   1.575
 9234SOL     OW28600   3.795   5.563   5.043
 9234SOL    HW128601   3.857   5.492   5.010
 9234SOL    HW228602   3.784   5.633   4.973
 9235SOL     OW28603   1.391   2.517   3.667
 9235SOL    HW128604   1.331   2.588   3.630
 9235SOL    HW228605   1.428   2.547   3.755
 9236SOL     OW28606   2.621   4.383   5.734
 9236SOL    HW128607   2.687   4.313   5.759
 9236SOL    HW228608   2.554   4.346   5.670
 9237SOL     OW28609   2.277   4.813   5.229
 9237SOL    HW128610   2.367   4.804   5.272
 9237SOL    HW228611   2.211   4.754   5.275
 9238SOL     OW28612   3.838   1.755   6.192
 9238SOL    HW128613   3.894   1.726   6.269
 9238SOL    HW228614   3.742   1.760   6.219
 9239SOL     OW28615   0.319   3.925   0.879
 9239SOL    HW128616   0.371   4.009   0.890
 9239SOL    HW228617   0.382   3.848   0.867
 9240SOL     OW28618   5.402   1.727   0.588
 9240SOL    HW128619   5.481   1.739   0.648
 9240SOL    HW228620   5.403   1.796   0.516
 9241SOL     OW28621   0.766   5.117   6.604
 9241SOL    HW128622   0.760   5.022   6.572
 9241SOL    HW228623   0.675   5.154   6.617
 9242SOL     OW28624   6.651   5.551   0.827
 9242SOL    HW128625   6.615   5.508   0.910
 9242SOL    HW228626   6.669   5.648   0.845
 9243SOL     OW28627   5.936   6.482   2.480
 9243SOL    HW128628   5.876   6.518   2.551
 9243SOL    HW228629   5.996   6.412   2.519
 9244SOL     OW28630   4.510   5.315   6.094
 9244SOL    HW128631   4.453   5.254   6.040
 9244SOL    HW228632   4.529   5.398   6.042
 9245SOL     OW28633   1.328   5.605   3.005
 9245SOL    HW128634   1.415   5.632   2.964
 9245SOL    HW228635   1.336   5.608   3.105
 9246SOL     OW28636   0.110   4.921   3.240
 9246SOL    HW128637   0.032   4.858   3.236
 9246SOL    HW228638   0.189   4.879   3.195
 9247SOL     OW28639   0.937   0.166   3.456
 9247SOL    HW128640   0.982   0.086   3.416
 9247SOL    HW228641   0.838   0.151   3.458
 9248SOL     OW28642   1.842   2.973   6.347
 9248SOL    HW128643   1.906   2.938   6.416
 9248SOL    HW228644   1.750   2.980   6.388
 9249SOL     OW28645   5.370   3.472   6.216
 9249SOL    HW128646   5.423   3.387   6.219
 9249SOL    HW228647   5.379   3.520   6.303
 9250SOL     OW28648   5.093   3.214   4.917
 9250SOL    HW128649   5.020   3.281   4.905
 9250SOL    HW228650   5.169   3.237   4.857
 9251SOL     OW28651   3.642   2.121   3.071
 9251SOL    HW128652   3.577   2.157   3.138
 9251SOL    HW228653   3.735   2.141   3.101
 9252SOL     OW28654   6.129   0.322   4.160
 9252SOL    HW128655   6.208   0.381   4.145
 9252SOL    HW228656   6.058   0.372   4.208
 9253SOL     OW28657   5.049   6.078   6.148
 9253SOL    HW128658   5.003   6.059   6.234
 9253SOL    HW228659   4.997   6.038   6.072
 9254SOL     OW28660   6.344   4.596   1.595
 9254SOL    HW128661   6.248   4.574   1.576
 9254SOL    HW228662   6.372   4.553   1.681
 9255SOL     OW28663   5.478   3.254   0.298
 9255SOL    HW128664   5.453   3.277   0.204
 9255SOL    HW228665   5.552   3.314   0.329
 9256SOL     OW28666   4.015   5.160   2.853
 9256SOL    HW128667   3.979   5.232   2.911
 9256SOL    HW228668   4.092   5.115   2.899
 9257SOL     OW28669   0.735   3.744   2.654
 9257SOL    HW128670   0.827   3.779   2.640
 9257SOL    HW228671   0.673   3.819   2.677
 9258SOL     OW28672   3.816   3.294   4.092
 9258SOL    HW128673   3.874   3.212   4.093
 9258SOL    HW228674   3.748   3.288   4.165
 9259SOL     OW28675   1.671   2.212   1.218
 9259SOL    HW128676   1.701   2.307   1.214
 9259SOL    HW228677   1.707   2.161   1.141
 9260SOL     OW28678   4.997   1.508   5.199
 9260SOL    HW128679   4.933   1.438   5.230
 9260SOL    HW228680   5.073   1.464   5.151
 9261SOL     OW28681   4.619   0.716   6.270
 9261SOL    HW128682   4.706   0.675   6.298
 9261SOL    HW228683   4.609   0.805   6.314
 9262SOL     OW28684   6.405   3.503   5.538
 9262SOL    HW128685   6.337   3.555   5.590
 9262SOL    HW228686   6.494   3.510   5.583
 9263SOL     OW28687   6.344   3.773   1.131
 9263SOL    HW128688   6.375   3.830   1.207
 9263SOL    HW228689   6.246   3.787   1.116
 9264SOL     OW28690   5.586   4.069   0.449
 9264SOL    HW128691   5.526   4.010   0.393
 9264SOL    HW228692   5.672   4.022   0.465
 9265SOL     OW28693   3.037   1.666   0.551
 9265SOL    HW128694   3.063   1.652   0.647
 9265SOL    HW228695   3.107   1.721   0.505
 9266SOL     OW28696   1.829   6.184   2.157
 9266SOL    HW128697   1.801   6.110   2.095
 9266SOL    HW228698   1.754   6.204   2.219
 9267SOL     OW28699   6.834   4.237   5.929
 9267SOL    HW128700   6.827   4.260   6.026
 9267SOL    HW228701   6.773   4.296   5.876
 9268SOL     OW28702   1.305   5.943   1.225
 9268SOL    HW128703   1.357   6.028   1.238
 9268SOL    HW228704   1.346   5.871   1.282
 9269SOL     OW28705   3.462   2.576   6.018
 9269SOL    HW128706   3.387   2.536   5.965
 9269SOL    HW228707   3.544   2.581   5.962
 9270SOL     OW28708   5.250   0.154   5.687
 9270SOL    HW128709   5.314   0.135   5.613
 9270SOL    HW228710   5.282   0.109   5.771
 9271SOL     OW28711   1.720   5.558   6.680
 9271SOL    HW128712   1.697   5.653   6.657
 9271SOL    HW228713   1.754   5.512   6.598
 9272SOL     OW28714   2.985   5.321   5.766
 9272SOL    HW128715   3.046   5.256   5.721
 9272SOL    HW228716   3.025   5.412   5.763
 9273SOL     OW28717   5.344   6.160   4.170
 9273SOL    HW128718   5.329   6.134   4.266
 9273SOL    HW228719   5.442   6.169   4.153
 9274SOL     OW28720   6.563   2.923   0.149
 9274SOL    HW128721   6.532   2.907   0.055
 9274SOL    HW228722   6.487   2.957   0.204
 9275SOL     OW28723   0.433   1.807   6.744
 9275SOL    HW128724   0.506   1.859   6.787
 9275SOL    HW228725   0.391   1.746   6.811
 9276SOL     OW28726   2.531   4.664   3.980
 9276SOL    HW128727   2.530   4.565   3.994
 9276SOL    HW228728   2.473   4.709   4.048
 9277SOL     OW28729   4.010   3.634   0.306
 9277SOL    HW128730   4.029   3.540   0.277
 9277SOL    HW228731   4.090   3.670   0.355
 9278SOL     OW28732   1.518   1.127   4.435
 9278SOL    HW128733   1.602   1.176   4.412
 9278SOL    HW228734   1.524   1.033   4.400
 9279SOL     OW28735   4.650   0.198   1.663
 9279SOL    HW128736   4.607   0.162   1.581
 9279SOL    HW228737   4.581   0.242   1.720
 9280SOL     OW28738   1.650   0.326   3.254
 9280SOL    HW128739   1.557   0.354   3.231
 9280SOL    HW228740   1.714   0.370   3.192
 9281SOL     OW28741   3.354   3.922   1.275
 9281SOL    HW128742   3.286   3.988   1.246
 9281SOL    HW228743   3.309   3.835   1.297
 9282SOL     OW28744   4.530   2.015   4.187
 9282SOL    HW128745   4.472   1.983   4.262
 9282SOL    HW228746   4.599   2.078   4.223
 9283SOL     OW28747   5.744   0.747   3.137
 9283SOL    HW128748   5.817   0.690   3.100
 9283SOL    HW228749   5.776   0.791   3.221
 9284SOL     OW28750   3.631   5.441   6.715
 9284SOL    HW128751   3.633   5.540   6.701
 9284SOL    HW228752   3.712   5.413   6.768
 9285SOL     OW28753   5.242   3.525   0.365
 9285SOL    HW128754   5.203   3.616   0.381
 9285SOL    HW228755   5.214   3.493   0.274
 9286SOL     OW28756   5.139   6.887   5.871
 9286SOL    HW128757   5.087   6.972   5.865
 9286SOL    HW228758   5.234   6.907   5.894
 9287SOL     OW28759   2.907   5.763   0.620
 9287SOL    HW128760   2.956   5.815   0.551
 9287SOL    HW228761   2.928   5.799   0.711
 9288SOL     OW28762   2.716   1.579   5.157
 9288SOL    HW128763   2.703   1.509   5.087
 9288SOL    HW228764   2.803   1.566   5.203
 9289SOL     OW28765   3.867   1.867   2.297
 9289SOL    HW128766   3.950   1.888   2.348
 9289SOL    HW228767   3.795   1.838   2.360
 9290SOL     OW28768   4.979   2.021   4.019
 9290SOL    HW128769   4.927   2.099   4.051
 9290SOL    HW228770   5.058   2.006   4.079
 9291SOL     OW28771   2.718   0.376   4.931
 9291SOL    HW128772   2.672   0.292   4.960
 9291SOL    HW228773   2.723   0.378   4.831
 9292SOL     OW28774   6.883   3.539   6.208
 9292SOL    HW128775   6.971   3.572   6.241
 9292SOL    HW228776   6.819   3.533   6.285
 9293SOL     OW28777   6.441   3.740   0.871
 9293SOL    HW128778   6.528   3.776   0.903
 9293SOL    HW228779   6.384   3.715   0.950
 9294SOL     OW28780   3.490   6.419   5.624
 9294SOL    HW128781   3.436   6.408   5.707
 9294SOL    HW228782   3.536   6.508   5.626
 9295SOL     OW28783   5.448   1.959   3.639
 9295SOL    HW128784   5.436   2.033   3.705
 9295SOL    HW228785   5.439   1.871   3.687
 9296SOL     OW28786   0.400   6.092   6.476
 9296SOL    HW128787   0.473   6.158   6.459
 9296SOL    HW228788   0.360   6.109   6.566
 9297SOL     OW28789   6.914   0.562   1.227
 9297SOL    HW128790   6.834   0.503   1.223
 9297SOL    HW228791   6.893   0.650   1.183
 9298SOL     OW28792   2.176   6.744   5.600
 9298SOL    HW128793   2.108   6.809   5.634
 9298SOL    HW228794   2.254   6.741   5.662
 9299SOL     OW28795   0.920   2.645   4.558
 9299SOL    HW128796   0.861   2.565   4.551
 9299SOL    HW228797   0.867   2.723   4.592
 9300SOL     OW28798   0.404   4.942   4.854
 9300SOL    HW128799   0.374   5.024   4.904
 9300SOL    HW228800   0.341   4.925   4.778
 9301SOL     OW28801   4.913   4.238   3.361
 9301SOL    HW128802   4.951   4.164   3.306
 9301SOL    HW228803   4.832   4.275   3.316
 9302SOL     OW28804   2.141   3.212   4.360
 9302SOL    HW128805   2.125   3.178   4.453
 9302SOL    HW228806   2.132   3.311   4.359
 9303SOL     OW28807   3.682   6.258   0.832
 9303SOL    HW128808   3.632   6.327   0.883
 9303SOL    HW228809   3.636   6.242   0.744
 9304SOL     OW28810   4.333   4.214   1.091
 9304SOL    HW128811   4.372   4.229   1.182
 9304SOL    HW228812   4.263   4.142   1.095
 9305SOL     OW28813   3.948   1.603   1.745
 9305SOL    HW128814   3.988   1.677   1.690
 9305SOL    HW228815   3.880   1.554   1.691
 9306SOL     OW28816   0.635   4.781   4.902
 9306SOL    HW128817   0.574   4.852   4.867
 9306SOL    HW228818   0.581   4.707   4.943
 9307SOL     OW28819   1.344   3.561   1.552
 9307SOL    HW128820   1.295   3.567   1.465
 9307SOL    HW228821   1.321   3.639   1.609
 9308SOL     OW28822   1.044   3.920   0.929
 9308SOL    HW128823   1.034   3.950   0.834
 9308SOL    HW228824   1.141   3.923   0.955
 9309SOL     OW28825   3.318   5.075   5.271
 9309SOL    HW128826   3.318   5.015   5.191
 9309SOL    HW228827   3.392   5.048   5.333
 9310SOL     OW28828   4.475   5.697   6.483
 9310SOL    HW128829   4.559   5.750   6.469
 9310SOL    HW228830   4.438   5.668   6.395
 9311SOL     OW28831   5.943   4.775   1.695
 9311SOL    HW128832   6.019   4.840   1.696
 9311SOL    HW228833   5.977   4.684   1.717
 9312SOL     OW28834   1.287   4.162   1.634
 9312SOL    HW128835   1.209   4.188   1.577
 9312SOL    HW228836   1.305   4.234   1.701
 9313SOL     OW28837   0.552   0.734   0.948
 9313SOL    HW128838   0.582   0.678   0.871
 9313SOL    HW228839   0.613   0.718   1.026
 9314SOL     OW28840   3.906   5.404   5.903
 9314SOL    HW128841   3.823   5.456   5.881
 9314SOL    HW228842   3.883   5.308   5.917
 9315SOL     OW28843   6.468   0.693   5.035
 9315SOL    HW128844   6.566   0.679   5.038
 9315SOL    HW228845   6.444   0.740   4.950
 9316SOL     OW28846   3.986   5.213   5.476
 9316SOL    HW128847   3.910   5.206   5.541
 9316SOL    HW228848   3.952   5.201   5.383
 9317SOL     OW28849   6.509   5.534   3.326
 9317SOL    HW128850   6.535   5.595   3.401
 9317SOL    HW228851   6.521   5.439   3.355
 9318SOL     OW28852   6.487   0.936   4.814
 9318SOL    HW128853   6.395   0.902   4.796
 9318SOL    HW228854   6.485   1.005   4.886
 9319SOL     OW28855   0.568   2.601   5.787
 9319SOL    HW128856   0.500   2.531   5.766
 9319SOL    HW228857   0.606   2.638   5.702
 9320SOL     OW28858   4.562   1.863   6.462
 9320SOL    HW128859   4.595   1.831   6.373
 9320SOL    HW228860   4.474   1.908   6.451
 9321SOL     OW28861   6.124   6.886   2.677
 9321SOL    HW128862   6.144   6.953   2.605
 9321SOL    HW228863   6.060   6.926   2.742
 9322SOL     OW28864   0.024   6.117   6.146
 9322SOL    HW128865   6.960   6.114   6.103
 9322SOL    HW228866   0.083   6.181   6.096
 9323SOL     OW28867   1.803   0.120   5.524
 9323SOL    HW128868   1.777   0.215   5.538
 9323SOL    HW228869   1.721   0.064   5.512
 9324SOL     OW28870   1.881   5.210   0.333
 9324SOL    HW128871   1.801   5.198   0.391
 9324SOL    HW228872   1.917   5.303   0.344
 9325SOL     OW28873   5.127   1.983   0.191
 9325SOL    HW128874   5.098   1.985   0.286
 9325SOL    HW228875   5.121   2.076   0.152
 9326SOL     OW28876   2.513   0.204   0.793
 9326SOL    HW128877   2.447   0.256   0.739
 9326SOL    HW228878   2.468   0.168   0.874
 9327SOL     OW28879   4.848   6.375   2.466
 9327SOL    HW128880   4.768   6.316   2.456
 9327SOL    HW228881   4.833   6.439   2.542
 9328SOL     OW28882   3.529   1.006   6.334
 9328SOL    HW128883   3.446   1.019   6.389
 9328SOL    HW228884   3.530   1.073   6.260
 9329SOL     OW28885   0.118   4.161   2.131
 9329SOL    HW128886   0.169   4.085   2.172
 9329SOL    HW228887   0.181   4.238   2.114
 9330SOL     OW28888   0.475   6.192   0.040
 9330SOL    HW128889   0.524   6.106   0.038
 9330SOL    HW228890   0.385   6.179   0.082
 9331SOL     OW28891   1.186   1.534   6.053
 9331SOL    HW128892   1.280   1.557   6.078
 9331SOL    HW228893   1.138   1.496   6.132
 9332SOL     OW28894   3.743   4.062   3.036
 9332SOL    HW128895   3.763   4.069   3.133
 9332SOL    HW228896   3.651   4.097   3.018
 9333SOL     OW28897   4.655   4.016   1.258
 9333SOL    HW128898   4.617   3.959   1.331
 9333SOL    HW228899   4.667   4.109   1.291
 9334SOL     OW28900   4.281   6.823   3.932
 9334SOL    HW128901   4.336   6.802   4.013
 9334SOL    HW228902   4.259   6.920   3.931
 9335SOL     OW28903   1.187   1.043   6.036
 9335SOL    HW128904   1.238   1.129   6.040
 9335SOL    HW228905   1.203   0.991   6.120
 9336SOL     OW28906   3.515   5.699   6.320
 9336SOL    HW128907   3.430   5.655   6.288
 9336SOL    HW228908   3.511   5.710   6.419
 9337SOL     OW28909   5.175   0.829   3.603
 9337SOL    HW128910   5.119   0.830   3.520
 9337SOL    HW228911   5.164   0.741   3.649
 9338SOL     OW28912   4.342   0.799   1.943
 9338SOL    HW128913   4.304   0.885   1.908
 9338SOL    HW228914   4.322   0.792   2.041
 9339SOL     OW28915   5.117   6.841   0.707
 9339SOL    HW128916   5.200   6.897   0.704
 9339SOL    HW228917   5.099   6.803   0.616
 9340SOL     OW28918   5.090   3.741   5.174
 9340SOL    HW128919   5.041   3.751   5.087
 9340SOL    HW228920   5.084   3.645   5.204
 9341SOL     OW28921   0.480   5.801   6.434
 9341SOL    HW128922   0.458   5.897   6.415
 9341SOL    HW228923   0.578   5.786   6.420
 9342SOL     OW28924   2.532   0.760   3.941
 9342SOL    HW128925   2.522   0.854   3.908
 9342SOL    HW228926   2.580   0.705   3.872
 9343SOL     OW28927   6.133   4.414   3.058
 9343SOL    HW128928   6.100   4.500   3.018
 9343SOL    HW228929   6.228   4.425   3.087
 9344SOL     OW28930   4.468   5.791   1.371
 9344SOL    HW128931   4.528   5.870   1.380
 9344SOL    HW228932   4.517   5.709   1.403
 9345SOL     OW28933   6.304   4.185   1.925
 9345SOL    HW128934   6.396   4.205   1.958
 9345SOL    HW228935   6.303   4.093   1.885
 9346SOL     OW28936   6.201   0.839   0.951
 9346SOL    HW128937   6.142   0.765   0.916
 9346SOL    HW228938   6.145   0.905   1.001
 9347SOL     OW28939   1.325   5.475   0.879
 9347SOL    HW128940   1.323   5.375   0.881
 9347SOL    HW228941   1.394   5.509   0.943
 9348SOL     OW28942   3.821   5.374   1.562
 9348SOL    HW128943   3.794   5.289   1.517
 9348SOL    HW228944   3.920   5.388   1.552
 9349SOL     OW28945   0.632   6.678   2.512
 9349SOL    HW128946   0.639   6.694   2.610
 9349SOL    HW228947   0.537   6.655   2.489
 9350SOL     OW28948   0.611   3.070   5.407
 9350SOL    HW128949   0.649   3.022   5.328
 9350SOL    HW228950   0.522   3.030   5.430
 9351SOL     OW28951   3.026   1.022   6.322
 9351SOL    HW128952   2.988   1.114   6.333
 9351SOL    HW228953   3.022   0.995   6.226
 9352SOL     OW28954   3.080   3.296   0.501
 9352SOL    HW128955   3.123   3.206   0.511
 9352SOL    HW228956   2.995   3.299   0.553
 9353SOL     OW28957   0.836   5.448   1.660
 9353SOL    HW128958   0.885   5.515   1.604
 9353SOL    HW228959   0.742   5.479   1.674
 9354SOL     OW28960   6.924   1.908   6.798
 9354SOL    HW128961   7.022   1.899   6.779
 9354SOL    HW228962   6.879   1.948   6.718
 9355SOL     OW28963   0.822   2.469   4.862
 9355SOL    HW128964   0.800   2.396   4.927
 9355SOL    HW228965   0.910   2.510   4.885
 9356SOL     OW28966   3.442   0.017   1.146
 9356SOL    HW128967   3.373   0.064   1.091
 9356SOL    HW228968   3.507   6.995   1.086
 9357SOL     OW28969   1.289   3.150   6.174
 9357SOL    HW128970   1.245   3.208   6.242
 9357SOL    HW228971   1.290   3.055   6.207
 9358SOL     OW28972   0.673   4.047   2.140
 9358SOL    HW128973   0.679   3.948   2.124
 9358SOL    HW228974   0.595   4.066   2.199
 9359SOL     OW28975   1.705   4.989   6.134
 9359SOL    HW128976   1.792   4.988   6.184
 9359SOL    HW228977   1.713   4.935   6.051
 9360SOL     OW28978   1.488   6.298   6.654
 9360SOL    HW128979   1.546   6.224   6.621
 9360SOL    HW228980   1.544   6.377   6.679
 9361SOL     OW28981   2.073   5.666   3.473
 9361SOL    HW128982   2.031   5.729   3.538
 9361SOL    HW228983   2.166   5.643   3.504
 9362SOL     OW28984   1.415   1.642   2.457
 9362SOL    HW128985   1.443   1.728   2.498
 9362SOL    HW228986   1.347   1.659   2.385
 9363SOL     OW28987   3.527   5.248   1.660
 9363SOL    HW128988   3.528   5.249   1.560
 9363SOL    HW228989   3.433   5.235   1.692
 9364SOL     OW28990   2.324   2.204   1.723
 9364SOL    HW128991   2.355   2.170   1.812
 9364SOL    HW228992   2.403   2.240   1.672
 9365SOL     OW28993   2.982   1.909   4.177
 9365SOL    HW128994   2.934   1.930   4.092
 9365SOL    HW228995   2.923   1.931   4.255
 9366SOL     OW28996   3.099   5.883   6.978
 9366SOL    HW128997   3.157   5.945   6.925
 9366SOL    HW228998   3.045   5.827   6.915
 9367SOL     OW28999   5.932   0.629   1.135
 9367SOL    HW129000   5.911   0.621   1.037
 9367SOL    HW229001   5.928   0.725   1.161
 9368SOL     OW29002   3.708   7.007   2.316
 9368SOL    HW129003   3.677   0.059   2.260
 9368SOL    HW229004   3.806   6.993   2.301
 9369SOL     OW29005   0.874   5.829   5.023
 9369SOL    HW129006   0.912   5.823   5.115
 9369SOL    HW229007   0.881   5.740   4.977
 9370SOL     OW29008   4.960   1.066   3.503
 9370SOL    HW129009   5.016   1.015   3.438
 9370SOL    HW229010   4.864   1.041   3.491
 9371SOL     OW29011   3.124   5.302   1.396
 9371SOL    HW129012   3.096   5.206   1.404
 9371SOL    HW229013   3.139   5.324   1.299
 9372SOL     OW29014   4.288   0.036   1.578
 9372SOL    HW129015   4.250   6.998   1.512
 9372SOL    HW229016   4.283   7.022   1.670
 9373SOL     OW29017   6.369   2.560   0.373
 9373SOL    HW129018   6.433   2.624   0.330
 9373SOL    HW229019   6.376   2.568   0.473
 9374SOL     OW29020   0.504   4.100   5.677
 9374SOL    HW129021   0.462   4.188   5.698
 9374SOL    HW229022   0.434   4.037   5.645
 9375SOL     OW29023   0.212   1.808   0.346
 9375SOL    HW129024   0.159   1.830   0.428
 9375SOL    HW229025   0.206   1.884   0.282
 9376SOL     OW29026   2.090   3.610   2.192
 9376SOL    HW129027   2.149   3.568   2.123
 9376SOL    HW229028   2.080   3.708   2.172
 9377SOL     OW29029   2.878   5.456   2.983
 9377SOL    HW129030   2.962   5.436   2.932
 9377SOL    HW229031   2.873   5.395   3.063
 9378SOL     OW29032   3.484   1.014   3.565
 9378SOL    HW129033   3.541   0.941   3.529
 9378SOL    HW229034   3.486   1.092   3.502
 9379SOL     OW29035   4.631   6.537   4.778
 9379SOL    HW129036   4.731   6.532   4.770
 9379SOL    HW229037   4.605   6.518   4.873
 9380SOL     OW29038   3.414   5.618   5.655
 9380SOL    HW129039   3.336   5.608   5.716
 9380SOL    HW229040   3.437   5.715   5.646
 9381SOL     OW29041   4.952   1.652   4.584
 9381SOL    HW129042   4.913   1.560   4.588
 9381SOL    HW229043   4.902   1.706   4.517
 9382SOL     OW29044   3.938   0.888   3.934
 9382SOL    HW129045   3.871   0.814   3.946
 9382SOL    HW229046   3.948   0.908   3.837
 9383SOL     OW29047   4.848   4.125   3.626
 9383SOL    HW129048   4.853   4.038   3.577
 9383SOL    HW229049   4.902   4.193   3.577
 9384SOL     OW29050   1.946   6.756   2.075
 9384SOL    HW129051   1.975   6.666   2.108
 9384SOL    HW229052   1.987   6.773   1.986
 9385SOL     OW29053   4.007   1.390   4.263
 9385SOL    HW129054   3.998   1.465   4.328
 9385SOL    HW229055   4.000   1.303   4.311
 9386SOL     OW29056   3.204   5.951   5.312
 9386SOL    HW129057   3.183   5.992   5.223
 9386SOL    HW229058   3.123   5.957   5.371
 9387SOL     OW29059   3.990   1.969   0.261
 9387SOL    HW129060   3.952   2.054   0.224
 9387SOL    HW229061   3.980   1.968   0.360
 9388SOL     OW29062   1.521   6.794   4.182
 9388SOL    HW129063   1.505   6.883   4.225
 9388SOL    HW229064   1.459   6.726   4.220
 9389SOL     OW29065   3.359   5.259   2.681
 9389SOL    HW129066   3.293   5.227   2.749
 9389SOL    HW229067   3.359   5.197   2.602
 9390SOL     OW29068   5.360   4.718   5.417
 9390SOL    HW129069   5.373   4.649   5.346
 9390SOL    HW229070   5.449   4.757   5.442
 9391SOL     OW29071   0.924   7.006   4.975
 9391SOL    HW129072   0.826   6.988   4.965
 9391SOL    HW229073   0.954   6.979   5.066
 9392SOL     OW29074   5.186   4.660   3.645
 9392SOL    HW129075   5.135   4.599   3.707
 9392SOL    HW229076   5.140   4.663   3.556
 9393SOL     OW29077   3.492   6.128   5.956
 9393SOL    HW129078   3.546   6.054   5.996
 9393SOL    HW229079   3.395   6.113   5.974
 9394SOL     OW29080   5.478   0.675   1.503
 9394SOL    HW129081   5.572   0.706   1.516
 9394SOL    HW229082   5.427   0.742   1.449
 9395SOL     OW29083   2.912   1.396   1.340
 9395SOL    HW129084   2.831   1.426   1.291
 9395SOL    HW229085   2.928   1.455   1.419
 9396SOL     OW29086   1.951   6.099   6.222
 9396SOL    HW129087   1.986   6.174   6.166
 9396SOL    HW229088   1.859   6.121   6.255
 9397SOL     OW29089   3.793   6.897   6.105
 9397SOL    HW129090   3.718   6.963   6.114
 9397SOL    HW229091   3.860   6.932   6.039
 9398SOL     OW29092   6.210   1.004   6.461
 9398SOL    HW129093   6.189   0.940   6.536
 9398SOL    HW229094   6.301   1.042   6.474
 9399SOL     OW29095   1.727   2.925   4.218
 9399SOL    HW129096   1.735   2.871   4.302
 9399SOL    HW229097   1.799   2.995   4.216
 9400SOL     OW29098   5.394   1.409   7.022
 9400SOL    HW129099   5.379   1.334   0.061
 9400SOL    HW229100   5.421   1.370   6.933
 9401SOL     OW29101   0.799   2.721   2.832
 9401SOL    HW129102   0.704   2.736   2.804
 9401SOL    HW229103   0.845   2.663   2.765
 9402SOL     OW29104   1.605   5.664   3.101
 9402SOL    HW129105   1.689   5.714   3.121
 9402SOL    HW229106   1.539   5.680   3.174
 9403SOL     OW29107   6.707   1.057   2.165
 9403SOL    HW129108   6.684   1.065   2.068
 9403SOL    HW229109   6.640   1.106   2.220
 9404SOL     OW29110   1.135   3.062   1.193
 9404SOL    HW129111   1.116   2.999   1.269
 9404SOL    HW229112   1.133   3.012   1.107
 9405SOL     OW29113   0.189   4.742   4.982
 9405SOL    HW129114   0.143   4.670   5.034
 9405SOL    HW229115   0.281   4.757   5.020
 9406SOL     OW29116   0.690   2.936   6.265
 9406SOL    HW129117   0.609   2.891   6.302
 9406SOL    HW229118   0.749   2.868   6.221
 9407SOL     OW29119   2.432   5.224   4.794
 9407SOL    HW129120   2.415   5.276   4.878
 9407SOL    HW229121   2.358   5.159   4.779
 9408SOL     OW29122   6.661   4.067   5.463
 9408SOL    HW129123   6.609   4.098   5.542
 9408SOL    HW229124   6.758   4.087   5.477
 9409SOL     OW29125   6.785   5.616   2.184
 9409SOL    HW129126   6.699   5.590   2.230
 9409SOL    HW229127   6.858   5.622   2.252
 9410SOL     OW29128   4.449   0.306   1.793
 9410SOL    HW129129   4.410   0.395   1.812
 9410SOL    HW229130   4.429   0.243   1.869
 9411SOL     OW29131   3.683   2.971   3.729
 9411SOL    HW129132   3.734   2.937   3.809
 9411SOL    HW229133   3.602   3.020   3.759
 9412SOL     OW29134   0.280   0.729   0.804
 9412SOL    HW129135   0.380   0.728   0.816
 9412SOL    HW229136   0.238   0.666   0.869
 9413SOL     OW29137   4.547   4.964   4.084
 9413SOL    HW129138   4.536   5.027   4.160
 9413SOL    HW229139   4.573   4.874   4.118
 9414SOL     OW29140   2.293   2.179   4.959
 9414SOL    HW129141   2.267   2.251   5.023
 9414SOL    HW229142   2.257   2.091   4.990
 9415SOL     OW29143   3.846   0.163   2.041
 9415SOL    HW129144   3.885   0.162   2.134
 9415SOL    HW229145   3.909   0.211   1.980
 9416SOL     OW29146   0.435   6.357   5.925
 9416SOL    HW129147   0.451   6.262   5.952
 9416SOL    HW229148   0.412   6.362   5.828
 9417SOL     OW29149   3.451   6.505   1.279
 9417SOL    HW129150   3.390   6.448   1.334
 9417SOL    HW229151   3.467   6.462   1.191
 9418SOL     OW29152   3.166   1.825   4.358
 9418SOL    HW129153   3.107   1.854   4.282
 9418SOL    HW229154   3.209   1.906   4.400
 9419SOL     OW29155   3.152   2.342   6.581
 9419SOL    HW129156   3.242   2.340   6.538
 9419SOL    HW229157   3.081   2.348   6.510
 9420SOL     OW29158   5.453   3.529   0.700
 9420SOL    HW129159   5.437   3.434   0.672
 9420SOL    HW229160   5.371   3.566   0.743
 9421SOL     OW29161   3.818   6.167   5.578
 9421SOL    HW129162   3.725   6.135   5.597
 9421SOL    HW229163   3.863   6.193   5.663
 9422SOL     OW29164   2.634   6.115   4.166
 9422SOL    HW129165   2.662   6.203   4.127
 9422SOL    HW229166   2.706   6.047   4.149
 9423SOL     OW29167   4.153   5.885   3.048
 9423SOL    HW129168   4.238   5.932   3.072
 9423SOL    HW229169   4.174   5.809   2.987
 9424SOL     OW29170   5.462   1.243   4.375
 9424SOL    HW129171   5.547   1.293   4.395
 9424SOL    HW229172   5.399   1.302   4.326
 9425SOL     OW29173   6.346   4.627   1.127
 9425SOL    HW129174   6.362   4.675   1.213
 9425SOL    HW229175   6.247   4.622   1.109
 9426SOL     OW29176   0.655   1.939   6.133
 9426SOL    HW129177   0.713   1.865   6.166
 9426SOL    HW229178   0.579   1.900   6.080
 9427SOL     OW29179   3.518   5.606   2.864
 9427SOL    HW129180   3.540   5.665   2.942
 9427SOL    HW229181   3.600   5.557   2.835
 9428SOL     OW29182   6.210   6.761   6.806
 9428SOL    HW129183   6.221   6.829   6.734
 9428SOL    HW229184   6.288   6.698   6.806
 9429SOL     OW29185   1.482   2.574   3.920
 9429SOL    HW129186   1.560   2.623   3.959
 9429SOL    HW229187   1.489   2.477   3.943
 9430SOL     OW29188   0.481   2.136   4.350
 9430SOL    HW129189   0.453   2.124   4.255
 9430SOL    HW229190   0.471   2.232   4.376
 9431SOL     OW29191   6.990   4.517   0.100
 9431SOL    HW129192   6.926   4.485   0.169
 9431SOL    HW229193   6.987   4.617   0.097
 9432SOL     OW29194   6.721   1.639   3.556
 9432SOL    HW129195   6.789   1.587   3.505
 9432SOL    HW229196   6.638   1.648   3.501
 9433SOL     OW29197   4.142   6.438   2.686
 9433SOL    HW129198   4.113   6.361   2.628
 9433SOL    HW229199   4.065   6.470   2.740
 9434SOL     OW29200   4.790   5.813   4.039
 9434SOL    HW129201   4.742   5.735   4.000
 9434SOL    HW229202   4.729   5.864   4.100
 9435SOL     OW29203   0.636   2.527   2.151
 9435SOL    HW129204   0.578   2.587   2.095
 9435SOL    HW229205   0.668   2.578   2.231
 9436SOL     OW29206   0.495   0.965   2.603
 9436SOL    HW129207   0.398   0.972   2.579
 9436SOL    HW229208   0.543   0.910   2.535
 9437SOL     OW29209   0.199   5.234   4.446
 9437SOL    HW129210   0.101   5.229   4.423
 9437SOL    HW229211   0.250   5.259   4.364
 9438SOL     OW29212   2.383   6.351   1.615
 9438SOL    HW129213   2.373   6.274   1.678
 9438SOL    HW229214   2.478   6.358   1.586
 9439SOL     OW29215   0.813   2.821   0.099
 9439SOL    HW129216   0.877   2.892   0.069
 9439SOL    HW229217   0.737   2.815   0.035
 9440SOL     OW29218   3.006   4.927   3.518
 9440SOL    HW129219   3.099   4.892   3.531
 9440SOL    HW229220   3.010   5.013   3.467
 9441SOL     OW29221   6.272   5.442   4.452
 9441SOL    HW129222   6.314   5.393   4.376
 9441SOL    HW229223   6.299   5.401   4.538
 9442SOL     OW29224   4.796   3.719   0.688
 9442SOL    HW129225   4.697   3.706   0.685
 9442SOL    HW229226   4.841   3.633   0.711
 9443SOL     OW29227   2.925   4.817   2.111
 9443SOL    HW129228   2.923   4.901   2.058
 9443SOL    HW229229   2.894   4.741   2.053
 9444SOL     OW29230   2.276   3.801   0.322
 9444SOL    HW129231   2.314   3.863   0.253
 9444SOL    HW229232   2.351   3.750   0.364
 9445SOL     OW29233   0.485   1.410   3.804
 9445SOL    HW129234   0.421   1.416   3.728
 9445SOL    HW229235   0.440   1.367   3.882
 9446SOL     OW29236   6.501   4.767   3.461
 9446SOL    HW129237   6.434   4.694   3.473
 9446SOL    HW229238   6.543   4.790   3.549
 9447SOL     OW29239   5.692   5.393   2.681
 9447SOL    HW129240   5.663   5.440   2.597
 9447SOL    HW229241   5.733   5.459   2.743
 9448SOL     OW29242   5.343   0.616   5.779
 9448SOL    HW129243   5.434   0.574   5.777
 9448SOL    HW229244   5.329   0.668   5.695
 9449SOL     OW29245   5.718   6.713   0.990
 9449SOL    HW129246   5.736   6.806   0.956
 9449SOL    HW229247   5.784   6.690   1.061
 9450SOL     OW29248   1.499   5.856   4.186
 9450SOL    HW129249   1.450   5.940   4.163
 9450SOL    HW229250   1.499   5.844   4.286
 9451SOL     OW29251   4.057   5.570   6.077
 9451SOL    HW129252   4.144   5.583   6.030
 9451SOL    HW229253   4.001   5.504   6.026
 9452SOL     OW29254   0.480   4.148   0.874
 9452SOL    HW129255   0.466   4.220   0.806
 9452SOL    HW229256   0.549   4.084   0.841
 9453SOL     OW29257   3.692   5.435   3.106
 9453SOL    HW129258   3.610   5.392   3.068
 9453SOL    HW229259   3.736   5.371   3.170
 9454SOL     OW29260   4.289   4.383   0.755
 9454SOL    HW129261   4.386   4.365   0.769
 9454SOL    HW229262   4.258   4.450   0.823
 9455SOL     OW29263   2.700   2.275   2.223
 9455SOL    HW129264   2.641   2.200   2.193
 9455SOL    HW229265   2.747   2.314   2.145
 9456SOL     OW29266   6.112   3.117   2.321
 9456SOL    HW129267   6.090   3.063   2.402
 9456SOL    HW229268   6.136   3.055   2.246
 9457SOL     OW29269   1.060   4.769   4.058
 9457SOL    HW129270   1.005   4.841   4.018
 9457SOL    HW229271   1.040   4.761   4.156
 9458SOL     OW29272   6.582   4.171   0.312
 9458SOL    HW129273   6.515   4.241   0.289
 9458SOL    HW229274   6.534   4.088   0.342
 9459SOL     OW29275   5.255   4.798   4.576
 9459SOL    HW129276   5.319   4.728   4.546
 9459SOL    HW229277   5.230   4.857   4.499
 9460SOL     OW29278   1.099   3.034   3.236
 9460SOL    HW129279   1.180   3.045   3.178
 9460SOL    HW229280   1.114   3.081   3.323
 9461SOL     OW29281   1.426   2.257   1.346
 9461SOL    HW129282   1.389   2.170   1.380
 9461SOL    HW229283   1.516   2.241   1.306
 9462SOL     OW29284   2.179   1.926   4.213
 9462SOL    HW129285   2.245   1.977   4.269
 9462SOL    HW229286   2.105   1.987   4.184
 9463SOL     OW29287   5.131   6.791   0.984
 9463SOL    HW129288   5.052   6.792   1.045
 9463SOL    HW229289   5.101   6.802   0.889
 9464SOL     OW29290   0.134   0.910   1.583
 9464SOL    HW129291   0.153   0.966   1.503
 9464SOL    HW229292   0.057   0.849   1.564
 9465SOL     OW29293   0.683   4.113   1.338
 9465SOL    HW129294   0.656   4.164   1.256
 9465SOL    HW229295   0.693   4.016   1.314
 9466SOL     OW29296   4.105   5.078   6.630
 9466SOL    HW129297   4.145   5.169   6.618
 9466SOL    HW229298   4.020   5.071   6.579
 9467SOL     OW29299   2.135   3.265   1.005
 9467SOL    HW129300   2.178   3.343   0.959
 9467SOL    HW229301   2.170   3.257   1.098
 9468SOL     OW29302   6.528   3.284   0.500
 9468SOL    HW129303   6.623   3.313   0.499
 9468SOL    HW229304   6.524   3.184   0.494
 9469SOL     OW29305   0.146   6.278   0.772
 9469SOL    HW129306   0.183   6.208   0.711
 9469SOL    HW229307   0.218   6.312   0.832
 9470SOL     OW29308   5.164   3.849   0.618
 9470SOL    HW129309   5.244   3.876   0.565
 9470SOL    HW229310   5.098   3.803   0.559
 9471SOL     OW29311   6.185   2.205   5.172
 9471SOL    HW129312   6.240   2.184   5.091
 9471SOL    HW229313   6.157   2.301   5.169
 9472SOL     OW29314   1.428   4.239   6.087
 9472SOL    HW129315   1.425   4.235   6.187
 9472SOL    HW229316   1.349   4.190   6.050
 9473SOL     OW29317   2.811   4.442   0.457
 9473SOL    HW129318   2.830   4.346   0.480
 9473SOL    HW229319   2.896   4.485   0.425
 9474SOL     OW29320   5.808   3.489   1.935
 9474SOL    HW129321   5.872   3.412   1.929
 9474SOL    HW229322   5.714   3.455   1.930
 9475SOL     OW29323   4.937   3.685   5.877
 9475SOL    HW129324   4.898   3.740   5.803
 9475SOL    HW229325   4.887   3.599   5.885
 9476SOL     OW29326   3.808   4.245   5.777
 9476SOL    HW129327   3.726   4.291   5.744
 9476SOL    HW229328   3.790   4.147   5.785
 9477SOL     OW29329   1.942   4.005   1.472
 9477SOL    HW129330   1.849   4.013   1.509
 9477SOL    HW229331   2.004   3.972   1.544
 9478SOL     OW29332   5.175   2.655   0.334
 9478SOL    HW129333   5.101   2.712   0.369
 9478SOL    HW229334   5.157   2.632   0.238
 9479SOL     OW29335   4.465   1.080   1.769
 9479SOL    HW129336   4.526   1.036   1.703
 9479SOL    HW229337   4.392   1.128   1.720
 9480SOL     OW29338   5.993   6.106   6.735
 9480SOL    HW129339   5.928   6.098   6.811
 9480SOL    HW229340   5.946   6.136   6.653
 9481SOL     OW29341   4.759   1.690   3.379
 9481SOL    HW129342   4.768   1.773   3.433
 9481SOL    HW229343   4.760   1.610   3.439
 9482SOL     OW29344   5.837   1.038   0.576
 9482SOL    HW129345   5.872   1.071   0.488
 9482SOL    HW229346   5.861   0.942   0.587
 9483SOL     OW29347   0.826   0.579   0.300
 9483SOL    HW129348   0.766   0.658   0.308
 9483SOL    HW229349   0.778   0.496   0.329
 9484SOL     OW29350   2.877   6.629   4.671
 9484SOL    HW129351   2.903   6.721   4.699
 9484SOL    HW229352   2.882   6.567   4.749
 9485SOL     OW29353   6.689   1.286   0.127
 9485SOL    HW129354   6.615   1.353   0.136
 9485SOL    HW229355   6.704   1.242   0.216
 9486SOL     OW29356   4.624   5.461   0.306
 9486SOL    HW129357   4.694   5.509   0.253
 9486SOL    HW229358   4.535   5.502   0.289
 9487SOL     OW29359   3.009   3.591   4.284
 9487SOL    HW129360   3.015   3.595   4.184
 9487SOL    HW229361   3.006   3.495   4.313
 9488SOL     OW29362   1.458   1.171   1.358
 9488SOL    HW129363   1.382   1.106   1.355
 9488SOL    HW229364   1.422   1.264   1.363
 9489SOL     OW29365   5.214   4.227   1.006
 9489SOL    HW129366   5.148   4.300   0.988
 9489SOL    HW229367   5.166   4.141   1.023
 9490SOL     OW29368   6.215   4.452   3.818
 9490SOL    HW129369   6.127   4.429   3.860
 9490SOL    HW229370   6.283   4.384   3.844
 9491SOL     OW29371   5.290   6.564   3.583
 9491SOL    HW129372   5.310   6.585   3.488
 9491SOL    HW229373   5.340   6.627   3.642
 9492SOL     OW29374   4.901   3.175   4.372
 9492SOL    HW129375   4.859   3.205   4.458
 9492SOL    HW229376   4.836   3.117   4.322
 9493SOL     OW29377   4.270   6.354   4.265
 9493SOL    HW129378   4.282   6.401   4.178
 9493SOL    HW229379   4.207   6.277   4.254
 9494SOL     OW29380   5.048   2.941   2.262
 9494SOL    HW129381   4.958   2.923   2.302
 9494SOL    HW229382   5.044   2.925   2.163
 9495SOL     OW29383   0.467   0.419   1.542
 9495SOL    HW129384   0.526   0.457   1.472
 9495SOL    HW229385   0.447   0.489   1.611
 9496SOL     OW29386   4.344   1.976   2.371
 9496SOL    HW129387   4.333   1.926   2.285
 9496SOL    HW229388   4.373   2.070   2.351
 9497SOL     OW29389   5.890   5.651   4.560
 9497SOL    HW129390   5.791   5.652   4.570
 9497SOL    HW229391   5.930   5.727   4.613
 9498SOL     OW29392   6.695   5.229   4.471
 9498SOL    HW129393   6.793   5.245   4.475
 9498SOL    HW229394   6.650   5.280   4.545
 9499SOL     OW29395   6.483   5.388   5.275
 9499SOL    HW129396   6.552   5.450   5.240
 9499SOL    HW229397   6.470   5.404   5.373
 9500SOL     OW29398   4.130   0.105   0.942
 9500SOL    HW129399   4.155   0.039   1.012
 9500SOL    HW229400   4.187   0.187   0.950
 9501SOL     OW29401   1.576   1.543   4.595
 9501SOL    HW129402   1.627   1.527   4.511
 9501SOL    HW229403   1.626   1.606   4.654
 9502SOL     OW29404   5.460   5.076   5.466
 9502SOL    HW129405   5.522   4.998   5.460
 9502SOL    HW229406   5.367   5.043   5.484
 9503SOL     OW29407   0.705   2.011   0.294
 9503SOL    HW129408   0.682   1.918   0.267
 9503SOL    HW229409   0.796   2.013   0.335
 9504SOL     OW29410   0.122   4.547   1.171
 9504SOL    HW129411   0.178   4.624   1.141
 9504SOL    HW229412   0.067   4.575   1.250
 9505SOL     OW29413   4.351   4.654   5.518
 9505SOL    HW129414   4.333   4.752   5.504
 9505SOL    HW229415   4.336   4.630   5.614
 9506SOL     OW29416   2.599   2.190   1.248
 9506SOL    HW129417   2.565   2.177   1.155
 9506SOL    HW229418   2.643   2.106   1.279
 9507SOL     OW29419   5.997   0.284   1.511
 9507SOL    HW129420   6.044   0.351   1.453
 9507SOL    HW229421   5.921   0.328   1.558
 9508SOL     OW29422   4.629   1.375   2.453
 9508SOL    HW129423   4.648   1.325   2.369
 9508SOL    HW229424   4.665   1.468   2.446
 9509SOL     OW29425   6.655   0.473   2.774
 9509SOL    HW129426   6.680   0.470   2.871
 9509SOL    HW229427   6.573   0.529   2.763
 9510SOL     OW29428   0.331   3.111   3.950
 9510SOL    HW129429   0.361   3.205   3.963
 9510SOL    HW229430   0.392   3.065   3.886
 9511SOL     OW29431   1.284   0.984   1.299
 9511SOL    HW129432   1.281   0.886   1.278
 9511SOL    HW229433   1.215   1.032   1.244
 9512SOL     OW29434   6.628   2.981   1.017
 9512SOL    HW129435   6.598   3.068   1.056
 9512SOL    HW229436   6.594   2.972   0.924
 9513SOL     OW29437   4.523   4.636   6.183
 9513SOL    HW129438   4.450   4.696   6.214
 9513SOL    HW229439   4.497   4.540   6.200
 9514SOL     OW29440   2.954   3.019   6.749
 9514SOL    HW129441   3.029   2.975   6.701
 9514SOL    HW229442   2.968   3.118   6.751
 9515SOL     OW29443   2.527   5.094   3.857
 9515SOL    HW129444   2.550   5.048   3.771
 9515SOL    HW229445   2.566   5.043   3.934
 9516SOL     OW29446   6.344   4.041   0.297
 9516SOL    HW129447   6.323   3.945   0.278
 9516SOL    HW229448   6.277   4.078   0.361
 9517SOL     OW29449   0.979   4.027   1.155
 9517SOL    HW129450   1.019   3.987   1.073
 9517SOL    HW229451   0.977   4.126   1.146
 9518SOL     OW29452   2.177   1.674   0.619
 9518SOL    HW129453   2.274   1.695   0.623
 9518SOL    HW229454   2.161   1.583   0.659
 9519SOL     OW29455   1.042   2.687   5.369
 9519SOL    HW129456   1.115   2.635   5.324
 9519SOL    HW229457   0.957   2.635   5.365
 9520SOL     OW29458   2.433   0.160   2.944
 9520SOL    HW129459   2.338   0.176   2.916
 9520SOL    HW229460   2.434   0.111   3.031
 9521SOL     OW29461   5.863   5.879   3.720
 9521SOL    HW129462   5.912   5.808   3.669
 9521SOL    HW229463   5.832   5.841   3.807
 9522SOL     OW29464   3.375   6.026   1.331
 9522SOL    HW129465   3.458   6.000   1.379
 9522SOL    HW229466   3.322   6.090   1.386
 9523SOL     OW29467   3.753   5.209   4.336
 9523SOL    HW129468   3.725   5.118   4.368
 9523SOL    HW229469   3.778   5.205   4.240
 9524SOL     OW29470   3.576   3.218   1.238
 9524SOL    HW129471   3.648   3.164   1.196
 9524SOL    HW229472   3.595   3.230   1.335
 9525SOL     OW29473   1.854   1.237   5.834
 9525SOL    HW129474   1.898   1.242   5.744
 9525SOL    HW229475   1.815   1.146   5.848
 9526SOL     OW29476   4.837   6.424   3.373
 9526SOL    HW129477   4.795   6.493   3.433
 9526SOL    HW229478   4.926   6.457   3.342
 9527SOL     OW29479   0.918   1.119   2.175
 9527SOL    HW129480   1.013   1.143   2.195
 9527SOL    HW229481   0.865   1.202   2.160
 9528SOL     OW29482   6.381   0.200   1.211
 9528SOL    HW129483   6.397   0.110   1.252
 9528SOL    HW229484   6.284   0.210   1.189
 9529SOL     OW29485   0.939   3.299   6.442
 9529SOL    HW129486   0.967   3.370   6.378
 9529SOL    HW229487   0.986   3.313   6.530
 9530SOL     OW29488   1.556   2.611   2.888
 9530SOL    HW129489   1.508   2.571   2.810
 9530SOL    HW229490   1.513   2.698   2.912
 9531SOL     OW29491   3.513   7.003   3.250
 9531SOL    HW129492   3.438   6.982   3.187
 9531SOL    HW229493   3.600   6.989   3.204
 9532SOL     OW29494   1.790   7.005   1.560
 9532SOL    HW129495   1.773   6.938   1.633
 9532SOL    HW229496   1.749   6.973   1.475
 9533SOL     OW29497   1.340   1.107   5.614
 9533SOL    HW129498   1.427   1.106   5.663
 9533SOL    HW229499   1.293   1.019   5.626
 9534SOL     OW29500   5.245   2.170   4.917
 9534SOL    HW129501   5.205   2.252   4.956
 9534SOL    HW229502   5.201   2.089   4.956
 9535SOL     OW29503   2.519   1.211   5.630
 9535SOL    HW129504   2.619   1.211   5.630
 9535SOL    HW229505   2.485   1.215   5.724
 9536SOL     OW29506   1.774   5.729   5.510
 9536SOL    HW129507   1.842   5.673   5.464
 9536SOL    HW229508   1.751   5.688   5.598
 9537SOL     OW29509   3.188   0.306   2.171
 9537SOL    HW129510   3.089   0.292   2.173
 9537SOL    HW229511   3.211   0.370   2.098
 9538SOL     OW29512   6.596   2.188   4.504
 9538SOL    HW129513   6.694   2.168   4.498
 9538SOL    HW229514   6.581   2.257   4.575
 9539SOL     OW29515   0.899   5.744   6.855
 9539SOL    HW129516   0.879   5.832   6.813
 9539SOL    HW229517   0.981   5.705   6.813
 9540SOL     OW29518   4.410   5.077   5.070
 9540SOL    HW129519   4.333   5.019   5.045
 9540SOL    HW229520   4.414   5.088   5.169
 9541SOL     OW29521   1.835   2.767   4.418
 9541SOL    HW129522   1.855   2.792   4.513
 9541SOL    HW229523   1.916   2.726   4.377
 9542SOL     OW29524   4.871   3.225   4.625
 9542SOL    HW129525   4.825   3.218   4.714
 9542SOL    HW229526   4.956   3.171   4.628
 9543SOL     OW29527   4.678   1.010   3.540
 9543SOL    HW129528   4.598   1.067   3.522
 9543SOL    HW229529   4.656   0.943   3.611
 9544SOL     OW29530   5.370   0.997   1.968
 9544SOL    HW129531   5.462   1.026   1.996
 9544SOL    HW229532   5.331   0.937   2.037
 9545SOL     OW29533   0.040   0.240   3.107
 9545SOL    HW129534   7.015   0.326   3.115
 9545SOL    HW229535   7.022   0.182   3.038
 9546SOL     OW29536   2.804   5.652   6.402
 9546SOL    HW129537   2.816   5.750   6.419
 9546SOL    HW229538   2.832   5.601   6.482
 9547SOL     OW29539   1.141   6.093   4.816
 9547SOL    HW129540   1.198   6.025   4.862
 9547SOL    HW229541   1.194   6.177   4.802
 9548SOL     OW29542   5.680   6.036   4.315
 9548SOL    HW129543   5.688   5.973   4.238
 9548SOL    HW229544   5.723   6.123   4.290
 9549SOL     OW29545   2.581   5.564   0.269
 9549SOL    HW129546   2.516   5.506   0.319
 9549SOL    HW229547   2.663   5.510   0.247
 9550SOL     OW29548   1.439   1.536   0.300
 9550SOL    HW129549   1.443   1.481   0.383
 9550SOL    HW229550   1.473   1.628   0.319
 9551SOL     OW29551   0.535   6.643   4.814
 9551SOL    HW129552   0.606   6.580   4.847
 9551SOL    HW229553   0.579   6.720   4.767
 9552SOL     OW29554   1.494   6.357   3.508
 9552SOL    HW129555   1.501   6.294   3.431
 9552SOL    HW229556   1.404   6.348   3.551
 9553SOL     OW29557   5.887   4.597   5.848
 9553SOL    HW129558   5.850   4.687   5.822
 9553SOL    HW229559   5.935   4.606   5.935
 9554SOL     OW29560   2.473   1.400   1.896
 9554SOL    HW129561   2.504   1.343   1.820
 9554SOL    HW229562   2.390   1.361   1.936
 9555SOL     OW29563   6.642   2.453   0.670
 9555SOL    HW129564   6.620   2.427   0.575
 9555SOL    HW229565   6.627   2.374   0.730
 9556SOL     OW29566   2.557   1.176   1.300
 9556SOL    HW129567   2.519   1.196   1.209
 9556SOL    HW229568   2.486   1.133   1.357
 9557SOL     OW29569   5.532   0.269   2.566
 9557SOL    HW129570   5.460   0.338   2.555
 9557SOL    HW229571   5.511   0.188   2.512
 9558SOL     OW29572   6.825   5.004   2.903
 9558SOL    HW129573   6.781   4.914   2.893
 9558SOL    HW229574   6.831   5.027   3.000
 9559SOL     OW29575   6.826   3.083   1.839
 9559SOL    HW129576   6.910   3.075   1.893
 9559SOL    HW229577   6.785   3.173   1.856
 9560SOL     OW29578   2.489   1.248   3.200
 9560SOL    HW129579   2.451   1.297   3.279
 9560SOL    HW229580   2.574   1.202   3.227
 9561SOL     OW29581   4.344   6.655   0.859
 9561SOL    HW129582   4.246   6.633   0.867
 9561SOL    HW229583   4.364   6.678   0.764
 9562SOL     OW29584   5.102   5.211   2.704
 9562SOL    HW129585   5.133   5.306   2.713
 9562SOL    HW229586   5.182   5.151   2.703
 9563SOL     OW29587   6.684   5.847   6.233
 9563SOL    HW129588   6.593   5.883   6.255
 9563SOL    HW229589   6.704   5.770   6.293
 9564SOL     OW29590   2.918   6.629   6.796
 9564SOL    HW129591   3.009   6.669   6.790
 9564SOL    HW229592   2.891   6.593   6.707
 9565SOL     OW29593   3.457   6.329   4.488
 9565SOL    HW129594   3.546   6.355   4.524
 9565SOL    HW229595   3.468   6.290   4.396
 9566SOL     OW29596   2.848   4.696   5.517
 9566SOL    HW129597   2.857   4.597   5.520
 9566SOL    HW229598   2.901   4.737   5.592
 9567SOL     OW29599   5.978   5.666   6.179
 9567SOL    HW129600   5.978   5.569   6.156
 9567SOL    HW229601   5.883   5.698   6.184
 9568SOL     OW29602   4.837   3.847   6.611
 9568SOL    HW129603   4.903   3.913   6.648
 9568SOL    HW229604   4.757   3.896   6.575
 9569SOL     OW29605   6.232   0.507   0.144
 9569SOL    HW129606   6.289   0.531   0.065
 9569SOL    HW229607   6.233   0.582   0.210
 9570SOL     OW29608   1.124   1.270   7.020
 9570SOL    HW129609   1.151   1.366   0.005
 9570SOL    HW229610   1.179   1.228   6.947
 9571SOL     OW29611   2.256   3.418   0.258
 9571SOL    HW129612   2.197   3.462   0.325
 9571SOL    HW229613   2.287   3.330   0.293
 9572SOL     OW29614   1.315   4.295   1.929
 9572SOL    HW129615   1.259   4.378   1.927
 9572SOL    HW229616   1.412   4.319   1.925
 9573SOL     OW29617   1.894   1.645   0.252
 9573SOL    HW129618   1.949   1.562   0.239
 9573SOL    HW229619   1.808   1.635   0.202
 9574SOL     OW29620   2.806   3.130   5.852
 9574SOL    HW129621   2.707   3.125   5.865
 9574SOL    HW229622   2.841   3.039   5.830
 9575SOL     OW29623   5.213   0.818   2.148
 9575SOL    HW129624   5.115   0.834   2.137
 9575SOL    HW229625   5.244   0.751   2.080
 9576SOL     OW29626   3.163   1.147   4.651
 9576SOL    HW129627   3.141   1.058   4.690
 9576SOL    HW229628   3.231   1.193   4.709
 9577SOL     OW29629   1.130   6.131   2.714
 9577SOL    HW129630   1.129   6.207   2.649
 9577SOL    HW229631   1.081   6.053   2.674
 9578SOL     OW29632   6.579   2.887   2.240
 9578SOL    HW129633   6.538   2.867   2.329
 9578SOL    HW229634   6.516   2.943   2.187
 9579SOL     OW29635   0.896   6.683   2.387
 9579SOL    HW129636   0.885   6.735   2.302
 9579SOL    HW229637   0.812   6.691   2.441
 9580SOL     OW29638   4.041   3.751   6.562
 9580SOL    HW129639   3.986   3.788   6.487
 9580SOL    HW229640   4.134   3.735   6.530
 9581SOL     OW29641   1.088   4.323   5.921
 9581SOL    HW129642   1.126   4.406   5.879
 9581SOL    HW229643   1.125   4.313   6.013
 9582SOL     OW29644   4.199   4.833   4.333
 9582SOL    HW129645   4.258   4.766   4.378
 9582SOL    HW229646   4.209   4.825   4.234
 9583SOL     OW29647   2.078   4.224   2.068
 9583SOL    HW129648   2.110   4.274   2.148
 9583SOL    HW229649   2.014   4.152   2.098
 9584SOL     OW29650   6.227   5.560   7.009
 9584SOL    HW129651   6.230   5.660   7.014
 9584SOL    HW229652   6.300   5.521   0.039
 9585SOL     OW29653   6.379   0.143   4.273
 9585SOL    HW129654   6.283   0.168   4.258
 9585SOL    HW229655   6.423   0.213   4.329
 9586SOL     OW29656   5.629   3.554   3.490
 9586SOL    HW129657   5.555   3.511   3.437
 9586SOL    HW229658   5.716   3.540   3.442
 9587SOL     OW29659   5.277   0.541   2.380
 9587SOL    HW129660   5.226   0.627   2.369
 9587SOL    HW229661   5.267   0.485   2.298
 9588SOL     OW29662   0.537   0.824   1.361
 9588SOL    HW129663   0.612   0.885   1.388
 9588SOL    HW229664   0.483   0.866   1.289
 9589SOL     OW29665   2.716   0.818   6.874
 9589SOL    HW129666   2.801   0.769   6.888
 9589SOL    HW229667   2.701   0.832   6.775
 9590SOL     OW29668   0.216   4.117   3.335
 9590SOL    HW129669   0.272   4.071   3.266
 9590SOL    HW229670   0.276   4.169   3.396
 9591SOL     OW29671   1.663   5.322   1.118
 9591SOL    HW129672   1.712   5.394   1.071
 9591SOL    HW229673   1.616   5.264   1.051
 9592SOL     OW29674   4.931   5.314   2.097
 9592SOL    HW129675   4.910   5.396   2.044
 9592SOL    HW229676   5.030   5.301   2.101
 9593SOL     OW29677   7.004   2.719   4.666
 9593SOL    HW129678   0.067   2.675   4.679
 9593SOL    HW229679   6.938   2.651   4.633
 9594SOL     OW29680   6.403   6.969   2.448
 9594SOL    HW129681   6.473   6.900   2.428
 9594SOL    HW229682   6.315   6.938   2.410
 9595SOL     OW29683   1.549   5.678   3.944
 9595SOL    HW129684   1.520   5.744   4.012
 9595SOL    HW229685   1.636   5.637   3.973
 9596SOL     OW29686   5.751   5.870   4.986
 9596SOL    HW129687   5.790   5.949   5.033
 9596SOL    HW229688   5.651   5.881   4.981
 9597SOL     OW29689   1.898   4.284   1.220
 9597SOL    HW129690   1.917   4.187   1.205
 9597SOL    HW229691   1.941   4.313   1.306
 9598SOL     OW29692   0.061   5.364   5.912
 9598SOL    HW129693   0.107   5.282   5.945
 9598SOL    HW229694   0.100   5.445   5.955
 9599SOL     OW29695   4.705   1.595   5.364
 9599SOL    HW129696   4.799   1.604   5.395
 9599SOL    HW229697   4.656   1.532   5.425
 9600SOL     OW29698   1.351   0.514   6.671
 9600SOL    HW129699   1.297   0.431   6.685
 9600SOL    HW229700   1.290   0.592   6.663
 9601SOL     OW29701   0.205   5.488   5.535
 9601SOL    HW129702   0.169   5.559   5.474
 9601SOL    HW229703   0.253   5.531   5.611
 9602SOL     OW29704   1.277   5.633   6.860
 9602SOL    HW129705   1.199   5.648   6.799
 9602SOL    HW229706   1.266   5.546   6.909
 9603SOL     OW29707   1.864   5.985   4.476
 9603SOL    HW129708   1.915   6.056   4.524
 9603SOL    HW229709   1.911   5.962   4.391
 9604SOL     OW29710   5.705   1.713   6.816
 9604SOL    HW129711   5.770   1.783   6.846
 9604SOL    HW229712   5.679   1.732   6.721
 9605SOL     OW29713   1.621   5.837   6.607
 9605SOL    HW129714   1.720   5.829   6.619
 9605SOL    HW229715   1.582   5.891   6.681
 9606SOL     OW29716   6.986   6.345   4.217
 9606SOL    HW129717   6.894   6.379   4.202
 9606SOL    HW229718   0.009   6.340   4.130
 9607SOL     OW29719   1.049   2.475   2.194
 9607SOL    HW129720   0.992   2.544   2.149
 9607SOL    HW229721   1.099   2.423   2.125
 9608SOL     OW29722   0.648   6.955   2.325
 9608SOL    HW129723   0.637   0.020   2.284
 9608SOL    HW229724   0.697   6.896   2.262
 9609SOL     OW29725   1.264   4.074   4.331
 9609SOL    HW129726   1.175   4.066   4.285
 9609SOL    HW229727   1.268   4.007   4.406
 9610SOL     OW29728   2.094   1.771   6.204
 9610SOL    HW129729   2.096   1.825   6.288
 9610SOL    HW229730   2.157   1.811   6.137
 9611SOL     OW29731   6.267   0.660   1.196
 9611SOL    HW129732   6.297   0.753   1.216
 9611SOL    HW229733   6.300   0.634   1.105
 9612SOL     OW29734   5.907   2.749   1.728
 9612SOL    HW129735   5.996   2.712   1.699
 9612SOL    HW229736   5.871   2.808   1.655
 9613SOL     OW29737   6.176   6.866   5.144
 9613SOL    HW129738   6.080   6.839   5.133
 9613SOL    HW229739   6.197   6.939   5.080
 9614SOL     OW29740   3.770   3.589   2.581
 9614SOL    HW129741   3.679   3.622   2.558
 9614SOL    HW229742   3.794   3.617   2.674
 9615SOL     OW29743   1.092   5.587   2.875
 9615SOL    HW129744   1.192   5.589   2.873
 9615SOL    HW229745   1.059   5.657   2.938
 9616SOL     OW29746   3.966   2.871   0.957
 9616SOL    HW129747   3.892   2.805   0.941
 9616SOL    HW229748   3.932   2.964   0.940
 9617SOL     OW29749   0.909   3.110   3.742
 9617SOL    HW129750   0.950   3.062   3.819
 9617SOL    HW229751   0.944   3.073   3.656
 9618SOL     OW29752   4.004   6.080   6.745
 9618SOL    HW129753   4.024   5.985   6.772
 9618SOL    HW229754   3.963   6.081   6.654
 9619SOL     OW29755   2.486   6.371   0.488
 9619SOL    HW129756   2.499   6.357   0.587
 9619SOL    HW229757   2.408   6.431   0.473
 9620SOL     OW29758   3.247   1.477   6.107
 9620SOL    HW129759   3.201   1.483   6.018
 9620SOL    HW229760   3.255   1.381   6.134
 9621SOL     OW29761   0.746   0.461   1.104
 9621SOL    HW129762   0.799   0.546   1.105
 9621SOL    HW229763   0.804   0.386   1.072
 9622SOL     OW29764   5.816   0.483   6.136
 9622SOL    HW129765   5.765   0.421   6.195
 9622SOL    HW229766   5.765   0.569   6.125
 9623SOL     OW29767   4.441   6.214   6.097
 9623SOL    HW129768   4.503   6.169   6.161
 9623SOL    HW229769   4.440   6.164   6.011
 9624SOL     OW29770   4.118   5.046   5.212
 9624SOL    HW129771   4.058   5.122   5.187
 9624SOL    HW229772   4.063   4.966   5.233
 9625SOL     OW29773   5.328   4.571   5.884
 9625SOL    HW129774   5.286   4.590   5.973
 9625SOL    HW229775   5.256   4.549   5.818
 9626SOL     OW29776   2.626   4.138   6.015
 9626SOL    HW129777   2.673   4.125   5.928
 9626SOL    HW229778   2.680   4.200   6.073
 9627SOL     OW29779   0.798   5.337   0.210
 9627SOL    HW129780   0.874   5.277   0.184
 9627SOL    HW229781   0.747   5.363   0.128
 9628SOL     OW29782   5.724   3.373   6.654
 9628SOL    HW129783   5.704   3.458   6.603
 9628SOL    HW229784   5.715   3.295   6.592
 9629SOL     OW29785   0.177   5.616   3.549
 9629SOL    HW129786   0.246   5.687   3.557
 9629SOL    HW229787   0.192   5.563   3.465
 9630SOL     OW29788   6.431   5.958   6.308
 9630SOL    HW129789   6.346   5.929   6.264
 9630SOL    HW229790   6.418   6.047   6.350
 9631SOL     OW29791   4.230   1.002   0.801
 9631SOL    HW129792   4.169   1.062   0.749
 9631SOL    HW229793   4.198   0.908   0.793
 9632SOL     OW29794   3.697   6.289   1.478
 9632SOL    HW129795   3.643   6.280   1.394
 9632SOL    HW229796   3.659   6.229   1.548
 9633SOL     OW29797   3.175   3.163   2.475
 9633SOL    HW129798   3.126   3.160   2.563
 9633SOL    HW229799   3.229   3.247   2.470
 9634SOL     OW29800   5.207   4.390   2.376
 9634SOL    HW129801   5.122   4.344   2.401
 9634SOL    HW229802   5.279   4.363   2.440
 9635SOL     OW29803   0.922   3.654   3.188
 9635SOL    HW129804   0.918   3.738   3.242
 9635SOL    HW229805   0.830   3.615   3.181
 9636SOL     OW29806   4.507   2.506   4.673
 9636SOL    HW129807   4.482   2.556   4.756
 9636SOL    HW229808   4.530   2.412   4.697
 9637SOL     OW29809   2.471   3.150   0.729
 9637SOL    HW129810   2.532   3.073   0.712
 9637SOL    HW229811   2.437   3.145   0.823
 9638SOL     OW29812   7.021   4.522   5.707
 9638SOL    HW129813   0.030   4.430   5.721
 9638SOL    HW229814   0.068   4.588   5.724
 9639SOL     OW29815   4.379   1.718   2.547
 9639SOL    HW129816   4.312   1.701   2.619
 9639SOL    HW229817   4.366   1.811   2.512
 9640SOL     OW29818   3.571   0.245   2.462
 9640SOL    HW129819   3.566   0.345   2.463
 9640SOL    HW229820   3.586   0.214   2.368
 9641SOL     OW29821   6.244   4.269   2.359
 9641SOL    HW129822   6.219   4.280   2.456
 9641SOL    HW229823   6.163   4.281   2.302
 9642SOL     OW29824   2.175   0.517   3.555
 9642SOL    HW129825   2.204   0.437   3.607
 9642SOL    HW229826   2.180   0.598   3.612
 9643SOL     OW29827   5.566   4.437   4.182
 9643SOL    HW129828   5.518   4.487   4.110
 9643SOL    HW229829   5.504   4.420   4.259
 9644SOL     OW29830   1.409   5.530   4.999
 9644SOL    HW129831   1.398   5.470   4.920
 9644SOL    HW229832   1.320   5.554   5.036
 9645SOL     OW29833   0.756   5.521   6.950
 9645SOL    HW129834   0.803   5.597   6.907
 9645SOL    HW229835   0.820   5.470   7.007
 9646SOL     OW29836   3.532   6.132   5.674
 9646SOL    HW129837   3.509   6.137   5.771
 9646SOL    HW229838   3.500   6.215   5.628
 9647SOL     OW29839   6.192   6.754   3.514
 9647SOL    HW129840   6.279   6.712   3.540
 9647SOL    HW229841   6.138   6.689   3.461
 9648SOL     OW29842   4.705   2.389   1.110
 9648SOL    HW129843   4.652   2.452   1.053
 9648SOL    HW229844   4.731   2.433   1.196
 9649SOL     OW29845   2.470   4.026   0.361
 9649SOL    HW129846   2.391   4.031   0.422
 9649SOL    HW229847   2.471   4.106   0.301
 9650SOL     OW29848   0.009   4.789   4.543
 9650SOL    HW129849   0.029   4.844   4.462
 9650SOL    HW229850   6.961   4.725   4.523
 9651SOL     OW29851   3.193   1.281   0.487
 9651SOL    HW129852   3.143   1.297   0.572
 9651SOL    HW229853   3.147   1.209   0.435
 9652SOL     OW29854   6.832   4.029   0.459
 9652SOL    HW129855   6.775   3.948   0.445
 9652SOL    HW229856   6.790   4.108   0.416
 9653SOL     OW29857   4.678   3.829   6.046
 9653SOL    HW129858   4.605   3.820   5.978
 9653SOL    HW229859   4.639   3.819   6.138
 9654SOL     OW29860   3.297   3.520   4.124
 9654SOL    HW129861   3.339   3.556   4.207
 9654SOL    HW229862   3.351   3.547   4.044
 9655SOL     OW29863   4.961   1.209   1.843
 9655SOL    HW129864   4.992   1.156   1.763
 9655SOL    HW229865   4.984   1.305   1.830
 9656SOL     OW29866   5.564   4.366   1.388
 9656SOL    HW129867   5.508   4.333   1.312
 9656SOL    HW229868   5.530   4.455   1.418
 9657SOL     OW29869   5.875   3.511   3.341
 9657SOL    HW129870   5.875   3.603   3.303
 9657SOL    HW229871   5.960   3.464   3.315
 9658SOL     OW29872   4.876   1.819   2.073
 9658SOL    HW129873   4.877   1.808   1.974
 9658SOL    HW229874   4.922   1.741   2.116
 9659SOL     OW29875   3.435   3.022   0.598
 9659SOL    HW129876   3.404   3.052   0.688
 9659SOL    HW229877   3.510   2.956   0.609
 9660SOL     OW29878   0.420   5.771   1.229
 9660SOL    HW129879   0.450   5.698   1.290
 9660SOL    HW229880   0.400   5.853   1.283
 9661SOL     OW29881   4.614   4.987   0.716
 9661SOL    HW129882   4.528   4.974   0.764
 9661SOL    HW229883   4.643   5.083   0.725
 9662SOL     OW29884   5.099   4.327   6.678
 9662SOL    HW129885   5.159   4.342   6.757
 9662SOL    HW229886   5.020   4.387   6.684
 9663SOL     OW29887   0.859   4.582   3.544
 9663SOL    HW129888   0.933   4.589   3.477
 9663SOL    HW229889   0.864   4.493   3.589
 9664SOL     OW29890   5.722   4.128   3.182
 9664SOL    HW129891   5.798   4.132   3.117
 9664SOL    HW229892   5.683   4.036   3.182
 9665SOL     OW29893   5.511   6.313   6.546
 9665SOL    HW129894   5.474   6.313   6.639
 9665SOL    HW229895   5.550   6.403   6.525
 9666SOL     OW29896   5.904   3.754   0.851
 9666SOL    HW129897   5.909   3.823   0.779
 9666SOL    HW229898   5.833   3.687   0.828
 9667SOL     OW29899   5.376   5.399   0.114
 9667SOL    HW129900   5.368   5.322   0.051
 9667SOL    HW229901   5.290   5.451   0.115
 9668SOL     OW29902   1.170   6.816   5.966
 9668SOL    HW129903   1.159   6.808   6.065
 9668SOL    HW229904   1.256   6.774   5.938
 9669SOL     OW29905   3.433   0.047   0.329
 9669SOL    HW129906   3.388   6.991   0.366
 9669SOL    HW229907   3.528   0.027   0.308
 9670SOL     OW29908   0.281   0.354   6.026
 9670SOL    HW129909   0.379   0.371   6.017
 9670SOL    HW229910   0.263   0.258   6.003
 9671SOL     OW29911   1.373   4.992   6.850
 9671SOL    HW129912   1.429   5.067   6.887
 9671SOL    HW229913   1.289   5.029   6.810
 9672SOL     OW29914   0.533   4.025   4.378
 9672SOL    HW129915   0.505   4.047   4.285
 9672SOL    HW229916   0.461   4.053   4.442
 9673SOL     OW29917   2.449   3.906   1.410
 9673SOL    HW129918   2.503   3.836   1.362
 9673SOL    HW229919   2.391   3.862   1.478
 9674SOL     OW29920   3.504   6.296   3.683
 9674SOL    HW129921   3.592   6.328   3.719
 9674SOL    HW229922   3.516   6.262   3.590
 9675SOL     OW29923   4.682   3.814   1.745
 9675SOL    HW129924   4.732   3.773   1.821
 9675SOL    HW229925   4.733   3.894   1.711
 9676SOL     OW29926   1.301   3.287   5.686
 9676SOL    HW129927   1.338   3.366   5.638
 9676SOL    HW229928   1.275   3.314   5.779
 9677SOL     OW29929   6.266   4.925   0.225
 9677SOL    HW129930   6.325   4.867   0.168
 9677SOL    HW229931   6.308   4.935   0.316
 9678SOL     OW29932   3.473   3.882   5.083
 9678SOL    HW129933   3.395   3.876   5.146
 9678SOL    HW229934   3.558   3.871   5.134
 9679SOL     OW29935   1.839   1.431   5.261
 9679SOL    HW129936   1.758   1.487   5.278
 9679SOL    HW229937   1.910   1.488   5.219
 9680SOL     OW29938   4.416   6.002   2.983
 9680SOL    HW129939   4.419   6.087   3.036
 9680SOL    HW229940   4.477   6.010   2.904
 9681SOL     OW29941   1.995   1.375   2.381
 9681SOL    HW129942   1.957   1.290   2.417
 9681SOL    HW229943   1.972   1.384   2.284
 9682SOL     OW29944   5.588   5.987   4.762
 9682SOL    HW129945   5.514   5.987   4.828
 9682SOL    HW229946   5.673   5.958   4.807
 9683SOL     OW29947   2.824   0.021   1.058
 9683SOL    HW129948   2.818   6.992   0.975
 9683SOL    HW229949   2.832   6.986   1.138
 9684SOL     OW29950   1.250   4.508   5.833
 9684SOL    HW129951   1.243   4.579   5.763
 9684SOL    HW229952   1.296   4.428   5.794
 9685SOL     OW29953   3.654   4.726   1.529
 9685SOL    HW129954   3.699   4.695   1.445
 9685SOL    HW229955   3.598   4.653   1.566
 9686SOL     OW29956   6.446   2.001   5.765
 9686SOL    HW129957   6.349   2.022   5.758
 9686SOL    HW229958   6.459   1.908   5.799
 9687SOL     OW29959   6.222   0.290   2.455
 9687SOL    HW129960   6.315   0.267   2.482
 9687SOL    HW229961   6.216   0.388   2.436
 9688SOL     OW29962   1.223   4.869   1.524
 9688SOL    HW129963   1.186   4.954   1.560
 9688SOL    HW229964   1.149   4.805   1.504
 9689SOL     OW29965   1.015   6.252   0.508
 9689SOL    HW129966   1.069   6.169   0.517
 9689SOL    HW229967   1.074   6.327   0.476
 9690SOL     OW29968   5.761   5.809   5.310
 9690SOL    HW129969   5.708   5.727   5.289
 9690SOL    HW229970   5.757   5.872   5.233
 9691SOL     OW29971   3.277   3.476   2.220
 9691SOL    HW129972   3.251   3.390   2.177
 9691SOL    HW229973   3.300   3.543   2.149
 9692SOL     OW29974   4.462   4.954   0.430
 9692SOL    HW129975   4.462   5.053   0.443
 9692SOL    HW229976   4.460   4.909   0.519
 9693SOL     OW29977   5.373   4.121   3.921
 9693SOL    HW129978   5.373   4.032   3.875
 9693SOL    HW229979   5.301   4.179   3.882
 9694SOL     OW29980   3.470   6.357   1.843
 9694SOL    HW129981   3.434   6.438   1.797
 9694SOL    HW229982   3.505   6.383   1.933
 9695SOL     OW29983   0.454   2.802   3.836
 9695SOL    HW129984   0.487   2.707   3.841
 9695SOL    HW229985   0.518   2.857   3.783
 9696SOL     OW29986   6.024   2.203   2.744
 9696SOL    HW129987   5.925   2.197   2.732
 9696SOL    HW229988   6.045   2.275   2.810
 9697SOL     OW29989   6.770   5.971   0.157
 9697SOL    HW129990   6.828   5.925   0.090
 9697SOL    HW229991   6.788   6.069   0.155
 9698SOL     OW29992   5.080   3.750   0.330
 9698SOL    HW129993   5.130   3.702   0.258
 9698SOL    HW229994   5.021   3.820   0.289
 9699SOL     OW29995   0.980   5.169   0.593
 9699SOL    HW129996   1.077   5.168   0.568
 9699SOL    HW229997   0.965   5.110   0.672
 9700SOL     OW29998   5.704   6.814   4.319
 9700SOL    HW129999   5.710   6.726   4.366
 9700SOL    HW230000   5.784   6.870   4.341
 9701SOL     OW30001   5.092   3.358   6.544
 9701SOL    HW130002   5.075   3.357   6.642
 9701SOL    HW230003   5.167   3.295   6.522
 9702SOL     OW30004   3.326   3.083   0.878
 9702SOL    HW130005   3.262   3.009   0.900
 9702SOL    HW230006   3.300   3.166   0.928
 9703SOL     OW30007   6.082   3.890   5.099
 9703SOL    HW130008   6.012   3.921   5.164
 9703SOL    HW230009   6.069   3.936   5.011
 9704SOL     OW30010   2.835   4.793   3.037
 9704SOL    HW130011   2.763   4.725   3.051
 9704SOL    HW230012   2.862   4.794   2.941
 9705SOL     OW30013   6.094   4.455   5.524
 9705SOL    HW130014   6.117   4.367   5.484
 9705SOL    HW230015   6.117   4.455   5.622
 9706SOL     OW30016   1.071   1.593   2.582
 9706SOL    HW130017   1.001   1.534   2.622
 9706SOL    HW230018   1.041   1.688   2.587
 9707SOL     OW30019   6.302   4.752   2.405
 9707SOL    HW130020   6.228   4.714   2.350
 9707SOL    HW230021   6.363   4.678   2.434
 9708SOL     OW30022   1.811   0.751   2.225
 9708SOL    HW130023   1.871   0.737   2.304
 9708SOL    HW230024   1.773   0.843   2.228
 9709SOL     OW30025   5.710   2.804   2.448
 9709SOL    HW130026   5.766   2.811   2.366
 9709SOL    HW230027   5.618   2.837   2.429
 9710SOL     OW30028   6.015   5.982   4.927
 9710SOL    HW130029   6.066   6.031   4.998
 9710SOL    HW230030   5.925   6.024   4.915
 9711SOL     OW30031   4.056   6.409   6.585
 9711SOL    HW130032   4.032   6.410   6.488
 9711SOL    HW230033   4.142   6.358   6.597
 9712SOL     OW30034   6.298   2.579   0.664
 9712SOL    HW130035   6.326   2.656   0.722
 9712SOL    HW230036   6.264   2.505   0.722
 9713SOL     OW30037   1.725   6.353   3.653
 9713SOL    HW130038   1.638   6.343   3.605
 9713SOL    HW230039   1.722   6.434   3.711
 9714SOL     OW30040   3.521   5.074   4.672
 9714SOL    HW130041   3.444   5.016   4.647
 9714SOL    HW230042   3.531   5.075   4.771
 9715SOL     OW30043   6.015   4.247   0.950
 9715SOL    HW130044   6.007   4.182   1.026
 9715SOL    HW230045   6.086   4.216   0.887
 9716SOL     OW30046   3.303   4.939   6.814
 9716SOL    HW130047   3.255   5.024   6.794
 9716SOL    HW230048   3.253   4.887   6.883
 9717SOL     OW30049   3.984   0.843   6.051
 9717SOL    HW130050   4.010   0.931   6.091
 9717SOL    HW230051   3.885   0.831   6.057
 9718SOL     OW30052   3.220   1.980   0.019
 9718SOL    HW130053   3.238   1.986   6.947
 9718SOL    HW230054   3.297   1.936   0.064
 9719SOL     OW30055   4.504   5.984   5.218
 9719SOL    HW130056   4.481   5.995   5.315
 9719SOL    HW230057   4.447   5.912   5.178
 9720SOL     OW30058   1.487   4.573   2.782
 9720SOL    HW130059   1.491   4.652   2.843
 9720SOL    HW230060   1.560   4.579   2.714
 9721SOL     OW30061   0.979   2.066   0.333
 9721SOL    HW130062   1.078   2.054   0.317
 9721SOL    HW230063   0.960   2.162   0.353
 9722SOL     OW30064   3.605   2.962   5.367
 9722SOL    HW130065   3.669   3.000   5.434
 9722SOL    HW230066   3.557   2.885   5.408
 9723SOL     OW30067   6.273   4.906   4.848
 9723SOL    HW130068   6.181   4.939   4.868
 9723SOL    HW230069   6.268   4.820   4.798
 9724SOL     OW30070   1.231   5.414   7.014
 9724SOL    HW130071   1.295   5.427   0.064
 9724SOL    HW230072   1.138   5.407   0.023
 9725SOL     OW30073   3.381   5.479   4.879
 9725SOL    HW130074   3.458   5.485   4.943
 9725SOL    HW230075   3.398   5.541   4.801
 9726SOL     OW30076   6.438   1.286   4.227
 9726SOL    HW130077   6.379   1.338   4.165
 9726SOL    HW230078   6.515   1.247   4.176
 9727SOL     OW30079   0.406   1.415   6.536
 9727SOL    HW130080   0.503   1.437   6.548
 9727SOL    HW230081   0.368   1.474   6.464
 9728SOL     OW30082   5.022   0.616   6.025
 9728SOL    HW130083   5.046   0.548   6.095
 9728SOL    HW230084   5.103   0.639   5.972
 9729SOL     OW30085   0.613   4.605   3.422
 9729SOL    HW130086   0.546   4.539   3.455
 9729SOL    HW230087   0.696   4.600   3.479
 9730SOL     OW30088   0.923   4.322   2.997
 9730SOL    HW130089   0.840   4.337   3.051
 9730SOL    HW230090   0.983   4.257   3.044
 9731SOL     OW30091   4.830   4.068   2.949
 9731SOL    HW130092   4.785   4.078   2.861
 9731SOL    HW230093   4.892   3.989   2.946
 9732SOL     OW30094   1.574   2.878   2.240
 9732SOL    HW130095   1.499   2.943   2.231
 9732SOL    HW230096   1.537   2.785   2.246
 9733SOL     OW30097   6.150   5.630   2.525
 9733SOL    HW130098   6.138   5.555   2.460
 9733SOL    HW230099   6.126   5.599   2.617
 9734SOL     OW30100   6.016   0.044   6.624
 9734SOL    HW130101   5.950   7.000   6.596
 9734SOL    HW230102   6.109   0.009   6.611
 9735SOL     OW30103   0.816   1.677   2.852
 9735SOL    HW130104   0.783   1.707   2.942
 9735SOL    HW230105   0.765   1.725   2.780
 9736SOL     OW30106   4.707   2.303   5.353
 9736SOL    HW130107   4.631   2.357   5.316
 9736SOL    HW230108   4.750   2.353   5.428
 9737SOL     OW30109   6.431   1.971   2.275
 9737SOL    HW130110   6.516   1.972   2.328
 9737SOL    HW230111   6.376   2.051   2.298
 9738SOL     OW30112   2.244   5.891   1.066
 9738SOL    HW130113   2.237   5.891   0.966
 9738SOL    HW230114   2.217   5.801   1.101
 9739SOL     OW30115   5.088   0.358   0.048
 9739SOL    HW130116   5.061   0.442   0.095
 9739SOL    HW230117   5.043   0.279   0.091
 9740SOL     OW30118   6.880   0.375   2.426
 9740SOL    HW130119   6.907   0.430   2.347
 9740SOL    HW230120   6.903   0.279   2.409
 9741SOL     OW30121   3.390   1.509   4.577
 9741SOL    HW130122   3.418   1.582   4.640
 9741SOL    HW230123   3.461   1.440   4.573
 9742SOL     OW30124   3.915   1.642   6.413
 9742SOL    HW130125   3.861   1.671   6.492
 9742SOL    HW230126   3.933   1.544   6.419
 9743SOL     OW30127   6.317   2.883   3.281
 9743SOL    HW130128   6.357   2.820   3.348
 9743SOL    HW230129   6.218   2.884   3.292
 9744SOL     OW30130   2.084   6.567   3.585
 9744SOL    HW130131   2.105   6.595   3.492
 9744SOL    HW230132   2.012   6.626   3.622
 9745SOL     OW30133   5.799   1.251   5.810
 9745SOL    HW130134   5.896   1.227   5.815
 9745SOL    HW230135   5.776   1.274   5.715
 9746SOL     OW30136   4.999   6.013   6.627
 9746SOL    HW130137   5.013   5.914   6.635
 9746SOL    HW230138   5.058   6.060   6.693
 9747SOL     OW30139   2.559   2.040   2.194
 9747SOL    HW130140   2.465   2.042   2.227
 9747SOL    HW230141   2.597   1.949   2.209
 9748SOL     OW30142   0.831   0.639   3.198
 9748SOL    HW130143   0.795   0.700   3.268
 9748SOL    HW230144   0.847   0.549   3.237
 9749SOL     OW30145   0.416   1.758   2.575
 9749SOL    HW130146   0.340   1.756   2.511
 9749SOL    HW230147   0.466   1.672   2.569
 9750SOL     OW30148   6.431   4.728   3.933
 9750SOL    HW130149   6.371   4.703   3.857
 9750SOL    HW230150   6.443   4.648   3.993
 9751SOL     OW30151   2.557   0.649   1.846
 9751SOL    HW130152   2.650   0.680   1.864
 9751SOL    HW230153   2.506   0.720   1.799
 9752SOL     OW30154   4.128   2.655   0.643
 9752SOL    HW130155   4.160   2.710   0.720
 9752SOL    HW230156   4.175   2.685   0.559
 9753SOL     OW30157   6.698   6.111   6.101
 9753SOL    HW130158   6.732   6.106   6.007
 9753SOL    HW230159   6.722   6.026   6.148
 9754SOL     OW30160   3.871   0.251   0.905
 9754SOL    HW130161   3.947   0.196   0.939
 9754SOL    HW230162   3.785   0.203   0.921
 9755SOL     OW30163   3.328   4.018   5.917
 9755SOL    HW130164   3.289   4.045   6.005
 9755SOL    HW230165   3.408   3.960   5.932
 9756SOL     OW30166   5.656   1.546   6.286
 9756SOL    HW130167   5.722   1.618   6.266
 9756SOL    HW230168   5.564   1.586   6.290
 9757SOL     OW30169   5.267   3.943   4.140
 9757SOL    HW130170   5.336   3.984   4.079
 9757SOL    HW230171   5.181   3.932   4.091
 9758SOL     OW30172   1.573   0.870   0.819
 9758SOL    HW130173   1.493   0.884   0.878
 9758SOL    HW230174   1.622   0.788   0.848
 9759SOL     OW30175   1.351   1.570   0.625
 9759SOL    HW130176   1.288   1.507   0.581
 9759SOL    HW230177   1.427   1.519   0.665
 9760SOL     OW30178   5.003   2.245   6.826
 9760SOL    HW130179   4.933   2.175   6.838
 9760SOL    HW230180   5.061   2.248   6.908
 9761SOL     OW30181   1.463   1.173   1.966
 9761SOL    HW130182   1.407   1.255   1.980
 9761SOL    HW230183   1.555   1.200   1.938
 9762SOL     OW30184   2.995   1.552   5.100
 9762SOL    HW130185   2.993   1.611   5.019
 9762SOL    HW230186   2.989   1.608   5.182
 9763SOL     OW30187   6.387   1.251   1.588
 9763SOL    HW130188   6.332   1.188   1.533
 9763SOL    HW230189   6.348   1.343   1.581
 9764SOL     OW30190   5.675   2.072   2.279
 9764SOL    HW130191   5.579   2.047   2.268
 9764SOL    HW230192   5.726   1.993   2.315
 9765SOL     OW30193   6.496   1.390   2.073
 9765SOL    HW130194   6.489   1.305   2.020
 9765SOL    HW230195   6.476   1.468   2.013
 9766SOL     OW30196   2.064   0.884   3.752
 9766SOL    HW130197   2.033   0.944   3.826
 9766SOL    HW230198   1.987   0.863   3.692
 9767SOL     OW30199   1.882   3.376   5.929
 9767SOL    HW130200   1.823   3.297   5.941
 9767SOL    HW230201   1.975   3.353   5.958
 9768SOL     OW30202   6.209   2.392   0.841
 9768SOL    HW130203   6.110   2.376   0.844
 9768SOL    HW230204   6.256   2.305   0.826
 9769SOL     OW30205   2.884   1.786   4.984
 9769SOL    HW130206   2.838   1.711   4.937
 9769SOL    HW230207   2.818   1.857   5.006
 9770SOL     OW30208   3.800   2.505   6.271
 9770SOL    HW130209   3.869   2.440   6.301
 9770SOL    HW230210   3.839   2.565   6.200
 9771SOL     OW30211   2.810   6.301   2.378
 9771SOL    HW130212   2.877   6.245   2.426
 9771SOL    HW230213   2.720   6.289   2.420
 9772SOL     OW30214   1.614   6.109   1.984
 9772SOL    HW130215   1.523   6.072   2.002
 9772SOL    HW230216   1.607   6.205   1.958
 9773SOL     OW30217   5.282   5.427   2.491
 9773SOL    HW130218   5.245   5.506   2.440
 9773SOL    HW230219   5.257   5.436   2.587
 9774SOL     OW30220   0.458   5.358   3.982
 9774SOL    HW130221   0.555   5.372   3.962
 9774SOL    HW230222   0.404   5.372   3.899
 9775SOL     OW30223   2.488   0.698   3.621
 9775SOL    HW130224   2.570   0.661   3.665
 9775SOL    HW230225   2.407   0.669   3.673
 9776SOL     OW30226   1.612   5.253   6.193
 9776SOL    HW130227   1.693   5.309   6.208
 9776SOL    HW230228   1.638   5.161   6.165
 9777SOL     OW30229   5.486   6.904   6.182
 9777SOL    HW130230   5.423   6.981   6.173
 9777SOL    HW230231   5.579   6.938   6.195
 9778SOL     OW30232   0.316   1.858   4.703
 9778SOL    HW130233   0.357   1.879   4.614
 9778SOL    HW230234   0.288   1.943   4.747
 9779SOL     OW30235   0.997   1.754   3.618
 9779SOL    HW130236   0.931   1.797   3.679
 9779SOL    HW230237   0.994   1.800   3.529
 9780SOL     OW30238   1.623   1.594   1.341
 9780SOL    HW130239   1.676   1.539   1.276
 9780SOL    HW230240   1.626   1.690   1.313
 9781SOL     OW30241   1.206   3.457   3.520
 9781SOL    HW130242   1.290   3.415   3.486
 9781SOL    HW230243   1.177   3.410   3.604
 9782SOL     OW30244   0.784   2.260   0.607
 9782SOL    HW130245   0.820   2.173   0.640
 9782SOL    HW230246   0.696   2.278   0.651
 9783SOL     OW30247   3.728   1.655   3.115
 9783SOL    HW130248   3.679   1.741   3.126
 9783SOL    HW230249   3.708   1.616   3.025
 9784SOL     OW30250   2.956   1.346   0.222
 9784SOL    HW130251   2.993   1.435   0.249
 9784SOL    HW230252   2.864   1.336   0.259
 9785SOL     OW30253   6.777   2.426   5.000
 9785SOL    HW130254   6.754   2.428   5.097
 9785SOL    HW230255   6.876   2.427   4.989
 9786SOL     OW30256   2.289   4.538   0.664
 9786SOL    HW130257   2.279   4.439   0.660
 9786SOL    HW230258   2.380   4.561   0.699
 9787SOL     OW30259   3.814   3.341   3.289
 9787SOL    HW130260   3.714   3.347   3.290
 9787SOL    HW230261   3.842   3.248   3.313
 9788SOL     OW30262   0.374   5.708   1.938
 9788SOL    HW130263   0.447   5.640   1.943
 9788SOL    HW230264   0.393   5.771   1.862
 9789SOL     OW30265   2.946   7.021   6.710
 9789SOL    HW130266   2.945   6.989   6.616
 9789SOL    HW230267   2.986   6.951   6.769
 9790SOL     OW30268   6.974   3.890   4.574
 9790SOL    HW130269   6.901   3.823   4.577
 9790SOL    HW230270   7.004   3.912   4.667
 9791SOL     OW30271   0.512   6.586   0.313
 9791SOL    HW130272   0.463   6.673   0.310
 9791SOL    HW230273   0.604   6.601   0.351
 9792SOL     OW30274   3.818   5.530   0.890
 9792SOL    HW130275   3.831   5.515   0.988
 9792SOL    HW230276   3.770   5.617   0.875
 9793SOL     OW30277   4.407   1.401   1.829
 9793SOL    HW130278   4.340   1.461   1.871
 9793SOL    HW230279   4.420   1.320   1.886
 9794SOL     OW30280   4.853   4.687   4.614
 9794SOL    HW130281   4.878   4.647   4.526
 9794SOL    HW230282   4.935   4.709   4.666
 9795SOL     OW30283   0.835   2.906   3.479
 9795SOL    HW130284   0.934   2.909   3.481
 9795SOL    HW230285   0.804   2.837   3.415
 9796SOL     OW30286   3.492   4.181   3.843
 9796SOL    HW130287   3.552   4.150   3.918
 9796SOL    HW230288   3.404   4.208   3.880
 9797SOL     OW30289   2.874   6.190   6.386
 9797SOL    HW130290   2.778   6.215   6.371
 9797SOL    HW230291   2.923   6.192   6.298
 9798SOL     OW30292   1.407   2.886   1.161
 9798SOL    HW130293   1.447   2.966   1.119
 9798SOL    HW230294   1.443   2.875   1.254
 9799SOL     OW30295   2.601   5.503   5.870
 9799SOL    HW130296   2.609   5.602   5.862
 9799SOL    HW230297   2.650   5.471   5.951
 9800SOL     OW30298   5.544   3.092   3.947
 9800SOL    HW130299   5.463   3.137   3.983
 9800SOL    HW230300   5.537   3.086   3.847
 9801SOL     OW30301   5.644   4.761   6.616
 9801SOL    HW130302   5.563   4.774   6.674
 9801SOL    HW230303   5.716   4.717   6.669
 9802SOL     OW30304   4.141   5.356   1.084
 9802SOL    HW130305   4.051   5.324   1.052
 9802SOL    HW230306   4.197   5.277   1.108
 9803SOL     OW30307   1.582   3.640   6.793
 9803SOL    HW130308   1.625   3.660   6.880
 9803SOL    HW230309   1.483   3.656   6.799
 9804SOL     OW30310   6.575   5.567   3.055
 9804SOL    HW130311   6.587   5.664   3.033
 9804SOL    HW230312   6.554   5.557   3.152
 9805SOL     OW30313   0.342   6.369   3.877
 9805SOL    HW130314   0.393   6.288   3.907
 9805SOL    HW230315   0.373   6.449   3.929
 9806SOL     OW30316   4.185   2.283   5.749
 9806SOL    HW130317   4.176   2.381   5.730
 9806SOL    HW230318   4.121   2.232   5.690
 9807SOL     OW30319   3.443   2.940   2.179
 9807SOL    HW130320   3.348   2.951   2.208
 9807SOL    HW230321   3.446   2.902   2.086
 9808SOL     OW30322   4.534   6.228   4.197
 9808SOL    HW130323   4.482   6.215   4.281
 9808SOL    HW230324   4.472   6.221   4.118
 9809SOL     OW30325   0.463   3.099   0.683
 9809SOL    HW130326   0.538   3.039   0.712
 9809SOL    HW230327   0.462   3.181   0.740
 9810SOL     OW30328   2.263   1.740   5.726
 9810SOL    HW130329   2.310   1.702   5.645
 9810SOL    HW230330   2.305   1.827   5.751
 9811SOL     OW30331   6.656   3.647   4.175
 9811SOL    HW130332   6.615   3.603   4.255
 9811SOL    HW230333   6.667   3.745   4.193
 9812SOL     OW30334   2.389   6.855   4.635
 9812SOL    HW130335   2.362   6.871   4.540
 9812SOL    HW230336   2.421   6.941   4.675
 9813SOL     OW30337   5.328   2.501   0.699
 9813SOL    HW130338   5.268   2.425   0.726
 9813SOL    HW230339   5.276   2.586   0.704
 9814SOL     OW30340   5.838   1.894   6.964
 9814SOL    HW130341   5.893   1.974   6.988
 9814SOL    HW230342   5.769   1.879   0.010
 9815SOL     OW30343   4.657   2.735   4.519
 9815SOL    HW130344   4.599   2.660   4.550
 9815SOL    HW230345   4.618   2.776   4.437
 9816SOL     OW30346   1.285   0.247   0.307
 9816SOL    HW130347   1.303   0.344   0.293
 9816SOL    HW230348   1.191   0.234   0.338
 9817SOL     OW30349   0.429   0.078   3.369
 9817SOL    HW130350   0.364   0.128   3.426
 9817SOL    HW230351   0.434   0.121   3.279
 9818SOL     OW30352   5.911   1.853   4.812
 9818SOL    HW130353   5.970   1.781   4.776
 9818SOL    HW230354   5.966   1.934   4.832
 9819SOL     OW30355   4.002   1.884   3.324
 9819SOL    HW130356   4.102   1.884   3.335
 9819SOL    HW230357   3.979   1.857   3.230
 9820SOL     OW30358   3.274   4.131   6.172
 9820SOL    HW130359   3.358   4.110   6.222
 9820SOL    HW230360   3.282   4.222   6.130
 9821SOL     OW30361   5.423   6.292   6.797
 9821SOL    HW130362   5.386   6.381   6.826
 9821SOL    HW230363   5.503   6.270   6.852
 9822SOL     OW30364   0.507   6.644   2.903
 9822SOL    HW130365   0.569   6.587   2.848
 9822SOL    HW230366   0.528   6.740   2.887
 9823SOL     OW30367   3.296   0.486   1.976
 9823SOL    HW130368   3.365   0.460   1.909
 9823SOL    HW230369   3.226   0.542   1.933
 9824SOL     OW30370   0.757   4.150   5.500
 9824SOL    HW130371   0.664   4.158   5.535
 9824SOL    HW230372   0.755   4.112   5.407
 9825SOL     OW30373   3.630   5.429   5.417
 9825SOL    HW130374   3.637   5.529   5.418
 9825SOL    HW230375   3.540   5.401   5.449
 9826SOL     OW30376   4.827   5.822   6.153
 9826SOL    HW130377   4.776   5.741   6.123
 9826SOL    HW230378   4.784   5.904   6.115
 9827SOL     OW30379   1.446   4.524   4.739
 9827SOL    HW130380   1.528   4.503   4.685
 9827SOL    HW230381   1.411   4.439   4.781
 9828SOL     OW30382   3.268   3.053   6.785
 9828SOL    HW130383   3.196   3.051   6.855
 9828SOL    HW230384   3.356   3.070   6.829
 9829SOL     OW30385   3.360   6.419   0.406
 9829SOL    HW130386   3.385   6.324   0.386
 9829SOL    HW230387   3.287   6.421   0.473
 9830SOL     OW30388   6.266   1.957   0.995
 9830SOL    HW130389   6.257   1.948   0.896
 9830SOL    HW230390   6.295   1.869   1.034
 9831SOL     OW30391   1.044   5.884   1.151
 9831SOL    HW130392   1.141   5.907   1.164
 9831SOL    HW230393   1.029   5.857   1.056
 9832SOL     OW30394   4.508   4.891   2.596
 9832SOL    HW130395   4.551   4.967   2.645
 9832SOL    HW230396   4.551   4.881   2.506
 9833SOL     OW30397   3.284   3.215   4.962
 9833SOL    HW130398   3.315   3.184   5.052
 9833SOL    HW230399   3.236   3.140   4.916
 9834SOL     OW30400   2.817   3.636   6.035
 9834SOL    HW130401   2.847   3.542   6.023
 9834SOL    HW230402   2.722   3.645   6.005
 9835SOL     OW30403   4.971   1.671   4.217
 9835SOL    HW130404   4.949   1.763   4.250
 9835SOL    HW230405   5.071   1.662   4.209
 9836SOL     OW30406   5.901   3.790   3.291
 9836SOL    HW130407   5.894   3.810   3.389
 9836SOL    HW230408   5.995   3.808   3.261
 9837SOL     OW30409   1.768   6.960   3.542
 9837SOL    HW130410   1.845   6.994   3.489
 9837SOL    HW230411   1.685   7.009   3.517
 9838SOL     OW30412   0.581   6.588   5.584
 9838SOL    HW130413   0.665   6.533   5.583
 9838SOL    HW230414   0.518   6.550   5.652
 9839SOL     OW30415   6.541   1.375   2.533
 9839SOL    HW130416   6.629   1.358   2.577
 9839SOL    HW230417   6.498   1.455   2.576
 9840SOL     OW30418   0.334   0.504   0.499
 9840SOL    HW130419   0.354   0.409   0.475
 9840SOL    HW230420   0.342   0.562   0.417
 9841SOL     OW30421   1.324   4.574   4.354
 9841SOL    HW130422   1.400   4.622   4.311
 9841SOL    HW230423   1.360   4.497   4.408
 9842SOL     OW30424   3.416   3.107   3.751
 9842SOL    HW130425   3.435   3.205   3.763
 9842SOL    HW230426   3.426   3.083   3.654
 9843SOL     OW30427   6.625   2.182   1.094
 9843SOL    HW130428   6.724   2.182   1.081
 9843SOL    HW230429   6.601   2.243   1.169
 9844SOL     OW30430   4.710   6.582   2.887
 9844SOL    HW130431   4.626   6.609   2.933
 9844SOL    HW230432   4.764   6.524   2.947
 9845SOL     OW30433   1.988   1.617   5.146
 9845SOL    HW130434   2.084   1.633   5.170
 9845SOL    HW230435   1.956   1.689   5.085
 9846SOL     OW30436   3.029   3.806   3.411
 9846SOL    HW130437   3.089   3.873   3.367
 9846SOL    HW230438   2.985   3.848   3.491
 9847SOL     OW30439   2.512   2.813   5.926
 9847SOL    HW130440   2.508   2.854   6.017
 9847SOL    HW230441   2.588   2.854   5.875
 9848SOL     OW30442   3.907   2.415   6.560
 9848SOL    HW130443   3.995   2.392   6.603
 9848SOL    HW230444   3.861   2.331   6.531
 9849SOL     OW30445   5.571   0.603   6.616
 9849SOL    HW130446   5.668   0.624   6.603
 9849SOL    HW230447   5.560   0.540   6.694
 9850SOL     OW30448   4.682   5.859   2.372
 9850SOL    HW130449   4.651   5.862   2.277
 9850SOL    HW230450   4.782   5.855   2.374
 9851SOL     OW30451   4.354   1.813   5.182
 9851SOL    HW130452   4.441   1.842   5.222
 9851SOL    HW230453   4.323   1.730   5.228
 9852SOL     OW30454   3.963   1.795   3.063
 9852SOL    HW130455   4.054   1.754   3.064
 9852SOL    HW230456   3.894   1.724   3.080
 9853SOL     OW30457   4.666   4.303   2.948
 9853SOL    HW130458   4.644   4.313   2.851
 9853SOL    HW230459   4.749   4.248   2.958
 9854SOL     OW30460   6.070   5.153   5.202
 9854SOL    HW130461   6.137   5.086   5.234
 9854SOL    HW230462   6.099   5.188   5.112
 9855SOL     OW30463   0.960   4.075   1.501
 9855SOL    HW130464   0.965   3.978   1.479
 9855SOL    HW230465   0.864   4.103   1.504
 9856SOL     OW30466   4.095   3.997   0.110
 9856SOL    HW130467   4.122   4.077   0.056
 9856SOL    HW230468   4.175   3.938   0.124
 9857SOL     OW30469   5.397   2.031   3.003
 9857SOL    HW130470   5.358   2.071   2.920
 9857SOL    HW230471   5.390   2.097   3.078
 9858SOL     OW30472   5.453   0.522   1.275
 9858SOL    HW130473   5.467   0.558   1.368
 9858SOL    HW230474   5.510   0.573   1.211
 9859SOL     OW30475   6.594   6.969   1.027
 9859SOL    HW130476   6.668   6.973   0.959
 9859SOL    HW230477   6.529   6.897   1.000
 9860SOL     OW30478   0.739   0.977   1.458
 9860SOL    HW130479   0.798   0.911   1.506
 9860SOL    HW230480   0.688   1.031   1.524
 9861SOL     OW30481   3.776   6.705   4.336
 9861SOL    HW130482   3.691   6.653   4.342
 9861SOL    HW230483   3.780   6.753   4.248
 9862SOL     OW30484   2.650   3.609   0.731
 9862SOL    HW130485   2.699   3.680   0.781
 9862SOL    HW230486   2.566   3.646   0.692
 9863SOL     OW30487   3.285   6.981   3.075
 9863SOL    HW130488   3.241   0.014   3.142
 9863SOL    HW230489   3.262   7.013   2.983
 9864SOL     OW30490   4.178   6.016   3.780
 9864SOL    HW130491   4.117   6.060   3.714
 9864SOL    HW230492   4.273   6.040   3.759
 9865SOL     OW30493   0.938   0.829   3.824
 9865SOL    HW130494   0.975   0.744   3.859
 9865SOL    HW230495   0.843   0.839   3.852
 9866SOL     OW30496   5.051   4.174   4.605
 9866SOL    HW130497   5.070   4.107   4.534
 9866SOL    HW230498   5.103   4.258   4.586
 9867SOL     OW30499   4.419   0.745   1.281
 9867SOL    HW130500   4.370   0.811   1.337
 9867SOL    HW230501   4.497   0.790   1.237
 9868SOL     OW30502   1.755   4.554   6.020
 9868SOL    HW130503   1.792   4.473   5.973
 9868SOL    HW230504   1.656   4.559   6.004
 9869SOL     OW30505   2.173   3.779   2.439
 9869SOL    HW130506   2.141   3.733   2.522
 9869SOL    HW230507   2.260   3.740   2.410
 9870SOL     OW30508   3.844   6.043   2.322
 9870SOL    HW130509   3.932   6.021   2.279
 9870SOL    HW230510   3.831   5.985   2.403
 9871SOL     OW30511   0.845   7.018   6.471
 9871SOL    HW130512   0.791   0.068   6.432
 9871SOL    HW230513   0.803   6.931   6.445
 9872SOL     OW30514   2.925   5.306   3.252
 9872SOL    HW130515   2.988   5.347   3.318
 9872SOL    HW230516   2.957   5.214   3.229
 9873SOL     OW30517   2.155   2.351   1.105
 9873SOL    HW130518   2.153   2.444   1.068
 9873SOL    HW230519   2.139   2.354   1.203
 9874SOL     OW30520   0.703   2.451   4.388
 9874SOL    HW130521   0.636   2.479   4.457
 9874SOL    HW230522   0.721   2.353   4.397
 9875SOL     OW30523   0.283   6.784   2.367
 9875SOL    HW130524   0.264   6.852   2.296
 9875SOL    HW230525   0.370   6.739   2.348
 9876SOL     OW30526   6.860   0.828   2.181
 9876SOL    HW130527   6.805   0.904   2.147
 9876SOL    HW230528   6.939   0.815   2.121
 9877SOL     OW30529   1.842   6.105   2.757
 9877SOL    HW130530   1.803   6.189   2.795
 9877SOL    HW230531   1.858   6.117   2.660
 9878SOL     OW30532   2.121   5.327   5.100
 9878SOL    HW130533   2.116   5.235   5.140
 9878SOL    HW230534   2.214   5.363   5.111
 9879SOL     OW30535   5.701   5.012   4.998
 9879SOL    HW130536   5.779   5.071   5.019
 9879SOL    HW230537   5.622   5.069   4.975
 9880SOL     OW30538   1.693   2.505   5.217
 9880SOL    HW130539   1.775   2.522   5.270
 9880SOL    HW230540   1.670   2.407   5.222
 9881SOL     OW30541   1.811   1.746   4.939
 9881SOL    HW130542   1.751   1.680   4.983
 9881SOL    HW230543   1.786   1.755   4.843
 9882SOL     OW30544   1.210   2.045   3.603
 9882SOL    HW130545   1.248   2.135   3.582
 9882SOL    HW230546   1.219   2.028   3.701
 9883SOL     OW30547   1.113   5.339   0.383
 9883SOL    HW130548   1.159   5.284   0.452
 9883SOL    HW230549   1.079   5.423   0.425
 9884SOL     OW30550   4.192   1.636   3.078
 9884SOL    HW130551   4.196   1.580   3.160
 9884SOL    HW230552   4.280   1.632   3.030
 9885SOL     OW30553   0.194   3.496   5.460
 9885SOL    HW130554   0.234   3.438   5.531
 9885SOL    HW230555   0.250   3.491   5.377
 9886SOL     OW30556   0.998   4.365   1.973
 9886SOL    HW130557   0.983   4.381   2.070
 9886SOL    HW230558   1.044   4.444   1.932
 9887SOL     OW30559   3.385   1.789   6.465
 9887SOL    HW130560   3.321   1.727   6.419
 9887SOL    HW230561   3.353   1.883   6.454
 9888SOL     OW30562   6.870   4.449   0.861
 9888SOL    HW130563   6.922   4.364   0.849
 9888SOL    HW230564   6.774   4.427   0.881
 9889SOL     OW30565   6.690   5.036   1.248
 9889SOL    HW130566   6.715   4.940   1.246
 9889SOL    HW230567   6.666   5.067   1.156
 9890SOL     OW30568   1.749   2.574   0.310
 9890SOL    HW130569   1.741   2.543   0.404
 9890SOL    HW230570   1.665   2.621   0.283
 9891SOL     OW30571   5.833   3.259   1.143
 9891SOL    HW130572   5.778   3.214   1.213
 9891SOL    HW230573   5.805   3.228   1.052
 9892SOL     OW30574   6.638   5.241   0.445
 9892SOL    HW130575   6.692   5.325   0.441
 9892SOL    HW230576   6.623   5.206   0.353
 9893SOL     OW30577   1.355   0.135   0.937
 9893SOL    HW130578   1.428   0.187   0.983
 9893SOL    HW230579   1.296   0.093   1.006
 9894SOL     OW30580   1.903   1.972   1.796
 9894SOL    HW130581   1.993   1.931   1.808
 9894SOL    HW230582   1.907   2.069   1.818
 9895SOL     OW30583   5.817   3.564   5.650
 9895SOL    HW130584   5.879   3.543   5.574
 9895SOL    HW230585   5.748   3.491   5.658
 9896SOL     OW30586   6.228   6.991   5.910
 9896SOL    HW130587   6.221   0.059   5.876
 9896SOL    HW230588   6.158   6.934   5.867
 9897SOL     OW30589   5.797   5.495   3.761
 9897SOL    HW130590   5.834   5.402   3.759
 9897SOL    HW230591   5.852   5.554   3.702
 9898SOL     OW30592   2.345   5.676   5.699
 9898SOL    HW130593   2.305   5.594   5.742
 9898SOL    HW230594   2.384   5.735   5.770
 9899SOL     OW30595   0.048   5.576   0.080
 9899SOL    HW130596   0.140   5.592   0.116
 9899SOL    HW230597   0.054   5.531   7.017
 9900SOL     OW30598   2.150   3.818   3.471
 9900SOL    HW130599   2.109   3.886   3.409
 9900SOL    HW230600   2.229   3.776   3.426
 9901SOL     OW30601   3.173   1.641   6.339
 9901SOL    HW130602   3.163   1.706   6.264
 9901SOL    HW230603   3.168   1.548   6.304
 9902SOL     OW30604   3.169   4.886   0.048
 9902SOL    HW130605   3.078   4.878   0.089
 9902SOL    HW230606   3.206   4.795   0.029
 9903SOL     OW30607   4.989   1.062   1.591
 9903SOL    HW130608   4.945   0.990   1.536
 9903SOL    HW230609   5.055   1.111   1.534
 9904SOL     OW30610   0.723   3.365   6.898
 9904SOL    HW130611   0.777   3.351   6.981
 9904SOL    HW230612   0.756   3.304   6.826
 9905SOL     OW30613   2.619   0.501   0.056
 9905SOL    HW130614   2.702   0.553   0.035
 9905SOL    HW230615   2.619   0.417   0.003
 9906SOL     OW30616   3.097   3.125   1.758
 9906SOL    HW130617   3.193   3.150   1.750
 9906SOL    HW230618   3.089   3.032   1.794
 9907SOL     OW30619   6.436   0.653   0.552
 9907SOL    HW130620   6.486   0.673   0.637
 9907SOL    HW230621   6.485   0.693   0.474
 9908SOL     OW30622   5.599   1.751   4.084
 9908SOL    HW130623   5.604   1.838   4.034
 9908SOL    HW230624   5.591   1.675   4.020
 9909SOL     OW30625   4.042   0.431   3.793
 9909SOL    HW130626   4.137   0.407   3.773
 9909SOL    HW230627   4.037   0.470   3.885
 9910SOL     OW30628   1.229   3.732   2.736
 9910SOL    HW130629   1.276   3.770   2.816
 9910SOL    HW230630   1.296   3.714   2.664
 9911SOL     OW30631   3.503   6.435   2.105
 9911SOL    HW130632   3.526   6.384   2.188
 9911SOL    HW230633   3.440   6.509   2.128
 9912SOL     OW30634   3.891   1.755   2.010
 9912SOL    HW130635   3.904   1.704   1.924
 9912SOL    HW230636   3.867   1.692   2.083
 9913SOL     OW30637   6.717   4.108   0.732
 9913SOL    HW130638   6.741   4.024   0.781
 9913SOL    HW230639   6.762   4.109   0.643
 9914SOL     OW30640   5.132   2.381   5.011
 9914SOL    HW130641   5.130   2.446   4.935
 9914SOL    HW230642   5.060   2.403   5.077
 9915SOL     OW30643   5.463   0.592   3.503
 9915SOL    HW130644   5.551   0.599   3.551
 9915SOL    HW230645   5.404   0.527   3.551
 9916SOL     OW30646   1.738   2.636   3.479
 9916SOL    HW130647   1.743   2.609   3.575
 9916SOL    HW230648   1.708   2.558   3.424
 9917SOL     OW30649   6.010   3.773   0.301
 9917SOL    HW130650   5.997   3.700   0.368
 9917SOL    HW230651   5.996   3.737   0.209
 9918SOL     OW30652   3.054   1.312   3.215
 9918SOL    HW130653   2.959   1.344   3.221
 9918SOL    HW230654   3.114   1.379   3.259
 9919SOL     OW30655   6.150   5.223   1.327
 9919SOL    HW130656   6.060   5.242   1.365
 9919SOL    HW230657   6.145   5.227   1.227
 9920SOL     OW30658   4.943   1.844   1.798
 9920SOL    HW130659   4.886   1.791   1.735
 9920SOL    HW230660   5.035   1.852   1.761
 9921SOL     OW30661   4.503   7.025   6.368
 9921SOL    HW130662   4.429   0.063   6.345
 9921SOL    HW230663   4.569   0.044   6.427
 9922SOL     OW30664   1.891   4.431   0.861
 9922SOL    HW130665   1.843   4.348   0.889
 9922SOL    HW230666   1.947   4.463   0.937
 9923SOL     OW30667   4.783   4.627   0.398
 9923SOL    HW130668   4.828   4.715   0.380
 9923SOL    HW230669   4.842   4.570   0.455
 9924SOL     OW30670   6.180   2.311   4.684
 9924SOL    HW130671   6.132   2.224   4.675
 9924SOL    HW230672   6.172   2.345   4.778
 9925SOL     OW30673   6.586   3.494   3.929
 9925SOL    HW130674   6.617   3.530   4.017
 9925SOL    HW230675   6.639   3.537   3.855
 9926SOL     OW30676   3.833   3.034   0.573
 9926SOL    HW130677   3.816   3.112   0.633
 9926SOL    HW230678   3.836   3.065   0.478
 9927SOL     OW30679   6.887   6.904   1.041
 9927SOL    HW130680   6.853   6.981   1.096
 9927SOL    HW230681   6.946   6.847   1.098
 9928SOL     OW30682   5.096   6.247   1.726
 9928SOL    HW130683   5.104   6.336   1.771
 9928SOL    HW230684   5.186   6.206   1.716
 9929SOL     OW30685   2.824   5.185   4.966
 9929SOL    HW130686   2.727   5.186   4.990
 9929SOL    HW230687   2.874   5.131   5.034
 9930SOL     OW30688   6.690   6.785   4.579
 9930SOL    HW130689   6.672   6.879   4.551
 9930SOL    HW230690   6.632   6.761   4.657
 9931SOL     OW30691   1.074   4.662   4.387
 9931SOL    HW130692   1.088   4.668   4.486
 9931SOL    HW230693   1.160   4.636   4.343
 9932SOL     OW30694   2.217   5.302   6.519
 9932SOL    HW130695   2.150   5.229   6.532
 9932SOL    HW230696   2.188   5.384   6.568
 9933SOL     OW30697   1.143   5.354   3.390
 9933SOL    HW130698   1.126   5.331   3.294
 9933SOL    HW230699   1.097   5.440   3.412
 9934SOL     OW30700   5.456   1.381   5.616
 9934SOL    HW130701   5.457   1.418   5.709
 9934SOL    HW230702   5.454   1.457   5.551
 9935SOL     OW30703   3.115   6.808   0.505
 9935SOL    HW130704   3.018   6.782   0.508
 9935SOL    HW230705   3.162   6.767   0.584
 9936SOL     OW30706   6.683   5.052   6.218
 9936SOL    HW130707   6.641   4.983   6.159
 9936SOL    HW230708   6.750   5.104   6.165
 9937SOL     OW30709   6.725   1.502   6.960
 9937SOL    HW130710   6.800   1.455   7.006
 9937SOL    HW230711   6.642   1.496   7.015
 9938SOL     OW30712   6.876   5.480   2.697
 9938SOL    HW130713   6.868   5.556   2.761
 9938SOL    HW230714   6.866   5.393   2.746
 9939SOL     OW30715   4.210   2.232   0.758
 9939SOL    HW130716   4.236   2.136   0.753
 9939SOL    HW230717   4.257   2.275   0.835
 9940SOL     OW30718   0.964   0.894   1.276
 9940SOL    HW130719   0.885   0.953   1.296
 9940SOL    HW230720   1.042   0.951   1.250
 9941SOL     OW30721   3.272   3.955   5.291
 9941SOL    HW130722   3.250   3.896   5.368
 9941SOL    HW230723   3.329   4.031   5.323
 9942SOL     OW30724   2.489   5.494   2.731
 9942SOL    HW130725   2.476   5.563   2.659
 9942SOL    HW230726   2.413   5.500   2.796
 9943SOL     OW30727   6.799   5.441   5.595
 9943SOL    HW130728   6.793   5.471   5.690
 9943SOL    HW230729   6.887   5.395   5.581
 9944SOL     OW30730   2.147   4.679   6.172
 9944SOL    HW130731   2.144   4.763   6.226
 9944SOL    HW230732   2.085   4.612   6.212
 9945SOL     OW30733   6.372   5.327   6.501
 9945SOL    HW130734   6.319   5.265   6.559
 9945SOL    HW230735   6.324   5.415   6.495
 9946SOL     OW30736   4.578   0.892   4.760
 9946SOL    HW130737   4.623   0.859   4.843
 9946SOL    HW230738   4.479   0.884   4.770
 9947SOL     OW30739   1.640   3.338   5.393
 9947SOL    HW130740   1.595   3.283   5.323
 9947SOL    HW230741   1.724   3.293   5.422
 9948SOL     OW30742   5.520   4.790   4.336
 9948SOL    HW130743   5.540   4.733   4.255
 9948SOL    HW230744   5.577   4.761   4.412
 9949SOL     OW30745   5.975   4.876   3.852
 9949SOL    HW130746   5.897   4.827   3.812
 9949SOL    HW230747   5.951   4.973   3.864
 9950SOL     OW30748   5.885   6.023   5.158
 9950SOL    HW130749   5.883   6.106   5.214
 9950SOL    HW230750   5.979   5.989   5.152
 9951SOL     OW30751   6.066   1.678   4.664
 9951SOL    HW130752   6.025   1.736   4.594
 9951SOL    HW230753   6.091   1.590   4.624
 9952SOL     OW30754   0.765   3.266   1.220
 9952SOL    HW130755   0.816   3.239   1.302
 9952SOL    HW230756   0.778   3.197   1.149
 9953SOL     OW30757   6.276   2.548   4.200
 9953SOL    HW130758   6.317   2.489   4.269
 9953SOL    HW230759   6.307   2.642   4.214
 9954SOL     OW30760   5.791   0.306   5.862
 9954SOL    HW130761   5.740   0.363   5.798
 9954SOL    HW230762   5.867   0.359   5.900
 9955SOL     OW30763   6.131   3.829   5.886
 9955SOL    HW130764   6.141   3.922   5.852
 9955SOL    HW230765   6.129   3.830   5.986
 9956SOL     OW30766   1.754   6.812   1.742
 9956SOL    HW130767   1.840   6.762   1.756
 9956SOL    HW230768   1.681   6.746   1.726
 9957SOL     OW30769   5.871   5.510   3.171
 9957SOL    HW130770   5.953   5.548   3.129
 9957SOL    HW230771   5.792   5.527   3.112
 9958SOL     OW30772   2.870   5.167   0.768
 9958SOL    HW130773   2.828   5.141   0.681
 9958SOL    HW230774   2.967   5.143   0.767
 9959SOL     OW30775   4.133   3.614   5.497
 9959SOL    HW130776   4.179   3.699   5.525
 9959SOL    HW230777   4.151   3.597   5.400
 9960SOL     OW30778   6.928   6.857   2.297
 9960SOL    HW130779   6.962   6.910   2.374
 9960SOL    HW230780   6.901   6.766   2.328
 9961SOL     OW30781   1.606   5.764   3.682
 9961SOL    HW130782   1.700   5.794   3.664
 9961SOL    HW230783   1.600   5.729   3.775
 9962SOL     OW30784   7.019   6.991   2.969
 9962SOL    HW130785   6.959   0.010   2.902
 9962SOL    HW230786   6.975   6.907   3.001
 9963SOL     OW30787   3.217   2.617   6.966
 9963SOL    HW130788   3.163   2.701   6.965
 9963SOL    HW230789   3.184   2.557   0.013
 9964SOL     OW30790   4.810   5.027   5.281
 9964SOL    HW130791   4.751   5.048   5.204
 9964SOL    HW230792   4.814   4.928   5.295
 9965SOL     OW30793   3.782   6.741   6.842
 9965SOL    HW130794   3.738   6.741   6.932
 9965SOL    HW230795   3.804   6.835   6.816
 9966SOL     OW30796   1.597   5.295   1.663
 9966SOL    HW130797   1.595   5.354   1.583
 9966SOL    HW230798   1.683   5.245   1.666
 9967SOL     OW30799   0.230   5.653   2.172
 9967SOL    HW130800   0.267   5.665   2.080
 9967SOL    HW230801   0.289   5.701   2.237
 9968SOL     OW30802   3.815   4.106   1.437
 9968SOL    HW130803   3.873   4.119   1.357
 9968SOL    HW230804   3.733   4.054   1.411
 9969SOL     OW30805   1.844   3.486   2.449
 9969SOL    HW130806   1.869   3.411   2.389
 9969SOL    HW230807   1.787   3.452   2.524
 9970SOL     OW30808   5.111   4.230   3.027
 9970SOL    HW130809   5.202   4.264   3.047
 9970SOL    HW230810   5.100   4.139   3.067
 9971SOL     OW30811   2.035   5.063   1.505
 9971SOL    HW130812   2.042   5.158   1.474
 9971SOL    HW230813   2.106   5.008   1.461
 9972SOL     OW30814   5.655   4.984   1.178
 9972SOL    HW130815   5.749   4.963   1.153
 9972SOL    HW230816   5.649   5.077   1.214
 9973SOL     OW30817   5.990   1.787   3.477
 9973SOL    HW130818   5.940   1.735   3.408
 9973SOL    HW230819   6.085   1.757   3.479
 9974SOL     OW30820   0.938   2.573   2.625
 9974SOL    HW130821   1.033   2.603   2.631
 9974SOL    HW230822   0.920   2.538   2.533
 9975SOL     OW30823   5.923   3.292   0.598
 9975SOL    HW130824   5.926   3.343   0.684
 9975SOL    HW230825   6.014   3.289   0.557
 9976SOL     OW30826   1.303   6.131   5.147
 9976SOL    HW130827   1.385   6.081   5.175
 9976SOL    HW230828   1.319   6.229   5.154
 9977SOL     OW30829   6.524   5.727   5.600
 9977SOL    HW130830   6.457   5.759   5.533
 9977SOL    HW230831   6.493   5.750   5.692
 9978SOL     OW30832   1.201   3.111   4.828
 9978SOL    HW130833   1.204   3.085   4.925
 9978SOL    HW230834   1.210   3.210   4.820
 9979SOL     OW30835   6.562   4.940   5.558
 9979SOL    HW130836   6.618   4.966   5.479
 9979SOL    HW230837   6.466   4.963   5.540
 9980SOL     OW30838   2.305   0.123   0.007
 9980SOL    HW130839   2.385   0.098   0.062
 9980SOL    HW230840   2.320   0.096   6.938
 9981SOL     OW30841   2.146   1.721   2.814
 9981SOL    HW130842   2.234   1.748   2.855
 9981SOL    HW230843   2.071   1.760   2.867
 9982SOL     OW30844   6.502   6.013   4.360
 9982SOL    HW130845   6.532   6.094   4.410
 9982SOL    HW230846   6.581   5.960   4.331
 9983SOL     OW30847   0.401   2.437   3.012
 9983SOL    HW130848   0.396   2.453   2.913
 9983SOL    HW230849   0.329   2.372   3.038
 9984SOL     OW30850   2.577   1.690   6.956
 9984SOL    HW130851   2.595   1.726   6.865
 9984SOL    HW230852   2.662   1.655   6.996
 9985SOL     OW30853   1.967   0.892   0.944
 9985SOL    HW130854   2.067   0.889   0.943
 9985SOL    HW230855   1.934   0.894   0.849
 9986SOL     OW30856   6.283   4.149   6.040
 9986SOL    HW130857   6.302   4.065   6.089
 9986SOL    HW230858   6.191   4.181   6.062
 9987SOL     OW30859   6.199   3.012   5.102
 9987SOL    HW130860   6.283   2.970   5.069
 9987SOL    HW230861   6.122   2.984   5.044
 9988SOL     OW30862   0.481   5.789   4.289
 9988SOL    HW130863   0.411   5.742   4.237
 9988SOL    HW230864   0.442   5.826   4.373
 9989SOL     OW30865   6.772   3.558   3.711
 9989SOL    HW130866   6.781   3.472   3.660
 9989SOL    HW230867   6.791   3.635   3.650
 9990SOL     OW30868   2.004   4.615   3.167
 9990SOL    HW130869   1.949   4.650   3.091
 9990SOL    HW230870   2.061   4.689   3.203
 9991SOL     OW30871   2.909   2.321   4.378
 9991SOL    HW130872   2.998   2.333   4.422
 9991SOL    HW230873   2.902   2.228   4.342
 9992SOL     OW30874   5.652   4.725   0.102
 9992SOL    HW130875   5.564   4.750   0.143
 9992SOL    HW230876   5.652   4.751   0.005
 9993SOL     OW30877   2.729   1.163   0.875
 9993SOL    HW130878   2.727   1.263   0.868
 9993SOL    HW230879   2.781   1.136   0.956
 9994SOL     OW30880   6.492   4.558   2.931
 9994SOL    HW130881   6.494   4.461   2.907
 9994SOL    HW230882   6.475   4.568   3.029
 9995SOL     OW30883   4.580   1.573   3.236
 9995SOL    HW130884   4.491   1.562   3.282
 9995SOL    HW230885   4.652   1.583   3.305
 9996SOL     OW30886   3.281   3.870   0.157
 9996SOL    HW130887   3.256   3.862   0.253
 9996SOL    HW230888   3.364   3.924   0.148
 9997SOL     OW30889   2.844   1.984   5.459
 9997SOL    HW130890   2.934   2.014   5.426
 9997SOL    HW230891   2.783   1.970   5.381
 9998SOL     OW30892   5.878   4.877   5.489
 9998SOL    HW130893   5.891   4.974   5.467
 9998SOL    HW230894   5.937   4.852   5.567
 9999SOL     OW30895   6.352   2.964   6.021
 9999SOL    HW130896   6.350   3.061   6.001
 9999SOL    HW230897   6.380   2.950   6.116
10000SOL     OW30898   6.645   4.317   6.988
10000SOL    HW130899   6.584   4.240   7.008
10000SOL    HW230900   6.669   4.364   0.047
10001SOL     OW30901   4.959   6.914   2.167
10001SOL    HW130902   4.865   6.924   2.200
10001SOL    HW230903   4.987   6.818   2.175
10002SOL     OW30904   1.387   6.984   1.878
10002SOL    HW130905   1.392   7.002   1.977
10002SOL    HW230906   1.346   6.894   1.863
10003SOL     OW30907   3.381   2.011   3.936
10003SOL    HW130908   3.289   2.050   3.932
10003SOL    HW230909   3.391   1.941   3.865
10004SOL     OW30910   0.234   2.797   4.793
10004SOL    HW130911   0.177   2.820   4.714
10004SOL    HW230912   0.320   2.848   4.788
10005SOL     OW30913   5.707   0.591   3.622
10005SOL    HW130914   5.729   0.629   3.712
10005SOL    HW230915   5.788   0.597   3.563
10006SOL     OW30916   4.617   6.405   4.530
10006SOL    HW130917   4.619   6.472   4.605
10006SOL    HW230918   4.711   6.380   4.506
10007SOL     OW30919   0.408   3.965   4.964
10007SOL    HW130920   0.317   3.923   4.972
10007SOL    HW230921   0.478   3.894   4.961
10008SOL     OW30922   4.039   1.195   4.825
10008SOL    HW130923   4.014   1.189   4.921
10008SOL    HW230924   4.105   1.123   4.803
10009SOL     OW30925   1.895   3.791   2.384
10009SOL    HW130926   1.992   3.812   2.395
10009SOL    HW230927   1.885   3.697   2.352
10010SOL     OW30928   2.208   0.769   6.392
10010SOL    HW130929   2.298   0.726   6.392
10010SOL    HW230930   2.218   0.866   6.369
10011SOL     OW30931   6.588   0.360   5.469
10011SOL    HW130932   6.669   0.371   5.412
10011SOL    HW230933   6.583   0.266   5.502
10012SOL     OW30934   6.158   0.423   2.740
10012SOL    HW130935   6.083   0.486   2.723
10012SOL    HW230936   6.128   0.352   2.805
10013SOL     OW30937   0.193   1.207   3.161
10013SOL    HW130938   0.209   1.108   3.163
10013SOL    HW230939   0.273   1.254   3.197
10014SOL     OW30940   0.509   4.368   6.732
10014SOL    HW130941   0.434   4.315   6.771
10014SOL    HW230942   0.543   4.323   6.649
10015SOL     OW30943   2.256   5.055   0.354
10015SOL    HW130944   2.320   4.978   0.343
10015SOL    HW230945   2.205   5.044   0.439
10016SOL     OW30946   1.454   1.599   6.093
10016SOL    HW130947   1.541   1.614   6.046
10016SOL    HW230948   1.463   1.521   6.155
10017SOL     OW30949   3.144   2.124   3.987
10017SOL    HW130950   3.116   2.220   3.990
10017SOL    HW230951   3.073   2.067   4.027
10018SOL     OW30952   5.008   0.216   6.826
10018SOL    HW130953   5.074   0.192   6.754
10018SOL    HW230954   5.058   0.246   6.907
10019SOL     OW30955   0.897   1.546   3.221
10019SOL    HW130956   0.927   1.468   3.166
10019SOL    HW230957   0.820   1.591   3.176
10020SOL     OW30958   0.886   2.767   1.712
10020SOL    HW130959   0.964   2.731   1.764
10020SOL    HW230960   0.886   2.726   1.621
10021SOL     OW30961   6.644   3.264   1.311
10021SOL    HW130962   6.556   3.217   1.305
10021SOL    HW230963   6.630   3.363   1.311
10022SOL     OW30964   2.602   1.579   6.056
10022SOL    HW130965   2.523   1.590   5.995
10022SOL    HW230966   2.604   1.656   6.120
10023SOL     OW30967   6.562   4.618   0.666
10023SOL    HW130968   6.549   4.555   0.590
10023SOL    HW230969   6.653   4.660   0.660
10024SOL     OW30970   1.183   5.976   3.840
10024SOL    HW130971   1.276   5.961   3.875
10024SOL    HW230972   1.189   6.025   3.753
10025SOL     OW30973   1.981   0.850   1.671
10025SOL    HW130974   1.966   0.899   1.757
10025SOL    HW230975   1.917   0.773   1.664
10026SOL     OW30976   5.583   0.311   3.629
10026SOL    HW130977   5.583   0.302   3.729
10026SOL    HW230978   5.620   0.400   3.604
10027SOL     OW30979   5.553   3.249   4.367
10027SOL    HW130980   5.601   3.288   4.445
10027SOL    HW230981   5.516   3.159   4.391
10028SOL     OW30982   1.095   0.614   1.014
10028SOL    HW130983   1.183   0.631   0.968
10028SOL    HW230984   1.040   0.698   1.011
10029SOL     OW30985   5.415   1.886   3.249
10029SOL    HW130986   5.399   1.935   3.164
10029SOL    HW230987   5.442   1.951   3.320
10030SOL     OW30988   2.284   0.923   3.582
10030SOL    HW130989   2.202   0.910   3.638
10030SOL    HW230990   2.309   0.836   3.540
10031SOL     OW30991   5.539   4.936   3.727
10031SOL    HW130992   5.577   4.911   3.638
10031SOL    HW230993   5.440   4.920   3.726
10032SOL     OW30994   2.461   1.473   4.853
10032SOL    HW130995   2.379   1.477   4.797
10032SOL    HW230996   2.454   1.540   4.928
10033SOL     OW30997   6.327   3.112   4.106
10033SOL    HW130998   6.349   3.033   4.048
10033SOL    HW230999   6.403   3.130   4.168
10034SOL     OW31000   3.768   0.538   4.600
10034SOL    HW131001   3.718   0.456   4.572
10034SOL    HW231002   3.784   0.536   4.699
10035SOL     OW31003   6.955   5.072   1.925
10035SOL    HW131004   0.018   5.102   1.962
10035SOL    HW231005   6.881   5.115   1.976
10036SOL     OW31006   6.341   1.917   0.239
10036SOL    HW131007   6.256   1.871   0.261
10036SOL    HW231008   6.322   2.011   0.211
10037SOL     OW31009   6.621   1.011   6.245
10037SOL    HW131010   6.584   1.068   6.318
10037SOL    HW231011   6.596   1.049   6.156
10038SOL     OW31012   6.477   0.218   0.970
10038SOL    HW131013   6.441   0.199   1.061
10038SOL    HW231014   6.524   0.137   0.935
10039SOL     OW31015   2.967   0.296   3.340
10039SOL    HW131016   3.060   0.285   3.305
10039SOL    HW231017   2.951   0.226   3.411
10040SOL     OW31018   6.290   3.764   0.318
10040SOL    HW131019   6.313   3.724   0.407
10040SOL    HW231020   6.192   3.781   0.313
10041SOL     OW31021   3.365   6.414   0.102
10041SOL    HW131022   3.417   6.480   0.048
10041SOL    HW231023   3.362   6.444   0.198
10042SOL     OW31024   6.909   2.280   3.211
10042SOL    HW131025   6.963   2.218   3.155
10042SOL    HW231026   6.866   2.230   3.286
10043SOL     OW31027   6.703   1.947   5.930
10043SOL    HW131028   6.681   2.045   5.922
10043SOL    HW231029   6.628   1.894   5.890
10044SOL     OW31030   2.544   3.158   5.925
10044SOL    HW131031   2.478   3.120   5.991
10044SOL    HW231032   2.505   3.152   5.833
10045SOL     OW31033   4.510   0.879   1.039
10045SOL    HW131034   4.436   0.817   1.013
10045SOL    HW231035   4.484   0.973   1.016
10046SOL     OW31036   0.914   4.466   1.273
10046SOL    HW131037   0.909   4.524   1.354
10046SOL    HW231038   0.825   4.467   1.226
10047SOL     OW31039   0.823   3.243   5.885
10047SOL    HW131040   0.904   3.282   5.841
10047SOL    HW231041   0.838   3.238   5.984
10048SOL     OW31042   6.442   6.481   2.749
10048SOL    HW131043   6.422   6.541   2.672
10048SOL    HW231044   6.454   6.536   2.832
10049SOL     OW31045   0.115   2.530   5.947
10049SOL    HW131046   0.093   2.454   5.885
10049SOL    HW231047   0.170   2.598   5.899
10050SOL     OW31048   4.974   3.493   5.186
10050SOL    HW131049   4.908   3.562   5.154
10050SOL    HW231050   5.003   3.437   5.108
10051SOL     OW31051   0.988   4.132   4.692
10051SOL    HW131052   0.985   4.032   4.700
10051SOL    HW231053   0.929   4.161   4.616
10052SOL     OW31054   0.737   0.788   3.393
10052SOL    HW131055   0.823   0.835   3.415
10052SOL    HW231056   0.665   0.856   3.380
10053SOL     OW31057   4.985   5.338   4.394
10053SOL    HW131058   5.024   5.274   4.459
10053SOL    HW231059   4.894   5.366   4.425
10054SOL     OW31060   5.359   3.988   4.498
10054SOL    HW131061   5.296   4.027   4.431
10054SOL    HW231062   5.316   3.911   4.544
10055SOL     OW31063   6.754   2.353   6.672
10055SOL    HW131064   6.703   2.273   6.638
10055SOL    HW231065   6.852   2.335   6.666
10056SOL     OW31066   5.273   3.246   3.134
10056SOL    HW131067   5.302   3.187   3.210
10056SOL    HW231068   5.179   3.276   3.150
10057SOL     OW31069   5.191   4.634   6.555
10057SOL    HW131070   5.245   4.554   6.582
10057SOL    HW231071   5.253   4.707   6.525
10058SOL     OW31072   5.961   2.953   4.992
10058SOL    HW131073   5.987   2.964   4.896
10058SOL    HW231074   5.878   3.006   5.011
10059SOL     OW31075   6.958   1.419   0.073
10059SOL    HW131076   0.002   1.485   0.102
10059SOL    HW231077   6.933   1.361   0.150
10060SOL     OW31078   2.308   1.722   2.557
10060SOL    HW131079   2.233   1.723   2.624
10060SOL    HW231080   2.362   1.805   2.567
10061SOL     OW31081   3.640   0.838   3.431
10061SOL    HW131082   3.739   0.824   3.433
10061SOL    HW231083   3.595   0.752   3.407
10062SOL     OW31084   0.612   0.319   4.073
10062SOL    HW131085   0.602   0.418   4.075
10062SOL    HW231086   0.598   0.282   4.165
10063SOL     OW31087   1.689   2.855   5.009
10063SOL    HW131088   1.600   2.886   5.044
10063SOL    HW231089   1.685   2.846   4.910
10064SOL     OW31090   2.888   6.657   0.512
10064SOL    HW131091   2.815   6.673   0.445
10064SOL    HW231092   2.874   6.568   0.555
10065SOL     OW31093   0.627   0.639   1.751
10065SOL    HW131094   0.539   0.621   1.795
10065SOL    HW231095   0.700   0.625   1.818
10066SOL     OW31096   6.901   3.524   4.819
10066SOL    HW131097   6.805   3.548   4.831
10066SOL    HW231098   6.910   3.461   4.742
10067SOL     OW31099   0.011   2.456   5.471
10067SOL    HW131100   0.091   2.468   5.412
10067SOL    HW231101   0.040   2.421   5.560
10068SOL     OW31102   2.525   2.250   2.730
10068SOL    HW131103   2.532   2.275   2.634
10068SOL    HW231104   2.517   2.151   2.738
10069SOL     OW31105   3.525   5.356   1.116
10069SOL    HW131106   3.452   5.291   1.099
10069SOL    HW231107   3.495   5.448   1.089
10070SOL     OW31108   3.318   5.772   4.970
10070SOL    HW131109   3.266   5.857   4.974
10070SOL    HW231110   3.415   5.791   4.986
10071SOL     OW31111   6.682   0.048   3.210
10071SOL    HW131112   6.594   0.021   3.249
10071SOL    HW231113   6.751   7.004   3.230
10072SOL     OW31114   6.803   1.641   2.529
10072SOL    HW131115   6.860   1.567   2.494
10072SOL    HW231116   6.825   1.726   2.481
10073SOL     OW31117   6.240   3.701   4.500
10073SOL    HW131118   6.217   3.650   4.417
10073SOL    HW231119   6.277   3.639   4.569
10074SOL     OW31120   1.721   4.747   0.580
10074SOL    HW131121   1.698   4.699   0.495
10074SOL    HW231122   1.718   4.682   0.656
10075SOL     OW31123   1.954   3.082   1.726
10075SOL    HW131124   2.042   3.097   1.771
10075SOL    HW231125   1.941   2.984   1.711
10076SOL     OW31126   5.402   5.144   3.479
10076SOL    HW131127   5.406   5.244   3.479
10076SOL    HW231128   5.440   5.110   3.566
10077SOL     OW31129   6.466   3.005   6.899
10077SOL    HW131130   6.446   3.086   6.954
10077SOL    HW231131   6.381   2.961   6.871
10078SOL     OW31132   0.299   6.427   5.014
10078SOL    HW131133   0.270   6.362   5.084
10078SOL    HW231134   0.387   6.398   4.976
10079SOL     OW31135   4.445   2.445   3.209
10079SOL    HW131136   4.408   2.377   3.272
10079SOL    HW231137   4.391   2.446   3.125
10080SOL     OW31138   5.476   0.300   6.312
10080SOL    HW131139   5.571   0.270   6.312
10080SOL    HW231140   5.472   0.398   6.333
10081SOL     OW31141   2.170   2.661   0.515
10081SOL    HW131142   2.095   2.655   0.581
10081SOL    HW231143   2.145   2.611   0.432
10082SOL     OW31144   1.191   4.539   1.918
10082SOL    HW131145   1.223   4.596   1.843
10082SOL    HW231146   1.179   4.594   2.000
10083SOL     OW31147   3.764   5.254   3.687
10083SOL    HW131148   3.792   5.309   3.766
10083SOL    HW231149   3.693   5.303   3.636
10084SOL     OW31150   1.354   0.481   4.966
10084SOL    HW131151   1.340   0.528   5.053
10084SOL    HW231152   1.418   0.405   4.978
10085SOL     OW31153   4.264   6.856   0.303
10085SOL    HW131154   4.224   6.850   0.211
10085SOL    HW231155   4.362   6.835   0.298
10086SOL     OW31156   6.937   6.192   1.531
10086SOL    HW131157   6.908   6.269   1.475
10086SOL    HW231158   6.858   6.135   1.552
10087SOL     OW31159   1.718   6.592   4.935
10087SOL    HW131160   1.775   6.512   4.919
10087SOL    HW231161   1.774   6.668   4.967
10088SOL     OW31162   0.199   2.932   0.215
10088SOL    HW131163   0.170   2.954   0.308
10088SOL    HW231164   0.119   2.911   0.159
10089SOL     OW31165   4.084   1.899   2.466
10089SOL    HW131166   4.163   1.914   2.405
10089SOL    HW231167   4.054   1.987   2.503
10090SOL     OW31168   1.921   5.932   1.306
10090SOL    HW131169   1.930   5.966   1.213
10090SOL    HW231170   1.902   6.008   1.368
10091SOL     OW31171   6.388   4.455   5.713
10091SOL    HW131172   6.408   4.388   5.642
10091SOL    HW231173   6.422   4.421   5.801
10092SOL     OW31174   0.388   2.277   5.116
10092SOL    HW131175   0.376   2.368   5.077
10092SOL    HW231176   0.298   2.237   5.136
10093SOL     OW31177   5.530   4.524   5.674
10093SOL    HW131178   5.498   4.548   5.765
10093SOL    HW231179   5.555   4.607   5.624
10094SOL     OW31180   3.124   0.815   1.216
10094SOL    HW131181   3.088   0.829   1.123
10094SOL    HW231182   3.224   0.817   1.213
10095SOL     OW31183   4.869   2.849   5.123
10095SOL    HW131184   4.789   2.801   5.086
10095SOL    HW231185   4.850   2.879   5.217
10096SOL     OW31186   4.949   1.113   3.119
10096SOL    HW131187   4.920   1.163   3.200
10096SOL    HW231188   5.021   1.164   3.072
10097SOL     OW31189   1.200   1.531   0.095
10097SOL    HW131190   1.254   1.598   0.044
10097SOL    HW231191   1.243   1.514   0.183
10098SOL     OW31192   3.455   5.373   4.017
10098SOL    HW131193   3.386   5.428   4.064
10098SOL    HW231194   3.533   5.430   3.992
10099SOL     OW31195   0.266   4.678   1.434
10099SOL    HW131196   0.271   4.598   1.495
10099SOL    HW231197   0.169   4.700   1.417
10100SOL     OW31198   4.781   5.370   4.606
10100SOL    HW131199   4.780   5.277   4.644
10100SOL    HW231200   4.693   5.388   4.560
10101SOL     OW31201   1.019   2.030   1.894
10101SOL    HW131202   1.094   2.057   1.955
10101SOL    HW231203   0.949   2.101   1.895
10102SOL     OW31204   6.350   6.587   1.413
10102SOL    HW131205   6.331   6.579   1.510
10102SOL    HW231206   6.426   6.650   1.398
10103SOL     OW31207   6.964   6.485   6.068
10103SOL    HW131208   7.011   6.573   6.065
10103SOL    HW231209   6.922   6.467   5.979
10104SOL     OW31210   2.301   0.380   4.663
10104SOL    HW131211   2.355   0.297   4.655
10104SOL    HW231212   2.204   0.356   4.672
10105SOL     OW31213   2.476   0.659   6.410
10105SOL    HW131214   2.514   0.591   6.473
10105SOL    HW231215   2.521   0.747   6.424
10106SOL     OW31216   4.918   5.825   1.362
10106SOL    HW131217   4.899   5.795   1.455
10106SOL    HW231218   5.012   5.801   1.337
10107SOL     OW31219   4.844   4.482   0.006
10107SOL    HW131220   4.794   4.566   0.027
10107SOL    HW231221   4.825   4.413   0.077
10108SOL     OW31222   1.941   2.697   0.157
10108SOL    HW131223   1.976   2.775   0.209
10108SOL    HW231224   1.878   2.645   0.213
10109SOL     OW31225   0.898   1.937   1.425
10109SOL    HW131226   0.980   1.882   1.410
10109SOL    HW231227   0.869   1.978   1.339
10110SOL     OW31228   4.809   6.196   2.813
10110SOL    HW131229   4.753   6.258   2.866
10110SOL    HW231230   4.836   6.118   2.870
10111SOL     OW31231   0.872   1.428   2.143
10111SOL    HW131232   0.958   1.418   2.193
10111SOL    HW231233   0.890   1.465   2.052
10112SOL     OW31234   6.577   2.261   3.538
10112SOL    HW131235   6.605   2.209   3.618
10112SOL    HW231236   6.507   2.210   3.487
10113SOL     OW31237   5.978   1.084   6.370
10113SOL    HW131238   5.908   1.062   6.438
10113SOL    HW231239   6.068   1.056   6.404
10114SOL     OW31240   4.745   1.792   2.430
10114SOL    HW131241   4.802   1.756   2.357
10114SOL    HW231242   4.709   1.717   2.485
10115SOL     OW31243   3.270   2.583   5.717
10115SOL    HW131244   3.357   2.570   5.669
10115SOL    HW231245   3.232   2.672   5.693
10116SOL     OW31246   6.133   0.031   4.924
10116SOL    HW131247   6.129   6.989   4.850
10116SOL    HW231248   6.042   0.070   4.937
10117SOL     OW31249   6.387   4.488   4.076
10117SOL    HW131250   6.403   4.391   4.055
10117SOL    HW231251   6.300   4.517   4.037
10118SOL     OW31252   3.552   5.294   4.497
10118SOL    HW131253   3.616   5.248   4.435
10118SOL    HW231254   3.513   5.227   4.559
10119SOL     OW31255   0.110   5.199   5.098
10119SOL    HW131256   0.069   5.285   5.126
10119SOL    HW231257   0.202   5.216   5.062
10120SOL     OW31258   2.099   2.728   2.276
10120SOL    HW131259   2.190   2.708   2.240
10120SOL    HW231260   2.091   2.825   2.296
10121SOL     OW31261   6.429   3.864   0.621
10121SOL    HW131262   6.470   3.841   0.710
10121SOL    HW231263   6.369   3.790   0.592
10122SOL     OW31264   1.385   0.461   3.355
10122SOL    HW131265   1.413   0.497   3.445
10122SOL    HW231266   1.294   0.495   3.333
10123SOL     OW31267   5.530   5.796   6.905
10123SOL    HW131268   5.552   5.701   6.928
10123SOL    HW231269   5.503   5.802   6.809
10124SOL     OW31270   1.292   4.451   2.636
10124SOL    HW131271   1.374   4.476   2.689
10124SOL    HW231272   1.304   4.480   2.541
10125SOL     OW31273   1.394   1.392   6.287
10125SOL    HW131274   1.317   1.342   6.246
10125SOL    HW231275   1.474   1.332   6.290
10126SOL     OW31276   6.260   6.959   6.600
10126SOL    HW131277   6.320   6.888   6.562
10126SOL    HW231278   6.306   7.004   6.677
10127SOL     OW31279   1.926   5.496   6.086
10127SOL    HW131280   2.019   5.514   6.056
10127SOL    HW231281   1.924   5.413   6.142
10128SOL     OW31282   2.738   1.135   7.012
10128SOL    HW131283   2.726   1.222   0.035
10128SOL    HW231284   2.775   1.153   6.921
10129SOL     OW31285   6.007   1.370   4.005
10129SOL    HW131286   5.942   1.402   4.073
10129SOL    HW231287   6.008   1.433   3.927
10130SOL     OW31288   1.601   1.925   2.465
10130SOL    HW131289   1.658   1.894   2.389
10130SOL    HW231290   1.641   2.007   2.505
10131SOL     OW31291   2.100   0.597   4.348
10131SOL    HW131292   2.025   0.547   4.305
10131SOL    HW231293   2.183   0.541   4.345
10132SOL     OW31294   6.673   0.856   1.773
10132SOL    HW131295   6.697   0.775   1.827
10132SOL    HW231296   6.753   0.916   1.765
10133SOL     OW31297   5.432   7.009   0.309
10133SOL    HW131298   5.462   6.968   0.395
10133SOL    HW231299   5.505   0.039   0.271
10134SOL     OW31300   6.201   0.195   1.954
10134SOL    HW131301   6.161   0.281   1.923
10134SOL    HW231302   6.221   0.201   2.052
10135SOL     OW31303   6.396   0.085   2.824
10135SOL    HW131304   6.413   7.012   2.818
10135SOL    HW231305   6.447   0.133   2.753
10136SOL     OW31306   5.683   1.834   2.566
10136SOL    HW131307   5.660   1.897   2.641
10136SOL    HW231308   5.603   1.820   2.509
10137SOL     OW31309   6.416   5.383   5.817
10137SOL    HW131310   6.436   5.436   5.734
10137SOL    HW231311   6.479   5.306   5.822
10138SOL     OW31312   0.019   2.000   0.450
10138SOL    HW131313   6.977   1.954   0.392
10138SOL    HW231314   7.011   2.091   0.474
10139SOL     OW31315   3.516   2.832   6.170
10139SOL    HW131316   3.570   2.825   6.253
10139SOL    HW231317   3.464   2.747   6.157
10140SOL     OW31318   6.911   5.862   5.760
10140SOL    HW131319   7.011   5.855   5.752
10140SOL    HW231320   6.885   5.853   5.856
10141SOL     OW31321   2.500   2.531   4.670
10141SOL    HW131322   2.432   2.465   4.703
10141SOL    HW231323   2.590   2.487   4.668
10142SOL     OW31324   5.176   6.271   4.652
10142SOL    HW131325   5.193   6.196   4.589
10142SOL    HW231326   5.096   6.250   4.708
10143SOL     OW31327   5.040   3.813   6.812
10143SOL    HW131328   5.062   3.908   6.787
10143SOL    HW231329   5.096   3.751   6.758
10144SOL     OW31330   3.791   6.562   5.873
10144SOL    HW131331   3.717   6.601   5.819
10144SOL    HW231332   3.754   6.495   5.938
10145SOL     OW31333   5.757   6.002   6.883
10145SOL    HW131334   5.818   5.940   6.833
10145SOL    HW231335   5.664   5.966   6.881
10146SOL     OW31336   0.414   2.543   4.302
10146SOL    HW131337   0.414   2.481   4.380
10146SOL    HW231338   0.466   2.625   4.325
10147SOL     OW31339   5.087   5.123   5.912
10147SOL    HW131340   5.182   5.152   5.904
10147SOL    HW231341   5.076   5.065   5.993
10148SOL     OW31342   1.439   4.572   0.559
10148SOL    HW131343   1.505   4.498   0.561
10148SOL    HW231344   1.381   4.564   0.478
10149SOL     OW31345   3.859   4.630   6.988
10149SOL    HW131346   3.823   4.583   0.043
10149SOL    HW231347   3.826   4.724   6.987
10150SOL     OW31348   4.162   4.715   6.922
10150SOL    HW131349   4.145   4.631   6.973
10150SOL    HW231350   4.097   4.722   6.846
10151SOL     OW31351   5.689   6.808   5.514
10151SOL    HW131352   5.677   6.842   5.607
10151SOL    HW231353   5.599   6.788   5.474
10152SOL     OW31354   4.899   6.475   2.710
10152SOL    HW131355   4.913   6.376   2.713
10152SOL    HW231356   4.837   6.502   2.783
10153SOL     OW31357   4.507   4.529   3.360
10153SOL    HW131358   4.539   4.615   3.321
10153SOL    HW231359   4.416   4.542   3.399
10154SOL     OW31360   5.287   5.595   5.595
10154SOL    HW131361   5.373   5.631   5.561
10154SOL    HW231362   5.270   5.505   5.553
10155SOL     OW31363   4.078   1.377   4.653
10155SOL    HW131364   4.059   1.298   4.710
10155SOL    HW231365   4.157   1.357   4.594
10156SOL     OW31366   5.240   2.224   6.451
10156SOL    HW131367   5.236   2.187   6.543
10156SOL    HW231368   5.331   2.263   6.434
10157SOL     OW31369   0.679   2.692   0.898
10157SOL    HW131370   0.699   2.677   0.802
10157SOL    HW231371   0.628   2.614   0.934
10158SOL     OW31372   5.656   5.211   0.899
10158SOL    HW131373   5.596   5.171   0.968
10158SOL    HW231374   5.604   5.276   0.844
10159SOL     OW31375   3.599   3.129   3.040
10159SOL    HW131376   3.570   3.182   3.120
10159SOL    HW231377   3.566   3.173   2.957
10160SOL     OW31378   1.078   5.296   3.091
10160SOL    HW131379   1.034   5.385   3.090
10160SOL    HW231380   1.177   5.307   3.091
10161SOL     OW31381   5.231   3.504   5.552
10161SOL    HW131382   5.136   3.488   5.527
10161SOL    HW231383   5.239   3.507   5.652
10162SOL     OW31384   1.372   3.132   2.735
10162SOL    HW131385   1.363   3.201   2.664
10162SOL    HW231386   1.452   3.075   2.717
10163SOL     OW31387   1.536   5.942   5.145
10163SOL    HW131388   1.626   5.901   5.159
10163SOL    HW231389   1.465   5.879   5.176
10164SOL     OW31390   0.998   2.495   3.294
10164SOL    HW131391   0.917   2.510   3.238
10164SOL    HW231392   0.994   2.404   3.335
10165SOL     OW31393   0.229   3.623   4.690
10165SOL    HW131394   0.272   3.533   4.704
10165SOL    HW231395   0.167   3.642   4.767
10166SOL     OW31396   2.212   0.931   1.548
10166SOL    HW131397   2.147   0.877   1.602
10166SOL    HW231398   2.175   0.946   1.457
10167SOL     OW31399   2.137   0.277   6.591
10167SOL    HW131400   2.139   0.308   6.496
10167SOL    HW231401   2.230   0.276   6.627
10168SOL     OW31402   0.059   1.238   0.633
10168SOL    HW131403   0.103   1.159   0.674
10168SOL    HW231404   0.051   1.311   0.700
10169SOL     OW31405   6.198   2.554   3.618
10169SOL    HW131406   6.201   2.455   3.622
10169SOL    HW231407   6.178   2.591   3.709
10170SOL     OW31408   5.722   5.774   6.283
10170SOL    HW131409   5.741   5.698   6.346
10170SOL    HW231410   5.691   5.853   6.336
10171SOL     OW31411   2.535   3.676   5.865
10171SOL    HW131412   2.618   3.705   5.817
10171SOL    HW231413   2.455   3.711   5.817
10172SOL     OW31414   6.391   6.806   2.800
10172SOL    HW131415   6.367   6.786   2.895
10172SOL    HW231416   6.310   6.841   2.752
10173SOL     OW31417   3.059   4.298   5.267
10173SOL    HW131418   3.007   4.281   5.352
10173SOL    HW231419   3.012   4.368   5.213
10174SOL     OW31420   4.558   5.817   3.154
10174SOL    HW131421   4.506   5.860   3.080
10174SOL    HW231422   4.640   5.873   3.173
10175SOL     OW31423   0.295   1.459   3.601
10175SOL    HW131424   0.294   1.550   3.561
10175SOL    HW231425   0.201   1.423   3.604
10176SOL     OW31426   6.191   1.757   6.075
10176SOL    HW131427   6.149   1.734   6.163
10176SOL    HW231428   6.153   1.844   6.042
10177SOL     OW31429   2.310   0.509   2.670
10177SOL    HW131430   2.347   0.527   2.761
10177SOL    HW231431   2.382   0.473   2.610
10178SOL     OW31432   1.749   2.312   0.785
10178SOL    HW131433   1.824   2.280   0.843
10178SOL    HW231434   1.737   2.248   0.708
10179SOL     OW31435   0.695   4.460   1.045
10179SOL    HW131436   0.610   4.511   1.032
10179SOL    HW231437   0.752   4.469   0.963
10180SOL     OW31438   4.077   0.324   5.966
10180SOL    HW131439   4.168   0.297   5.998
10180SOL    HW231440   4.079   0.338   5.867
10181SOL     OW31441   6.735   3.389   1.881
10181SOL    HW131442   6.764   3.468   1.828
10181SOL    HW231443   6.673   3.332   1.826
10182SOL     OW31444   5.779   2.198   0.143
10182SOL    HW131445   5.725   2.240   0.070
10182SOL    HW231446   5.872   2.235   0.141
10183SOL     OW31447   6.144   2.069   6.683
10183SOL    HW131448   6.189   2.094   6.769
10183SOL    HW231449   6.135   1.970   6.677
10184SOL     OW31450   5.619   3.169   6.008
10184SOL    HW131451   5.592   3.073   6.004
10184SOL    HW231452   5.559   3.223   5.950
10185SOL     OW31453   3.686   5.599   2.093
10185SOL    HW131454   3.675   5.698   2.099
10185SOL    HW231455   3.778   5.578   2.062
10186SOL     OW31456   3.820   3.311   5.852
10186SOL    HW131457   3.738   3.282   5.900
10186SOL    HW231458   3.858   3.393   5.896
10187SOL     OW31459   1.687   5.825   6.277
10187SOL    HW131460   1.613   5.881   6.241
10187SOL    HW231461   1.773   5.877   6.275
10188SOL     OW31462   2.961   0.399   6.526
10188SOL    HW131463   3.023   0.391   6.448
10188SOL    HW231464   2.999   0.465   6.592
10189SOL     OW31465   1.238   2.186   6.519
10189SOL    HW131466   1.267   2.147   6.431
10189SOL    HW231467   1.318   2.213   6.571
10190SOL     OW31468   3.237   5.101   2.131
10190SOL    HW131469   3.268   5.022   2.077
10190SOL    HW231470   3.137   5.105   2.130
10191SOL     OW31471   5.975   5.810   6.742
10191SOL    HW131472   6.053   5.859   6.779
10191SOL    HW231473   5.948   5.850   6.654
10192SOL     OW31474   2.113   1.663   4.319
10192SOL    HW131475   2.185   1.731   4.332
10192SOL    HW231476   2.108   1.638   4.222
10193SOL     OW31477   3.407   4.011   3.646
10193SOL    HW131478   3.480   3.986   3.584
10193SOL    HW231479   3.441   4.077   3.713
10194SOL     OW31480   3.447   0.259   2.845
10194SOL    HW131481   3.389   0.301   2.775
10194SOL    HW231482   3.442   0.313   2.929
10195SOL     OW31483   3.915   6.154   1.611
10195SOL    HW131484   3.909   6.201   1.522
10195SOL    HW231485   3.831   6.169   1.663
10196SOL     OW31486   6.362   2.035   3.442
10196SOL    HW131487   6.263   2.035   3.426
10196SOL    HW231488   6.410   2.062   3.359
10197SOL     OW31489   5.735   0.439   1.913
10197SOL    HW131490   5.729   0.431   2.013
10197SOL    HW231491   5.658   0.391   1.871
10198SOL     OW31492   2.748   6.792   0.962
10198SOL    HW131493   2.715   6.755   0.875
10198SOL    HW231494   2.672   6.794   1.028
10199SOL     OW31495   1.284   1.016   0.321
10199SOL    HW131496   1.206   1.077   0.332
10199SOL    HW231497   1.361   1.066   0.282
10200SOL     OW31498   5.115   4.628   4.737
10200SOL    HW131499   5.156   4.695   4.674
10200SOL    HW231500   5.179   4.552   4.750
10201SOL     OW31501   1.351   4.796   2.186
10201SOL    HW131502   1.366   4.850   2.269
10201SOL    HW231503   1.369   4.852   2.106
10202SOL     OW31504   1.380   3.690   2.485
10202SOL    HW131505   1.427   3.767   2.442
10202SOL    HW231506   1.295   3.670   2.437
10203SOL     OW31507   1.979   2.973   2.518
10203SOL    HW131508   2.030   2.915   2.582
10203SOL    HW231509   2.044   3.023   2.460
10204SOL     OW31510   3.127   4.690   5.308
10204SOL    HW131511   3.122   4.779   5.353
10204SOL    HW231512   3.055   4.631   5.342
10205SOL     OW31513   5.081   2.314   2.981
10205SOL    HW131514   5.015   2.363   2.925
10205SOL    HW231515   5.173   2.347   2.962
10206SOL     OW31516   5.365   6.694   5.999
10206SOL    HW131517   5.432   6.648   5.940
10206SOL    HW231518   5.412   6.762   6.056
10207SOL     OW31519   3.890   0.801   2.752
10207SOL    HW131520   3.918   0.896   2.749
10207SOL    HW231521   3.941   0.753   2.823
10208SOL     OW31522   6.449   4.359   5.469
10208SOL    HW131523   6.398   4.273   5.469
10208SOL    HW231524   6.397   4.429   5.419
10209SOL     OW31525   6.219   6.900   6.214
10209SOL    HW131526   6.282   6.940   6.147
10209SOL    HW231527   6.261   6.903   6.305
10210SOL     OW31528   5.078   6.040   2.138
10210SOL    HW131529   5.113   6.097   2.212
10210SOL    HW231530   5.018   5.969   2.176
10211SOL     OW31531   3.848   5.954   4.792
10211SOL    HW131532   3.838   6.000   4.704
10211SOL    HW231533   3.814   6.014   4.865
10212SOL     OW31534   6.874   0.786   4.759
10212SOL    HW131535   6.966   0.764   4.727
10212SOL    HW231536   6.879   0.849   4.837
10213SOL     OW31537   6.408   1.383   3.080
10213SOL    HW131538   6.463   1.459   3.045
10213SOL    HW231539   6.371   1.331   3.003
10214SOL     OW31540   6.848   1.062   1.797
10214SOL    HW131541   6.939   1.045   1.835
10214SOL    HW231542   6.820   1.155   1.820
10215SOL     OW31543   3.888   4.112   6.748
10215SOL    HW131544   3.898   4.013   6.751
10215SOL    HW231545   3.902   4.150   6.839
10216SOL     OW31546   5.083   0.611   1.447
10216SOL    HW131547   5.085   0.607   1.547
10216SOL    HW231548   5.026   0.537   1.412
10217SOL     OW31549   2.331   1.844   4.859
10217SOL    HW131550   2.383   1.802   4.933
10217SOL    HW231551   2.393   1.874   4.787
10218SOL     OW31552   2.171   1.278   1.170
10218SOL    HW131553   2.138   1.210   1.236
10218SOL    HW231554   2.108   1.282   1.093
10219SOL     OW31555   1.274   3.298   1.576
10219SOL    HW131556   1.318   3.385   1.595
10219SOL    HW231557   1.177   3.303   1.600
10220SOL     OW31558   4.505   2.090   0.887
10220SOL    HW131559   4.449   2.162   0.928
10220SOL    HW231560   4.554   2.128   0.808
10221SOL     OW31561   3.010   0.025   4.971
10221SOL    HW131562   2.941   7.005   4.915
10221SOL    HW231563   3.022   0.119   4.939
10222SOL     OW31564   1.756   5.071   5.429
10222SOL    HW131565   1.829   5.008   5.455
10222SOL    HW231566   1.795   5.150   5.383
10223SOL     OW31567   1.271   4.518   0.343
10223SOL    HW131568   1.259   4.426   0.307
10223SOL    HW231569   1.192   4.574   0.319
10224SOL     OW31570   1.299   0.328   4.182
10224SOL    HW131571   1.251   0.338   4.269
10224SOL    HW231572   1.397   0.330   4.198
10225SOL     OW31573   6.465   5.373   4.687
10225SOL    HW131574   6.450   5.274   4.694
10225SOL    HW231575   6.558   5.394   4.717
10226SOL     OW31576   1.871   1.399   0.023
10226SOL    HW131577   1.786   1.424   0.070
10226SOL    HW231578   1.873   1.300   0.010
10227SOL     OW31579   4.952   4.751   0.022
10227SOL    HW131580   4.993   4.661   0.007
10227SOL    HW231581   4.961   4.776   0.119
10228SOL     OW31582   1.322   5.623   3.278
10228SOL    HW131583   1.238   5.637   3.330
10228SOL    HW231584   1.398   5.607   3.341
10229SOL     OW31585   0.830   0.151   3.019
10229SOL    HW131586   0.917   0.130   3.062
10229SOL    HW231587   0.759   0.091   3.056
10230SOL     OW31588   6.828   0.791   3.864
10230SOL    HW131589   6.758   0.815   3.931
10230SOL    HW231590   6.866   0.702   3.886
10231SOL     OW31591   5.658   6.830   5.058
10231SOL    HW131592   5.611   6.782   4.984
10231SOL    HW231593   5.619   6.922   5.069
10232SOL     OW31594   3.195   2.144   4.857
10232SOL    HW131595   3.113   2.200   4.869
10232SOL    HW231596   3.268   2.178   4.916
10233SOL     OW31597   4.806   1.724   5.740
10233SOL    HW131598   4.814   1.646   5.678
10233SOL    HW231599   4.724   1.714   5.796
10234SOL     OW31600   5.592   0.002   1.676
10234SOL    HW131601   5.543   0.077   1.634
10234SOL    HW231602   5.681   0.034   1.709
10235SOL     OW31603   5.510   1.306   6.801
10235SOL    HW131604   5.594   1.361   6.801
10235SOL    HW231605   5.463   1.319   6.714
10236SOL     OW31606   2.308   5.504   1.939
10236SOL    HW131607   2.281   5.492   1.843
10236SOL    HW231608   2.234   5.546   1.990
10237SOL     OW31609   6.036   3.392   2.335
10237SOL    HW131610   5.974   3.401   2.413
10237SOL    HW231611   6.053   3.295   2.317
10238SOL     OW31612   4.511   4.909   4.756
10238SOL    HW131613   4.601   4.904   4.798
10238SOL    HW231614   4.464   4.821   4.767
10239SOL     OW31615   0.028   3.841   3.894
10239SOL    HW131616   0.036   3.742   3.884
10239SOL    HW231617   6.968   3.872   3.852
10240SOL     OW31618   0.840   3.765   3.978
10240SOL    HW131619   0.939   3.756   3.991
10240SOL    HW231620   0.798   3.674   3.983
10241SOL     OW31621   1.184   1.605   2.004
10241SOL    HW131622   1.085   1.617   1.993
10241SOL    HW231623   1.228   1.613   1.914
10242SOL     OW31624   0.131   0.683   6.292
10242SOL    HW131625   0.156   0.619   6.364
10242SOL    HW231626   0.089   0.633   6.216
10243SOL     OW31627   1.183   5.824   1.704
10243SOL    HW131628   1.182   5.865   1.796
10243SOL    HW231629   1.274   5.787   1.685
10244SOL     OW31630   1.873   5.856   6.629
10244SOL    HW131631   1.921   5.796   6.565
10244SOL    HW231632   1.940   5.905   6.685
10245SOL     OW31633   2.384   2.553   5.917
10245SOL    HW131634   2.453   2.509   5.974
10245SOL    HW231635   2.418   2.642   5.886
10246SOL     OW31636   3.321   4.238   5.223
10246SOL    HW131637   3.312   4.205   5.129
10246SOL    HW231638   3.234   4.279   5.252
10247SOL     OW31639   0.151   4.944   6.092
10247SOL    HW131640   0.142   5.036   6.054
10247SOL    HW231641   0.088   4.882   6.046
10248SOL     OW31642   3.028   0.042   1.975
10248SOL    HW131643   3.030   6.989   2.037
10248SOL    HW231644   3.014   0.010   1.881
10249SOL     OW31645   4.791   1.445   5.730
10249SOL    HW131646   4.817   1.381   5.803
10249SOL    HW231647   4.858   1.441   5.657
10250SOL     OW31648   6.283   1.346   0.592
10250SOL    HW131649   6.380   1.334   0.611
10250SOL    HW231650   6.272   1.381   0.499
10251SOL     OW31651   2.513   3.426   6.839
10251SOL    HW131652   2.514   3.386   6.748
10251SOL    HW231653   2.607   3.434   6.873
10252SOL     OW31654   5.688   5.987   0.921
10252SOL    HW131655   5.675   5.976   0.823
10252SOL    HW231656   5.766   5.932   0.950
10253SOL     OW31657   4.718   4.935   0.081
10253SOL    HW131658   4.779   4.857   0.097
10253SOL    HW231659   4.753   5.016   0.129
10254SOL     OW31660   2.456   1.668   5.050
10254SOL    HW131661   2.395   1.656   5.128
10254SOL    HW231662   2.549   1.686   5.082
10255SOL     OW31663   2.507   5.711   2.488
10255SOL    HW131664   2.557   5.764   2.420
10255SOL    HW231665   2.431   5.662   2.444
10256SOL     OW31666   5.343   0.784   0.065
10256SOL    HW131667   5.282   0.750   7.019
10256SOL    HW231668   5.288   0.826   0.138
10257SOL     OW31669   1.133   5.587   5.942
10257SOL    HW131670   1.230   5.604   5.957
10257SOL    HW231671   1.079   5.659   5.985
10258SOL     OW31672   4.113   6.721   3.245
10258SOL    HW131673   4.164   6.646   3.287
10258SOL    HW231674   4.107   6.797   3.309
10259SOL     OW31675   6.988   3.587   3.891
10259SOL    HW131676   6.940   3.592   3.803
10259SOL    HW231677   6.963   3.503   3.938
10260SOL     OW31678   0.846   6.817   2.165
10260SOL    HW131679   0.907   6.768   2.103
10260SOL    HW231680   0.791   6.882   2.112
10261SOL     OW31681   1.206   5.861   1.975
10261SOL    HW131682   1.263   5.942   1.983
10261SOL    HW231683   1.241   5.789   2.036
10262SOL     OW31684   2.844   5.022   4.703
10262SOL    HW131685   2.834   4.931   4.661
10262SOL    HW231686   2.817   5.017   4.799
10263SOL     OW31687   5.812   1.713   5.907
10263SOL    HW131688   5.755   1.757   5.975
10263SOL    HW231689   5.813   1.615   5.921
10264SOL     OW31690   6.364   0.668   6.105
10264SOL    HW131691   6.340   0.576   6.134
10264SOL    HW231692   6.335   0.734   6.174
10265SOL     OW31693   3.849   1.601   2.575
10265SOL    HW131694   3.798   1.686   2.590
10265SOL    HW231695   3.787   1.523   2.585
10266SOL     OW31696   3.182   4.135   6.638
10266SOL    HW131697   3.271   4.133   6.593
10266SOL    HW231698   3.126   4.208   6.598
10267SOL     OW31699   0.245   2.148   6.560
10267SOL    HW131700   0.283   2.123   6.471
10267SOL    HW231701   0.308   2.210   6.606
10268SOL     OW31702   5.253   5.675   1.799
10268SOL    HW131703   5.330   5.617   1.772
10268SOL    HW231704   5.184   5.674   1.726
10269SOL     OW31705   2.371   2.444   6.495
10269SOL    HW131706   2.298   2.384   6.528
10269SOL    HW231707   2.391   2.422   6.399
10270SOL     OW31708   1.772   6.036   0.756
10270SOL    HW131709   1.720   5.976   0.818
10270SOL    HW231710   1.710   6.074   0.687
10271SOL     OW31711   4.104   4.331   1.539
10271SOL    HW131712   4.121   4.236   1.515
10271SOL    HW231713   4.126   4.346   1.635
10272SOL     OW31714   0.536   0.547   4.823
10272SOL    HW131715   0.557   0.515   4.915
10272SOL    HW231716   0.619   0.586   4.782
10273SOL     OW31717   3.952   5.511   4.641
10273SOL    HW131718   3.859   5.497   4.676
10273SOL    HW231719   3.977   5.435   4.581
10274SOL     OW31720   0.754   5.071   5.336
10274SOL    HW131721   0.800   5.020   5.263
10274SOL    HW231722   0.821   5.106   5.400
10275SOL     OW31723   0.655   6.804   3.163
10275SOL    HW131724   0.623   6.860   3.087
10275SOL    HW231725   0.605   6.717   3.163
10276SOL     OW31726   0.010   5.421   5.256
10276SOL    HW131727   0.082   5.461   5.312
10276SOL    HW231728   6.954   5.479   5.260
10277SOL     OW31729   3.076   6.811   4.578
10277SOL    HW131730   3.151   6.835   4.516
10277SOL    HW231731   3.085   6.715   4.606
10278SOL     OW31732   5.570   0.192   6.017
10278SOL    HW131733   5.622   0.241   5.947
10278SOL    HW231734   5.595   0.227   6.107
10279SOL     OW31735   3.306   0.602   4.281
10279SOL    HW131736   3.398   0.612   4.241
10279SOL    HW231737   3.238   0.608   4.209
10280SOL     OW31738   1.617   4.048   0.642
10280SOL    HW131739   1.574   3.963   0.673
10280SOL    HW231740   1.575   4.077   0.557
10281SOL     OW31741   5.028   0.830   3.357
10281SOL    HW131742   4.989   0.751   3.405
10281SOL    HW231743   4.998   0.829   3.262
10282SOL     OW31744   0.947   2.236   3.852
10282SOL    HW131745   0.908   2.328   3.843
10282SOL    HW231746   1.043   2.243   3.879
10283SOL     OW31747   1.006   3.618   0.523
10283SOL    HW131748   0.987   3.568   0.607
10283SOL    HW231749   1.043   3.555   0.455
10284SOL     OW31750   5.354   3.304   5.431
10284SOL    HW131751   5.403   3.341   5.352
10284SOL    HW231752   5.319   3.379   5.487
10285SOL     OW31753   5.087   0.569   0.651
10285SOL    HW131754   5.140   0.654   0.647
10285SOL    HW231755   5.099   0.517   0.567
10286SOL     OW31756   4.171   0.565   3.170
10286SOL    HW131757   4.257   0.557   3.220
10286SOL    HW231758   4.110   0.628   3.218
10287SOL     OW31759   2.021   6.721   1.795
10287SOL    HW131760   2.051   6.777   1.718
10287SOL    HW231761   2.063   6.631   1.789
10288SOL     OW31762   5.972   6.113   3.451
10288SOL    HW131763   6.040   6.108   3.525
10288SOL    HW231764   5.935   6.022   3.434
10289SOL     OW31765   3.203   1.520   1.733
10289SOL    HW131766   3.232   1.615   1.732
10289SOL    HW231767   3.108   1.513   1.704
10290SOL     OW31768   3.852   3.012   3.028
10290SOL    HW131769   3.764   3.058   3.033
10290SOL    HW231770   3.878   2.980   3.120
10291SOL     OW31771   3.340   0.655   4.876
10291SOL    HW131772   3.338   0.571   4.822
10291SOL    HW231773   3.331   0.734   4.816
10292SOL     OW31774   0.561   1.286   4.482
10292SOL    HW131775   0.637   1.258   4.424
10292SOL    HW231776   0.492   1.213   4.483
10293SOL     OW31777   2.385   6.405   3.324
10293SOL    HW131778   2.364   6.318   3.369
10293SOL    HW231779   2.471   6.396   3.274
10294SOL     OW31780   5.422   1.527   3.026
10294SOL    HW131781   5.424   1.605   2.963
10294SOL    HW231782   5.502   1.470   3.011
10295SOL     OW31783   0.585   5.389   6.406
10295SOL    HW131784   0.570   5.325   6.481
10295SOL    HW231785   0.628   5.473   6.440
10296SOL     OW31786   6.475   3.588   7.011
10296SOL    HW131787   6.551   3.537   0.027
10296SOL    HW231788   6.453   3.548   6.922
10297SOL     OW31789   0.907   5.496   4.176
10297SOL    HW131790   0.983   5.433   4.192
10297SOL    HW231791   0.827   5.464   4.226
10298SOL     OW31792   5.183   4.278   3.747
10298SOL    HW131793   5.273   4.302   3.712
10298SOL    HW231794   5.134   4.361   3.774
10299SOL     OW31795   4.588   4.783   3.241
10299SOL    HW131796   4.515   4.762   3.175
10299SOL    HW231797   4.674   4.793   3.192
10300SOL     OW31798   0.999   3.859   2.648
10300SOL    HW131799   1.065   3.811   2.707
10300SOL    HW231800   0.972   3.945   2.692
10301SOL     OW31801   6.069   0.977   2.251
10301SOL    HW131802   6.015   1.060   2.239
10301SOL    HW231803   6.166   0.998   2.241
10302SOL     OW31804   1.585   5.958   2.750
10302SOL    HW131805   1.656   6.027   2.757
10302SOL    HW231806   1.495   6.002   2.749
10303SOL     OW31807   4.012   3.836   1.317
10303SOL    HW131808   4.023   3.738   1.331
10303SOL    HW231809   3.936   3.853   1.255
10304SOL     OW31810   6.894   6.667   2.646
10304SOL    HW131811   6.805   6.711   2.649
10304SOL    HW231812   6.965   6.734   2.623
10305SOL     OW31813   1.300   5.748   0.098
10305SOL    HW131814   1.315   5.667   0.154
10305SOL    HW231815   1.253   5.723   0.014
10306SOL     OW31816   4.036   5.792   0.386
10306SOL    HW131817   4.063   5.700   0.411
10306SOL    HW231818   4.001   5.840   0.466
10307SOL     OW31819   1.660   1.381   6.528
10307SOL    HW131820   1.636   1.284   6.531
10307SOL    HW231821   1.758   1.391   6.509
10308SOL     OW31822   3.074   6.143   3.287
10308SOL    HW131823   3.098   6.074   3.220
10308SOL    HW231824   3.039   6.099   3.370
10309SOL     OW31825   7.012   6.420   2.730
10309SOL    HW131826   0.086   6.423   2.730
10309SOL    HW231827   6.975   6.513   2.733
10310SOL     OW31828   3.758   3.640   2.881
10310SOL    HW131829   3.810   3.559   2.907
10310SOL    HW231830   3.670   3.641   2.929
10311SOL     OW31831   0.527   5.401   6.820
10311SOL    HW131832   0.616   5.430   6.854
10311SOL    HW231833   0.461   5.399   6.896
10312SOL     OW31834   2.706   4.585   0.226
10312SOL    HW131835   2.608   4.603   0.219
10312SOL    HW231836   2.722   4.518   0.298
10313SOL     OW31837   5.031   0.675   2.360
10313SOL    HW131838   4.984   0.694   2.447
10313SOL    HW231839   5.021   0.754   2.299
10314SOL     OW31840   6.225   6.985   0.436
10314SOL    HW131841   6.207   6.900   0.484
10314SOL    HW231842   6.322   7.006   0.441
10315SOL     OW31843   6.012   5.850   4.678
10315SOL    HW131844   6.107   5.833   4.653
10315SOL    HW231845   6.009   5.897   4.766
10316SOL     OW31846   0.477   3.647   3.986
10316SOL    HW131847   0.535   3.622   3.908
10316SOL    HW231848   0.451   3.743   3.979
10317SOL     OW31849   4.264   5.200   6.910
10317SOL    HW131850   4.342   5.202   6.847
10317SOL    HW231851   4.297   5.208   7.004
10318SOL     OW31852   5.991   5.412   1.977
10318SOL    HW131853   6.014   5.507   1.954
10318SOL    HW231854   5.906   5.410   2.029
10319SOL     OW31855   6.252   5.729   3.566
10319SOL    HW131856   6.192   5.757   3.642
10319SOL    HW231857   6.275   5.632   3.577
10320SOL     OW31858   6.600   6.713   1.396
10320SOL    HW131859   6.677   6.689   1.455
10320SOL    HW231860   6.620   6.685   1.302
10321SOL     OW31861   4.636   5.369   4.170
10321SOL    HW131862   4.699   5.443   4.193
10321SOL    HW231863   4.655   5.336   4.077
10322SOL     OW31864   6.277   3.635   0.543
10322SOL    HW131865   6.348   3.583   0.591
10322SOL    HW231866   6.195   3.638   0.600
10323SOL     OW31867   5.073   3.081   5.762
10323SOL    HW131868   5.067   3.180   5.780
10323SOL    HW231869   4.981   3.044   5.749
10324SOL     OW31870   3.212   3.023   3.489
10324SOL    HW131871   3.134   3.060   3.540
10324SOL    HW231872   3.250   2.945   3.539
10325SOL     OW31873   0.548   2.868   2.778
10325SOL    HW131874   0.451   2.846   2.792
10325SOL    HW231875   0.581   2.925   2.853
10326SOL     OW31876   5.448   2.531   0.396
10326SOL    HW131877   5.362   2.582   0.393
10326SOL    HW231878   5.458   2.488   0.485
10327SOL     OW31879   0.172   0.928   3.446
10327SOL    HW131880   0.271   0.918   3.435
10327SOL    HW231881   0.127   0.841   3.425
10328SOL     OW31882   5.701   3.101   2.477
10328SOL    HW131883   5.669   3.079   2.385
10328SOL    HW231884   5.688   3.021   2.536
10329SOL     OW31885   3.234   0.066   2.831
10329SOL    HW131886   3.251   7.021   2.763
10329SOL    HW231887   3.315   0.125   2.837
10330SOL     OW31888   4.099   5.185   1.867
10330SOL    HW131889   4.041   5.145   1.938
10330SOL    HW231890   4.194   5.157   1.882
10331SOL     OW31891   5.338   0.548   3.076
10331SOL    HW131892   5.383   0.618   3.132
10331SOL    HW231893   5.392   0.533   2.993
10332SOL     OW31894   6.897   2.107   6.106
10332SOL    HW131895   6.799   2.097   6.122
10332SOL    HW231896   6.942   2.135   6.192
10333SOL     OW31897   5.672   5.433   4.082
10333SOL    HW131898   5.580   5.394   4.082
10333SOL    HW231899   5.685   5.488   3.999
10334SOL     OW31900   2.137   4.740   4.260
10334SOL    HW131901   2.042   4.772   4.267
10334SOL    HW231902   2.164   4.699   4.347
10335SOL     OW31903   1.737   5.322   1.425
10335SOL    HW131904   1.706   5.372   1.344
10335SOL    HW231905   1.752   5.226   1.401
10336SOL     OW31906   4.113   6.315   2.073
10336SOL    HW131907   4.100   6.385   2.003
10336SOL    HW231908   4.205   6.322   2.110
10337SOL     OW31909   0.892   4.767   4.953
10337SOL    HW131910   0.795   4.763   4.928
10337SOL    HW231911   0.902   4.754   5.051
10338SOL     OW31912   2.818   6.179   2.793
10338SOL    HW131913   2.831   6.143   2.885
10338SOL    HW231914   2.801   6.277   2.797
10339SOL     OW31915   2.612   6.365   1.444
10339SOL    HW131916   2.684   6.297   1.426
10339SOL    HW231917   2.561   6.382   1.360
10340SOL     OW31918   1.507   6.686   0.347
10340SOL    HW131919   1.450   6.720   0.272
10340SOL    HW231920   1.488   6.738   0.430
10341SOL     OW31921   1.754   1.662   2.548
10341SOL    HW131922   1.823   1.716   2.597
10341SOL    HW231923   1.741   1.575   2.596
10342SOL     OW31924   2.677   0.158   4.716
10342SOL    HW131925   2.733   0.210   4.651
10342SOL    HW231926   2.737   0.102   4.773
10343SOL     OW31927   2.491   3.741   6.113
10343SOL    HW131928   2.450   3.832   6.113
10343SOL    HW231929   2.507   3.712   6.019
10344SOL     OW31930   4.183   3.515   4.899
10344SOL    HW131931   4.141   3.443   4.953
10344SOL    HW231932   4.283   3.506   4.902
10345SOL     OW31933   2.306   1.563   6.482
10345SOL    HW131934   2.369   1.636   6.453
10345SOL    HW231935   2.303   1.493   6.411
10346SOL     OW31936   4.922   6.489   0.146
10346SOL    HW131937   4.846   6.535   0.101
10346SOL    HW231938   4.909   6.390   0.142
10347SOL     OW31939   5.775   1.945   1.660
10347SOL    HW131940   5.760   2.044   1.667
10347SOL    HW231941   5.873   1.926   1.660
10348SOL     OW31942   0.013   0.208   5.801
10348SOL    HW131943   0.101   0.179   5.837
10348SOL    HW231944   7.010   0.292   5.847
10349SOL     OW31945   6.864   1.553   1.560
10349SOL    HW131946   6.837   1.602   1.477
10349SOL    HW231947   6.904   1.465   1.536
10350SOL     OW31948   2.589   5.132   4.203
10350SOL    HW131949   2.583   5.107   4.300
10350SOL    HW231950   2.584   5.049   4.147
10351SOL     OW31951   5.928   4.753   5.236
10351SOL    HW131952   5.936   4.791   5.328
10351SOL    HW231953   5.899   4.657   5.241
10352SOL     OW31954   6.052   2.309   0.231
10352SOL    HW131955   6.073   2.407   0.229
10352SOL    HW231956   6.120   2.260   0.177
10353SOL     OW31957   6.719   2.875   3.831
10353SOL    HW131958   6.678   2.803   3.774
10353SOL    HW231959   6.723   2.844   3.926
10354SOL     OW31960   0.278   2.920   0.582
10354SOL    HW131961   0.200   2.918   0.644
10354SOL    HW231962   0.343   2.990   0.613
10355SOL     OW31963   1.324   0.627   0.877
10355SOL    HW131964   1.299   0.564   0.804
10355SOL    HW231965   1.421   0.617   0.897
10356SOL     OW31966   6.659   4.031   6.661
10356SOL    HW131967   6.647   4.078   6.574
10356SOL    HW231968   6.659   3.932   6.647
10357SOL     OW31969   1.074   3.054   5.851
10357SOL    HW131970   1.092   3.149   5.876
10357SOL    HW231971   0.981   3.029   5.877
10358SOL     OW31972   0.898   2.646   2.046
10358SOL    HW131973   0.823   2.598   2.091
10358SOL    HW231974   0.865   2.733   2.011
10359SOL     OW31975   5.935   1.900   2.362
10359SOL    HW131976   6.015   1.843   2.381
10359SOL    HW231977   5.963   1.996   2.356
10360SOL     OW31978   6.024   4.720   2.387
10360SOL    HW131979   5.960   4.646   2.407
10360SOL    HW231980   6.087   4.731   2.464
10361SOL     OW31981   0.504   1.744   1.635
10361SOL    HW131982   0.505   1.726   1.733
10361SOL    HW231983   0.440   1.682   1.590
10362SOL     OW31984   1.077   4.984   2.803
10362SOL    HW131985   1.167   4.975   2.846
10362SOL    HW231986   1.017   4.911   2.837
10363SOL     OW31987   5.063   4.395   0.711
10363SOL    HW131988   5.065   4.447   0.797
10363SOL    HW231989   5.006   4.314   0.722
10364SOL     OW31990   6.068   4.383   2.147
10364SOL    HW131991   5.986   4.423   2.188
10364SOL    HW231992   6.133   4.455   2.125
10365SOL     OW31993   6.173   5.835   0.258
10365SOL    HW131994   6.096   5.880   0.302
10365SOL    HW231995   6.190   5.747   0.303
10366SOL     OW31996   2.837   6.278   3.181
10366SOL    HW131997   2.881   6.212   3.242
10366SOL    HW231998   2.742   6.250   3.165
10367SOL     OW31999   6.273   2.112   0.748
10367SOL    HW132000   6.317   2.126   0.658
10367SOL    HW232001   6.174   2.118   0.737
10368SOL     OW32002   2.064   5.871   2.006
10368SOL    HW132003   2.123   5.807   2.054
10368SOL    HW232004   2.105   5.963   2.008
10369SOL     OW32005   3.523   0.237   6.000
10369SOL    HW132006   3.485   0.297   6.071
10369SOL    HW232007   3.622   0.246   5.998
10370SOL     OW32008   0.203   1.071   4.803
10370SOL    HW132009   0.285   1.128   4.799
10370SOL    HW232010   0.228   0.979   4.831
10371SOL     OW32011   3.135   5.685   3.559
10371SOL    HW132012   3.082   5.706   3.477
10371SOL    HW232013   3.224   5.730   3.553
10372SOL     OW32014   2.666   6.752   1.610
10372SOL    HW132015   2.583   6.737   1.663
10372SOL    HW232016   2.743   6.706   1.654
10373SOL     OW32017   0.297   1.576   5.319
10373SOL    HW132018   0.380   1.606   5.366
10373SOL    HW232019   0.293   1.617   5.228
10374SOL     OW32020   3.472   6.849   4.659
10374SOL    HW132021   3.391   6.870   4.713
10374SOL    HW232022   3.467   6.898   4.572
10375SOL     OW32023   3.509   3.459   0.420
10375SOL    HW132024   3.572   3.513   0.365
10375SOL    HW232025   3.415   3.486   0.399
10376SOL     OW32026   2.230   5.094   2.765
10376SOL    HW132027   2.189   5.150   2.837
10376SOL    HW232028   2.322   5.066   2.792
10377SOL     OW32029   1.141   1.294   2.797
10377SOL    HW132030   1.164   1.269   2.703
10377SOL    HW232031   1.222   1.332   2.842
10378SOL     OW32032   0.007   4.590   5.434
10378SOL    HW132033   0.001   4.548   5.525
10378SOL    HW232034   7.006   4.686   5.439
10379SOL     OW32035   1.907   6.717   4.500
10379SOL    HW132036   1.853   6.784   4.450
10379SOL    HW232037   1.984   6.762   4.544
10380SOL     OW32038   1.433   2.787   4.465
10380SOL    HW132039   1.407   2.882   4.444
10380SOL    HW232040   1.486   2.786   4.550
10381SOL     OW32041   4.320   4.607   1.220
10381SOL    HW132042   4.402   4.627   1.274
10381SOL    HW232043   4.239   4.643   1.267
10382SOL     OW32044   3.046   4.741   1.327
10382SOL    HW132045   3.074   4.737   1.231
10382SOL    HW232046   3.124   4.721   1.386
10383SOL     OW32047   1.958   4.565   0.570
10383SOL    HW132048   1.975   4.564   0.668
10383SOL    HW232049   1.990   4.652   0.532
10384SOL     OW32050   5.479   6.843   1.495
10384SOL    HW132051   5.538   6.850   1.415
10384SOL    HW232052   5.515   6.900   1.569
10385SOL     OW32053   3.785   4.733   6.300
10385SOL    HW132054   3.734   4.711   6.383
10385SOL    HW232055   3.807   4.650   6.250
10386SOL     OW32056   0.155   0.760   6.758
10386SOL    HW132057   0.086   0.688   6.749
10386SOL    HW232058   0.246   0.719   6.754
10387SOL     OW32059   4.912   2.899   2.748
10387SOL    HW132060   4.928   2.816   2.801
10387SOL    HW232061   4.832   2.886   2.689
10388SOL     OW32062   3.047   0.422   5.748
10388SOL    HW132063   3.068   0.415   5.651
10388SOL    HW232064   2.952   0.453   5.759
10389SOL     OW32065   0.570   3.083   0.387
10389SOL    HW132066   0.666   3.084   0.417
10389SOL    HW232067   0.510   3.070   0.466
10390SOL     OW32068   2.762   2.231   0.866
10390SOL    HW132069   2.819   2.239   0.785
10390SOL    HW232070   2.671   2.267   0.847
10391SOL     OW32071   6.815   6.780   4.111
10391SOL    HW132072   6.854   6.777   4.203
10391SOL    HW232073   6.826   6.872   4.073
10392SOL     OW32074   6.644   4.919   4.560
10392SOL    HW132075   6.597   5.003   4.534
10392SOL    HW232076   6.715   4.898   4.493
10393SOL     OW32077   1.860   4.037   3.770
10393SOL    HW132078   1.952   3.998   3.781
10393SOL    HW232079   1.807   4.018   3.853
10394SOL     OW32080   3.195   6.206   4.097
10394SOL    HW132081   3.121   6.139   4.108
10394SOL    HW232082   3.211   6.221   3.999
10395SOL     OW32083   6.717   6.710   0.682
10395SOL    HW132084   6.629   6.685   0.642
10395SOL    HW232085   6.767   6.769   0.618
10396SOL     OW32086   3.141   1.574   4.488
10396SOL    HW132087   3.223   1.522   4.512
10396SOL    HW232088   3.168   1.657   4.439
10397SOL     OW32089   2.946   2.105   2.352
10397SOL    HW132090   3.045   2.117   2.346
10397SOL    HW232091   2.901   2.161   2.282
10398SOL     OW32092   0.050   3.270   1.551
10398SOL    HW132093   7.005   3.248   1.483
10398SOL    HW232094   0.130   3.309   1.506
10399SOL     OW32095   5.886   2.334   2.199
10399SOL    HW132096   5.928   2.420   2.171
10399SOL    HW232097   5.787   2.346   2.207
10400SOL     OW32098   4.258   0.208   0.388
10400SOL    HW132099   4.296   0.173   0.474
10400SOL    HW232100   4.161   0.184   0.382
10401SOL     OW32101   6.653   0.885   4.052
10401SOL    HW132102   6.660   0.977   4.013
10401SOL    HW232103   6.688   0.886   4.146
10402SOL     OW32104   5.987   2.877   4.738
10402SOL    HW132105   6.010   2.876   4.641
10402SOL    HW232106   5.958   2.786   4.766
10403SOL     OW32107   3.434   0.365   3.182
10403SOL    HW132108   3.444   0.434   3.110
10403SOL    HW232109   3.518   0.311   3.189
10404SOL     OW32110   6.054   0.055   5.671
10404SOL    HW132111   6.130   0.012   5.622
10404SOL    HW232112   6.089   0.128   5.730
10405SOL     OW32113   0.955   1.767   5.764
10405SOL    HW132114   0.872   1.712   5.761
10405SOL    HW232115   1.034   1.708   5.743
10406SOL     OW32116   3.190   4.854   2.009
10406SOL    HW132117   3.099   4.874   2.045
10406SOL    HW232118   3.183   4.786   1.935
10407SOL     OW32119   3.462   5.941   5.371
10407SOL    HW132120   3.486   5.921   5.466
10407SOL    HW232121   3.363   5.954   5.364
10408SOL     OW32122   4.967   1.674   0.295
10408SOL    HW132123   4.998   1.760   0.335
10408SOL    HW232124   5.016   1.656   0.210
10409SOL     OW32125   6.942   4.838   0.266
10409SOL    HW132126   6.988   4.832   0.178
10409SOL    HW232127   6.899   4.928   0.275
10410SOL     OW32128   5.421   1.743   6.976
10410SOL    HW132129   5.438   1.807   0.025
10410SOL    HW232130   5.506   1.696   6.952
10411SOL     OW32131   3.344   6.336   2.905
10411SOL    HW132132   3.352   6.427   2.946
10411SOL    HW232133   3.352   6.266   2.975
10412SOL     OW32134   6.118   0.855   0.631
10412SOL    HW132135   6.024   0.836   0.602
10412SOL    HW232136   6.145   0.788   0.701
10413SOL     OW32137   0.367   1.860   1.131
10413SOL    HW132138   0.389   1.928   1.201
10413SOL    HW232139   0.280   1.883   1.088
10414SOL     OW32140   4.548   3.974   5.850
10414SOL    HW132141   4.462   4.023   5.868
10414SOL    HW232142   4.599   3.965   5.935
10415SOL     OW32143   0.360   4.916   5.861
10415SOL    HW132144   0.321   5.007   5.878
10415SOL    HW232145   0.327   4.852   5.930
10416SOL     OW32146   6.706   1.532   3.074
10416SOL    HW132147   6.624   1.588   3.066
10416SOL    HW232148   6.736   1.502   2.984
10417SOL     OW32149   3.860   5.187   4.075
10417SOL    HW132150   3.818   5.114   4.022
10417SOL    HW232151   3.934   5.149   4.131
10418SOL     OW32152   0.195   4.719   5.714
10418SOL    HW132153   0.199   4.806   5.665
10418SOL    HW232154   0.286   4.699   5.752
10419SOL     OW32155   1.469   0.441   0.018
10419SOL    HW132156   1.422   0.445   0.106
10419SOL    HW232157   1.417   0.384   6.980
10420SOL     OW32158   6.860   3.410   2.424
10420SOL    HW132159   6.805   3.345   2.477
10420SOL    HW232160   6.940   3.363   2.386
10421SOL     OW32161   0.966   1.849   3.312
10421SOL    HW132162   0.941   1.754   3.333
10421SOL    HW232163   1.064   1.861   3.326
10422SOL     OW32164   6.430   2.365   5.565
10422SOL    HW132165   6.503   2.433   5.559
10422SOL    HW232166   6.469   2.277   5.591
10423SOL     OW32167   4.887   5.096   4.696
10423SOL    HW132168   4.847   5.049   4.775
10423SOL    HW232169   4.909   5.029   4.625
10424SOL     OW32170   5.636   2.828   0.604
10424SOL    HW132171   5.686   2.913   0.592
10424SOL    HW232172   5.541   2.840   0.575
10425SOL     OW32173   2.226   6.879   2.246
10425SOL    HW132174   2.136   6.856   2.208
10425SOL    HW232175   2.224   6.973   2.281
10426SOL     OW32176   6.757   3.539   0.869
10426SOL    HW132177   6.667   3.511   0.834
10426SOL    HW232178   6.817   3.562   0.793
10427SOL     OW32179   4.335   1.319   0.660
10427SOL    HW132180   4.354   1.415   0.640
10427SOL    HW232181   4.335   1.266   0.574
10428SOL     OW32182   3.265   1.713   4.908
10428SOL    HW132183   3.204   1.640   4.876
10428SOL    HW232184   3.244   1.797   4.860
10429SOL     OW32185   7.000   5.685   1.366
10429SOL    HW132186   7.020   5.710   1.272
10429SOL    HW232187   6.942   5.754   1.408
10430SOL     OW32188   4.296   0.099   3.852
10430SOL    HW132189   4.215   0.065   3.899
10430SOL    HW232190   4.344   0.164   3.910
10431SOL     OW32191   3.192   6.734   5.274
10431SOL    HW132192   3.275   6.714   5.326
10431SOL    HW232193   3.186   6.832   5.256
10432SOL     OW32194   6.656   0.805   4.303
10432SOL    HW132195   6.573   0.769   4.345
10432SOL    HW232196   6.723   0.825   4.374
10433SOL     OW32197   1.360   6.259   1.405
10433SOL    HW132198   1.387   6.240   1.310
10433SOL    HW232199   1.262   6.241   1.416
10434SOL     OW32200   3.700   6.670   3.144
10434SOL    HW132201   3.623   6.693   3.085
10434SOL    HW232202   3.666   6.649   3.236
10435SOL     OW32203   6.144   0.405   4.727
10435SOL    HW132204   6.225   0.348   4.740
10435SOL    HW232205   6.171   0.494   4.691
10436SOL     OW32206   1.068   4.969   4.875
10436SOL    HW132207   1.014   4.908   4.933
10436SOL    HW232208   1.139   4.916   4.828
10437SOL     OW32209   6.463   5.133   5.166
10437SOL    HW132210   6.445   5.054   5.224
10437SOL    HW232211   6.455   5.216   5.221
10438SOL     OW32212   5.085   6.706   0.234
10438SOL    HW132213   5.139   6.640   0.286
10438SOL    HW232214   5.014   6.658   0.182
10439SOL     OW32215   3.506   1.506   5.947
10439SOL    HW132216   3.423   1.496   6.001
10439SOL    HW232217   3.513   1.430   5.882
10440SOL     OW32218   0.321   5.800   0.768
10440SOL    HW132219   0.319   5.772   0.672
10440SOL    HW232220   0.228   5.822   0.798
10441SOL     OW32221   4.918   1.472   6.660
10441SOL    HW132222   4.914   1.491   6.758
10441SOL    HW232223   4.831   1.498   6.618
10442SOL     OW32224   3.227   5.314   5.178
10442SOL    HW132225   3.293   5.249   5.214
10442SOL    HW232226   3.258   5.407   5.196
10443SOL     OW32227   4.888   3.544   4.636
10443SOL    HW132228   4.821   3.470   4.640
10443SOL    HW232229   4.975   3.509   4.604
10444SOL     OW32230   4.086   5.138   4.596
10444SOL    HW132231   4.114   5.043   4.612
10444SOL    HW232232   4.026   5.168   4.670
10445SOL     OW32233   0.708   4.595   4.133
10445SOL    HW132234   0.755   4.667   4.185
10445SOL    HW232235   0.685   4.630   4.042
10446SOL     OW32236   0.881   4.124   6.162
10446SOL    HW132237   0.856   4.142   6.067
10446SOL    HW232238   0.963   4.175   6.186
10447SOL     OW32239   0.296   1.240   1.940
10447SOL    HW132240   0.382   1.197   1.910
10447SOL    HW232241   0.315   1.330   1.978
10448SOL     OW32242   4.244   3.363   0.958
10448SOL    HW132243   4.263   3.285   1.018
10448SOL    HW232244   4.311   3.366   0.884
10449SOL     OW32245   2.777   5.304   4.255
10449SOL    HW132246   2.782   5.293   4.355
10449SOL    HW232247   2.712   5.238   4.218
10450SOL     OW32248   0.954   2.618   6.885
10450SOL    HW132249   1.032   2.629   6.947
10450SOL    HW232250   0.895   2.545   6.917
10451SOL     OW32251   2.911   5.006   2.781
10451SOL    HW132252   2.862   5.054   2.708
10451SOL    HW232253   2.887   4.909   2.780
10452SOL     OW32254   6.851   3.756   3.550
10452SOL    HW132255   6.795   3.797   3.478
10452SOL    HW232256   6.946   3.751   3.519
10453SOL     OW32257   5.821   6.126   1.715
10453SOL    HW132258   5.857   6.124   1.622
10453SOL    HW232259   5.747   6.193   1.720
10454SOL     OW32260   5.474   2.885   1.894
10454SOL    HW132261   5.474   2.835   1.980
10454SOL    HW232262   5.565   2.923   1.877
10455SOL     OW32263   0.242   5.273   3.525
10455SOL    HW132264   0.308   5.207   3.490
10455SOL    HW232265   0.259   5.288   3.623
10456SOL     OW32266   2.857   6.141   1.095
10456SOL    HW132267   2.927   6.117   1.163
10456SOL    HW232268   2.861   6.239   1.076
10457SOL     OW32269   3.413   3.150   4.103
10457SOL    HW132270   3.365   3.073   4.062
10457SOL    HW232271   3.348   3.210   4.148
10458SOL     OW32272   6.882   6.690   6.974
10458SOL    HW132273   6.979   6.702   6.953
10458SOL    HW232274   6.837   6.643   6.898
10459SOL     OW32275   6.031   5.605   2.795
10459SOL    HW132276   6.062   5.633   2.886
10459SOL    HW232277   5.931   5.611   2.790
10460SOL     OW32278   2.168   6.086   1.255
10460SOL    HW132279   2.199   6.049   1.342
10460SOL    HW232280   2.172   6.014   1.185
10461SOL     OW32281   1.504   6.382   6.086
10461SOL    HW132282   1.570   6.457   6.087
10461SOL    HW232283   1.424   6.408   6.032
10462SOL     OW32284   6.074   1.030   1.569
10462SOL    HW132285   6.069   0.962   1.641
10462SOL    HW232286   6.014   1.107   1.590
10463SOL     OW32287   3.005   4.050   6.225
10463SOL    HW132288   2.988   3.972   6.165
10463SOL    HW232289   3.089   4.097   6.196
10464SOL     OW32290   4.480   0.035   1.046
10464SOL    HW132291   4.461   0.113   1.105
10464SOL    HW232292   4.441   6.978   1.086
10465SOL     OW32293   0.375   0.081   6.249
10465SOL    HW132294   0.401   0.106   6.343
10465SOL    HW232295   0.276   0.065   6.245
10466SOL     OW32296   4.791   5.663   5.339
10466SOL    HW132297   4.830   5.720   5.267
10466SOL    HW232298   4.863   5.610   5.384
10467SOL     OW32299   1.711   1.727   5.531
10467SOL    HW132300   1.763   1.644   5.552
10467SOL    HW232301   1.642   1.742   5.602
10468SOL     OW32302   3.713   6.258   4.170
10468SOL    HW132303   3.792   6.274   4.230
10468SOL    HW232304   3.745   6.224   4.081
10469SOL     OW32305   2.195   3.821   1.194
10469SOL    HW132306   2.276   3.873   1.167
10469SOL    HW232307   2.214   3.772   1.279
10470SOL     OW32308   2.478   1.972   3.997
10470SOL    HW132309   2.536   1.984   3.917
10470SOL    HW232310   2.454   2.061   4.035
10471SOL     OW32311   2.456   3.780   1.700
10471SOL    HW132312   2.396   3.723   1.757
10471SOL    HW232313   2.551   3.752   1.714
10472SOL     OW32314   3.985   6.924   1.898
10472SOL    HW132315   3.905   6.982   1.915
10472SOL    HW232316   4.067   6.981   1.899
10473SOL     OW32317   5.830   6.855   0.638
10473SOL    HW132318   5.879   6.827   0.721
10473SOL    HW232319   5.882   6.924   0.589
10474SOL     OW32320   4.575   0.605   4.286
10474SOL    HW132321   4.616   0.523   4.327
10474SOL    HW232322   4.528   0.658   4.357
10475SOL     OW32323   4.037   5.816   1.102
10475SOL    HW132324   4.086   5.751   1.043
10475SOL    HW232325   4.085   5.824   1.189
10476SOL     OW32326   6.387   5.414   0.121
10476SOL    HW132327   6.322   5.375   0.187
10476SOL    HW232328   6.426   5.340   0.066
10477SOL     OW32329   5.283   3.263   4.713
10477SOL    HW132330   5.290   3.190   4.645
10477SOL    HW232331   5.245   3.345   4.671
10478SOL     OW32332   0.896   7.019   6.747
10478SOL    HW132333   0.860   7.012   6.654
10478SOL    HW232334   0.820   0.001   6.812
10479SOL     OW32335   1.304   3.025   2.169
10479SOL    HW132336   1.290   3.022   2.268
10479SOL    HW232337   1.341   3.115   2.144
10480SOL     OW32338   5.450   6.467   1.951
10480SOL    HW132339   5.484   6.550   1.996
10480SOL    HW232340   5.390   6.493   1.874
10481SOL     OW32341   2.600   0.958   4.946
10481SOL    HW132342   2.521   1.020   4.938
10481SOL    HW232343   2.675   0.994   4.890
10482SOL     OW32344   1.187   6.820   4.655
10482SOL    HW132345   1.127   6.774   4.590
10482SOL    HW232346   1.282   6.797   4.635
10483SOL     OW32347   6.230   5.686   0.506
10483SOL    HW132348   6.158   5.622   0.531
10483SOL    HW232349   6.319   5.644   0.526
10484SOL     OW32350   6.874   0.852   1.381
10484SOL    HW132351   6.921   0.772   1.418
10484SOL    HW232352   6.932   0.898   1.314
10485SOL     OW32353   3.066   3.802   2.909
10485SOL    HW132354   3.100   3.874   2.848
10485SOL    HW232355   3.043   3.721   2.854
10486SOL     OW32356   6.869   0.017   5.751
10486SOL    HW132357   6.928   0.097   5.742
10486SOL    HW232358   6.926   6.961   5.765
10487SOL     OW32359   4.823   1.540   1.636
10487SOL    HW132360   4.823   1.622   1.579
10487SOL    HW232361   4.801   1.460   1.580
10488SOL     OW32362   0.562   2.389   5.423
10488SOL    HW132363   0.555   2.289   5.415
10488SOL    HW232364   0.656   2.418   5.408
10489SOL     OW32365   6.274   5.061   3.907
10489SOL    HW132366   6.218   5.118   3.968
10489SOL    HW232367   6.219   4.984   3.874
10490SOL     OW32368   5.821   0.183   0.886
10490SOL    HW132369   5.918   0.160   0.882
10490SOL    HW232370   5.786   0.197   0.794
10491SOL     OW32371   1.707   3.346   6.979
10491SOL    HW132372   1.728   3.339   6.881
10491SOL    HW232373   1.787   3.381   0.002
10492SOL     OW32374   5.017   0.088   0.581
10492SOL    HW132375   5.020   7.018   0.551
10492SOL    HW232376   5.083   0.141   0.527
10493SOL     OW32377   4.296   5.535   1.244
10493SOL    HW132378   4.224   5.471   1.220
10493SOL    HW232379   4.336   5.574   1.160
10494SOL     OW32380   0.773   4.890   6.420
10494SOL    HW132381   0.858   4.904   6.370
10494SOL    HW232382   0.774   4.800   6.464
10495SOL     OW32383   0.393   6.357   5.653
10495SOL    HW132384   0.440   6.281   5.608
10495SOL    HW232385   0.302   6.369   5.613
10496SOL     OW32386   6.709   3.630   5.380
10496SOL    HW132387   6.737   3.721   5.350
10496SOL    HW232388   6.609   3.622   5.373
10497SOL     OW32389   2.496   6.850   2.225
10497SOL    HW132390   2.530   6.823   2.316
10497SOL    HW232391   2.401   6.878   2.232
10498SOL     OW32392   4.953   5.566   0.514
10498SOL    HW132393   4.979   5.609   0.428
10498SOL    HW232394   4.985   5.623   0.590
10499SOL     OW32395   6.217   5.781   1.710
10499SOL    HW132396   6.226   5.858   1.647
10499SOL    HW232397   6.298   5.723   1.703
10500SOL     OW32398   5.330   4.557   5.001
10500SOL    HW132399   5.386   4.484   4.962
10500SOL    HW232400   5.337   4.638   4.942
10501SOL     OW32401   2.313   5.798   2.285
10501SOL    HW132402   2.329   5.719   2.227
10501SOL    HW232403   2.371   5.874   2.256
10502SOL     OW32404   2.955   3.581   2.549
10502SOL    HW132405   2.907   3.651   2.496
10502SOL    HW232406   2.959   3.496   2.496
10503SOL     OW32407   6.945   3.737   6.495
10503SOL    HW132408   0.016   3.737   6.470
10503SOL    HW232409   6.923   3.652   6.543
10504SOL     OW32410   1.863   3.390   6.281
10504SOL    HW132411   1.941   3.341   6.319
10504SOL    HW232412   1.779   3.342   6.306
10505SOL     OW32413   5.775   6.609   1.914
10505SOL    HW132414   5.756   6.670   1.838
10505SOL    HW232415   5.806   6.662   1.993
10506SOL     OW32416   0.468   2.867   6.653
10506SOL    HW132417   0.501   2.935   6.587
10506SOL    HW232418   0.471   2.905   6.745
10507SOL     OW32419   2.406   4.833   6.985
10507SOL    HW132420   2.469   4.762   6.952
10507SOL    HW232421   2.439   4.868   0.047
10508SOL     OW32422   1.107   5.197   5.327
10508SOL    HW132423   1.121   5.289   5.364
10508SOL    HW232424   1.191   5.165   5.284
10509SOL     OW32425   4.966   3.361   3.869
10509SOL    HW132426   4.943   3.409   3.785
10509SOL    HW232427   4.986   3.427   3.941
10510SOL     OW32428   4.848   5.802   5.109
10510SOL    HW132429   4.885   5.781   5.019
10510SOL    HW232430   4.782   5.877   5.101
10511SOL     OW32431   2.983   1.629   1.937
10511SOL    HW132432   2.943   1.642   1.846
10511SOL    HW232433   3.063   1.689   1.946
10512SOL     OW32434   4.491   0.448   5.600
10512SOL    HW132435   4.568   0.403   5.555
10512SOL    HW232436   4.523   0.497   5.680
10513SOL     OW32437   5.376   3.084   2.163
10513SOL    HW132438   5.322   3.135   2.229
10513SOL    HW232439   5.333   3.090   2.073
10514SOL     OW32440   1.128   2.689   1.840
10514SOL    HW132441   1.228   2.692   1.831
10514SOL    HW232442   1.099   2.753   1.911
10515SOL     OW32443   2.077   3.242   4.958
10515SOL    HW132444   2.112   3.332   4.930
10515SOL    HW232445   1.977   3.247   4.966
10516SOL     OW32446   3.494   2.581   6.982
10516SOL    HW132447   3.395   2.569   6.976
10516SOL    HW232448   3.530   2.523   0.029
10517SOL     OW32449   1.121   3.009   3.566
10517SOL    HW132450   1.191   3.077   3.546
10517SOL    HW232451   1.146   2.922   3.523
10518SOL     OW32452   0.692   5.316   2.127
10518SOL    HW132453   0.748   5.398   2.139
10518SOL    HW232454   0.713   5.251   2.199
10519SOL     OW32455   2.150   6.513   1.168
10519SOL    HW132456   2.163   6.469   1.257
10519SOL    HW232457   2.101   6.451   1.107
10520SOL     OW32458   6.497   1.099   6.470
10520SOL    HW132459   6.493   1.186   6.518
10520SOL    HW232460   6.506   1.024   6.536
10521SOL     OW32461   6.163   3.224   1.846
10521SOL    HW132462   6.249   3.246   1.893
10521SOL    HW232463   6.153   3.124   1.842
10522SOL     OW32464   5.830   2.410   2.851
10522SOL    HW132465   5.772   2.489   2.869
10522SOL    HW232466   5.792   2.330   2.897
10523SOL     OW32467   0.615   4.131   3.889
10523SOL    HW132468   0.668   4.213   3.912
10523SOL    HW232469   0.650   4.092   3.804
10524SOL     OW32470   6.490   5.676   4.364
10524SOL    HW132471   6.534   5.592   4.394
10524SOL    HW232472   6.550   5.726   4.303
10525SOL     OW32473   4.483   1.056   4.345
10525SOL    HW132474   4.409   1.115   4.314
10525SOL    HW232475   4.530   1.016   4.266
10526SOL     OW32476   0.307   5.727   0.507
10526SOL    HW132477   0.371   5.802   0.489
10526SOL    HW232478   0.358   5.641   0.517
10527SOL     OW32479   0.801   1.272   4.763
10527SOL    HW132480   0.727   1.340   4.762
10527SOL    HW232481   0.880   1.308   4.715
10528SOL     OW32482   0.584   4.927   6.763
10528SOL    HW132483   0.484   4.924   6.753
10528SOL    HW232484   0.617   4.836   6.789
10529SOL     OW32485   1.690   6.599   6.081
10529SOL    HW132486   1.661   6.688   6.116
10529SOL    HW232487   1.754   6.557   6.146
10530SOL     OW32488   0.956   0.242   6.936
10530SOL    HW132489   1.011   0.282   6.862
10530SOL    HW232490   0.960   0.142   6.929
10531SOL     OW32491   3.005   2.518   5.391
10531SOL    HW132492   3.076   2.511   5.320
10531SOL    HW232493   2.951   2.601   5.376
10532SOL     OW32494   5.628   6.546   6.528
10532SOL    HW132495   5.572   6.602   6.467
10532SOL    HW232496   5.722   6.544   6.494
10533SOL     OW32497   3.644   5.759   3.914
10533SOL    HW132498   3.609   5.851   3.930
10533SOL    HW232499   3.715   5.762   3.843
10534SOL     OW32500   0.661   6.123   2.614
10534SOL    HW132501   0.630   6.129   2.709
10534SOL    HW232502   0.582   6.135   2.553
10535SOL     OW32503   2.678   1.323   2.506
10535SOL    HW132504   2.683   1.420   2.484
10535SOL    HW232505   2.770   1.285   2.515
10536SOL     OW32506   4.772   1.366   4.413
10536SOL    HW132507   4.825   1.397   4.334
10536SOL    HW232508   4.715   1.288   4.386
10537SOL     OW32509   4.820   6.960   3.229
10537SOL    HW132510   4.884   0.011   3.220
10537SOL    HW232511   4.872   6.876   3.244
10538SOL     OW32512   6.593   3.033   2.549
10538SOL    HW132513   6.550   3.086   2.475
10538SOL    HW232514   6.524   3.011   2.618
10539SOL     OW32515   6.074   6.294   2.805
10539SOL    HW132516   6.002   6.230   2.832
10539SOL    HW232517   6.134   6.251   2.738
10540SOL     OW32518   2.747   3.984   6.601
10540SOL    HW132519   2.766   3.915   6.532
10540SOL    HW232520   2.693   3.944   6.675
10541SOL     OW32521   2.976   3.112   5.142
10541SOL    HW132522   3.012   3.054   5.215
10541SOL    HW232523   2.880   3.091   5.128
10542SOL     OW32524   6.255   7.014   4.490
10542SOL    HW132525   6.166   6.977   4.462
10542SOL    HW232526   6.295   0.038   4.413
10543SOL     OW32527   6.854   3.105   5.618
10543SOL    HW132528   6.780   3.127   5.555
10543SOL    HW232529   6.863   3.006   5.627
10544SOL     OW32530   1.091   1.481   3.436
10544SOL    HW132531   1.029   1.500   3.360
10544SOL    HW232532   1.182   1.519   3.416
10545SOL     OW32533   2.403   2.062   2.951
10545SOL    HW132534   2.431   2.155   2.977
10545SOL    HW232535   2.350   2.021   3.025
10546SOL     OW32536   3.164   6.451   1.097
10546SOL    HW132537   3.236   6.381   1.103
10546SOL    HW232538   3.194   6.534   1.145
10547SOL     OW32539   4.349   6.896   5.086
10547SOL    HW132540   4.391   6.888   5.176
10547SOL    HW232541   4.420   6.894   5.015
10548SOL     OW32542   0.883   4.840   4.347
10548SOL    HW132543   0.933   4.754   4.360
10548SOL    HW232544   0.806   4.844   4.411
10549SOL     OW32545   0.250   1.181   0.889
10549SOL    HW132546   0.290   1.265   0.853
10549SOL    HW232547   0.259   1.108   0.821
10550SOL     OW32548   3.948   6.077   3.047
10550SOL    HW132549   4.010   6.154   3.054
10550SOL    HW232550   3.999   5.994   3.023
10551SOL     OW32551   2.775   2.046   5.985
10551SOL    HW132552   2.759   1.956   5.945
10551SOL    HW232553   2.872   2.068   5.980
10552SOL     OW32554   3.670   0.885   4.744
10552SOL    HW132555   3.712   0.961   4.794
10552SOL    HW232556   3.675   0.802   4.799
10553SOL     OW32557   0.426   5.310   0.686
10553SOL    HW132558   0.484   5.228   0.692
10553SOL    HW232559   0.422   5.354   0.776
10554SOL     OW32560   6.555   5.224   2.648
10554SOL    HW132561   6.469   5.184   2.616
10554SOL    HW232562   6.537   5.286   2.724
10555SOL     OW32563   3.564   2.059   0.486
10555SOL    HW132564   3.619   2.142   0.476
10555SOL    HW232565   3.565   2.007   0.401
10556SOL     OW32566   1.661   1.753   3.186
10556SOL    HW132567   1.641   1.721   3.093
10556SOL    HW232568   1.744   1.710   3.219
10557SOL     OW32569   2.112   3.648   3.695
10557SOL    HW132570   2.135   3.691   3.782
10557SOL    HW232571   2.131   3.711   3.620
10558SOL     OW32572   2.878   5.510   5.090
10558SOL    HW132573   2.887   5.425   5.141
10558SOL    HW232574   2.925   5.501   5.002
10559SOL     OW32575   3.236   0.264   7.015
10559SOL    HW132576   3.208   0.283   0.083
10559SOL    HW232577   3.156   0.268   6.955
10560SOL     OW32578   4.915   6.418   1.292
10560SOL    HW132579   5.014   6.404   1.288
10560SOL    HW232580   4.893   6.509   1.258
10561SOL     OW32581   5.743   4.108   1.164
10561SOL    HW132582   5.664   4.155   1.126
10561SOL    HW232583   5.754   4.020   1.119
10562SOL     OW32584   3.033   6.638   1.433
10562SOL    HW132585   2.979   6.652   1.516
10562SOL    HW232586   2.987   6.572   1.374
10563SOL     OW32587   0.445   0.043   0.628
10563SOL    HW132588   0.377   0.064   0.698
10563SOL    HW232589   0.433   6.974   0.597
10564SOL     OW32590   6.423   5.462   4.077
10564SOL    HW132591   6.480   5.448   3.996
10564SOL    HW232592   6.401   5.374   4.118
10565SOL     OW32593   6.472   6.613   5.580
10565SOL    HW132594   6.460   6.557   5.498
10565SOL    HW232595   6.384   6.652   5.608
10566SOL     OW32596   2.865   2.397   0.435
10566SOL    HW132597   2.772   2.433   0.444
10566SOL    HW232598   2.863   2.314   0.379
10567SOL     OW32599   1.813   2.693   6.212
10567SOL    HW132600   1.826   2.657   6.120
10567SOL    HW232601   1.852   2.785   6.218
10568SOL     OW32602   5.220   2.786   5.916
10568SOL    HW132603   5.180   2.789   6.007
10568SOL    HW232604   5.150   2.760   5.849
10569SOL     OW32605   5.267   0.139   1.921
10569SOL    HW132606   5.288   0.206   1.993
10569SOL    HW232607   5.325   0.058   1.932
10570SOL     OW32608   0.712   5.151   4.584
10570SOL    HW132609   0.744   5.083   4.649
10570SOL    HW232610   0.621   5.126   4.551
10571SOL     OW32611   7.018   4.779   5.965
10571SOL    HW132612   6.946   4.709   5.964
10571SOL    HW232613   0.039   4.779   5.877
10572SOL     OW32614   6.597   4.491   1.475
10572SOL    HW132615   6.501   4.518   1.483
10572SOL    HW232616   6.655   4.573   1.481
10573SOL     OW32617   6.041   0.572   3.808
10573SOL    HW132618   6.108   0.577   3.882
10573SOL    HW232619   6.011   0.665   3.784
10574SOL     OW32620   7.002   1.290   3.308
10574SOL    HW132621   0.042   1.282   3.232
10574SOL    HW232622   6.963   1.200   3.327
10575SOL     OW32623   6.340   1.037   2.181
10575SOL    HW132624   6.322   1.041   2.083
10575SOL    HW232625   6.384   1.122   2.211
10576SOL     OW32626   2.395   4.779   3.292
10576SOL    HW132627   2.375   4.789   3.195
10576SOL    HW232628   2.310   4.782   3.344
10577SOL     OW32629   3.903   6.034   0.904
10577SOL    HW132630   3.814   6.079   0.907
10577SOL    HW232631   3.911   5.970   0.981
10578SOL     OW32632   6.340   2.094   4.124
10578SOL    HW132633   6.396   2.029   4.074
10578SOL    HW232634   6.394   2.175   4.147
10579SOL     OW32635   2.629   3.039   1.230
10579SOL    HW132636   2.569   3.032   1.309
10579SOL    HW232637   2.576   3.027   1.146
10580SOL     OW32638   6.413   6.757   6.532
10580SOL    HW132639   6.366   6.669   6.530
10580SOL    HW232640   6.509   6.743   6.557
10581SOL     OW32641   5.358   6.955   3.582
10581SOL    HW132642   5.339   6.884   3.650
10581SOL    HW232643   5.442   7.004   3.607
10582SOL     OW32644   5.426   4.929   6.710
10582SOL    HW132645   5.493   4.959   6.641
10582SOL    HW232646   5.334   4.945   6.676
10583SOL     OW32647   2.856   0.427   3.600
10583SOL    HW132648   2.810   0.494   3.657
10583SOL    HW232649   2.876   0.345   3.654
10584SOL     OW32650   6.892   0.184   5.434
10584SOL    HW132651   6.962   0.168   5.364
10584SOL    HW232652   6.903   0.276   5.471
10585SOL     OW32653   0.448   1.761   6.003
10585SOL    HW132654   0.457   1.779   5.905
10585SOL    HW232655   0.484   1.669   6.022
10586SOL     OW32656   5.104   4.512   5.738
10586SOL    HW132657   5.141   4.427   5.702
10586SOL    HW232658   5.028   4.543   5.681
10587SOL     OW32659   0.961   5.593   5.635
10587SOL    HW132660   1.016   5.676   5.640
10587SOL    HW232661   1.011   5.516   5.674
10588SOL     OW32662   1.046   3.430   4.007
10588SOL    HW132663   1.120   3.374   4.042
10588SOL    HW232664   0.960   3.401   4.049
10589SOL     OW32665   5.201   6.366   4.060
10589SOL    HW132666   5.167   6.432   4.127
10589SOL    HW232667   5.217   6.278   4.104
10590SOL     OW32668   0.576   5.548   1.635
10590SOL    HW132669   0.516   5.628   1.631
10590SOL    HW232670   0.526   5.471   1.675
10591SOL     OW32671   1.150   1.622   1.084
10591SOL    HW132672   1.071   1.682   1.070
10591SOL    HW232673   1.195   1.645   1.170
10592SOL     OW32674   5.945   2.079   5.157
10592SOL    HW132675   5.907   2.038   5.240
10592SOL    HW232676   6.035   2.117   5.176
10593SOL     OW32677   2.858   6.877   1.281
10593SOL    HW132678   2.834   6.780   1.276
10593SOL    HW232679   2.820   6.917   1.364
10594SOL     OW32680   3.944   0.413   3.275
10594SOL    HW132681   3.988   0.361   3.347
10594SOL    HW232682   3.985   0.389   3.187
10595SOL     OW32683   5.867   0.767   0.589
10595SOL    HW132684   5.863   0.706   0.668
10595SOL    HW232685   5.805   0.733   0.517
10596SOL     OW32686   4.291   1.629   6.724
10596SOL    HW132687   4.326   1.704   6.781
10596SOL    HW232688   4.207   1.593   6.765
10597SOL     OW32689   2.490   0.306   6.148
10597SOL    HW132690   2.478   0.218   6.102
10597SOL    HW232691   2.487   0.292   6.247
10598SOL     OW32692   2.811   1.785   5.929
10598SOL    HW132693   2.850   1.724   5.998
10598SOL    HW232694   2.819   1.743   5.838
10599SOL     OW32695   6.818   3.956   6.330
10599SOL    HW132696   6.842   3.885   6.396
10599SOL    HW232697   6.835   3.923   6.237
10600SOL     OW32698   2.505   1.866   1.887
10600SOL    HW132699   2.556   1.823   1.961
10600SOL    HW232700   2.503   1.965   1.900
10601SOL     OW32701   0.167   6.796   6.653
10601SOL    HW132702   0.092   6.803   6.587
10601SOL    HW232703   0.180   6.700   6.679
10602SOL     OW32704   0.116   6.997   0.220
10602SOL    HW132705   0.037   0.020   0.182
10602SOL    HW232706   0.135   0.005   0.312
10603SOL     OW32707   4.392   6.556   2.066
10603SOL    HW132708   4.395   6.632   2.131
10603SOL    HW232709   4.357   6.588   1.978
10604SOL     OW32710   0.703   6.860   5.121
10604SOL    HW132711   0.730   6.891   5.213
10604SOL    HW232712   0.603   6.863   5.113
10605SOL     OW32713   2.340   1.313   0.832
10605SOL    HW132714   2.257   1.357   0.798
10605SOL    HW232715   2.337   1.215   0.809
10606SOL     OW32716   6.239   1.112   1.386
10606SOL    HW132717   6.290   1.030   1.360
10606SOL    HW232718   6.177   1.089   1.461
10607SOL     OW32719   4.518   4.150   6.123
10607SOL    HW132720   4.422   4.150   6.153
10607SOL    HW232721   4.576   4.113   6.195
10608SOL     OW32722   6.403   2.711   2.891
10608SOL    HW132723   6.343   2.715   2.811
10608SOL    HW232724   6.493   2.676   2.863
10609SOL     OW32725   3.633   0.439   0.139
10609SOL    HW132726   3.662   0.419   0.045
10609SOL    HW232727   3.694   0.509   0.178
10610SOL     OW32728   0.196   1.496   4.445
10610SOL    HW132729   0.112   1.540   4.477
10610SOL    HW232730   0.175   1.437   4.367
10611SOL     OW32731   2.285   5.622   4.736
10611SOL    HW132732   2.281   5.718   4.764
10611SOL    HW232733   2.232   5.567   4.800
10612SOL     OW32734   5.336   1.408   3.874
10612SOL    HW132735   5.315   1.335   3.939
10612SOL    HW232736   5.343   1.370   3.782
10613SOL     OW32737   6.439   6.587   4.089
10613SOL    HW132738   6.442   6.618   4.184
10613SOL    HW232739   6.366   6.636   4.040
10614SOL     OW32740   5.147   0.618   6.483
10614SOL    HW132741   5.087   0.696   6.466
10614SOL    HW232742   5.184   0.623   6.576
10615SOL     OW32743   2.644   2.145   6.446
10615SOL    HW132744   2.727   2.093   6.464
10615SOL    HW232745   2.634   2.159   6.347
10616SOL     OW32746   2.816   6.239   6.845
10616SOL    HW132747   2.886   6.273   6.783
10616SOL    HW232748   2.794   6.309   6.913
10617SOL     OW32749   2.794   3.066   1.608
10617SOL    HW132750   2.763   2.974   1.583
10617SOL    HW232751   2.890   3.077   1.580
10618SOL     OW32752   0.938   5.560   4.925
10618SOL    HW132753   0.862   5.522   4.871
10618SOL    HW232754   1.024   5.546   4.876
10619SOL     OW32755   0.992   2.035   3.086
10619SOL    HW132756   1.084   2.018   3.050
10619SOL    HW232757   0.992   2.027   3.185
10620SOL     OW32758   2.408   6.772   5.789
10620SOL    HW132759   2.425   6.870   5.777
10620SOL    HW232760   2.447   6.742   5.876
10621SOL     OW32761   1.170   3.780   3.209
10621SOL    HW132762   1.103   3.707   3.201
10621SOL    HW232763   1.238   3.772   3.136
10622SOL     OW32764   4.667   3.109   0.980
10622SOL    HW132765   4.603   3.033   0.964
10622SOL    HW232766   4.755   3.073   1.010
10623SOL     OW32767   5.880   6.141   6.115
10623SOL    HW132768   5.851   6.057   6.069
10623SOL    HW232769   5.816   6.163   6.188
10624SOL     OW32770   0.876   2.356   5.233
10624SOL    HW132771   0.909   2.403   5.315
10624SOL    HW232772   0.949   2.298   5.197
10625SOL     OW32773   6.660   3.735   6.639
10625SOL    HW132774   6.600   3.658   6.655
10625SOL    HW232775   6.735   3.708   6.578
10626SOL     OW32776   4.288   3.062   1.504
10626SOL    HW132777   4.213   3.056   1.438
10626SOL    HW232778   4.267   3.003   1.582
10627SOL     OW32779   5.779   6.656   5.804
10627SOL    HW132780   5.715   6.588   5.840
10627SOL    HW232781   5.867   6.611   5.784
10628SOL     OW32782   4.370   0.473   0.380
10628SOL    HW132783   4.338   0.378   0.386
10628SOL    HW232784   4.337   0.524   0.460
10629SOL     OW32785   3.895   5.313   4.961
10629SOL    HW132786   3.945   5.227   4.950
10629SOL    HW232787   3.840   5.330   4.879
10630SOL     OW32788   4.310   0.568   2.804
10630SOL    HW132789   4.385   0.537   2.746
10630SOL    HW232790   4.293   0.500   2.876
10631SOL     OW32791   4.796   5.579   0.110
10631SOL    HW132792   4.860   5.544   0.041
10631SOL    HW232793   4.753   5.662   0.077
10632SOL     OW32794   4.849   5.877   3.238
10632SOL    HW132795   4.851   5.953   3.304
10632SOL    HW232796   4.932   5.822   3.248
10633SOL     OW32797   2.040   2.756   1.985
10633SOL    HW132798   2.070   2.846   1.953
10633SOL    HW232799   2.058   2.747   2.083
10634SOL     OW32800   0.905   4.789   6.826
10634SOL    HW132801   0.837   4.717   6.839
10634SOL    HW232802   0.997   4.749   6.834
10635SOL     OW32803   2.430   3.621   0.525
10635SOL    HW132804   2.490   3.684   0.474
10635SOL    HW232805   2.453   3.527   0.501
10636SOL     OW32806   6.572   2.553   6.725
10636SOL    HW132807   6.644   2.485   6.711
10636SOL    HW232808   6.567   2.613   6.645
10637SOL     OW32809   2.812   6.572   6.490
10637SOL    HW132810   2.787   6.530   6.403
10637SOL    HW232811   2.911   6.572   6.500
10638SOL     OW32812   6.745   5.179   2.048
10638SOL    HW132813   6.742   5.277   2.031
10638SOL    HW232814   6.663   5.136   2.011
10639SOL     OW32815   2.409   3.473   1.544
10639SOL    HW132816   2.384   3.477   1.641
10639SOL    HW232817   2.501   3.510   1.531
10640SOL     OW32818   3.952   7.009   3.614
10640SOL    HW132819   3.992   6.977   3.701
10640SOL    HW232820   3.885   0.055   3.632
10641SOL     OW32821   1.138   0.304   3.604
10641SOL    HW132822   1.042   0.302   3.574
10641SOL    HW232823   1.178   0.393   3.582
10642SOL     OW32824   6.313   2.599   6.958
10642SOL    HW132825   6.268   2.676   6.913
10642SOL    HW232826   6.300   2.516   6.903
10643SOL     OW32827   1.702   4.899   5.209
10643SOL    HW132828   1.744   4.955   5.280
10643SOL    HW232829   1.750   4.912   5.122
10644SOL     OW32830   0.138   2.455   2.481
10644SOL    HW132831   0.088   2.525   2.430
10644SOL    HW232832   0.223   2.433   2.432
10645SOL     OW32833   2.400   2.686   3.241
10645SOL    HW132834   2.415   2.726   3.331
10645SOL    HW232835   2.323   2.731   3.196
10646SOL     OW32836   5.234   1.378   4.284
10646SOL    HW132837   5.189   1.309   4.341
10646SOL    HW232838   5.229   1.350   4.188
10647SOL     OW32839   4.365   5.092   5.331
10647SOL    HW132840   4.272   5.081   5.296
10647SOL    HW232841   4.379   5.031   5.409
10648SOL     OW32842   6.311   5.012   5.516
10648SOL    HW132843   6.303   5.111   5.515
10648SOL    HW232844   6.288   4.976   5.425
10649SOL     OW32845   0.091   3.147   3.834
10649SOL    HW132846   0.020   3.206   3.874
10649SOL    HW232847   0.168   3.141   3.898
10650SOL     OW32848   6.926   0.280   3.992
10650SOL    HW132849   6.927   0.338   3.911
10650SOL    HW232850   6.867   0.321   4.062
10651SOL     OW32851   5.183   6.449   5.988
10651SOL    HW132852   5.269   6.499   6.001
10651SOL    HW232853   5.201   6.351   5.982
10652SOL     OW32854   1.437   6.767   6.312
10652SOL    HW132855   1.341   6.740   6.302
10652SOL    HW232856   1.481   6.708   6.380
10653SOL     OW32857   3.750   6.142   4.959
10653SOL    HW132858   3.674   6.195   4.921
10653SOL    HW232859   3.740   6.138   5.059
10654SOL     OW32860   5.207   1.624   4.439
10654SOL    HW132861   5.115   1.639   4.475
10654SOL    HW232862   5.208   1.541   4.382
10655SOL     OW32863   1.305   4.855   1.224
10655SOL    HW132864   1.233   4.788   1.205
10655SOL    HW232865   1.310   4.872   1.322
10656SOL     OW32866   6.375   1.208   1.883
10656SOL    HW132867   6.285   1.170   1.908
10656SOL    HW232868   6.377   1.227   1.785
10657SOL     OW32869   6.168   0.680   4.298
10657SOL    HW132870   6.102   0.749   4.330
10657SOL    HW232871   6.259   0.702   4.333
10658SOL     OW32872   5.185   3.628   4.919
10658SOL    HW132873   5.112   3.662   4.860
10658SOL    HW232874   5.229   3.705   4.965
10659SOL     OW32875   0.853   4.676   0.918
10659SOL    HW132876   0.800   4.761   0.912
10659SOL    HW232877   0.895   4.670   1.009
10660SOL     OW32878   6.160   3.620   5.623
10660SOL    HW132879   6.096   3.580   5.558
10660SOL    HW232880   6.129   3.712   5.648
10661SOL     OW32881   1.121   4.242   0.483
10661SOL    HW132882   1.139   4.225   0.580
10661SOL    HW232883   1.048   4.310   0.474
10662SOL     OW32884   2.950   1.262   2.600
10662SOL    HW132885   2.950   1.180   2.543
10662SOL    HW232886   3.042   1.300   2.604
10663SOL     OW32887   1.348   0.977   3.281
10663SOL    HW132888   1.303   1.066   3.292
10663SOL    HW232889   1.412   0.981   3.204
10664SOL     OW32890   1.043   5.006   4.532
10664SOL    HW132891   1.137   4.978   4.514
10664SOL    HW232892   0.985   4.981   4.455
10665SOL     OW32893   2.171   3.354   6.733
10665SOL    HW132894   2.174   3.365   6.832
10665SOL    HW232895   2.145   3.261   6.710
10666SOL     OW32896   3.876   3.347   2.436
10666SOL    HW132897   3.807   3.363   2.507
10666SOL    HW232898   3.945   3.284   2.470
10667SOL     OW32899   5.118   1.849   2.927
10667SOL    HW132900   5.133   1.821   3.022
10667SOL    HW232901   5.048   1.921   2.924
10668SOL     OW32902   3.395   1.805   5.319
10668SOL    HW132903   3.352   1.893   5.299
10668SOL    HW232904   3.425   1.762   5.234
10669SOL     OW32905   5.757   0.709   0.327
10669SOL    HW132906   5.772   0.633   0.263
10669SOL    HW232907   5.757   0.795   0.276
10670SOL     OW32908   5.148   4.102   4.345
10670SOL    HW132909   5.171   4.055   4.260
10670SOL    HW232910   5.164   4.200   4.334
10671SOL     OW32911   0.901   1.526   4.412
10671SOL    HW132912   0.964   1.483   4.347
10671SOL    HW232913   0.864   1.609   4.371
10672SOL     OW32914   6.414   4.289   1.659
10672SOL    HW132915   6.391   4.361   1.724
10672SOL    HW232916   6.329   4.247   1.625
10673SOL     OW32917   2.193   0.405   0.776
10673SOL    HW132918   2.264   0.368   0.717
10673SOL    HW232919   2.227   0.410   0.870
10674SOL     OW32920   4.004   3.333   4.654
10674SOL    HW132921   4.068   3.390   4.706
10674SOL    HW232922   3.978   3.254   4.709
10675SOL     OW32923   3.260   1.328   6.598
10675SOL    HW132924   3.190   1.314   6.668
10675SOL    HW232925   3.340   1.372   6.638
10676SOL     OW32926   1.000   5.872   4.754
10676SOL    HW132927   0.966   5.864   4.848
10676SOL    HW232928   1.027   5.967   4.736
10677SOL     OW32929   1.731   1.363   1.195
10677SOL    HW132930   1.773   1.304   1.264
10677SOL    HW232931   1.631   1.354   1.201
10678SOL     OW32932   3.910   4.999   3.796
10678SOL    HW132933   3.901   5.082   3.741
10678SOL    HW232934   4.001   4.960   3.781
10679SOL     OW32935   3.713   4.969   0.344
10679SOL    HW132936   3.757   4.949   0.431
10679SOL    HW232937   3.779   4.958   0.270
10680SOL     OW32938   3.666   1.695   4.247
10680SOL    HW132939   3.696   1.610   4.203
10680SOL    HW232940   3.566   1.699   4.248
10681SOL     OW32941   0.326   3.880   0.068
10681SOL    HW132942   0.261   3.951   0.096
10681SOL    HW232943   0.292   3.791   0.097
10682SOL     OW32944   6.220   3.215   4.824
10682SOL    HW132945   6.221   3.309   4.858
10682SOL    HW232946   6.296   3.163   4.864
10683SOL     OW32947   4.415   0.515   3.334
10683SOL    HW132948   4.460   0.476   3.413
10683SOL    HW232949   4.400   0.613   3.348
10684SOL     OW32950   4.483   5.372   1.295
10684SOL    HW132951   4.501   5.355   1.392
10684SOL    HW232952   4.416   5.446   1.286
10685SOL     OW32953   6.715   5.771   1.049
10685SOL    HW132954   6.686   5.858   1.090
10685SOL    HW232955   6.807   5.748   1.081
10686SOL     OW32956   2.732   4.489   6.111
10686SOL    HW132957   2.744   4.513   6.207
10686SOL    HW232958   2.639   4.453   6.098
10687SOL     OW32959   6.152   4.884   3.533
10687SOL    HW132960   6.162   4.844   3.442
10687SOL    HW232961   6.184   4.818   3.602
10688SOL     OW32962   5.940   1.421   2.452
10688SOL    HW132963   5.956   1.386   2.545
10688SOL    HW232964   5.852   1.467   2.448
10689SOL     OW32965   0.144   0.035   1.516
10689SOL    HW132966   0.134   0.080   1.427
10689SOL    HW232967   0.085   6.979   1.518
10690SOL     OW32968   0.153   4.870   3.557
10690SOL    HW132969   0.150   4.785   3.505
10690SOL    HW232970   0.245   4.908   3.553
10691SOL     OW32971   2.148   1.460   1.998
10691SOL    HW132972   2.183   1.449   2.091
10691SOL    HW232973   2.184   1.545   1.959
10692SOL     OW32974   3.055   0.793   4.727
10692SOL    HW132975   3.095   0.803   4.636
10692SOL    HW232976   3.104   0.852   4.792
10693SOL     OW32977   0.586   6.038   1.490
10693SOL    HW132978   0.611   6.047   1.586
10693SOL    HW232979   0.637   5.962   1.449
10694SOL     OW32980   4.947   6.672   6.312
10694SOL    HW132981   4.990   6.685   6.222
10694SOL    HW232982   4.848   6.684   6.303
10695SOL     OW32983   1.204   2.967   1.561
10695SOL    HW132984   1.157   3.053   1.581
10695SOL    HW232985   1.298   2.971   1.596
10696SOL     OW32986   6.291   3.687   5.218
10696SOL    HW132987   6.231   3.750   5.169
10696SOL    HW232988   6.308   3.722   5.310
10697SOL     OW32989   0.194   6.513   5.546
10697SOL    HW132990   0.184   6.590   5.482
10697SOL    HW232991   0.130   6.441   5.522
10698SOL     OW32992   4.510   4.312   0.405
10698SOL    HW132993   4.587   4.304   0.469
10698SOL    HW232994   4.504   4.405   0.371
10699SOL     OW32995   3.758   4.250   0.769
10699SOL    HW132996   3.816   4.187   0.821
10699SOL    HW232997   3.690   4.291   0.830
10700SOL     OW32998   5.376   6.999   0.743
10700SOL    HW132999   5.463   0.013   0.772
10700SOL    HW233000   5.303   0.041   0.755
10701SOL     OW33001   3.145   0.222   6.205
10701SOL    HW133002   3.164   0.313   6.167
10701SOL    HW233003   3.178   0.217   6.299
10702SOL     OW33004   4.973   3.827   3.018
10702SOL    HW133005   4.911   3.759   3.057
10702SOL    HW233006   5.036   3.783   2.955
10703SOL     OW33007   2.153   2.954   5.584
10703SOL    HW133008   2.162   2.948   5.484
10703SOL    HW233009   2.176   3.046   5.614
10704SOL     OW33010   0.123   4.858   2.863
10704SOL    HW133011   0.089   4.945   2.901
10704SOL    HW233012   0.195   4.822   2.922
10705SOL     OW33013   5.659   5.245   1.245
10705SOL    HW133014   5.715   5.308   1.191
10705SOL    HW233015   5.566   5.283   1.255
10706SOL     OW33016   4.436   6.666   1.346
10706SOL    HW133017   4.492   6.584   1.349
10706SOL    HW233018   4.355   6.653   1.403
10707SOL     OW33019   0.304   6.664   4.013
10707SOL    HW133020   0.249   6.740   3.980
10707SOL    HW233021   0.260   6.624   4.094
10708SOL     OW33022   4.707   1.049   1.621
10708SOL    HW133023   4.801   1.070   1.647
10708SOL    HW233024   4.694   1.067   1.524
10709SOL     OW33025   5.670   4.814   4.797
10709SOL    HW133026   5.572   4.802   4.809
10709SOL    HW233027   5.705   4.879   4.865
10710SOL     OW33028   6.035   1.069   3.955
10710SOL    HW133029   6.019   1.168   3.955
10710SOL    HW233030   6.130   1.050   3.977
10711SOL     OW33031   2.493   6.730   4.147
10711SOL    HW133032   2.396   6.726   4.170
10711SOL    HW233033   2.523   6.641   4.112
10712SOL     OW33034   3.802   0.118   2.634
10712SOL    HW133035   3.806   0.119   2.734
10712SOL    HW233036   3.706   0.125   2.605
10713SOL     OW33037   1.156   2.844   7.025
10713SOL    HW133038   1.149   2.757   0.047
10713SOL    HW233039   1.244   2.850   6.978
10714SOL     OW33040   4.211   3.477   5.252
10714SOL    HW133041   4.160   3.399   5.289
10714SOL    HW233042   4.309   3.457   5.255
10715SOL     OW33043   4.233   0.379   2.207
10715SOL    HW133044   4.287   0.305   2.248
10715SOL    HW233045   4.216   0.357   2.111
10716SOL     OW33046   5.790   2.810   3.171
10716SOL    HW133047   5.844   2.813   3.087
10716SOL    HW233048   5.845   2.848   3.246
10717SOL     OW33049   1.704   2.918   0.830
10717SOL    HW133050   1.673   2.836   0.878
10717SOL    HW233051   1.626   2.960   0.783
10718SOL     OW33052   1.208   4.112   0.085
10718SOL    HW133053   1.186   4.064   0.170
10718SOL    HW233054   1.299   4.083   0.053
10719SOL     OW33055   6.632   5.723   3.488
10719SOL    HW133056   6.681   5.802   3.452
10719SOL    HW233057   6.588   5.747   3.574
10720SOL     OW33058   6.033   5.243   4.817
10720SOL    HW133059   6.116   5.222   4.869
10720SOL    HW233060   6.043   5.332   4.772
10721SOL     OW33061   5.261   3.955   5.307
10721SOL    HW133062   5.359   3.973   5.307
10721SOL    HW233063   5.239   3.891   5.234
10722SOL     OW33064   0.252   4.754   0.820
10722SOL    HW133065   0.320   4.681   0.831
10722SOL    HW233066   0.298   4.839   0.796
10723SOL     OW33067   0.251   2.021   6.188
10723SOL    HW133068   0.279   2.114   6.168
10723SOL    HW233069   0.230   1.973   6.103
10724SOL     OW33070   6.139   6.673   6.059
10724SOL    HW133071   6.184   6.747   6.107
10724SOL    HW233072   6.206   6.622   6.005
10725SOL     OW33073   2.113   5.803   5.044
10725SOL    HW133074   2.077   5.892   5.073
10725SOL    HW233075   2.190   5.817   4.982
10726SOL     OW33076   5.868   0.985   4.143
10726SOL    HW133077   5.782   0.947   4.110
10726SOL    HW233078   5.914   1.034   4.069
10727SOL     OW33079   0.739   5.217   5.815
10727SOL    HW133080   0.808   5.236   5.885
10727SOL    HW233081   0.782   5.214   5.725
10728SOL     OW33082   1.074   5.051   6.818
10728SOL    HW133083   1.048   4.961   6.852
10728SOL    HW233084   0.992   5.101   6.788
10729SOL     OW33085   5.797   1.175   2.754
10729SOL    HW133086   5.887   1.216   2.745
10729SOL    HW233087   5.727   1.244   2.734
10730SOL     OW33088   2.661   0.301   1.461
10730SOL    HW133089   2.741   0.361   1.456
10730SOL    HW233090   2.663   0.237   1.384
10731SOL     OW33091   3.335   1.324   0.278
10731SOL    HW133092   3.272   1.306   0.353
10731SOL    HW233093   3.351   1.239   0.227
10732SOL     OW33094   0.238   4.485   5.332
10732SOL    HW133095   0.168   4.545   5.369
10732SOL    HW233096   0.316   4.540   5.301
10733SOL     OW33097   6.618   2.040   6.558
10733SOL    HW133098   6.696   2.043   6.495
10733SOL    HW233099   6.616   1.953   6.606
10734SOL     OW33100   1.068   0.925   0.507
10734SOL    HW133101   1.111   0.837   0.484
10734SOL    HW233102   1.130   0.978   0.564
10735SOL     OW33103   0.288   3.184   2.172
10735SOL    HW133104   0.325   3.270   2.137
10735SOL    HW233105   0.313   3.109   2.110
10736SOL     OW33106   1.138   0.609   3.490
10736SOL    HW133107   1.158   0.672   3.565
10736SOL    HW233108   1.045   0.574   3.499
10737SOL     OW33109   1.528   1.831   0.326
10737SOL    HW133110   1.463   1.872   0.389
10737SOL    HW233111   1.620   1.837   0.364
10738SOL     OW33112   2.928   6.696   2.996
10738SOL    HW133113   2.911   6.710   2.899
10738SOL    HW233114   2.959   6.602   3.011
10739SOL     OW33115   1.934   1.003   1.939
10739SOL    HW133116   1.855   1.063   1.926
10739SOL    HW233117   2.016   1.060   1.949
10740SOL     OW33118   0.267   5.181   5.415
10740SOL    HW133119   0.332   5.254   5.396
10740SOL    HW233120   0.206   5.170   5.336
10741SOL     OW33121   4.368   0.999   1.382
10741SOL    HW133122   4.371   1.082   1.439
10741SOL    HW233123   4.290   1.005   1.320
10742SOL     OW33124   5.565   6.951   1.256
10742SOL    HW133125   5.630   7.001   1.199
10742SOL    HW233126   5.515   6.885   1.201
10743SOL     OW33127   1.454   2.880   5.430
10743SOL    HW133128   1.382   2.938   5.467
10743SOL    HW233129   1.526   2.867   5.498
10744SOL     OW33130   3.017   1.354   0.729
10744SOL    HW133131   2.931   1.343   0.778
10744SOL    HW233132   3.039   1.451   0.721
10745SOL     OW33133   6.461   5.786   5.844
10745SOL    HW133134   6.415   5.863   5.889
10745SOL    HW233135   6.470   5.710   5.908
10746SOL     OW33136   2.210   4.754   1.250
10746SOL    HW133137   2.254   4.670   1.217
10746SOL    HW233138   2.112   4.738   1.262
10747SOL     OW33139   3.760   1.105   4.846
10747SOL    HW133140   3.858   1.111   4.865
10747SOL    HW233141   3.713   1.183   4.888
10748SOL     OW33142   5.524   1.456   0.425
10748SOL    HW133143   5.425   1.467   0.420
10748SOL    HW233144   5.550   1.428   0.518
10749SOL     OW33145   0.222   5.478   3.829
10749SOL    HW133146   0.247   5.491   3.733
10749SOL    HW233147   0.174   5.560   3.862
10750SOL     OW33148   4.590   6.135   4.999
10750SOL    HW133149   4.646   6.086   4.932
10750SOL    HW233150   4.547   6.069   5.060
10751SOL     OW33151   1.526   4.725   4.250
10751SOL    HW133152   1.590   4.735   4.173
10751SOL    HW233153   1.506   4.815   4.288
10752SOL     OW33154   6.239   4.915   5.256
10752SOL    HW133155   6.322   4.863   5.235
10752SOL    HW233156   6.168   4.851   5.287
10753SOL     OW33157   6.036   4.960   4.389
10753SOL    HW133158   6.000   4.874   4.352
10753SOL    HW233159   5.967   5.003   4.447
10754SOL     OW33160   0.534   6.734   3.626
10754SOL    HW133161   0.569   6.804   3.564
10754SOL    HW233162   0.445   6.761   3.661
10755SOL     OW33163   0.155   0.435   0.706
10755SOL    HW133164   0.215   0.478   0.638
10755SOL    HW233165   0.154   0.490   0.790
10756SOL     OW33166   6.451   5.114   6.367
10756SOL    HW133167   6.423   5.202   6.404
10756SOL    HW233168   6.438   5.113   6.268
10757SOL     OW33169   1.515   2.730   0.331
10757SOL    HW133170   1.575   2.810   0.322
10757SOL    HW233171   1.421   2.761   0.345
10758SOL     OW33172   0.733   5.734   4.161
10758SOL    HW133173   0.652   5.734   4.221
10758SOL    HW233174   0.805   5.678   4.202
10759SOL     OW33175   1.707   4.037   1.584
10759SOL    HW133176   1.703   4.084   1.672
10759SOL    HW233177   1.639   3.963   1.583
10760SOL     OW33178   5.076   0.460   2.804
10760SOL    HW133179   5.092   0.549   2.845
10760SOL    HW233180   5.020   0.404   2.866
10761SOL     OW33181   0.486   6.106   5.852
10761SOL    HW133182   0.554   6.042   5.818
10761SOL    HW233183   0.402   6.098   5.798
10762SOL     OW33184   2.988   1.377   4.351
10762SOL    HW133185   3.035   1.455   4.393
10762SOL    HW233186   3.005   1.377   4.252
10763SOL     OW33187   3.740   6.807   2.538
10763SOL    HW133188   3.760   6.728   2.480
10763SOL    HW233189   3.697   6.879   2.483
10764SOL     OW33190   5.417   2.070   5.707
10764SOL    HW133191   5.491   2.105   5.764
10764SOL    HW233192   5.357   2.145   5.679
10765SOL     OW33193   4.944   2.773   0.442
10765SOL    HW133194   4.929   2.856   0.388
10765SOL    HW233195   4.857   2.735   0.472
10766SOL     OW33196   4.054   5.058   0.671
10766SOL    HW133197   3.994   4.994   0.624
10766SOL    HW233198   4.093   5.015   0.752
10767SOL     OW33199   2.018   0.234   1.456
10767SOL    HW133200   2.058   0.207   1.368
10767SOL    HW233201   1.945   0.301   1.441
10768SOL     OW33202   4.974   5.120   1.278
10768SOL    HW133203   4.972   5.103   1.377
10768SOL    HW233204   4.906   5.064   1.233
10769SOL     OW33205   2.251   4.140   5.356
10769SOL    HW133206   2.286   4.134   5.262
10769SOL    HW233207   2.189   4.218   5.363
10770SOL     OW33208   5.038   6.453   4.270
10770SOL    HW133209   5.014   6.357   4.263
10770SOL    HW233210   5.020   6.485   4.364
10771SOL     OW33211   4.689   6.794   4.273
10771SOL    HW133212   4.762   6.738   4.234
10771SOL    HW233213   4.688   6.783   4.373
10772SOL     OW33214   6.398   0.063   4.695
10772SOL    HW133215   6.488   0.063   4.651
10772SOL    HW233216   6.327   0.045   4.627
10773SOL     OW33217   5.822   5.338   6.557
10773SOL    HW133218   5.782   5.336   6.466
10773SOL    HW233219   5.778   5.409   6.612
10774SOL     OW33220   2.118   1.488   6.198
10774SOL    HW133221   2.094   1.451   6.108
10774SOL    HW233222   2.110   1.588   6.195
10775SOL     OW33223   0.644   4.522   2.880
10775SOL    HW133224   0.685   4.482   2.962
10775SOL    HW233225   0.577   4.591   2.906
10776SOL     OW33226   0.337   0.754   6.140
10776SOL    HW133227   0.260   0.721   6.195
10776SOL    HW233228   0.301   0.810   6.064
10777SOL     OW33229   3.760   5.433   1.808
10777SOL    HW133230   3.694   5.507   1.792
10777SOL    HW233231   3.808   5.412   1.723
10778SOL     OW33232   4.765   0.195   3.578
10778SOL    HW133233   4.757   0.098   3.600
10778SOL    HW233234   4.832   0.238   3.638
10779SOL     OW33235   5.603   3.053   3.476
10779SOL    HW133236   5.609   3.078   3.380
10779SOL    HW233237   5.637   2.959   3.488
10780SOL     OW33238   1.844   0.492   4.166
10780SOL    HW133239   1.867   0.554   4.091
10780SOL    HW233240   1.762   0.525   4.213
10781SOL     OW33241   4.556   0.967   4.056
10781SOL    HW133242   4.492   0.896   4.025
10781SOL    HW233243   4.545   1.049   4.000
10782SOL     OW33244   0.187   0.639   2.989
10782SOL    HW133245   0.202   0.558   3.046
10782SOL    HW233246   0.091   0.666   2.994
10783SOL     OW33247   0.637   2.092   2.357
10783SOL    HW133248   0.659   2.018   2.420
10783SOL    HW233249   0.708   2.098   2.287
10784SOL     OW33250   4.156   0.610   4.350
10784SOL    HW133251   4.100   0.617   4.267
10784SOL    HW233252   4.185   0.515   4.362
10785SOL     OW33253   0.919   3.993   0.677
10785SOL    HW133254   0.860   4.068   0.647
10785SOL    HW233255   0.894   3.909   0.628
10786SOL     OW33256   6.362   5.205   3.072
10786SOL    HW133257   6.409   5.161   3.149
10786SOL    HW233258   6.294   5.142   3.034
10787SOL     OW33259   1.555   1.145   6.151
10787SOL    HW133260   1.636   1.197   6.125
10787SOL    HW233261   1.476   1.179   6.101
10788SOL     OW33262   1.272   4.361   0.033
10788SOL    HW133263   1.372   4.358   0.036
10788SOL    HW233264   1.235   4.269   0.044
10789SOL     OW33265   6.829   3.415   6.844
10789SOL    HW133266   6.884   3.350   6.897
10789SOL    HW233267   6.846   3.508   6.877
10790SOL     OW33268   0.698   6.672   1.882
10790SOL    HW133269   0.636   6.729   1.829
10790SOL    HW233270   0.792   6.704   1.868
10791SOL     OW33271   0.390   5.753   1.664
10791SOL    HW133272   0.367   5.850   1.674
10791SOL    HW233273   0.340   5.714   1.586
10792SOL     OW33274   3.297   2.981   4.702
10792SOL    HW133275   3.371   2.942   4.646
10792SOL    HW233276   3.317   2.966   4.799
10793SOL     OW33277   6.360   3.919   6.199
10793SOL    HW133278   6.434   3.851   6.198
10793SOL    HW233279   6.364   3.970   6.286
10794SOL     OW33280   4.065   3.746   4.220
10794SOL    HW133281   4.005   3.815   4.260
10794SOL    HW233282   4.078   3.764   4.123
10795SOL     OW33283   0.114   5.156   2.793
10795SOL    HW133284   0.188   5.220   2.777
10795SOL    HW233285   0.090   5.157   2.891
10796SOL     OW33286   6.704   7.023   5.333
10796SOL    HW133287   6.787   0.051   5.351
10796SOL    HW233288   6.675   6.978   5.418
10797SOL     OW33289   2.918   2.335   1.084
10797SOL    HW133290   2.875   2.280   1.012
10797SOL    HW233291   2.865   2.418   1.100
10798SOL     OW33292   2.306   1.079   0.720
10798SOL    HW133293   2.250   1.064   0.639
10798SOL    HW233294   2.304   0.998   0.779
10799SOL     OW33295   4.207   1.030   2.164
10799SOL    HW133296   4.224   0.997   2.256
10799SOL    HW233297   4.124   0.988   2.128
10800SOL     OW33298   1.004   6.022   5.605
10800SOL    HW133299   1.014   6.044   5.508
10800SOL    HW233300   1.069   5.951   5.630
10801SOL     OW33301   1.088   6.997   6.945
10801SOL    HW133302   1.063   6.932   7.016
10801SOL    HW233303   1.035   6.979   6.862
10802SOL     OW33304   0.667   0.447   2.337
10802SOL    HW133305   0.600   0.444   2.411
10802SOL    HW233306   0.701   0.354   2.320
10803SOL     OW33307   1.540   5.589   5.362
10803SOL    HW133308   1.603   5.592   5.440
10803SOL    HW233309   1.556   5.506   5.309
10804SOL     OW33310   6.198   3.213   2.733
10804SOL    HW133311   6.124   3.150   2.712
10804SOL    HW233312   6.187   3.248   2.826
10805SOL     OW33313   4.943   0.743   4.949
10805SOL    HW133314   4.854   0.736   4.903
10805SOL    HW233315   4.945   0.827   5.004
10806SOL     OW33316   3.522   4.061   6.237
10806SOL    HW133317   3.570   4.133   6.287
10806SOL    HW233318   3.582   4.024   6.166
10807SOL     OW33319   1.240   6.549   3.601
10807SOL    HW133320   1.290   6.603   3.669
10807SOL    HW233321   1.157   6.512   3.642
10808SOL     OW33322   6.858   2.576   5.931
10808SOL    HW133323   6.819   2.511   5.996
10808SOL    HW233324   6.955   2.590   5.952
10809SOL     OW33325   2.458   4.496   3.533
10809SOL    HW133326   2.497   4.575   3.582
10809SOL    HW233327   2.466   4.415   3.591
10810SOL     OW33328   0.297   0.009   3.987
10810SOL    HW133329   0.267   7.014   3.894
10810SOL    HW233330   0.278   0.105   4.008
10811SOL     OW33331   4.369   4.928   5.545
10811SOL    HW133332   4.330   4.942   5.636
10811SOL    HW233333   4.461   4.889   5.554
10812SOL     OW33334   6.948   3.664   6.930
10812SOL    HW133335   6.889   3.724   6.983
10812SOL    HW233336   7.023   3.717   6.890
10813SOL     OW33337   0.785   3.600   6.171
10813SOL    HW133338   0.836   3.556   6.245
10813SOL    HW233339   0.849   3.628   6.099
10814SOL     OW33340   1.988   0.003   6.635
10814SOL    HW133341   1.925   0.017   6.559
10814SOL    HW233342   2.042   0.086   6.650
10815SOL     OW33343   5.128   3.147   2.698
10815SOL    HW133344   5.092   3.055   2.711
10815SOL    HW233345   5.228   3.145   2.704
10816SOL     OW33346   3.465   3.708   2.686
10816SOL    HW133347   3.474   3.659   2.772
10816SOL    HW233348   3.371   3.700   2.652
10817SOL     OW33349   3.742   0.699   3.996
10817SOL    HW133350   3.731   0.641   4.077
10817SOL    HW233351   3.661   0.691   3.939
10818SOL     OW33352   4.627   4.554   5.705
10818SOL    HW133353   4.556   4.506   5.756
10818SOL    HW233354   4.596   4.647   5.685
10819SOL     OW33355   6.075   5.349   6.344
10819SOL    HW133356   5.995   5.342   6.404
10819SOL    HW233357   6.140   5.415   6.383
10820SOL     OW33358   0.045   5.182   4.212
10820SOL    HW133359   0.143   5.198   4.202
10820SOL    HW233360   0.016   5.113   4.146
10821SOL     OW33361   4.318   6.939   2.302
10821SOL    HW133362   4.229   6.894   2.293
10821SOL    HW233363   4.380   6.880   2.353
10822SOL     OW33364   6.487   1.663   1.955
10822SOL    HW133365   6.506   1.611   1.871
10822SOL    HW233366   6.572   1.704   1.988
10823SOL     OW33367   0.383   0.447   2.852
10823SOL    HW133368   0.478   0.465   2.874
10823SOL    HW233369   0.332   0.427   2.936
10824SOL     OW33370   0.545   0.808   2.378
10824SOL    HW133371   0.538   0.715   2.341
10824SOL    HW233372   0.506   0.873   2.313
10825SOL     OW33373   1.491   2.472   0.445
10825SOL    HW133374   1.517   2.542   0.379
10825SOL    HW233375   1.550   2.393   0.435
10826SOL     OW33376   0.651   1.598   2.498
10826SOL    HW133377   0.611   1.507   2.489
10826SOL    HW233378   0.701   1.621   2.414
10827SOL     OW33379   6.880   3.301   4.661
10827SOL    HW133380   6.978   3.295   4.644
10827SOL    HW233381   6.845   3.212   4.690
10828SOL     OW33382   0.861   4.233   0.884
10828SOL    HW133383   0.822   4.142   0.900
10828SOL    HW233384   0.924   4.255   0.958
10829SOL     OW33385   4.922   3.548   0.399
10829SOL    HW133386   4.971   3.635   0.401
10829SOL    HW233387   4.983   3.476   0.366
10830SOL     OW33388   4.598   1.886   3.259
10830SOL    HW133389   4.498   1.886   3.254
10830SOL    HW233390   4.632   1.792   3.253
10831SOL     OW33391   2.915   6.220   2.127
10831SOL    HW133392   2.861   6.249   2.049
10831SOL    HW233393   2.891   6.274   2.208
10832SOL     OW33394   6.516   3.868   6.923
10832SOL    HW133395   6.527   3.789   6.984
10832SOL    HW233396   6.576   3.857   6.844
10833SOL     OW33397   0.536   2.029   0.510
10833SOL    HW133398   0.559   2.093   0.583
10833SOL    HW233399   0.591   2.050   0.429
10834SOL     OW33400   6.781   1.641   6.691
10834SOL    HW133401   6.812   1.605   6.779
10834SOL    HW233402   6.752   1.736   6.703
10835SOL     OW33403   5.659   3.427   0.445
10835SOL    HW133404   5.597   3.410   0.521
10835SOL    HW233405   5.751   3.396   0.469
10836SOL     OW33406   0.202   0.995   2.512
10836SOL    HW133407   0.183   0.994   2.414
10836SOL    HW233408   0.208   0.901   2.545
10837SOL     OW33409   6.882   4.799   2.125
10837SOL    HW133410   6.872   4.822   2.029
10837SOL    HW233411   6.942   4.865   2.169
10838SOL     OW33412   5.669   6.639   4.104
10838SOL    HW133413   5.672   6.692   4.189
10838SOL    HW233414   5.759   6.641   4.060
10839SOL     OW33415   4.673   3.347   0.796
10839SOL    HW133416   4.760   3.396   0.789
10839SOL    HW233417   4.686   3.266   0.854
10840SOL     OW33418   3.560   6.802   2.202
10840SOL    HW133419   3.619   6.735   2.158
10840SOL    HW233420   3.615   6.877   2.237
10841SOL     OW33421   6.587   5.193   4.938
10841SOL    HW133422   6.540   5.173   4.852
10841SOL    HW233423   6.539   5.149   5.014
10842SOL     OW33424   5.052   2.183   1.334
10842SOL    HW133425   5.002   2.102   1.305
10842SOL    HW233426   5.054   2.249   1.260
10843SOL     OW33427   1.732   1.246   1.561
10843SOL    HW133428   1.767   1.191   1.485
10843SOL    HW233429   1.787   1.329   1.570
10844SOL     OW33430   6.989   4.651   3.220
10844SOL    HW133431   7.009   4.621   3.313
10844SOL    HW233432   6.890   4.659   3.207
10845SOL     OW33433   4.459   5.962   5.489
10845SOL    HW133434   4.420   5.890   5.546
10845SOL    HW233435   4.409   6.047   5.504
10846SOL     OW33436   5.324   0.416   6.952
10846SOL    HW133437   5.239   0.386   6.997
10846SOL    HW233438   5.302   0.485   6.884
10847SOL     OW33439   3.071   2.321   0.192
10847SOL    HW133440   3.054   2.419   0.207
10847SOL    HW233441   2.984   2.276   0.171
10848SOL     OW33442   0.563   3.902   0.570
10848SOL    HW133443   0.521   3.957   0.498
10848SOL    HW233444   0.649   3.863   0.537
10849SOL     OW33445   2.366   4.426   4.073
10849SOL    HW133446   2.316   4.354   4.122
10849SOL    HW233447   2.300   4.490   4.033
10850SOL     OW33448   3.451   6.334   6.792
10850SOL    HW133449   3.531   6.334   6.852
10850SOL    HW233450   3.368   6.340   6.846
10851SOL     OW33451   3.045   3.919   1.006
10851SOL    HW133452   3.094   3.944   1.089
10851SOL    HW233453   3.102   3.941   0.926
10852SOL     OW33454   1.869   1.129   6.750
10852SOL    HW133455   1.918   1.208   6.788
10852SOL    HW233456   1.931   1.050   6.747
10853SOL     OW33457   2.379   3.100   6.116
10853SOL    HW133458   2.344   3.158   6.190
10853SOL    HW233459   2.436   3.027   6.155
10854SOL     OW33460   4.545   5.268   5.421
10854SOL    HW133461   4.586   5.321   5.346
10854SOL    HW233462   4.478   5.204   5.383
10855SOL     OW33463   4.169   0.729   0.752
10855SOL    HW133464   4.185   0.677   0.836
10855SOL    HW233465   4.241   0.709   0.685
10856SOL     OW33466   6.721   1.119   6.949
10856SOL    HW133467   6.794   1.155   6.891
10856SOL    HW233468   6.692   1.189   7.014
10857SOL     OW33469   0.436   2.499   2.723
10857SOL    HW133470   0.457   2.542   2.635
10857SOL    HW233471   0.341   2.470   2.724
10858SOL     OW33472   1.042   0.077   0.536
10858SOL    HW133473   1.114   0.121   0.590
10858SOL    HW233474   0.962   0.063   0.594
10859SOL     OW33475   0.264   4.447   4.611
10859SOL    HW133476   0.332   4.389   4.655
10859SOL    HW233477   0.287   4.543   4.628
10860SOL     OW33478   0.428   2.959   4.649
10860SOL    HW133479   0.361   3.033   4.641
10860SOL    HW233480   0.472   2.963   4.738
10861SOL     OW33481   3.317   2.959   2.674
10861SOL    HW133482   3.280   2.993   2.587
10861SOL    HW233483   3.241   2.936   2.735
10862SOL     OW33484   1.694   0.860   5.196
10862SOL    HW133485   1.678   0.938   5.256
10862SOL    HW233486   1.742   0.891   5.114
10863SOL     OW33487   2.509   0.522   4.525
10863SOL    HW133488   2.561   0.575   4.592
10863SOL    HW233489   2.442   0.465   4.573
10864SOL     OW33490   3.151   6.411   0.587
10864SOL    HW133491   3.084   6.396   0.659
10864SOL    HW233492   3.109   6.397   0.497
10865SOL     OW33493   6.645   1.420   0.456
10865SOL    HW133494   6.676   1.325   0.445
10865SOL    HW233495   6.582   1.425   0.535
10866SOL     OW33496   5.498   4.839   0.659
10866SOL    HW133497   5.587   4.882   0.675
10866SOL    HW233498   5.473   4.784   0.739
10867SOL     OW33499   2.751   4.578   0.694
10867SOL    HW133500   2.776   4.572   0.598
10867SOL    HW233501   2.817   4.527   0.749
10868SOL     OW33502   5.054   1.817   3.659
10868SOL    HW133503   5.087   1.752   3.727
10868SOL    HW233504   4.978   1.870   3.696
10869NA      NA33505   6.338   3.267   5.458
10870NA      NA33506   4.578   4.572   5.111
10871NA      NA33507   1.635   2.992   1.713
10872NA      NA33508   5.021   3.879   5.379
10873NA      NA33509   4.154   2.301   5.209
10874NA      NA33510   3.676   4.842   1.733
10875NA      NA33511   6.649   5.029   6.449
10876NA      NA33512   3.097   3.571   4.868
10877NA      NA33513   4.440   6.231   6.896
10878NA      NA33514   3.850   6.361   5.434
10879NA      NA33515   6.753   5.200   2.514
10880NA      NA33516   2.462   0.255   3.332
10881NA      NA33517   4.131   5.611   1.948
10882NA      NA33518   3.940   3.606   2.436
   7.02564   7.02564   7.02564
