Generated by trjconv : CNT in water t=  70.00000
33518
    1C        C    1   2.846   2.767   4.747
    1C        C    2   2.895   2.714   4.868
    1C        C    3   2.844   2.769   4.986
    1C        C    4   2.846   2.770   4.260
    1C        C    5   2.898   2.723   4.382
    1C        C    6   2.843   2.770   4.504
    1C        C    7   3.012   2.638   4.626
    1C        C    8   2.899   2.722   4.624
    1C        C    9   3.077   2.602   4.746
    1C        C   10   3.008   2.629   4.867
    1C        C   11   3.183   2.492   4.976
    1C        C   12   3.059   2.556   4.975
    1C        C   13   2.853   2.772   3.770
    1C        C   14   2.896   2.719   3.893
    1C        C   15   2.849   2.771   4.015
    1C        C   16   3.015   2.641   4.136
    1C        C   17   2.899   2.722   4.138
    1C        C   18   3.077   2.609   4.259
    1C        C   19   3.015   2.643   4.381
    1C        C   20   3.204   2.549   4.504
    1C        C   21   3.075   2.604   4.503
    1C        C   22   3.275   2.524   4.624
    1C        C   23   3.208   2.548   4.746
    1C        C   24   3.415   2.488   4.868
    1C        C   25   3.272   2.505   4.865
    1C        C   26   3.491   2.485   4.985
    1C        C   27   2.849   2.765   3.284
    1C        C   28   2.904   2.718   3.405
    1C        C   29   2.855   2.770   3.527
    1C        C   30   3.017   2.633   3.649
    1C        C   31   2.908   2.723   3.649
    1C        C   32   3.077   2.601   3.773
    1C        C   33   3.015   2.643   3.893
    1C        C   34   3.207   2.550   4.014
    1C        C   35   3.078   2.607   4.014
    1C        C   36   3.278   2.541   4.136
    1C        C   37   3.209   2.558   4.258
    1C        C   38   3.413   2.512   4.383
    1C        C   39   3.274   2.539   4.382
    1C        C   40   3.484   2.505   4.504
    1C        C   41   3.414   2.501   4.627
    1C        C   42   3.630   2.481   4.743
    1C        C   43   3.488   2.481   4.746
    1C        C   44   3.706   2.488   4.861
    1C        C   45   3.630   2.483   4.979
    1C        C   46   2.837   2.750   2.792
    1C        C   47   2.890   2.707   2.915
    1C        C   48   2.848   2.763   3.039
    1C        C   49   3.015   2.634   3.161
    1C        C   50   2.901   2.717   3.162
    1C        C   51   3.080   2.599   3.282
    1C        C   52   3.017   2.634   3.404
    1C        C   53   3.205   2.537   3.525
    1C        C   54   3.077   2.595   3.526
    1C        C   55   3.273   2.520   3.648
    1C        C   56   3.206   2.543   3.770
    1C        C   57   3.415   2.507   3.893
    1C        C   58   3.275   2.527   3.892
    1C        C   59   3.484   2.500   4.016
    1C        C   60   3.416   2.512   4.139
    1C        C   61   3.626   2.506   4.262
    1C        C   62   3.485   2.500   4.262
    1C        C   63   3.699   2.516   4.383
    1C        C   64   3.625   2.507   4.503
    1C        C   65   3.836   2.543   4.624
    1C        C   66   3.700   2.504   4.623
    1C        C   67   3.907   2.564   4.744
    1C        C   68   3.842   2.525   4.863
    1C        C   69   4.056   2.586   4.976
    1C        C   70   3.926   2.533   4.974
    1C        C   71   2.829   2.739   2.306
    1C        C   72   2.884   2.695   2.428
    1C        C   73   2.831   2.745   2.549
    1C        C   74   3.013   2.632   2.675
    1C        C   75   2.891   2.703   2.670
    1C        C   76   3.073   2.595   2.797
    1C        C   77   3.011   2.634   2.918
    1C        C   78   3.206   2.545   3.037
    1C        C   79   3.076   2.601   3.039
    1C        C   80   3.275   2.525   3.158
    1C        C   81   3.210   2.544   3.282
    1C        C   82   3.416   2.497   3.401
    1C        C   83   3.277   2.520   3.404
    1C        C   84   3.484   2.493   3.525
    1C        C   85   3.413   2.499   3.647
    1C        C   86   3.623   2.506   3.770
    1C        C   87   3.482   2.496   3.770
    1C        C   88   3.692   2.518   3.893
    1C        C   89   3.625   2.507   4.017
    1C        C   90   3.830   2.551   4.137
    1C        C   91   3.696   2.509   4.139
    1C        C   92   3.898   2.581   4.257
    1C        C   93   3.836   2.551   4.380
    1C        C   94   4.028   2.637   4.499
    1C        C   95   3.903   2.571   4.503
    1C        C   96   4.093   2.672   4.620
    1C        C   97   4.032   2.632   4.741
    1C        C   98   4.192   2.770   4.859
    1C        C   99   4.103   2.658   4.862
    1C        C  100   4.223   2.841   4.975
    1C        C  101   2.816   2.723   2.071
    1C        C  102   2.991   2.589   2.192
    1C        C  103   2.880   2.678   2.188
    1C        C  104   3.059   2.565   2.315
    1C        C  105   2.998   2.612   2.433
    1C        C  106   3.201   2.536   2.549
    1C        C  107   3.071   2.592   2.552
    1C        C  108   3.268   2.511   2.671
    1C        C  109   3.199   2.532   2.793
    1C        C  110   3.410   2.495   2.914
    1C        C  111   3.271   2.519   2.914
    1C        C  112   3.484   2.491   3.034
    1C        C  113   3.414   2.503   3.156
    1C        C  114   3.626   2.495   3.280
    1C        C  115   3.485   2.492   3.278
    1C        C  116   3.695   2.507   3.403
    1C        C  117   3.626   2.499   3.526
    1C        C  118   3.832   2.547   3.646
    1C        C  119   3.695   2.512   3.649
    1C        C  120   3.895   2.574   3.770
    1C        C  121   3.830   2.551   3.893
    1C        C  122   4.022   2.638   4.013
    1C        C  123   3.898   2.570   4.015
    1C        C  124   4.085   2.679   4.133
    1C        C  125   4.025   2.643   4.256
    1C        C  126   4.196   2.769   4.376
    1C        C  127   4.086   2.680   4.378
    1C        C  128   4.246   2.822   4.497
    1C        C  129   4.198   2.766   4.617
    1C        C  130   4.329   2.937   4.740
    1C        C  131   4.249   2.819   4.738
    1C        C  132   4.362   3.002   4.861
    1C        C  133   4.292   2.962   4.975
    1C        C  134   3.173   2.470   2.083
    1C        C  135   3.038   2.509   2.083
    1C        C  136   3.260   2.474   2.192
    1C        C  137   3.190   2.511   2.310
    1C        C  138   3.405   2.479   2.430
    1C        C  139   3.266   2.502   2.428
    1C        C  140   3.480   2.477   2.550
    1C        C  141   3.408   2.492   2.671
    1C        C  142   3.621   2.493   2.792
    1C        C  143   3.480   2.483   2.792
    1C        C  144   3.694   2.507   2.913
    1C        C  145   3.625   2.496   3.036
    1C        C  146   3.833   2.540   3.154
    1C        C  147   3.697   2.503   3.158
    1C        C  148   3.898   2.567   3.277
    1C        C  149   3.829   2.550   3.399
    1C        C  150   4.021   2.634   3.523
    1C        C  151   3.895   2.571   3.522
    1C        C  152   4.079   2.676   3.645
    1C        C  153   4.017   2.646   3.768
    1C        C  154   4.194   2.761   3.886
    1C        C  155   4.078   2.681   3.891
    1C        C  156   4.248   2.808   4.007
    1C        C  157   4.197   2.764   4.132
    1C        C  158   4.341   2.921   4.253
    1C        C  159   4.248   2.814   4.254
    1C        C  160   4.383   2.981   4.374
    1C        C  161   4.338   2.929   4.497
    1C        C  162   4.442   3.117   4.616
    1C        C  163   4.373   2.994   4.618
    1C        C  164   4.473   3.184   4.736
    1C        C  165   4.440   3.120   4.858
    1C        C  166   4.513   3.322   4.974
    1C        C  167   4.485   3.186   4.973
    1C        C  168   3.477   2.430   2.076
    1C        C  169   3.400   2.456   2.190
    1C        C  170   3.618   2.463   2.307
    1C        C  171   3.475   2.467   2.309
    1C        C  172   3.691   2.488   2.426
    1C        C  173   3.621   2.490   2.548
    1C        C  174   3.827   2.538   2.664
    1C        C  175   3.692   2.497   2.670
    1C        C  176   3.893   2.565   2.786
    1C        C  177   3.830   2.543   2.910
    1C        C  178   4.027   2.625   3.032
    1C        C  179   3.898   2.566   3.032
    1C        C  180   4.086   2.663   3.155
    1C        C  181   4.027   2.626   3.277
    1C        C  182   4.199   2.748   3.400
    1C        C  183   4.084   2.665   3.400
    1C        C  184   4.252   2.802   3.519
    1C        C  185   4.195   2.756   3.640
    1C        C  186   4.334   2.916   3.765
    1C        C  187   4.247   2.804   3.762
    1C        C  188   4.376   2.976   3.886
    1C        C  189   4.337   2.918   4.008
    1C        C  190   4.441   3.105   4.128
    1C        C  191   4.375   2.981   4.129
    1C        C  192   4.468   3.173   4.249
    1C        C  193   4.438   3.111   4.372
    1C        C  194   4.509   3.314   4.490
    1C        C  195   4.470   3.179   4.492
    1C        C  196   4.524   3.387   4.610
    1C        C  197   4.511   3.320   4.734
    1C        C  198   4.552   3.535   4.849
    1C        C  199   4.526   3.394   4.854
    1C        C  200   4.582   3.617   4.963
    1C        C  201   3.616   2.417   2.073
    1C        C  202   3.827   2.509   2.184
    1C        C  203   3.692   2.461   2.186
    1C        C  204   3.899   2.540   2.302
    1C        C  205   3.828   2.522   2.423
    1C        C  206   4.019   2.621   2.542
    1C        C  207   3.899   2.546   2.542
    1C        C  208   4.078   2.661   2.663
    1C        C  209   4.017   2.632   2.787
    1C        C  210   4.195   2.748   2.907
    1C        C  211   4.083   2.663   2.909
    1C        C  212   4.248   2.796   3.029
    1C        C  213   4.198   2.749   3.152
    1C        C  214   4.337   2.906   3.274
    1C        C  215   4.247   2.797   3.276
    1C        C  216   4.376   2.967   3.395
    1C        C  217   4.341   2.912   3.520
    1C        C  218   4.440   3.098   3.638
    1C        C  219   4.378   2.971   3.643
    1C        C  220   4.465   3.165   3.760
    1C        C  221   4.441   3.101   3.883
    1C        C  222   4.506   3.304   3.999
    1C        C  223   4.472   3.167   4.005
    1C        C  224   4.511   3.378   4.119
    1C        C  225   4.504   3.309   4.243
    1C        C  226   4.523   3.520   4.364
    1C        C  227   4.522   3.378   4.365
    1C        C  228   4.522   3.596   4.483
    1C        C  229   4.531   3.528   4.607
    1C        C  230   4.496   3.741   4.721
    1C        C  231   4.533   3.604   4.726
    1C        C  232   4.489   3.814   4.842
    1C        C  233   4.548   3.752   4.953
    1C        C  234   4.018   2.608   2.062
    1C        C  235   3.897   2.539   2.066
    1C        C  236   4.088   2.645   2.178
    1C        C  237   4.027   2.602   2.298
    1C        C  238   4.198   2.733   2.419
    1C        C  239   4.083   2.649   2.419
    1C        C  240   4.250   2.784   2.540
    1C        C  241   4.194   2.742   2.663
    1C        C  242   4.342   2.898   2.781
    1C        C  243   4.248   2.792   2.783
    1C        C  244   4.377   2.959   2.904
    1C        C  245   4.338   2.905   3.028
    1C        C  246   4.433   3.092   3.148
    1C        C  247   4.378   2.962   3.151
    1C        C  248   4.455   3.162   3.269
    1C        C  249   4.430   3.098   3.393
    1C        C  250   4.498   3.299   3.513
    1C        C  251   4.460   3.163   3.514
    1C        C  252   4.515   3.371   3.633
    1C        C  253   4.500   3.302   3.756
    1C        C  254   4.526   3.514   3.876
    1C        C  255   4.517   3.373   3.877
    1C        C  256   4.515   3.587   3.997
    1C        C  257   4.517   3.519   4.120
    1C        C  258   4.491   3.729   4.240
    1C        C  259   4.516   3.590   4.242
    1C        C  260   4.470   3.803   4.359
    1C        C  261   4.489   3.733   4.481
    1C        C  262   4.420   3.939   4.604
    1C        C  263   4.468   3.807   4.599
    1C        C  264   4.403   4.010   4.725
    1C        C  265   4.436   3.945   4.846
    1C        C  266   4.320   4.131   4.960
    1C        C  267   4.395   4.014   4.961
    1C        C  268   4.265   2.773   2.061
    1C        C  269   4.199   2.732   2.177
    1C        C  270   4.346   2.888   2.301
    1C        C  271   4.253   2.780   2.299
    1C        C  272   4.384   2.953   2.420
    1C        C  273   4.338   2.895   2.540
    1C        C  274   4.441   3.085   2.661
    1C        C  275   4.381   2.957   2.659
    1C        C  276   4.467   3.152   2.782
    1C        C  277   4.442   3.085   2.904
    1C        C  278   4.505   3.289   3.023
    1C        C  279   4.465   3.153   3.025
    1C        C  280   4.514   3.361   3.144
    1C        C  281   4.499   3.296   3.269
    1C        C  282   4.517   3.509   3.390
    1C        C  283   4.509   3.368   3.390
    1C        C  284   4.511   3.581   3.511
    1C        C  285   4.517   3.513   3.634
    1C        C  286   4.489   3.724   3.752
    1C        C  287   4.522   3.586   3.755
    1C        C  288   4.463   3.791   3.874
    1C        C  289   4.484   3.725   3.997
    1C        C  290   4.420   3.929   4.116
    1C        C  291   4.470   3.797   4.118
    1C        C  292   4.391   3.998   4.236
    1C        C  293   4.425   3.937   4.358
    1C        C  294   4.320   4.122   4.480
    1C        C  295   4.390   3.999   4.480
    1C        C  296   4.282   4.186   4.600
    1C        C  297   4.323   4.128   4.721
    1C        C  298   4.195   4.308   4.840
    1C        C  299   4.282   4.194   4.841
    1C        C  300   4.168   4.399   4.946
    1C        C  301   4.352   2.882   2.064
    1C        C  302   4.470   3.067   2.177
    1C        C  303   4.399   2.943   2.181
    1C        C  304   4.479   3.142   2.297
    1C        C  305   4.452   3.077   2.420
    1C        C  306   4.517   3.282   2.539
    1C        C  307   4.482   3.145   2.540
    1C        C  308   4.521   3.357   2.659
    1C        C  309   4.502   3.289   2.781
    1C        C  310   4.524   3.502   2.899
    1C        C  311   4.517   3.361   2.902
    1C        C  312   4.517   3.572   3.021
    1C        C  313   4.519   3.502   3.144
    1C        C  314   4.487   3.714   3.264
    1C        C  315   4.511   3.575   3.265
    1C        C  316   4.469   3.784   3.385
    1C        C  317   4.489   3.721   3.510
    1C        C  318   4.420   3.924   3.626
    1C        C  319   4.473   3.793   3.630
    1C        C  320   4.389   3.987   3.749
    1C        C  321   4.414   3.923   3.872
    1C        C  322   4.323   4.116   3.991
    1C        C  323   4.388   3.991   3.994
    1C        C  324   4.280   4.175   4.112
    1C        C  325   4.314   4.117   4.236
    1C        C  326   4.186   4.285   4.352
    1C        C  327   4.281   4.181   4.357
    1C        C  328   4.133   4.332   4.474
    1C        C  329   4.186   4.290   4.598
    1C        C  330   4.021   4.431   4.714
    1C        C  331   4.136   4.347   4.717
    1C        C  332   3.970   4.489   4.832
    1C        C  333   4.055   4.482   4.943
    1C        C  334   4.549   3.263   2.063
    1C        C  335   4.537   3.124   2.063
    1C        C  336   4.541   3.347   2.174
    1C        C  337   4.514   3.280   2.296
    1C        C  338   4.526   3.493   2.412
    1C        C  339   4.529   3.352   2.417
    1C        C  340   4.526   3.567   2.532
    1C        C  341   4.529   3.498   2.655
    1C        C  342   4.495   3.710   2.775
    1C        C  343   4.519   3.571   2.776
    1C        C  344   4.475   3.781   2.895
    1C        C  345   4.490   3.711   3.016
    1C        C  346   4.420   3.910   3.137
    1C        C  347   4.471   3.778   3.139
    1C        C  348   4.384   3.977   3.257
    1C        C  349   4.415   3.915   3.380
    1C        C  350   4.319   4.105   3.503
    1C        C  351   4.390   3.983   3.501
    1C        C  352   4.275   4.164   3.624
    1C        C  353   4.315   4.107   3.747
    1C        C  354   4.180   4.272   3.867
    1C        C  355   4.276   4.168   3.868
    1C        C  356   4.130   4.325   3.988
    1C        C  357   4.184   4.280   4.110
    1C        C  358   4.014   4.409   4.228
    1C        C  359   4.134   4.334   4.230
    1C        C  360   3.953   4.444   4.350
    1C        C  361   4.020   4.417   4.472
    1C        C  362   3.825   4.508   4.591
    1C        C  363   3.958   4.459   4.591
    1C        C  364   3.763   4.543   4.713
    1C        C  365   3.841   4.547   4.831
    1C        C  366   3.631   4.595   4.947
    1C        C  367   3.769   4.579   4.946
    1C        C  368   4.517   3.563   2.055
    1C        C  369   4.523   3.487   2.173
    1C        C  370   4.507   3.705   2.288
    1C        C  371   4.524   3.565   2.290
    1C        C  372   4.486   3.776   2.408
    1C        C  373   4.504   3.706   2.530
    1C        C  374   4.426   3.907   2.648
    1C        C  375   4.477   3.775   2.650
    1C        C  376   4.395   3.974   2.768
    1C        C  377   4.418   3.911   2.892
    1C        C  378   4.310   4.091   3.010
    1C        C  379   4.386   3.972   3.015
    1C        C  380   4.268   4.147   3.132
    1C        C  381   4.310   4.097   3.257
    1C        C  382   4.175   4.257   3.377
    1C        C  383   4.276   4.158   3.380
    1C        C  384   4.122   4.307   3.498
    1C        C  385   4.176   4.265   3.622
    1C        C  386   4.007   4.391   3.741
    1C        C  387   4.125   4.314   3.744
    1C        C  388   3.947   4.431   3.862
    1C        C  389   4.013   4.404   3.984
    1C        C  390   3.816   4.486   4.109
    1C        C  391   3.949   4.437   4.106
    1C        C  392   3.750   4.514   4.231
    1C        C  393   3.821   4.496   4.352
    1C        C  394   3.614   4.552   4.473
    1C        C  395   3.752   4.524   4.472
    1C        C  396   3.545   4.562   4.596
    1C        C  397   3.623   4.557   4.714
    1C        C  398   3.411   4.559   4.839
    1C        C  399   3.551   4.571   4.835
    1C        C  400   3.343   4.515   4.953
    1C        C  401   4.508   3.702   2.047
    1C        C  402   4.456   3.911   2.166
    1C        C  403   4.493   3.775   2.166
    1C        C  404   4.410   3.972   2.285
    1C        C  405   4.431   3.906   2.407
    1C        C  406   4.322   4.093   2.522
    1C        C  407   4.397   3.973   2.527
    1C        C  408   4.279   4.150   2.644
    1C        C  409   4.320   4.093   2.767
    1C        C  410   4.175   4.253   2.887
    1C        C  411   4.274   4.151   2.887
    1C        C  412   4.123   4.300   3.009
    1C        C  413   4.171   4.251   3.133
    1C        C  414   4.003   4.380   3.251
    1C        C  415   4.119   4.299   3.255
    1C        C  416   3.941   4.414   3.373
    1C        C  417   4.002   4.381   3.496
    1C        C  418   3.812   4.473   3.620
    1C        C  419   3.944   4.423   3.618
    1C        C  420   3.744   4.495   3.742
    1C        C  421   3.814   4.480   3.863
    1C        C  422   3.613   4.538   3.985
    1C        C  423   3.750   4.506   3.986
    1C        C  424   3.541   4.543   4.107
    1C        C  425   3.612   4.542   4.229
    1C        C  426   3.401   4.548   4.355
    1C        C  427   3.542   4.551   4.351
    1C        C  428   3.331   4.546   4.478
    1C        C  429   3.404   4.557   4.599
    1C        C  430   3.196   4.517   4.723
    1C        C  431   3.334   4.549   4.721
    1C        C  432   3.124   4.496   4.844
    1C        C  433   3.206   4.491   4.958
    1C        C  434   4.386   4.121   2.049
    1C        C  435   4.455   3.999   2.057
    1C        C  436   4.302   4.158   2.159
    1C        C  437   4.331   4.091   2.281
    1C        C  438   4.178   4.246   2.398
    1C        C  439   4.281   4.149   2.399
    1C        C  440   4.124   4.294   2.520
    1C        C  441   4.181   4.252   2.642
    1C        C  442   4.006   4.375   2.767
    1C        C  443   4.122   4.295   2.763
    1C        C  444   3.941   4.411   2.887
    1C        C  445   4.008   4.381   3.008
    1C        C  446   3.810   4.465   3.128
    1C        C  447   3.941   4.414   3.128
    1C        C  448   3.745   4.494   3.250
    1C        C  449   3.813   4.472   3.373
    1C        C  450   3.611   4.528   3.496
    1C        C  451   3.748   4.497   3.496
    1C        C  452   3.538   4.537   3.617
    1C        C  453   3.607   4.530   3.740
    1C        C  454   3.399   4.544   3.864
    1C        C  455   3.540   4.544   3.864
    1C        C  456   3.330   4.531   3.986
    1C        C  457   3.400   4.533   4.109
    1C        C  458   3.196   4.495   4.238
    1C        C  459   3.332   4.530   4.233
    1C        C  460   3.126   4.483   4.360
    1C        C  461   3.195   4.510   4.480
    1C        C  462   2.995   4.438   4.604
    1C        C  463   3.127   4.489   4.603
    1C        C  464   2.929   4.405   4.724
    1C        C  465   2.992   4.440   4.846
    1C        C  466   2.803   4.335   4.957
    1C        C  467   2.905   4.431   4.959
    1C        C  468   4.123   4.283   2.039
    1C        C  469   4.189   4.247   2.157
    1C        C  470   4.006   4.369   2.277
    1C        C  471   4.126   4.293   2.276
    1C        C  472   3.939   4.394   2.398
    1C        C  473   4.002   4.365   2.521
    1C        C  474   3.814   4.461   2.642
    1C        C  475   3.944   4.405   2.643
    1C        C  476   3.747   4.493   2.761
    1C        C  477   3.814   4.472   2.884
    1C        C  478   3.605   4.517   3.008
    1C        C  479   3.743   4.488   3.005
    1C        C  480   3.534   4.528   3.130
    1C        C  481   3.607   4.523   3.250
    1C        C  482   3.399   4.530   3.375
    1C        C  483   3.540   4.536   3.374
    1C        C  484   3.328   4.523   3.496
    1C        C  485   3.397   4.539   3.618
    1C        C  486   3.193   4.499   3.746
    1C        C  487   3.328   4.539   3.742
    1C        C  488   3.127   4.476   3.869
    1C        C  489   3.194   4.494   3.992
    1C        C  490   3.001   4.413   4.115
    1C        C  491   3.128   4.474   4.116
    1C        C  492   2.939   4.384   4.238
    1C        C  493   2.997   4.426   4.360
    1C        C  494   2.829   4.301   4.484
    1C        C  495   2.936   4.393   4.484
    1C        C  496   2.770   4.257   4.605
    1C        C  497   2.820   4.314   4.724
    1C        C  498   2.659   4.167   4.841
    1C        C  499   2.758   4.268   4.843
    1C        C  500   2.595   4.119   4.956
    1C        C  501   4.003   4.353   2.038
    1C        C  502   3.815   4.462   2.158
    1C        C  503   3.941   4.399   2.155
    1C        C  504   3.742   4.479   2.278
    1C        C  505   3.808   4.448   2.399
    1C        C  506   3.606   4.509   2.519
    1C        C  507   3.743   4.477   2.521
    1C        C  508   3.535   4.522   2.641
    1C        C  509   3.607   4.517   2.763
    1C        C  510   3.396   4.521   2.887
    1C        C  511   3.537   4.528   2.885
    1C        C  512   3.323   4.515   3.008
    1C        C  513   3.393   4.530   3.130
    1C        C  514   3.187   4.494   3.256
    1C        C  515   3.325   4.522   3.254
    1C        C  516   3.121   4.472   3.380
    1C        C  517   3.190   4.492   3.502
    1C        C  518   2.998   4.408   3.625
    1C        C  519   3.125   4.471   3.625
    1C        C  520   2.939   4.372   3.748
    1C        C  521   3.002   4.409   3.869
    1C        C  522   2.836   4.279   3.993
    1C        C  523   2.945   4.370   3.992
    1C        C  524   2.790   4.233   4.118
    1C        C  525   2.835   4.289   4.239
    1C        C  526   2.698   4.134   4.363
    1C        C  527   2.778   4.250   4.363
    1C        C  528   2.654   4.076   4.484
    1C        C  529   2.687   4.142   4.605
    1C        C  530   2.583   3.958   4.731
    1C        C  531   2.635   4.091   4.725
    1C        C  532   2.542   3.901   4.855
    1C        C  533   2.530   3.995   4.962
    1C        C  534   3.616   4.554   2.037
    1C        C  535   3.749   4.511   2.044
    1C        C  536   3.534   4.535   2.153
    1C        C  537   3.602   4.503   2.273
    1C        C  538   3.394   4.522   2.401
    1C        C  539   3.535   4.518   2.397
    1C        C  540   3.322   4.513   2.521
    1C        C  541   3.394   4.517   2.643
    1C        C  542   3.188   4.478   2.766
    1C        C  543   3.324   4.513   2.766
    1C        C  544   3.120   4.462   2.889
    1C        C  545   3.186   4.481   3.013
    1C        C  546   2.991   4.405   3.137
    1C        C  547   3.119   4.467   3.136
    1C        C  548   2.934   4.370   3.260
    1C        C  549   2.997   4.405   3.382
    1C        C  550   2.828   4.277   3.504
    1C        C  551   2.939   4.366   3.504
    1C        C  552   2.776   4.231   3.627
    1C        C  553   2.830   4.283   3.746
    1C        C  554   2.696   4.122   3.876
    1C        C  555   2.784   4.232   3.870
    1C        C  556   2.656   4.064   3.998
    1C        C  557   2.699   4.125   4.118
    1C        C  558   2.597   3.944   4.247
    1C        C  559   2.660   4.070   4.243
    1C        C  560   2.569   3.881   4.370
    1C        C  561   2.592   3.949   4.492
    1C        C  562   2.529   3.746   4.614
    1C        C  563   2.564   3.883   4.613
    1C        C  564   2.516   3.681   4.738
    1C        C  565   2.520   3.760   4.856
    1C        C  566   2.531   3.549   4.975
    1C        C  567   2.529   3.688   4.976
    1C        C  568   3.332   4.474   2.039
    1C        C  569   3.393   4.518   2.157
    1C        C  570   3.183   4.480   2.281
    1C        C  571   3.322   4.511   2.280
    1C        C  572   3.116   4.457   2.403
    1C        C  573   3.184   4.482   2.525
    1C        C  574   2.989   4.398   2.649
    1C        C  575   3.115   4.463   2.646
    1C        C  576   2.932   4.360   2.772
    1C        C  577   2.993   4.400   2.892
    1C        C  578   2.825   4.273   3.016
    1C        C  579   2.932   4.365   3.015
    1C        C  580   2.779   4.221   3.139
    1C        C  581   2.831   4.272   3.260
    1C        C  582   2.695   4.111   3.385
    1C        C  583   2.783   4.221   3.382
    1C        C  584   2.655   4.058   3.510
    1C        C  585   2.686   4.122   3.631
    1C        C  586   2.592   3.935   3.757
    1C        C  587   2.651   4.064   3.755
    1C        C  588   2.564   3.872   3.880
    1C        C  589   2.592   3.938   4.002
    1C        C  590   2.536   3.738   4.130
    1C        C  591   2.571   3.875   4.127
    1C        C  592   2.527   3.669   4.253
    1C        C  593   2.535   3.744   4.372
    1C        C  594   2.517   3.531   4.497
    1C        C  595   2.521   3.673   4.493
    1C        C  596   2.520   3.463   4.621
    1C        C  597   2.515   3.538   4.740
    1C        C  598   2.535   3.326   4.866
    1C        C  599   2.527   3.467   4.861
    1C        C  600   2.534   3.247   4.982
    1C        C  601   3.198   4.441   2.045
    1C        C  602   2.984   4.394   2.159
    1C        C  603   3.118   4.447   2.159
    1C        C  604   2.927   4.358   2.284
    1C        C  605   2.989   4.397   2.405
    1C        C  606   2.816   4.275   2.529
    1C        C  607   2.929   4.360   2.527
    1C        C  608   2.770   4.223   2.652
    1C        C  609   2.821   4.272   2.774
    1C        C  610   2.685   4.108   2.895
    1C        C  611   2.775   4.217   2.896
    1C        C  612   2.644   4.055   3.020
    1C        C  613   2.684   4.116   3.141
    1C        C  614   2.588   3.928   3.266
    1C        C  615   2.650   4.055   3.263
    1C        C  616   2.564   3.866   3.391
    1C        C  617   2.591   3.932   3.514
    1C        C  618   2.528   3.731   3.638
    1C        C  619   2.568   3.866   3.637
    1C        C  620   2.517   3.662   3.761
    1C        C  621   2.527   3.736   3.882
    1C        C  622   2.516   3.529   4.010
    1C        C  623   2.522   3.670   4.007
    1C        C  624   2.511   3.456   4.131
    1C        C  625   2.517   3.528   4.253
    1C        C  626   2.534   3.319   4.380
    1C        C  627   2.516   3.459   4.376
    1C        C  628   2.557   3.251   4.502
    1C        C  629   2.540   3.323   4.622
    1C        C  630   2.600   3.120   4.744
    1C        C  631   2.556   3.255   4.745
    1C        C  632   2.621   3.048   4.865
    1C        C  633   2.569   3.112   4.983
    1C        C  634   2.783   4.305   2.051
    1C        C  635   2.890   4.396   2.052
    1C        C  636   2.753   4.232   2.167
    1C        C  637   2.813   4.273   2.287
    1C        C  638   2.678   4.109   2.407
    1C        C  639   2.764   4.221   2.409
    1C        C  640   2.645   4.047   2.529
    1C        C  641   2.687   4.108   2.650
    1C        C  642   2.590   3.920   2.777
    1C        C  643   2.650   4.048   2.772
    1C        C  644   2.559   3.859   2.900
    1C        C  645   2.587   3.926   3.021
    1C        C  646   2.520   3.727   3.148
    1C        C  647   2.561   3.862   3.144
    1C        C  648   2.513   3.658   3.272
    1C        C  649   2.526   3.730   3.393
    1C        C  650   2.516   3.520   3.519
    1C        C  651   2.514   3.662   3.515
    1C        C  652   2.522   3.451   3.642
    1C        C  653   2.512   3.521   3.765
    1C        C  654   2.537   3.316   3.888
    1C        C  655   2.515   3.455   3.890
    1C        C  656   2.557   3.249   4.011
    1C        C  657   2.537   3.317   4.133
    1C        C  658   2.608   3.121   4.258
    1C        C  659   2.556   3.252   4.258
    1C        C  660   2.638   3.056   4.380
    1C        C  661   2.604   3.118   4.502
    1C        C  662   2.712   2.937   4.625
    1C        C  663   2.631   3.052   4.625
    1C        C  664   2.752   2.874   4.746
    1C        C  665   2.702   2.930   4.866
    1C        C  666   2.750   2.871   4.984
    1C        C  667   2.683   4.028   2.053
    1C        C  668   2.684   4.108   2.167
    1C        C  669   2.584   3.916   2.288
    1C        C  670   2.640   4.046   2.286
    1C        C  671   2.560   3.853   2.413
    1C        C  672   2.584   3.920   2.535
    1C        C  673   2.519   3.718   2.659
    1C        C  674   2.556   3.854   2.657
    1C        C  675   2.509   3.651   2.783
    1C        C  676   2.518   3.724   2.903
    1C        C  677   2.503   3.515   3.029
    1C        C  678   2.506   3.656   3.027
    1C        C  679   2.509   3.444   3.151
    1C        C  680   2.508   3.517   3.271
    1C        C  681   2.534   3.311   3.399
    1C        C  682   2.512   3.451   3.396
    1C        C  683   2.558   3.243   3.520
    1C        C  684   2.542   3.312   3.643
    1C        C  685   2.605   3.114   3.771
    1C        C  686   2.553   3.245   3.767
    1C        C  687   2.641   3.051   3.892
    1C        C  688   2.607   3.117   4.012
    1C        C  689   2.712   2.936   4.138
    1C        C  690   2.637   3.056   4.136
    1C        C  691   2.760   2.882   4.259
    1C        C  692   2.716   2.938   4.381
    1C        C  693   2.752   2.878   4.503
    1C        C  694   2.628   3.899   2.055
    1C        C  695   2.522   3.709   2.175
    1C        C  696   2.571   3.841   2.169
    1C        C  697   2.503   3.643   2.298
    1C        C  698   2.521   3.718   2.417
    1C        C  699   2.486   3.507   2.542
    1C        C  700   2.502   3.647   2.538
    1C        C  701   2.501   3.436   2.663
    1C        C  702   2.501   3.509   2.784
    1C        C  703   2.530   3.303   2.909
    1C        C  704   2.505   3.442   2.908
    1C        C  705   2.551   3.236   3.031
    1C        C  706   2.537   3.305   3.153
    1C        C  707   2.601   3.108   3.279
    1C        C  708   2.550   3.240   3.278
    1C        C  709   2.640   3.049   3.402
    1C        C  710   2.609   3.111   3.525
    1C        C  711   2.713   2.931   3.646
    1C        C  712   2.634   3.049   3.649
    1C        C  713   2.762   2.880   3.768
    1C        C  714   2.722   2.935   3.892
    1C        C  715   2.755   2.877   4.016
    1C        C  716   2.452   3.501   2.063
    1C        C  717   2.491   3.636   2.059
    1C        C  718   2.468   3.424   2.182
    1C        C  719   2.482   3.503   2.300
    1C        C  720   2.518   3.293   2.425
    1C        C  721   2.492   3.432   2.422
    1C        C  722   2.537   3.223   2.546
    1C        C  723   2.527   3.297   2.666
    1C        C  724   2.601   3.100   2.790
    1C        C  725   2.546   3.230   2.789
    1C        C  726   2.634   3.036   2.912
    1C        C  727   2.603   3.104   3.031
    1C        C  728   2.712   2.929   3.161
    1C        C  729   2.636   3.048   3.156
    1C        C  730   2.755   2.871   3.282
    1C        C  731   2.715   2.929   3.404
    1C        C  732   2.755   2.869   3.526
    1C        C  733   2.490   3.199   2.071
    1C        C  734   2.493   3.283   2.183
    1C        C  735   2.585   3.088   2.304
    1C        C  736   2.531   3.220   2.305
    1C        C  737   2.611   3.021   2.425
    1C        C  738   2.587   3.091   2.546
    1C        C  739   2.701   2.913   2.670
    1C        C  740   2.626   3.033   2.668
    1C        C  741   2.745   2.857   2.792
    1C        C  742   2.708   2.916   2.916
    1C        C  743   2.758   2.871   3.040
    1C        C  744   2.542   3.070   2.073
    1C        C  745   2.685   2.897   2.185
    1C        C  746   2.605   3.014   2.185
    1C        C  747   2.734   2.846   2.307
    1C        C  748   2.691   2.905   2.428
    1C        C  749   2.734   2.848   2.549
    1C        C  750   2.734   2.835   2.069
    1C        C  751   3.668   2.307   1.989
    1C        O  752   3.710   2.196   2.030
    1C        O  753   3.671   2.315   1.849
    1C        C  754   4.638   3.053   1.982
    1C        O  755   4.623   3.032   1.858
    1C        O  756   4.755   3.007   2.043
    1C        C  757   4.435   4.217   1.949
    1C        O  758   4.552   4.264   1.956
    1C        O  759   4.404   4.180   1.817
    1C        C  760   3.594   4.671   1.948
    1C        O  761   3.628   4.783   1.995
    1C        O  762   3.608   4.658   1.809
    1C        C  763   2.863   4.522   1.979
    1C        O  764   2.893   4.546   1.859
    1C        O  765   2.762   4.609   2.021
    1C        C  766   2.336   3.492   1.972
    1C        O  767   2.350   3.468   1.849
    1C        O  768   2.201   3.520   2.000
    1C        C  769   4.714   3.599   5.027
    1C        O  770   4.709   3.625   5.150
    1C        O  771   4.835   3.643   4.973
    1C        C  772   4.281   4.453   5.025
    1C        O  773   4.288   4.431   5.148
    1C        O  774   4.383   4.531   4.969
    1C        C  775   4.152   2.534   5.077
    1C        O  776   4.201   2.418   5.073
    1C        O  777   4.146   2.591   5.205
    1C        C  778   2.868   4.545   5.046
    1C        O  779   2.756   4.599   5.026
    1C        O  780   2.907   4.550   5.180
    1C        C  781   2.480   3.038   5.075
    1C        O  782   2.360   3.017   5.041
    1C        O  783   2.501   3.042   5.212
    1C        C  784   2.422   3.998   5.064
    1C        O  785   2.328   4.080   5.055
    1C        O  786   2.454   3.946   5.190
    1C        C  787   2.952   2.416   2.005
    1C        O  788   2.967   2.399   1.881
    1C        O  789   2.883   2.311   2.064
    1C        C  790   3.180   2.361   5.046
    1C        O  791   3.108   2.267   5.003
    1C        O  792   3.202   2.354   5.184
    1C        H  793   4.253   3.033   5.046
    1C        H  794   4.181   2.812   5.069
    1C        H  795   4.479   3.134   5.067
    1C        H  796   4.515   3.370   5.069
    1C        H  797   4.582   3.820   5.028
    1C        H  798   4.410   3.964   5.055
    1C        H  799   4.338   4.189   5.048
    1C        H  800   4.056   4.573   5.000
    1C        H  801   3.825   4.614   5.031
    1C        H  802   3.584   4.627   5.038
    1C        H  803   3.399   4.477   5.036
    1C        H  804   3.164   4.476   5.055
    1C        H  805   3.894   2.474   5.058
    1C        H  806   3.670   2.409   5.045
    1C        H  807   3.015   2.561   5.073
    1C        H  808   3.443   2.480   5.081
    1C        H  809   2.892   2.750   5.080
    1C        H  810   2.697   2.887   5.076
    1C        H  811   2.491   3.289   5.070
    1C        H  812   2.562   3.503   5.066
    1C        H  813   2.581   3.737   5.056
    1C        H  814   2.614   4.172   5.047
    1C        H  815   2.749   4.332   5.049
    1C        H  816   2.674   2.843   1.981
    1C        H  817   2.837   2.674   1.978
    1C        H  818   3.192   2.390   2.014
    1C        H  819   3.424   2.379   1.998
    1C        H  820   3.872   2.490   1.974
    1C        H  821   4.044   2.640   1.963
    1C        H  822   4.298   2.695   1.995
    1C        H  823   4.345   2.946   1.978
    1C        H  824   4.539   3.306   1.965
    1C        H  825   4.496   3.510   1.964
    1C        H  826   4.557   3.746   1.963
    1C        H  827   3.805   4.506   1.953
    1C        H  828   4.001   4.427   1.961
    1C        H  829   4.163   4.251   1.944
    1C        H  830   4.501   3.967   1.965
    1C        H  831   2.683   3.830   1.993
    1C        H  832   2.754   4.044   1.975
    1C        H  833   2.728   4.280   1.963
    1C        H  834   3.361   4.517   1.946
    1C        H  835   3.147   4.410   1.956
    1C        H  836   2.529   3.009   1.987
    1C        H  837   2.421   3.233   1.997
    1C        H  838   2.540   3.665   1.969
    2V3OU   H29  839   2.806   3.545   1.120
    2V3OU   C27  840   2.780   3.508   1.223
    2V3OU   H27  841   2.726   3.575   1.295
    2V3OU   H28  842   2.729   3.409   1.213
    2V3OU   O11  843   2.905   3.482   1.288
    2V3OU   C15  844   2.921   3.393   1.393
    2V3OU   C13  845   3.052   3.371   1.441
    2V3OU   C14  846   3.074   3.266   1.531
    2V3OU   C16  847   2.970   3.181   1.564
    2V3OU    H6  848   2.990   3.102   1.638
    2V3OU   C12  849   3.211   3.233   1.576
    2V3OU    O2  850   3.238   3.119   1.620
    2V3OU   C10  851   3.326   3.308   1.521
    2V3OU    C8  852   3.457   3.268   1.545
    2V3OU   O10  853   3.486   3.143   1.591
    2V3OU   H26  854   3.399   3.105   1.611
    2V3OU    C6  855   3.564   3.349   1.497
    2V3OU    C5  856   3.537   3.467   1.429
    2V3OU    C4  857   3.702   3.295   1.506
    2V3OU    H4  858   3.724   3.226   1.593
    2V3OU    H5  859   3.710   3.226   1.416
    2V3OU    C2  860   3.814   3.398   1.495
    2V3OU    O6  861   3.811   3.475   1.615
    2V3OU   H21  862   3.767   3.555   1.582
    2V3OU    C3  863   3.785   3.494   1.379
    2V3OU    H2  864   3.863   3.574   1.376
    2V3OU    H3  865   3.783   3.439   1.281
    2V3OU   C25  866   3.947   3.324   1.485
    2V3OU    O7  867   3.996   3.299   1.375
    2V3OU   C26  868   4.033   3.287   1.606
    2V3OU   H22  869   4.061   3.383   1.655
    2V3OU   H23  870   4.124   3.232   1.570
    2V3OU    O8  871   3.959   3.205   1.694
    2V3OU   H24  872   3.927   3.257   1.770
    2V3OU    C1  873   3.650   3.561   1.399
    2V3OU    H1  874   3.626   3.618   1.305
    2V3OU    O3  875   3.664   3.654   1.507
    2V3OU   C19  876   3.619   3.789   1.498
    2V3OU    H9  877   3.524   3.799   1.437
    2V3OU    O4  878   3.713   3.844   1.408
    2V3OU   C20  879   3.844   3.872   1.457
    2V3OU   H10  880   3.899   3.774   1.474
    2V3OU   C24  881   3.608   3.853   1.636
    2V3OU   H16  882   3.537   3.791   1.697
    2V3OU   H17  883   3.560   3.953   1.619
    2V3OU   C23  884   3.749   3.875   1.691
    2V3OU   H15  885   3.795   3.772   1.703
    2V3OU    N1  886   3.733   3.947   1.816
    2V3OU   H19  887   3.805   3.914   1.877
    2V3OU   H20  888   3.645   3.928   1.860
    2V3OU   C21  889   3.847   3.945   1.591
    2V3OU   H11  890   3.952   3.931   1.630
    2V3OU    O5  891   3.825   4.086   1.584
    2V3OU   H18  892   3.776   4.110   1.665
    2V3OU   C22  893   3.914   3.950   1.347
    2V3OU   H12  894   3.861   4.047   1.328
    2V3OU   H13  895   3.901   3.898   1.249
    2V3OU   H14  896   4.023   3.962   1.372
    2V3OU   C11  897   3.159   3.470   1.422
    2V3OU    O1  898   3.135   3.583   1.374
    2V3OU    C9  899   3.298   3.427   1.450
    2V3OU    C7  900   3.402   3.506   1.403
    2V3OU    O9  901   3.388   3.615   1.320
    2V3OU   H25  902   3.292   3.627   1.310
    2V3OU   C17  903   2.817   3.309   1.436
    2V3OU    H7  904   2.717   3.344   1.411
    2V3OU   C18  905   2.839   3.202   1.522
    2V3OU    H8  906   2.750   3.149   1.561
    3SOL     OW  907   1.222   3.053   0.804
    3SOL    HW1  908   1.186   3.127   0.860
    3SOL    HW2  909   1.274   3.091   0.727
    4SOL     OW  910   5.697   0.415   1.678
    4SOL    HW1  911   5.670   0.490   1.739
    4SOL    HW2  912   5.633   0.410   1.602
    5SOL     OW  913   3.479   2.678   1.337
    5SOL    HW1  914   3.447   2.619   1.411
    5SOL    HW2  915   3.442   2.770   1.349
    6SOL     OW  916   2.909   1.980   1.343
    6SOL    HW1  917   2.878   1.915   1.273
    6SOL    HW2  918   2.861   2.067   1.331
    7SOL     OW  919   6.010   1.284   1.824
    7SOL    HW1  920   5.921   1.287   1.778
    7SOL    HW2  921   6.065   1.209   1.787
    8SOL     OW  922   2.280   1.218   4.639
    8SOL    HW1  923   2.312   1.295   4.693
    8SOL    HW2  924   2.305   1.232   4.543
    9SOL     OW  925   1.375   3.647   5.800
    9SOL    HW1  926   1.279   3.659   5.772
    9SOL    HW2  927   1.416   3.573   5.746
   10SOL     OW  928   0.516   3.918   0.050
   10SOL    HW1  929   0.577   3.885   7.000
   10SOL    HW2  930   0.570   3.969   0.118
   11SOL     OW  931   3.952   6.800   0.058
   11SOL    HW1  932   3.921   6.711   0.025
   11SOL    HW2  933   3.875   6.850   0.098
   12SOL     OW  934   5.657   6.341   2.535
   12SOL    HW1  935   5.671   6.348   2.634
   12SOL    HW2  936   5.746   6.331   2.490
   13SOL     OW  937   2.295   6.577   3.649
   13SOL    HW1  938   2.211   6.522   3.644
   13SOL    HW2  939   2.274   6.671   3.623
   14SOL     OW  940   3.165   6.221   1.227
   14SOL    HW1  941   3.105   6.283   1.175
   14SOL    HW2  942   3.160   6.130   1.187
   15SOL     OW  943   1.653   5.781   6.549
   15SOL    HW1  944   1.692   5.858   6.600
   15SOL    HW2  945   1.580   5.815   6.489
   16SOL     OW  946   6.495   1.856   6.052
   16SOL    HW1  947   6.482   1.951   6.081
   16SOL    HW2  948   6.456   1.843   5.961
   17SOL     OW  949   5.287   6.676   4.338
   17SOL    HW1  950   5.292   6.617   4.418
   17SOL    HW2  951   5.193   6.677   4.303
   18SOL     OW  952   1.476   1.305   6.650
   18SOL    HW1  953   1.383   1.312   6.615
   18SOL    HW2  954   1.520   1.395   6.644
   19SOL     OW  955   0.625   0.136   1.926
   19SOL    HW1  956   0.701   0.110   1.866
   19SOL    HW2  957   0.539   0.125   1.877
   20SOL     OW  958   3.104   1.766   4.353
   20SOL    HW1  959   3.032   1.802   4.294
   20SOL    HW2  960   3.162   1.841   4.384
   21SOL     OW  961   3.085   2.836   0.869
   21SOL    HW1  962   3.031   2.897   0.926
   21SOL    HW2  963   3.027   2.793   0.800
   22SOL     OW  964   1.123   0.191   6.019
   22SOL    HW1  965   1.180   0.247   5.959
   22SOL    HW2  966   1.116   0.099   5.981
   23SOL     OW  967   3.584   6.506   4.506
   23SOL    HW1  968   3.556   6.459   4.422
   23SOL    HW2  969   3.661   6.458   4.548
   24SOL     OW  970   4.146   1.404   4.693
   24SOL    HW1  971   4.213   1.391   4.620
   24SOL    HW2  972   4.063   1.352   4.672
   25SOL     OW  973   3.639   5.643   0.843
   25SOL    HW1  974   3.578   5.569   0.869
   25SOL    HW2  975   3.641   5.711   0.917
   26SOL     OW  976   6.520   1.702   2.514
   26SOL    HW1  977   6.457   1.631   2.544
   26SOL    HW2  978   6.494   1.789   2.558
   27SOL     OW  979   6.184   6.416   2.362
   27SOL    HW1  980   6.273   6.446   2.327
   27SOL    HW2  981   6.119   6.491   2.354
   28SOL     OW  982   3.386   0.491   6.867
   28SOL    HW1  983   3.387   0.449   6.958
   28SOL    HW2  984   3.469   0.465   6.818
   29SOL     OW  985   4.311   2.227   1.831
   29SOL    HW1  986   4.327   2.261   1.924
   29SOL    HW2  987   4.357   2.287   1.766
   30SOL     OW  988   3.676   0.513   4.440
   30SOL    HW1  989   3.696   0.500   4.537
   30SOL    HW2  990   3.577   0.525   4.427
   31SOL     OW  991   6.992   0.774   5.625
   31SOL    HW1  992   6.982   0.842   5.553
   31SOL    HW2  993   0.062   0.778   5.663
   32SOL     OW  994   0.350   1.711   1.585
   32SOL    HW1  995   0.272   1.678   1.639
   32SOL    HW2  996   0.401   1.632   1.549
   33SOL     OW  997   1.736   2.197   5.763
   33SOL    HW1  998   1.835   2.192   5.781
   33SOL    HW2  999   1.690   2.237   5.842
   34SOL     OW 1000   1.304   0.536   4.849
   34SOL    HW1 1001   1.260   0.482   4.778
   34SOL    HW2 1002   1.264   0.513   4.938
   35SOL     OW 1003   3.974   1.456   6.395
   35SOL    HW1 1004   4.036   1.406   6.334
   35SOL    HW2 1005   3.977   1.553   6.374
   36SOL     OW 1006   1.552   1.942   5.873
   36SOL    HW1 1007   1.607   2.024   5.859
   36SOL    HW2 1008   1.498   1.952   5.957
   37SOL     OW 1009   2.873   6.772   1.761
   37SOL    HW1 1010   2.798   6.713   1.792
   37SOL    HW2 1011   2.932   6.794   1.839
   38SOL     OW 1012   0.105   6.275   3.003
   38SOL    HW1 1013   0.131   6.222   2.922
   38SOL    HW2 1014   0.065   6.362   2.974
   39SOL     OW 1015   0.003   3.403   5.210
   39SOL    HW1 1016   6.938   3.381   5.166
   39SOL    HW2 1017   0.038   3.488   5.171
   40SOL     OW 1018   6.909   0.651   1.402
   40SOL    HW1 1019   6.992   0.606   1.436
   40SOL    HW2 1020   6.830   0.593   1.420
   41SOL     OW 1021   1.139   6.740   5.594
   41SOL    HW1 1022   1.219   6.690   5.628
   41SOL    HW2 1023   1.153   6.838   5.607
   42SOL     OW 1024   3.450   0.695   0.086
   42SOL    HW1 1025   3.451   0.704   0.185
   42SOL    HW2 1026   3.441   0.598   0.062
   43SOL     OW 1027   5.356   5.555   5.110
   43SOL    HW1 1028   5.353   5.469   5.059
   43SOL    HW2 1029   5.311   5.543   5.199
   44SOL     OW 1030   0.656   3.001   6.369
   44SOL    HW1 1031   0.678   3.079   6.428
   44SOL    HW2 1032   0.664   3.029   6.273
   45SOL     OW 1033   2.779   0.462   2.116
   45SOL    HW1 1034   2.867   0.502   2.090
   45SOL    HW2 1035   2.773   0.368   2.081
   46SOL     OW 1036   1.791   4.152   4.115
   46SOL    HW1 1037   1.752   4.105   4.194
   46SOL    HW2 1038   1.743   4.240   4.102
   47SOL     OW 1039   6.399   4.714   3.276
   47SOL    HW1 1040   6.398   4.773   3.356
   47SOL    HW2 1041   6.348   4.757   3.202
   48SOL     OW 1042   0.672   2.778   5.599
   48SOL    HW1 1043   0.723   2.830   5.668
   48SOL    HW2 1044   0.625   2.702   5.643
   49SOL     OW 1045   4.901   2.178   0.776
   49SOL    HW1 1046   4.876   2.165   0.871
   49SOL    HW2 1047   4.832   2.234   0.730
   50SOL     OW 1048   6.861   3.950   4.412
   50SOL    HW1 1049   6.953   3.987   4.419
   50SOL    HW2 1050   6.795   4.023   4.429
   51SOL     OW 1051   3.753   5.161   2.632
   51SOL    HW1 1052   3.754   5.231   2.703
   51SOL    HW2 1053   3.696   5.085   2.661
   52SOL     OW 1054   1.485   2.340   1.660
   52SOL    HW1 1055   1.565   2.398   1.676
   52SOL    HW2 1056   1.424   2.385   1.595
   53SOL     OW 1057   4.909   0.318   4.046
   53SOL    HW1 1058   5.007   0.330   4.026
   53SOL    HW2 1059   4.877   0.393   4.104
   54SOL     OW 1060   3.800   5.477   5.410
   54SOL    HW1 1061   3.889   5.435   5.428
   54SOL    HW2 1062   3.760   5.508   5.496
   55SOL     OW 1063   4.333   2.089   0.610
   55SOL    HW1 1064   4.397   2.015   0.629
   55SOL    HW2 1065   4.347   2.122   0.517
   56SOL     OW 1066   1.232   0.478   2.030
   56SOL    HW1 1067   1.161   0.413   2.057
   56SOL    HW2 1068   1.197   0.571   2.039
   57SOL     OW 1069   5.746   0.463   0.157
   57SOL    HW1 1070   5.714   0.438   0.248
   57SOL    HW2 1071   5.835   0.508   0.164
   58SOL     OW 1072   0.031   6.418   0.070
   58SOL    HW1 1073   0.052   6.514   0.091
   58SOL    HW2 1074   0.055   6.361   0.149
   59SOL     OW 1075   1.075   6.952   5.287
   59SOL    HW1 1076   1.002   6.924   5.225
   59SOL    HW2 1077   1.148   6.883   5.286
   60SOL     OW 1078   4.639   6.877   4.626
   60SOL    HW1 1079   4.637   6.885   4.526
   60SOL    HW2 1080   4.556   6.917   4.664
   61SOL     OW 1081   4.285   0.211   4.433
   61SOL    HW1 1082   4.245   0.180   4.519
   61SOL    HW2 1083   4.354   0.145   4.401
   62SOL     OW 1084   1.703   0.719   4.471
   62SOL    HW1 1085   1.729   0.664   4.550
   62SOL    HW2 1086   1.607   0.747   4.480
   63SOL     OW 1087   0.029   3.353   3.013
   63SOL    HW1 1088   0.079   3.272   3.046
   63SOL    HW2 1089   6.999   3.330   2.931
   64SOL     OW 1090   6.937   3.601   5.702
   64SOL    HW1 1091   7.014   3.617   5.763
   64SOL    HW2 1092   6.970   3.566   5.615
   65SOL     OW 1093   6.491   4.443   5.913
   65SOL    HW1 1094   6.555   4.491   5.854
   65SOL    HW2 1095   6.447   4.369   5.862
   66SOL     OW 1096   2.621   1.393   0.795
   66SOL    HW1 1097   2.665   1.365   0.709
   66SOL    HW2 1098   2.546   1.455   0.775
   67SOL     OW 1099   5.452   6.029   4.496
   67SOL    HW1 1100   5.518   6.014   4.423
   67SOL    HW2 1101   5.373   5.969   4.482
   68SOL     OW 1102   5.641   2.207   5.578
   68SOL    HW1 1103   5.543   2.226   5.587
   68SOL    HW2 1104   5.692   2.275   5.632
   69SOL     OW 1105   2.921   3.260   6.412
   69SOL    HW1 1106   2.904   3.184   6.474
   69SOL    HW2 1107   2.967   3.334   6.461
   70SOL     OW 1108   0.216   5.062   1.974
   70SOL    HW1 1109   0.197   4.970   2.007
   70SOL    HW2 1110   0.304   5.062   1.927
   71SOL     OW 1111   1.400   2.308   3.092
   71SOL    HW1 1112   1.432   2.403   3.095
   71SOL    HW2 1113   1.339   2.291   3.169
   72SOL     OW 1114   3.108   5.629   3.876
   72SOL    HW1 1115   3.195   5.631   3.924
   72SOL    HW2 1116   3.034   5.618   3.942
   73SOL     OW 1117   4.646   2.585   0.309
   73SOL    HW1 1118   4.561   2.585   0.362
   73SOL    HW2 1119   4.635   2.644   0.229
   74SOL     OW 1120   5.246   5.687   5.943
   74SOL    HW1 1121   5.235   5.704   5.845
   74SOL    HW2 1122   5.164   5.641   5.978
   75SOL     OW 1123   3.857   5.474   5.910
   75SOL    HW1 1124   3.858   5.573   5.922
   75SOL    HW2 1125   3.941   5.446   5.863
   76SOL     OW 1126   2.532   3.085   1.432
   76SOL    HW1 1127   2.445   3.124   1.400
   76SOL    HW2 1128   2.527   3.069   1.530
   77SOL     OW 1129   5.682   5.352   6.622
   77SOL    HW1 1130   5.698   5.351   6.523
   77SOL    HW2 1131   5.628   5.433   6.645
   78SOL     OW 1132   6.486   6.542   6.106
   78SOL    HW1 1133   6.485   6.642   6.106
   78SOL    HW2 1134   6.533   6.510   6.024
   79SOL     OW 1135   2.752   0.055   6.994
   79SOL    HW1 1136   2.741   0.001   0.055
   79SOL    HW2 1137   2.833   0.023   6.944
   80SOL     OW 1138   0.203   1.739   4.087
   80SOL    HW1 1139   0.267   1.729   4.011
   80SOL    HW2 1140   0.157   1.652   4.104
   81SOL     OW 1141   1.362   0.576   3.526
   81SOL    HW1 1142   1.408   0.662   3.547
   81SOL    HW2 1143   1.430   0.508   3.498
   82SOL     OW 1144   0.026   4.878   5.215
   82SOL    HW1 1145   0.068   4.796   5.255
   82SOL    HW2 1146   0.083   4.910   5.139
   83SOL     OW 1147   0.309   6.880   0.540
   83SOL    HW1 1148   0.273   6.973   0.547
   83SOL    HW2 1149   0.257   6.819   0.600
   84SOL     OW 1150   5.975   4.164   1.568
   84SOL    HW1 1151   6.038   4.209   1.632
   84SOL    HW2 1152   6.024   4.134   1.487
   85SOL     OW 1153   0.504   2.924   5.339
   85SOL    HW1 1154   0.541   2.940   5.248
   85SOL    HW2 1155   0.459   3.008   5.372
   86SOL     OW 1156   0.893   0.842   5.712
   86SOL    HW1 1157   0.894   0.875   5.806
   86SOL    HW2 1158   0.984   0.810   5.686
   87SOL     OW 1159   3.931   0.961   1.190
   87SOL    HW1 1160   3.848   0.995   1.234
   87SOL    HW2 1161   3.966   1.030   1.127
   88SOL     OW 1162   5.414   0.609   0.391
   88SOL    HW1 1163   5.401   0.616   0.292
   88SOL    HW2 1164   5.363   0.682   0.437
   89SOL     OW 1165   1.529   2.685   6.002
   89SOL    HW1 1166   1.579   2.598   5.997
   89SOL    HW2 1167   1.463   2.689   5.927
   90SOL     OW 1168   5.815   6.693   3.786
   90SOL    HW1 1169   5.784   6.617   3.842
   90SOL    HW2 1170   5.780   6.683   3.693
   91SOL     OW 1171   4.556   4.877   4.740
   91SOL    HW1 1172   4.645   4.920   4.752
   91SOL    HW2 1173   4.568   4.779   4.723
   92SOL     OW 1174   3.275   5.070   1.633
   92SOL    HW1 1175   3.203   5.003   1.616
   92SOL    HW2 1176   3.241   5.162   1.613
   93SOL     OW 1177   3.410   5.109   5.567
   93SOL    HW1 1178   3.409   5.012   5.593
   93SOL    HW2 1179   3.393   5.117   5.469
   94SOL     OW 1180   2.652   5.681   0.495
   94SOL    HW1 1181   2.677   5.599   0.444
   94SOL    HW2 1182   2.664   5.761   0.438
   95SOL     OW 1183   6.859   0.759   5.013
   95SOL    HW1 1184   6.800   0.837   5.036
   95SOL    HW2 1185   6.817   0.706   4.939
   96SOL     OW 1186   1.828   6.995   5.517
   96SOL    HW1 1187   1.859   7.019   5.610
   96SOL    HW2 1188   1.787   0.053   5.474
   97SOL     OW 1189   6.178   3.061   5.039
   97SOL    HW1 1190   6.203   2.989   5.103
   97SOL    HW2 1191   6.104   3.116   5.077
   98SOL     OW 1192   6.015   2.426   5.850
   98SOL    HW1 1193   6.109   2.396   5.833
   98SOL    HW2 1194   6.015   2.512   5.899
   99SOL     OW 1195   4.640   1.995   1.126
   99SOL    HW1 1196   4.666   1.918   1.067
   99SOL    HW2 1197   4.553   2.033   1.096
  100SOL     OW 1198   6.779   5.186   6.037
  100SOL    HW1 1199   6.716   5.249   5.992
  100SOL    HW2 1200   6.735   5.146   6.117
  101SOL     OW 1201   1.539   6.452   4.120
  101SOL    HW1 1202   1.543   6.510   4.201
  101SOL    HW2 1203   1.486   6.499   4.048
  102SOL     OW 1204   4.299   0.027   3.748
  102SOL    HW1 1205   4.283   0.032   3.649
  102SOL    HW2 1206   4.380   0.081   3.772
  103SOL     OW 1207   3.978   1.615   1.412
  103SOL    HW1 1208   4.002   1.693   1.354
  103SOL    HW2 1209   3.962   1.646   1.506
  104SOL     OW 1210   0.325   5.793   2.446
  104SOL    HW1 1211   0.382   5.710   2.446
  104SOL    HW2 1212   0.229   5.767   2.451
  105SOL     OW 1213   5.000   0.977   5.884
  105SOL    HW1 1214   4.918   0.920   5.887
  105SOL    HW2 1215   5.054   0.963   5.967
  106SOL     OW 1216   2.529   6.606   6.395
  106SOL    HW1 1217   2.550   6.518   6.437
  106SOL    HW2 1218   2.440   6.601   6.350
  107SOL     OW 1219   2.637   3.253   1.020
  107SOL    HW1 1220   2.575   3.265   1.097
  107SOL    HW2 1221   2.650   3.342   0.974
  108SOL     OW 1222   5.031   4.378   5.615
  108SOL    HW1 1223   5.073   4.382   5.524
  108SOL    HW2 1224   5.018   4.470   5.650
  109SOL     OW 1225   6.235   0.856   1.223
  109SOL    HW1 1226   6.186   0.829   1.306
  109SOL    HW2 1227   6.203   0.801   1.146
  110SOL     OW 1228   3.893   5.775   4.918
  110SOL    HW1 1229   3.968   5.839   4.931
  110SOL    HW2 1230   3.889   5.711   4.995
  111SOL     OW 1231   3.450   0.924   3.370
  111SOL    HW1 1232   3.419   0.864   3.443
  111SOL    HW2 1233   3.460   1.017   3.405
  112SOL     OW 1234   0.287   0.211   6.500
  112SOL    HW1 1235   0.234   0.251   6.575
  112SOL    HW2 1236   0.272   0.112   6.498
  113SOL     OW 1237   0.159   5.332   3.329
  113SOL    HW1 1238   0.245   5.370   3.294
  113SOL    HW2 1239   0.172   5.301   3.423
  114SOL     OW 1240   0.823   6.926   0.031
  114SOL    HW1 1241   0.911   6.912   7.007
  114SOL    HW2 1242   0.753   6.951   6.987
  115SOL     OW 1243   4.964   1.437   4.730
  115SOL    HW1 1244   5.012   1.371   4.673
  115SOL    HW2 1245   4.989   1.423   4.826
  116SOL     OW 1246   6.308   4.535   2.270
  116SOL    HW1 1247   6.330   4.623   2.228
  116SOL    HW2 1248   6.391   4.492   2.303
  117SOL     OW 1249   1.470   6.970   6.863
  117SOL    HW1 1250   1.414   0.025   6.892
  117SOL    HW2 1251   1.419   6.885   6.876
  118SOL     OW 1252   0.869   0.474   2.474
  118SOL    HW1 1253   0.920   0.393   2.445
  118SOL    HW2 1254   0.852   0.469   2.572
  119SOL     OW 1255   6.774   3.160   6.356
  119SOL    HW1 1256   6.846   3.092   6.341
  119SOL    HW2 1257   6.767   3.180   6.453
  120SOL     OW 1258   5.896   6.639   0.846
  120SOL    HW1 1259   5.912   6.540   0.848
  120SOL    HW2 1260   5.933   6.677   0.761
  121SOL     OW 1261   2.539   3.294   6.047
  121SOL    HW1 1262   2.632   3.330   6.055
  121SOL    HW2 1263   2.483   3.359   5.996
  122SOL     OW 1264   0.838   3.026   4.288
  122SOL    HW1 1265   0.742   3.041   4.263
  122SOL    HW2 1266   0.881   3.115   4.308
  123SOL     OW 1267   0.773   1.743   1.422
  123SOL    HW1 1268   0.830   1.825   1.433
  123SOL    HW2 1269   0.717   1.731   1.504
  124SOL     OW 1270   4.643   3.067   0.983
  124SOL    HW1 1271   4.601   2.987   1.026
  124SOL    HW2 1272   4.670   3.133   1.054
  125SOL     OW 1273   1.955   3.459   1.720
  125SOL    HW1 1274   2.004   3.425   1.801
  125SOL    HW2 1275   2.019   3.507   1.660
  126SOL     OW 1276   3.388   4.864   1.357
  126SOL    HW1 1277   3.410   4.766   1.354
  126SOL    HW2 1278   3.383   4.893   1.453
  127SOL     OW 1279   0.156   6.201   6.495
  127SOL    HW1 1280   0.170   6.147   6.412
  127SOL    HW2 1281   0.130   6.140   6.571
  128SOL     OW 1282   4.656   2.487   1.614
  128SOL    HW1 1283   4.644   2.474   1.713
  128SOL    HW2 1284   4.716   2.565   1.598
  129SOL     OW 1285   2.803   3.805   6.726
  129SOL    HW1 1286   2.766   3.814   6.819
  129SOL    HW2 1287   2.830   3.895   6.692
  130SOL     OW 1288   1.492   1.851   4.458
  130SOL    HW1 1289   1.542   1.922   4.408
  130SOL    HW2 1290   1.465   1.779   4.395
  131SOL     OW 1291   5.097   1.665   3.065
  131SOL    HW1 1292   5.047   1.744   3.100
  131SOL    HW2 1293   5.075   1.653   2.968
  132SOL     OW 1294   0.866   2.673   0.622
  132SOL    HW1 1295   0.814   2.758   0.636
  132SOL    HW2 1296   0.889   2.633   0.710
  133SOL     OW 1297   6.509   5.630   2.284
  133SOL    HW1 1298   6.540   5.695   2.215
  133SOL    HW2 1299   6.585   5.570   2.309
  134SOL     OW 1300   0.203   3.420   2.781
  134SOL    HW1 1301   0.298   3.447   2.793
  134SOL    HW2 1302   0.166   3.386   2.867
  135SOL     OW 1303   4.886   1.502   4.194
  135SOL    HW1 1304   4.843   1.436   4.256
  135SOL    HW2 1305   4.922   1.453   4.114
  136SOL     OW 1306   5.650   4.864   5.220
  136SOL    HW1 1307   5.696   4.777   5.205
  136SOL    HW2 1308   5.712   4.939   5.194
  137SOL     OW 1309   3.975   7.011   5.767
  137SOL    HW1 1310   3.886   0.011   5.807
  137SOL    HW2 1311   3.971   0.001   5.668
  138SOL     OW 1312   6.777   5.310   4.861
  138SOL    HW1 1313   6.865   5.317   4.908
  138SOL    HW2 1314   6.706   5.283   4.926
  139SOL     OW 1315   3.747   5.095   5.612
  139SOL    HW1 1316   3.721   5.151   5.691
  139SOL    HW2 1317   3.680   5.023   5.598
  140SOL     OW 1318   6.489   4.343   4.674
  140SOL    HW1 1319   6.497   4.263   4.733
  140SOL    HW2 1320   6.547   4.417   4.710
  141SOL     OW 1321   1.407   2.162   4.111
  141SOL    HW1 1322   1.473   2.201   4.175
  141SOL    HW2 1323   1.454   2.143   4.024
  142SOL     OW 1324   1.887   5.534   1.519
  142SOL    HW1 1325   1.977   5.577   1.512
  142SOL    HW2 1326   1.881   5.458   1.455
  143SOL     OW 1327   5.693   4.091   1.783
  143SOL    HW1 1328   5.607   4.055   1.819
  143SOL    HW2 1329   5.752   4.015   1.757
  144SOL     OW 1330   2.428   0.024   0.120
  144SOL    HW1 1331   2.382   7.002   0.197
  144SOL    HW2 1332   2.440   6.981   0.045
  145SOL     OW 1333   0.392   5.506   0.563
  145SOL    HW1 1334   0.363   5.410   0.563
  145SOL    HW2 1335   0.314   5.564   0.587
  146SOL     OW 1336   5.593   5.173   0.855
  146SOL    HW1 1337   5.677   5.128   0.887
  146SOL    HW2 1338   5.516   5.110   0.862
  147SOL     OW 1339   6.328   2.158   1.094
  147SOL    HW1 1340   6.322   2.106   1.179
  147SOL    HW2 1341   6.245   2.144   1.040
  148SOL     OW 1342   0.931   5.483   5.683
  148SOL    HW1 1343   0.977   5.443   5.605
  148SOL    HW2 1344   0.836   5.504   5.660
  149SOL     OW 1345   3.125   0.999   5.020
  149SOL    HW1 1346   3.183   1.064   5.068
  149SOL    HW2 1347   3.033   1.037   5.009
  150SOL     OW 1348   0.320   5.247   6.844
  150SOL    HW1 1349   0.239   5.262   6.787
  150SOL    HW2 1350   0.304   5.288   6.934
  151SOL     OW 1351   4.008   1.668   1.677
  151SOL    HW1 1352   3.982   1.764   1.671
  151SOL    HW2 1353   3.934   1.616   1.721
  152SOL     OW 1354   3.063   0.625   4.497
  152SOL    HW1 1355   3.032   0.716   4.527
  152SOL    HW2 1356   2.985   0.563   4.492
  153SOL     OW 1357   2.148   1.622   3.390
  153SOL    HW1 1358   2.092   1.705   3.386
  153SOL    HW2 1359   2.223   1.635   3.454
  154SOL     OW 1360   6.844   2.162   2.348
  154SOL    HW1 1361   6.913   2.090   2.346
  154SOL    HW2 1362   6.856   2.223   2.270
  155SOL     OW 1363   0.061   1.078   3.079
  155SOL    HW1 1364   0.098   1.151   3.136
  155SOL    HW2 1365   6.999   1.109   3.036
  156SOL     OW 1366   6.373   2.416   1.048
  156SOL    HW1 1367   6.466   2.421   1.010
  156SOL    HW2 1368   6.343   2.321   1.052
  157SOL     OW 1369   5.800   3.767   2.565
  157SOL    HW1 1370   5.726   3.735   2.624
  157SOL    HW2 1371   5.847   3.844   2.609
  158SOL     OW 1372   1.832   1.126   2.974
  158SOL    HW1 1373   1.899   1.199   2.964
  158SOL    HW2 1374   1.801   1.122   3.069
  159SOL     OW 1375   4.815   4.014   2.231
  159SOL    HW1 1376   4.739   4.076   2.212
  159SOL    HW2 1377   4.880   4.059   2.292
  160SOL     OW 1378   6.384   4.249   5.724
  160SOL    HW1 1379   6.402   4.291   5.635
  160SOL    HW2 1380   6.398   4.150   5.717
  161SOL     OW 1381   2.646   5.044   4.868
  161SOL    HW1 1382   2.703   4.983   4.923
  161SOL    HW2 1383   2.551   5.014   4.870
  162SOL     OW 1384   4.367   5.732   1.484
  162SOL    HW1 1385   4.439   5.790   1.523
  162SOL    HW2 1386   4.278   5.763   1.519
  163SOL     OW 1387   4.340   0.777   2.234
  163SOL    HW1 1388   4.302   0.858   2.188
  163SOL    HW2 1389   4.402   0.807   2.306
  164SOL     OW 1390   5.752   3.252   1.057
  164SOL    HW1 1391   5.825   3.271   0.991
  164SOL    HW2 1392   5.666   3.290   1.023
  165SOL     OW 1393   4.934   3.453   6.540
  165SOL    HW1 1394   5.030   3.437   6.517
  165SOL    HW2 1395   4.910   3.399   6.621
  166SOL     OW 1396   1.176   0.407   2.404
  166SOL    HW1 1397   1.108   0.334   2.401
  166SOL    HW2 1398   1.132   0.492   2.434
  167SOL     OW 1399   6.331   2.770   0.086
  167SOL    HW1 1400   6.331   2.820   7.022
  167SOL    HW2 1401   6.423   2.735   0.104
  168SOL     OW 1402   2.258   5.218   0.919
  168SOL    HW1 1403   2.169   5.222   0.873
  168SOL    HW2 1404   2.328   5.192   0.853
  169SOL     OW 1405   1.968   6.453   1.831
  169SOL    HW1 1406   1.973   6.501   1.744
  169SOL    HW2 1407   2.029   6.496   1.898
  170SOL     OW 1408   0.292   1.488   3.009
  170SOL    HW1 1409   0.380   1.472   3.054
  170SOL    HW2 1410   0.287   1.583   2.978
  171SOL     OW 1411   3.446   3.775   0.206
  171SOL    HW1 1412   3.522   3.758   0.144
  171SOL    HW2 1413   3.418   3.871   0.198
  172SOL     OW 1414   0.269   2.952   5.743
  172SOL    HW1 1415   0.269   2.867   5.796
  172SOL    HW2 1416   0.188   2.956   5.685
  173SOL     OW 1417   0.055   6.638   5.706
  173SOL    HW1 1418   6.984   6.638   5.670
  173SOL    HW2 1419   0.073   6.550   5.751
  174SOL     OW 1420   2.792   5.307   3.725
  174SOL    HW1 1421   2.698   5.293   3.693
  174SOL    HW2 1422   2.828   5.391   3.686
  175SOL     OW 1423   1.170   5.609   2.953
  175SOL    HW1 1424   1.113   5.558   2.889
  175SOL    HW2 1425   1.111   5.662   3.015
  176SOL     OW 1426   2.394   4.835   1.164
  176SOL    HW1 1427   2.340   4.850   1.081
  176SOL    HW2 1428   2.337   4.852   1.245
  177SOL     OW 1429   4.735   1.863   2.590
  177SOL    HW1 1430   4.719   1.844   2.494
  177SOL    HW2 1431   4.776   1.782   2.633
  178SOL     OW 1432   5.234   4.988   6.618
  178SOL    HW1 1433   5.290   5.035   6.550
  178SOL    HW2 1434   5.240   5.035   6.706
  179SOL     OW 1435   3.004   0.345   0.330
  179SOL    HW1 1436   2.933   0.321   0.264
  179SOL    HW2 1437   2.962   0.365   0.418
  180SOL     OW 1438   0.564   2.192   6.779
  180SOL    HW1 1439   0.646   2.230   6.822
  180SOL    HW2 1440   0.519   2.263   6.725
  181SOL     OW 1441   3.253   2.933   5.728
  181SOL    HW1 1442   3.339   2.883   5.726
  181SOL    HW2 1443   3.192   2.897   5.658
  182SOL     OW 1444   4.288   2.297   4.836
  182SOL    HW1 1445   4.226   2.220   4.817
  182SOL    HW2 1446   4.252   2.350   4.913
  183SOL     OW 1447   5.076   1.251   2.152
  183SOL    HW1 1448   5.026   1.169   2.125
  183SOL    HW2 1449   5.171   1.242   2.126
  184SOL     OW 1450   0.138   4.557   2.752
  184SOL    HW1 1451   0.118   4.473   2.701
  184SOL    HW2 1452   0.198   4.616   2.698
  185SOL     OW 1453   1.998   3.924   6.393
  185SOL    HW1 1454   2.063   3.865   6.345
  185SOL    HW2 1455   2.035   4.016   6.401
  186SOL     OW 1456   5.700   6.922   3.034
  186SOL    HW1 1457   5.677   7.015   3.063
  186SOL    HW2 1458   5.625   6.884   2.981
  187SOL     OW 1459   5.672   1.181   3.950
  187SOL    HW1 1460   5.763   1.154   3.920
  187SOL    HW2 1461   5.670   1.279   3.969
  188SOL     OW 1462   6.491   2.197   3.468
  188SOL    HW1 1463   6.463   2.242   3.383
  188SOL    HW2 1464   6.479   2.098   3.459
  189SOL     OW 1465   2.477   4.478   2.747
  189SOL    HW1 1466   2.468   4.472   2.648
  189SOL    HW2 1467   2.387   4.490   2.789
  190SOL     OW 1468   3.597   0.985   5.614
  190SOL    HW1 1469   3.510   1.015   5.654
  190SOL    HW2 1470   3.657   0.951   5.687
  191SOL     OW 1471   5.136   5.983   6.267
  191SOL    HW1 1472   5.163   5.886   6.268
  191SOL    HW2 1473   5.071   6.000   6.341
  192SOL     OW 1474   6.772   0.874   1.490
  192SOL    HW1 1475   6.840   0.808   1.457
  192SOL    HW2 1476   6.759   0.946   1.423
  193SOL     OW 1477   5.367   3.978   6.966
  193SOL    HW1 1478   5.397   3.961   0.038
  193SOL    HW2 1479   5.268   3.992   6.965
  194SOL     OW 1480   3.387   0.395   3.537
  194SOL    HW1 1481   3.307   0.416   3.481
  194SOL    HW2 1482   3.416   0.301   3.521
  195SOL     OW 1483   0.528   5.651   3.409
  195SOL    HW1 1484   0.564   5.725   3.352
  195SOL    HW2 1485   0.556   5.667   3.504
  196SOL     OW 1486   0.832   1.868   0.592
  196SOL    HW1 1487   0.765   1.884   0.520
  196SOL    HW2 1488   0.924   1.886   0.557
  197SOL     OW 1489   1.465   0.674   0.929
  197SOL    HW1 1490   1.513   0.590   0.955
  197SOL    HW2 1491   1.529   0.735   0.884
  198SOL     OW 1492   3.326   2.097   3.831
  198SOL    HW1 1493   3.282   2.136   3.750
  198SOL    HW2 1494   3.367   2.009   3.808
  199SOL     OW 1495   1.402   2.551   4.177
  199SOL    HW1 1496   1.456   2.491   4.117
  199SOL    HW2 1497   1.339   2.605   4.122
  200SOL     OW 1498   6.756   2.516   7.017
  200SOL    HW1 1499   6.793   2.516   0.088
  200SOL    HW2 1500   6.831   2.512   6.952
  201SOL     OW 1501   0.769   1.051   6.831
  201SOL    HW1 1502   0.787   0.956   6.808
  201SOL    HW2 1503   0.707   1.056   6.909
  202SOL     OW 1504   4.480   6.688   0.236
  202SOL    HW1 1505   4.556   6.663   0.176
  202SOL    HW2 1506   4.419   6.609   0.246
  203SOL     OW 1507   5.986   2.674   5.941
  203SOL    HW1 1508   6.028   2.750   5.891
  203SOL    HW2 1509   5.887   2.686   5.943
  204SOL     OW 1510   6.194   1.388   5.891
  204SOL    HW1 1511   6.238   1.452   5.828
  204SOL    HW2 1512   6.263   1.326   5.929
  205SOL     OW 1513   1.402   3.024   2.678
  205SOL    HW1 1514   1.338   3.061   2.746
  205SOL    HW2 1515   1.459   2.955   2.721
  206SOL     OW 1516   0.566   3.610   0.463
  206SOL    HW1 1517   0.626   3.648   0.393
  206SOL    HW2 1518   0.587   3.651   0.552
  207SOL     OW 1519   5.867   2.280   4.565
  207SOL    HW1 1520   5.936   2.316   4.501
  207SOL    HW2 1521   5.782   2.333   4.555
  208SOL     OW 1522   1.460   4.330   4.180
  208SOL    HW1 1523   1.489   4.373   4.265
  208SOL    HW2 1524   1.390   4.262   4.199
  209SOL     OW 1525   6.390   4.128   2.614
  209SOL    HW1 1526   6.387   4.119   2.713
  209SOL    HW2 1527   6.375   4.223   2.588
  210SOL     OW 1528   4.823   2.634   6.860
  210SOL    HW1 1529   4.725   2.626   6.878
  210SOL    HW2 1530   4.852   2.727   6.881
  211SOL     OW 1531   0.141   1.647   2.508
  211SOL    HW1 1532   0.132   1.688   2.417
  211SOL    HW2 1533   0.058   1.664   2.560
  212SOL     OW 1534   2.107   3.450   2.893
  212SOL    HW1 1535   2.047   3.515   2.846
  212SOL    HW2 1536   2.148   3.388   2.826
  213SOL     OW 1537   1.549   5.580   1.277
  213SOL    HW1 1538   1.469   5.521   1.275
  213SOL    HW2 1539   1.627   5.530   1.315
  214SOL     OW 1540   5.027   6.368   2.193
  214SOL    HW1 1541   4.946   6.368   2.134
  214SOL    HW2 1542   5.107   6.399   2.140
  215SOL     OW 1543   2.597   5.164   3.058
  215SOL    HW1 1544   2.584   5.132   3.152
  215SOL    HW2 1545   2.575   5.091   2.994
  216SOL     OW 1546   0.972   6.942   2.484
  216SOL    HW1 1547   1.014   6.869   2.538
  216SOL    HW2 1548   1.040   6.981   2.422
  217SOL     OW 1549   1.427   4.529   6.227
  217SOL    HW1 1550   1.490   4.465   6.271
  217SOL    HW2 1551   1.377   4.483   6.154
  218SOL     OW 1552   1.493   1.821   4.914
  218SOL    HW1 1553   1.530   1.750   4.973
  218SOL    HW2 1554   1.555   1.899   4.913
  219SOL     OW 1555   4.244   1.714   0.936
  219SOL    HW1 1556   4.250   1.676   1.028
  219SOL    HW2 1557   4.199   1.803   0.939
  220SOL     OW 1558   2.863   6.979   0.526
  220SOL    HW1 1559   2.793   6.925   0.479
  220SOL    HW2 1560   2.915   0.010   0.459
  221SOL     OW 1561   4.865   5.842   1.995
  221SOL    HW1 1562   4.819   5.757   1.968
  221SOL    HW2 1563   4.932   5.823   2.067
  222SOL     OW 1564   2.440   4.892   6.568
  222SOL    HW1 1565   2.369   4.956   6.596
  222SOL    HW2 1566   2.418   4.801   6.602
  223SOL     OW 1567   6.266   2.900   5.219
  223SOL    HW1 1568   6.206   2.835   5.267
  223SOL    HW2 1569   6.323   2.948   5.286
  224SOL     OW 1570   2.449   1.395   6.265
  224SOL    HW1 1571   2.463   1.297   6.285
  224SOL    HW2 1572   2.373   1.429   6.320
  225SOL     OW 1573   4.256   5.574   5.558
  225SOL    HW1 1574   4.302   5.499   5.607
  225SOL    HW2 1575   4.258   5.657   5.614
  226SOL     OW 1576   0.783   2.281   6.877
  226SOL    HW1 1577   0.797   2.359   6.939
  226SOL    HW2 1578   0.871   2.254   6.838
  227SOL     OW 1579   1.174   3.666   1.664
  227SOL    HW1 1580   1.215   3.652   1.754
  227SOL    HW2 1581   1.203   3.593   1.603
  228SOL     OW 1582   1.617   6.971   2.659
  228SOL    HW1 1583   1.659   0.025   2.609
  228SOL    HW2 1584   1.621   6.889   2.603
  229SOL     OW 1585   4.439   5.896   6.252
  229SOL    HW1 1586   4.496   5.937   6.323
  229SOL    HW2 1587   4.343   5.913   6.274
  230SOL     OW 1588   4.931   5.787   4.620
  230SOL    HW1 1589   4.871   5.866   4.632
  230SOL    HW2 1590   4.885   5.705   4.653
  231SOL     OW 1591   5.680   1.557   6.883
  231SOL    HW1 1592   5.780   1.565   6.879
  231SOL    HW2 1593   5.641   1.645   6.909
  232SOL     OW 1594   1.645   2.444   5.905
  232SOL    HW1 1595   1.726   2.491   5.871
  232SOL    HW2 1596   1.583   2.426   5.828
  233SOL     OW 1597   3.006   1.498   2.898
  233SOL    HW1 1598   3.005   1.596   2.915
  233SOL    HW2 1599   2.995   1.450   2.985
  234SOL     OW 1600   4.528   1.085   0.287
  234SOL    HW1 1601   4.501   1.010   0.226
  234SOL    HW2 1602   4.524   1.054   0.382
  235SOL     OW 1603   4.738   2.709   3.348
  235SOL    HW1 1604   4.828   2.753   3.358
  235SOL    HW2 1605   4.709   2.715   3.252
  236SOL     OW 1606   4.408   4.572   6.031
  236SOL    HW1 1607   4.395   4.522   6.116
  236SOL    HW2 1608   4.350   4.531   5.960
  237SOL     OW 1609   6.278   3.592   2.923
  237SOL    HW1 1610   6.194   3.608   2.975
  237SOL    HW2 1611   6.306   3.677   2.879
  238SOL     OW 1612   6.339   1.512   1.069
  238SOL    HW1 1613   6.347   1.556   0.979
  238SOL    HW2 1614   6.311   1.579   1.137
  239SOL     OW 1615   1.592   3.757   0.107
  239SOL    HW1 1616   1.525   3.722   0.041
  239SOL    HW2 1617   1.684   3.730   0.078
  240SOL     OW 1618   5.468   3.078   3.277
  240SOL    HW1 1619   5.487   3.065   3.179
  240SOL    HW2 1620   5.399   3.149   3.288
  241SOL     OW 1621   3.405   1.809   3.820
  241SOL    HW1 1622   3.317   1.780   3.857
  241SOL    HW2 1623   3.443   1.735   3.764
  242SOL     OW 1624   3.330   3.645   2.985
  242SOL    HW1 1625   3.303   3.660   2.890
  242SOL    HW2 1626   3.253   3.666   3.045
  243SOL     OW 1627   4.334   2.459   5.966
  243SOL    HW1 1628   4.288   2.440   5.879
  243SOL    HW2 1629   4.405   2.528   5.951
  244SOL     OW 1630   5.070   3.550   5.101
  244SOL    HW1 1631   5.093   3.476   5.038
  244SOL    HW2 1632   4.986   3.595   5.070
  245SOL     OW 1633   3.395   1.413   2.816
  245SOL    HW1 1634   3.329   1.448   2.750
  245SOL    HW2 1635   3.477   1.471   2.815
  246SOL     OW 1636   6.619   1.322   2.367
  246SOL    HW1 1637   6.644   1.344   2.273
  246SOL    HW2 1638   6.609   1.223   2.377
  247SOL     OW 1639   1.823   1.241   1.221
  247SOL    HW1 1640   1.815   1.229   1.122
  247SOL    HW2 1641   1.872   1.326   1.240
  248SOL     OW 1642   1.726   2.289   2.332
  248SOL    HW1 1643   1.626   2.282   2.343
  248SOL    HW2 1644   1.747   2.327   2.242
  249SOL     OW 1645   5.614   6.449   4.893
  249SOL    HW1 1646   5.608   6.536   4.941
  249SOL    HW2 1647   5.615   6.374   4.960
  250SOL     OW 1648   4.547   2.558   1.077
  250SOL    HW1 1649   4.592   2.519   1.158
  250SOL    HW2 1650   4.556   2.658   1.079
  251SOL     OW 1651   4.301   3.701   5.515
  251SOL    HW1 1652   4.325   3.611   5.552
  251SOL    HW2 1653   4.343   3.712   5.425
  252SOL     OW 1654   6.092   6.306   5.597
  252SOL    HW1 1655   6.188   6.279   5.607
  252SOL    HW2 1656   6.086   6.388   5.541
  253SOL     OW 1657   3.744   6.254   6.155
  253SOL    HW1 1658   3.688   6.289   6.230
  253SOL    HW2 1659   3.775   6.162   6.177
  254SOL     OW 1660   5.959   2.857   5.090
  254SOL    HW1 1661   5.988   2.951   5.105
  254SOL    HW2 1662   5.981   2.802   5.170
  255SOL     OW 1663   2.018   3.902   6.007
  255SOL    HW1 1664   2.059   3.948   5.928
  255SOL    HW2 1665   1.985   3.811   5.978
  256SOL     OW 1666   4.954   2.384   5.040
  256SOL    HW1 1667   5.045   2.371   5.080
  256SOL    HW2 1668   4.888   2.327   5.088
  257SOL     OW 1669   5.086   6.548   2.557
  257SOL    HW1 1670   5.094   6.603   2.640
  257SOL    HW2 1671   5.148   6.584   2.488
  258SOL     OW 1672   1.743   3.431   5.660
  258SOL    HW1 1673   1.787   3.512   5.622
  258SOL    HW2 1674   1.808   3.355   5.659
  259SOL     OW 1675   3.639   0.018   4.006
  259SOL    HW1 1676   3.718   0.078   3.991
  259SOL    HW2 1677   3.572   0.032   3.932
  260SOL     OW 1678   3.560   5.726   3.536
  260SOL    HW1 1679   3.607   5.711   3.449
  260SOL    HW2 1680   3.468   5.762   3.519
  261SOL     OW 1681   4.044   4.784   0.142
  261SOL    HW1 1682   3.982   4.847   0.189
  261SOL    HW2 1683   4.059   4.815   0.048
  262SOL     OW 1684   2.009   3.480   6.691
  262SOL    HW1 1685   1.933   3.462   6.753
  262SOL    HW2 1686   2.004   3.574   6.657
  263SOL     OW 1687   0.976   5.723   4.520
  263SOL    HW1 1688   1.018   5.682   4.601
  263SOL    HW2 1689   0.991   5.822   4.522
  264SOL     OW 1690   0.043   3.890   6.378
  264SOL    HW1 1691   0.042   3.800   6.333
  264SOL    HW2 1692   0.018   3.961   6.312
  265SOL     OW 1693   6.676   0.072   4.282
  265SOL    HW1 1694   6.646   7.000   4.290
  265SOL    HW2 1695   6.708   0.089   4.189
  266SOL     OW 1696   3.743   1.059   5.849
  266SOL    HW1 1697   3.710   1.119   5.776
  266SOL    HW2 1698   3.695   1.081   5.934
  267SOL     OW 1699   1.282   0.786   4.677
  267SOL    HW1 1700   1.282   0.686   4.678
  267SOL    HW2 1701   1.255   0.820   4.767
  268SOL     OW 1702   3.215   1.118   1.339
  268SOL    HW1 1703   3.288   1.067   1.294
  268SOL    HW2 1704   3.244   1.141   1.432
  269SOL     OW 1705   3.895   1.651   0.188
  269SOL    HW1 1706   3.888   1.647   0.288
  269SOL    HW2 1707   3.844   1.730   0.155
  270SOL     OW 1708   6.466   6.761   0.586
  270SOL    HW1 1709   6.500   6.718   0.502
  270SOL    HW2 1710   6.539   6.815   0.627
  271SOL     OW 1711   1.233   3.112   6.248
  271SOL    HW1 1712   1.154   3.139   6.193
  271SOL    HW2 1713   1.288   3.047   6.196
  272SOL     OW 1714   2.416   6.662   3.895
  272SOL    HW1 1715   2.353   6.601   3.848
  272SOL    HW2 1716   2.431   6.744   3.840
  273SOL     OW 1717   1.787   4.929   6.141
  273SOL    HW1 1718   1.739   4.865   6.201
  273SOL    HW2 1719   1.721   4.988   6.095
  274SOL     OW 1720   4.370   1.631   3.668
  274SOL    HW1 1721   4.424   1.683   3.602
  274SOL    HW2 1722   4.400   1.535   3.667
  275SOL     OW 1723   6.841   6.623   1.930
  275SOL    HW1 1724   6.776   6.587   1.996
  275SOL    HW2 1725   6.925   6.567   1.932
  276SOL     OW 1726   0.576   1.047   4.560
  276SOL    HW1 1727   0.663   1.018   4.520
  276SOL    HW2 1728   0.583   1.046   4.660
  277SOL     OW 1729   2.298   3.832   0.864
  277SOL    HW1 1730   2.256   3.914   0.827
  277SOL    HW2 1731   2.227   3.769   0.895
  278SOL     OW 1732   0.395   2.516   1.901
  278SOL    HW1 1733   0.390   2.416   1.903
  278SOL    HW2 1734   0.406   2.550   1.995
  279SOL     OW 1735   6.299   2.340   4.147
  279SOL    HW1 1736   6.330   2.400   4.222
  279SOL    HW2 1737   6.259   2.396   4.074
  280SOL     OW 1738   1.848   4.599   2.138
  280SOL    HW1 1739   1.840   4.526   2.070
  280SOL    HW2 1740   1.855   4.687   2.093
  281SOL     OW 1741   2.449   4.553   1.077
  281SOL    HW1 1742   2.422   4.491   1.150
  281SOL    HW2 1743   2.422   4.647   1.101
  282SOL     OW 1744   3.155   2.306   5.902
  282SOL    HW1 1745   3.066   2.348   5.885
  282SOL    HW2 1746   3.163   2.284   5.999
  283SOL     OW 1747   4.577   2.462   5.733
  283SOL    HW1 1748   4.575   2.362   5.731
  283SOL    HW2 1749   4.667   2.493   5.762
  284SOL     OW 1750   1.597   3.360   3.986
  284SOL    HW1 1751   1.563   3.268   4.006
  284SOL    HW2 1752   1.633   3.401   4.070
  285SOL     OW 1753   5.245   4.767   4.412
  285SOL    HW1 1754   5.257   4.771   4.313
  285SOL    HW2 1755   5.254   4.859   4.450
  286SOL     OW 1756   3.067   3.588   6.480
  286SOL    HW1 1757   3.121   3.565   6.562
  286SOL    HW2 1758   3.123   3.642   6.418
  287SOL     OW 1759   1.923   3.440   6.975
  287SOL    HW1 1760   1.987   3.365   6.989
  287SOL    HW2 1761   1.965   3.525   7.007
  288SOL     OW 1762   4.847   2.865   0.014
  288SOL    HW1 1763   4.937   2.880   6.996
  288SOL    HW2 1764   4.857   2.841   0.110
  289SOL     OW 1765   3.240   4.776   6.365
  289SOL    HW1 1766   3.265   4.744   6.456
  289SOL    HW2 1767   3.292   4.725   6.296
  290SOL     OW 1768   0.472   2.392   5.399
  290SOL    HW1 1769   0.400   2.325   5.384
  290SOL    HW2 1770   0.432   2.481   5.418
  291SOL     OW 1771   0.297   2.280   2.301
  291SOL    HW1 1772   0.389   2.319   2.302
  291SOL    HW2 1773   0.237   2.334   2.360
  292SOL     OW 1774   1.944   6.942   4.035
  292SOL    HW1 1775   1.949   6.886   4.117
  292SOL    HW2 1776   1.854   6.933   3.992
  293SOL     OW 1777   3.552   5.323   3.382
  293SOL    HW1 1778   3.602   5.264   3.446
  293SOL    HW2 1779   3.615   5.357   3.312
  294SOL     OW 1780   4.407   6.761   6.496
  294SOL    HW1 1781   4.414   6.847   6.547
  294SOL    HW2 1782   4.469   6.765   6.417
  295SOL     OW 1783   5.238   0.329   4.128
  295SOL    HW1 1784   5.260   0.415   4.174
  295SOL    HW2 1785   5.315   0.303   4.069
  296SOL     OW 1786   2.501   1.742   3.813
  296SOL    HW1 1787   2.488   1.792   3.727
  296SOL    HW2 1788   2.440   1.781   3.883
  297SOL     OW 1789   2.345   4.267   2.961
  297SOL    HW1 1790   2.433   4.303   2.930
  297SOL    HW2 1791   2.293   4.339   3.006
  298SOL     OW 1792   5.881   5.132   0.879
  298SOL    HW1 1793   5.900   5.097   0.787
  298SOL    HW2 1794   5.937   5.083   0.945
  299SOL     OW 1795   6.784   2.616   4.692
  299SOL    HW1 1796   6.759   2.712   4.678
  299SOL    HW2 1797   6.863   2.611   4.754
  300SOL     OW 1798   6.114   0.044   2.546
  300SOL    HW1 1799   6.064   0.122   2.510
  300SOL    HW2 1800   6.213   0.060   2.536
  301SOL     OW 1801   5.264   3.818   5.944
  301SOL    HW1 1802   5.173   3.855   5.925
  301SOL    HW2 1803   5.292   3.759   5.869
  302SOL     OW 1804   1.341   0.079   3.759
  302SOL    HW1 1805   1.267   0.127   3.805
  302SOL    HW2 1806   1.335   0.094   3.660
  303SOL     OW 1807   5.877   6.938   3.592
  303SOL    HW1 1808   5.853   6.857   3.646
  303SOL    HW2 1809   5.794   6.978   3.554
  304SOL     OW 1810   3.060   0.041   3.110
  304SOL    HW1 1811   3.024   0.091   3.189
  304SOL    HW2 1812   3.083   0.106   3.037
  305SOL     OW 1813   1.148   3.362   1.575
  305SOL    HW1 1814   1.155   3.355   1.675
  305SOL    HW2 1815   1.240   3.372   1.536
  306SOL     OW 1816   2.223   0.449   3.277
  306SOL    HW1 1817   2.128   0.457   3.305
  306SOL    HW2 1818   2.266   0.539   3.277
  307SOL     OW 1819   3.424   0.651   1.052
  307SOL    HW1 1820   3.436   0.641   0.953
  307SOL    HW2 1821   3.502   0.700   1.090
  308SOL     OW 1822   0.569   5.186   4.242
  308SOL    HW1 1823   0.593   5.281   4.219
  308SOL    HW2 1824   0.474   5.169   4.217
  309SOL     OW 1825   3.872   5.359   5.034
  309SOL    HW1 1826   3.895   5.365   4.936
  309SOL    HW2 1827   3.887   5.448   5.077
  310SOL     OW 1828   0.900   6.787   6.272
  310SOL    HW1 1829   0.930   6.882   6.280
  310SOL    HW2 1830   0.907   6.742   6.362
  311SOL     OW 1831   0.687   0.351   1.599
  311SOL    HW1 1832   0.770   0.318   1.644
  311SOL    HW2 1833   0.672   0.299   1.515
  312SOL     OW 1834   3.566   1.645   4.822
  312SOL    HW1 1835   3.638   1.693   4.871
  312SOL    HW2 1836   3.606   1.584   4.753
  313SOL     OW 1837   0.650   4.557   1.664
  313SOL    HW1 1838   0.614   4.494   1.595
  313SOL    HW2 1839   0.632   4.651   1.635
  314SOL     OW 1840   3.066   6.260   1.482
  314SOL    HW1 1841   3.112   6.234   1.396
  314SOL    HW2 1842   3.099   6.201   1.556
  315SOL     OW 1843   1.076   3.131   3.272
  315SOL    HW1 1844   1.065   3.127   3.173
  315SOL    HW2 1845   1.018   3.061   3.315
  316SOL     OW 1846   2.375   2.585   3.971
  316SOL    HW1 1847   2.441   2.561   3.900
  316SOL    HW2 1848   2.283   2.588   3.932
  317SOL     OW 1849   6.742   1.623   0.158
  317SOL    HW1 1850   6.727   1.711   0.203
  317SOL    HW2 1851   6.654   1.579   0.140
  318SOL     OW 1852   2.506   5.289   1.232
  318SOL    HW1 1853   2.581   5.294   1.298
  318SOL    HW2 1854   2.490   5.380   1.194
  319SOL     OW 1855   1.344   6.940   0.663
  319SOL    HW1 1856   1.281   6.873   0.703
  319SOL    HW2 1857   1.428   6.943   0.717
  320SOL     OW 1858   5.016   3.920   0.541
  320SOL    HW1 1859   5.000   3.933   0.443
  320SOL    HW2 1860   5.114   3.926   0.560
  321SOL     OW 1861   2.232   1.407   1.320
  321SOL    HW1 1862   2.285   1.439   1.241
  321SOL    HW2 1863   2.247   1.309   1.333
  322SOL     OW 1864   3.603   2.818   4.740
  322SOL    HW1 1865   3.510   2.853   4.750
  322SOL    HW2 1866   3.605   2.722   4.770
  323SOL     OW 1867   0.434   4.242   2.034
  323SOL    HW1 1868   0.475   4.267   2.121
  323SOL    HW2 1869   0.417   4.143   2.032
  324SOL     OW 1870   0.582   3.092   4.234
  324SOL    HW1 1871   0.513   3.111   4.303
  324SOL    HW2 1872   0.539   3.088   4.144
  325SOL     OW 1873   2.600   2.399   3.013
  325SOL    HW1 1874   2.539   2.436   2.943
  325SOL    HW2 1875   2.649   2.320   2.977
  326SOL     OW 1876   2.524   4.607   6.212
  326SOL    HW1 1877   2.444   4.666   6.226
  326SOL    HW2 1878   2.570   4.593   6.300
  327SOL     OW 1879   6.283   5.330   5.701
  327SOL    HW1 1880   6.328   5.249   5.664
  327SOL    HW2 1881   6.225   5.304   5.779
  328SOL     OW 1882   2.603   5.834   2.374
  328SOL    HW1 1883   2.555   5.918   2.349
  328SOL    HW2 1884   2.649   5.847   2.462
  329SOL     OW 1885   3.512   3.504   2.461
  329SOL    HW1 1886   3.469   3.586   2.424
  329SOL    HW2 1887   3.463   3.423   2.429
  330SOL     OW 1888   3.709   1.244   1.929
  330SOL    HW1 1889   3.787   1.185   1.907
  330SOL    HW2 1890   3.695   1.245   2.028
  331SOL     OW 1891   5.372   4.955   6.249
  331SOL    HW1 1892   5.443   4.885   6.245
  331SOL    HW2 1893   5.390   5.017   6.325
  332SOL     OW 1894   3.768   1.855   3.423
  332SOL    HW1 1895   3.740   1.806   3.341
  332SOL    HW2 1896   3.806   1.791   3.489
  333SOL     OW 1897   3.855   6.574   6.993
  333SOL    HW1 1898   3.765   6.567   6.950
  333SOL    HW2 1899   3.901   6.485   6.989
  334SOL     OW 1900   4.708   6.570   2.618
  334SOL    HW1 1901   4.679   6.481   2.584
  334SOL    HW2 1902   4.738   6.627   2.542
  335SOL     OW 1903   3.093   6.800   3.109
  335SOL    HW1 1904   3.095   6.898   3.131
  335SOL    HW2 1905   2.999   6.771   3.094
  336SOL     OW 1906   2.875   0.853   4.845
  336SOL    HW1 1907   2.890   0.933   4.902
  336SOL    HW2 1908   2.914   0.772   4.890
  337SOL     OW 1909   0.509   4.188   1.336
  337SOL    HW1 1910   0.563   4.137   1.268
  337SOL    HW2 1911   0.417   4.150   1.340
  338SOL     OW 1912   3.416   2.677   1.630
  338SOL    HW1 1913   3.337   2.728   1.597
  338SOL    HW2 1914   3.499   2.728   1.612
  339SOL     OW 1915   4.491   0.240   2.676
  339SOL    HW1 1916   4.511   0.142   2.672
  339SOL    HW2 1917   4.393   0.254   2.693
  340SOL     OW 1918   5.131   3.956   4.466
  340SOL    HW1 1919   5.184   4.033   4.430
  340SOL    HW2 1920   5.139   3.878   4.404
  341SOL     OW 1921   5.458   5.097   5.405
  341SOL    HW1 1922   5.495   5.158   5.335
  341SOL    HW2 1923   5.507   5.112   5.491
  342SOL     OW 1924   5.852   3.528   0.114
  342SOL    HW1 1925   5.818   3.621   0.095
  342SOL    HW2 1926   5.798   3.487   0.187
  343SOL     OW 1927   2.539   0.429   3.056
  343SOL    HW1 1928   2.444   0.451   3.032
  343SOL    HW2 1929   2.540   0.348   3.116
  344SOL     OW 1930   3.388   5.184   0.434
  344SOL    HW1 1931   3.400   5.124   0.354
  344SOL    HW2 1932   3.299   5.167   0.476
  345SOL     OW 1933   0.807   6.458   6.000
  345SOL    HW1 1934   0.842   6.386   5.940
  345SOL    HW2 1935   0.867   6.538   5.995
  346SOL     OW 1936   2.346   0.060   3.992
  346SOL    HW1 1937   2.409   0.022   3.924
  346SOL    HW2 1938   2.299   0.139   3.952
  347SOL     OW 1939   5.052   6.101   6.037
  347SOL    HW1 1940   5.079   6.052   6.119
  347SOL    HW2 1941   5.131   6.112   5.977
  348SOL     OW 1942   3.137   5.755   2.819
  348SOL    HW1 1943   3.090   5.834   2.781
  348SOL    HW2 1944   3.189   5.709   2.747
  349SOL     OW 1945   2.114   4.632   1.920
  349SOL    HW1 1946   2.019   4.625   1.890
  349SOL    HW2 1947   2.173   4.642   1.840
  350SOL     OW 1948   4.530   2.755   1.382
  350SOL    HW1 1949   4.529   2.656   1.397
  350SOL    HW2 1950   4.545   2.802   1.469
  351SOL     OW 1951   3.495   1.448   0.276
  351SOL    HW1 1952   3.420   1.386   0.255
  351SOL    HW2 1953   3.471   1.505   0.355
  352SOL     OW 1954   3.563   1.095   6.578
  352SOL    HW1 1955   3.550   1.001   6.609
  352SOL    HW2 1956   3.475   1.132   6.548
  353SOL     OW 1957   1.839   6.880   1.216
  353SOL    HW1 1958   1.927   6.833   1.208
  353SOL    HW2 1959   1.826   6.941   1.138
  354SOL     OW 1960   4.595   1.503   1.920
  354SOL    HW1 1961   4.570   1.408   1.937
  354SOL    HW2 1962   4.653   1.537   1.994
  355SOL     OW 1963   1.604   1.561   2.288
  355SOL    HW1 1964   1.692   1.527   2.323
  355SOL    HW2 1965   1.578   1.509   2.207
  356SOL     OW 1966   3.857   6.138   3.004
  356SOL    HW1 1967   3.906   6.186   2.932
  356SOL    HW2 1968   3.911   6.138   3.088
  357SOL     OW 1969   1.488   4.537   5.512
  357SOL    HW1 1970   1.533   4.475   5.576
  357SOL    HW2 1971   1.554   4.567   5.443
  358SOL     OW 1972   5.104   1.520   2.124
  358SOL    HW1 1973   5.193   1.521   2.169
  358SOL    HW2 1974   5.071   1.426   2.116
  359SOL     OW 1975   1.373   1.754   1.656
  359SOL    HW1 1976   1.378   1.850   1.684
  359SOL    HW2 1977   1.457   1.708   1.682
  360SOL     OW 1978   4.310   6.142   1.019
  360SOL    HW1 1979   4.408   6.154   1.036
  360SOL    HW2 1980   4.281   6.201   0.943
  361SOL     OW 1981   3.871   0.550   3.259
  361SOL    HW1 1982   3.954   0.604   3.273
  361SOL    HW2 1983   3.802   0.578   3.326
  362SOL     OW 1984   2.839   3.861   0.970
  362SOL    HW1 1985   2.910   3.803   0.930
  362SOL    HW2 1986   2.760   3.864   0.909
  363SOL     OW 1987   4.284   4.670   4.130
  363SOL    HW1 1988   4.356   4.600   4.123
  363SOL    HW2 1989   4.197   4.625   4.150
  364SOL     OW 1990   1.942   5.873   5.691
  364SOL    HW1 1991   2.016   5.837   5.634
  364SOL    HW2 1992   1.952   5.837   5.784
  365SOL     OW 1993   4.877   6.614   2.838
  365SOL    HW1 1994   4.819   6.573   2.767
  365SOL    HW2 1995   4.951   6.665   2.794
  366SOL     OW 1996   5.063   6.421   0.401
  366SOL    HW1 1997   5.102   6.509   0.431
  366SOL    HW2 1998   5.134   6.368   0.355
  367SOL     OW 1999   5.139   1.934   1.540
  367SOL    HW1 2000   5.089   2.009   1.497
  367SOL    HW2 2001   5.237   1.945   1.524
  368SOL     OW 2002   1.651   4.842   5.534
  368SOL    HW1 2003   1.648   4.769   5.466
  368SOL    HW2 2004   1.645   4.931   5.489
  369SOL     OW 2005   0.729   3.619   1.655
  369SOL    HW1 2006   0.695   3.610   1.749
  369SOL    HW2 2007   0.777   3.536   1.629
  370SOL     OW 2008   3.496   1.432   6.329
  370SOL    HW1 2009   3.582   1.400   6.291
  370SOL    HW2 2010   3.430   1.447   6.255
  371SOL     OW 2011   4.043   2.888   6.559
  371SOL    HW1 2012   4.031   2.823   6.484
  371SOL    HW2 2013   4.086   2.972   6.524
  372SOL     OW 2014   1.882   4.930   6.657
  372SOL    HW1 2015   1.896   4.840   6.699
  372SOL    HW2 2016   1.831   4.919   6.571
  373SOL     OW 2017   6.613   6.893   0.801
  373SOL    HW1 2018   6.703   6.862   0.833
  373SOL    HW2 2019   6.617   6.992   0.784
  374SOL     OW 2020   4.044   1.250   0.964
  374SOL    HW1 2021   4.096   1.292   0.890
  374SOL    HW2 2022   4.107   1.209   1.030
  375SOL     OW 2023   6.686   4.219   2.008
  375SOL    HW1 2024   6.613   4.151   1.997
  375SOL    HW2 2025   6.677   4.288   1.937
  376SOL     OW 2026   2.163   2.875   4.566
  376SOL    HW1 2027   2.189   2.842   4.657
  376SOL    HW2 2028   2.066   2.856   4.550
  377SOL     OW 2029   4.839   1.699   4.658
  377SOL    HW1 2030   4.863   1.606   4.682
  377SOL    HW2 2031   4.773   1.698   4.583
  378SOL     OW 2032   4.707   2.616   4.451
  378SOL    HW1 2033   4.688   2.691   4.514
  378SOL    HW2 2034   4.622   2.567   4.430
  379SOL     OW 2035   0.008   3.311   1.780
  379SOL    HW1 2036   6.943   3.264   1.792
  379SOL    HW2 2037   0.001   3.375   1.703
  380SOL     OW 2038   1.376   2.172   7.006
  380SOL    HW1 2039   1.301   2.218   0.032
  380SOL    HW2 2040   1.344   2.084   6.971
  381SOL     OW 2041   3.336   4.009   0.213
  381SOL    HW1 2042   3.242   4.043   0.200
  381SOL    HW2 2043   3.383   4.066   0.280
  382SOL     OW 2044   2.274   5.114   1.213
  382SOL    HW1 2045   2.266   5.100   1.114
  382SOL    HW2 2046   2.340   5.186   1.232
  383SOL     OW 2047   6.461   2.187   0.021
  383SOL    HW1 2048   6.545   2.213   6.996
  383SOL    HW2 2049   6.400   2.142   6.979
  384SOL     OW 2050   2.074   5.311   5.021
  384SOL    HW1 2051   2.103   5.384   5.083
  384SOL    HW2 2052   2.118   5.225   5.047
  385SOL     OW 2053   4.876   5.156   1.448
  385SOL    HW1 2054   4.790   5.116   1.415
  385SOL    HW2 2055   4.912   5.218   1.378
  386SOL     OW 2056   2.873   6.708   4.990
  386SOL    HW1 2057   2.955   6.733   4.938
  386SOL    HW2 2058   2.843   6.617   4.963
  387SOL     OW 2059   0.092   0.310   6.068
  387SOL    HW1 2060   0.113   0.361   5.985
  387SOL    HW2 2061   0.015   0.247   6.049
  388SOL     OW 2062   0.393   2.400   5.079
  388SOL    HW1 2063   0.490   2.378   5.075
  388SOL    HW2 2064   0.356   2.374   5.168
  389SOL     OW 2065   4.750   4.403   1.583
  389SOL    HW1 2066   4.712   4.313   1.561
  389SOL    HW2 2067   4.761   4.412   1.682
  390SOL     OW 2068   3.763   2.322   0.532
  390SOL    HW1 2069   3.719   2.232   0.535
  390SOL    HW2 2070   3.862   2.310   0.521
  391SOL     OW 2071   3.588   4.136   3.891
  391SOL    HW1 2072   3.649   4.191   3.949
  391SOL    HW2 2073   3.640   4.099   3.814
  392SOL     OW 2074   1.552   3.909   1.112
  392SOL    HW1 2075   1.592   3.899   1.203
  392SOL    HW2 2076   1.472   3.850   1.103
  393SOL     OW 2077   1.342   5.369   1.373
  393SOL    HW1 2078   1.361   5.366   1.471
  393SOL    HW2 2079   1.252   5.412   1.358
  394SOL     OW 2080   6.316   1.294   6.523
  394SOL    HW1 2081   6.283   1.277   6.615
  394SOL    HW2 2082   6.374   1.375   6.522
  395SOL     OW 2083   5.965   4.529   0.852
  395SOL    HW1 2084   6.042   4.574   0.898
  395SOL    HW2 2085   5.898   4.599   0.826
  396SOL     OW 2086   1.509   6.973   1.458
  396SOL    HW1 2087   1.601   7.012   1.449
  396SOL    HW2 2088   1.490   6.954   1.554
  397SOL     OW 2089   3.818   1.752   4.926
  397SOL    HW1 2090   3.813   1.842   4.882
  397SOL    HW2 2091   3.872   1.760   5.010
  398SOL     OW 2092   0.936   0.708   3.177
  398SOL    HW1 2093   0.889   0.789   3.213
  398SOL    HW2 2094   1.015   0.688   3.234
  399SOL     OW 2095   5.623   5.755   4.046
  399SOL    HW1 2096   5.537   5.764   3.996
  399SOL    HW2 2097   5.637   5.660   4.073
  400SOL     OW 2098   6.091   0.042   3.729
  400SOL    HW1 2099   6.018   0.012   3.668
  400SOL    HW2 2100   6.177   0.047   3.678
  401SOL     OW 2101   0.441   5.883   5.323
  401SOL    HW1 2102   0.362   5.915   5.375
  401SOL    HW2 2103   0.413   5.863   5.229
  402SOL     OW 2104   5.395   1.701   4.082
  402SOL    HW1 2105   5.337   1.719   4.161
  402SOL    HW2 2106   5.375   1.609   4.048
  403SOL     OW 2107   2.869   1.924   5.529
  403SOL    HW1 2108   2.903   1.833   5.552
  403SOL    HW2 2109   2.829   1.923   5.438
  404SOL     OW 2110   3.303   5.798   3.514
  404SOL    HW1 2111   3.256   5.720   3.555
  404SOL    HW2 2112   3.235   5.861   3.476
  405SOL     OW 2113   2.595   5.312   4.290
  405SOL    HW1 2114   2.650   5.292   4.209
  405SOL    HW2 2115   2.518   5.249   4.294
  406SOL     OW 2116   0.449   0.109   6.048
  406SOL    HW1 2117   0.370   0.146   6.098
  406SOL    HW2 2118   0.421   0.085   5.956
  407SOL     OW 2119   2.356   2.828   4.111
  407SOL    HW1 2120   2.369   2.729   4.104
  407SOL    HW2 2121   2.366   2.855   4.206
  408SOL     OW 2122   2.086   2.087   3.205
  408SOL    HW1 2123   2.117   2.151   3.275
  408SOL    HW2 2124   1.994   2.055   3.227
  409SOL     OW 2125   0.637   3.325   2.089
  409SOL    HW1 2126   0.705   3.252   2.091
  409SOL    HW2 2127   0.563   3.301   2.026
  410SOL     OW 2128   1.779   2.403   1.609
  410SOL    HW1 2129   1.720   2.479   1.583
  410SOL    HW2 2130   1.847   2.387   1.537
  411SOL     OW 2131   6.758   1.997   0.793
  411SOL    HW1 2132   6.667   1.969   0.824
  411SOL    HW2 2133   6.811   2.030   0.871
  412SOL     OW 2134   1.648   4.781   2.675
  412SOL    HW1 2135   1.549   4.784   2.689
  412SOL    HW2 2136   1.687   4.708   2.730
  413SOL     OW 2137   6.112   5.273   1.829
  413SOL    HW1 2138   6.206   5.307   1.824
  413SOL    HW2 2139   6.063   5.321   1.901
  414SOL     OW 2140   1.959   0.186   3.122
  414SOL    HW1 2141   2.051   0.167   3.088
  414SOL    HW2 2142   1.894   0.126   3.077
  415SOL     OW 2143   5.692   1.460   6.609
  415SOL    HW1 2144   5.765   1.392   6.608
  415SOL    HW2 2145   5.656   1.470   6.702
  416SOL     OW 2146   5.811   3.470   5.602
  416SOL    HW1 2147   5.835   3.529   5.679
  416SOL    HW2 2148   5.736   3.410   5.628
  417SOL     OW 2149   2.026   1.999   6.444
  417SOL    HW1 2150   1.961   2.074   6.434
  417SOL    HW2 2151   2.008   1.949   6.529
  418SOL     OW 2152   3.684   0.064   5.035
  418SOL    HW1 2153   3.657   0.038   5.128
  418SOL    HW2 2154   3.703   7.004   4.981
  419SOL     OW 2155   6.367   0.265   0.394
  419SOL    HW1 2156   6.445   0.309   0.350
  419SOL    HW2 2157   6.387   0.168   0.409
  420SOL     OW 2158   3.569   0.065   0.859
  420SOL    HW1 2159   3.638   0.127   0.823
  420SOL    HW2 2160   3.546   7.019   0.790
  421SOL     OW 2161   4.858   4.148   2.908
  421SOL    HW1 2162   4.840   4.105   2.820
  421SOL    HW2 2163   4.772   4.158   2.959
  422SOL     OW 2164   5.020   2.576   1.752
  422SOL    HW1 2165   5.110   2.533   1.763
  422SOL    HW2 2166   4.964   2.556   1.832
  423SOL     OW 2167   3.007   1.114   6.164
  423SOL    HW1 2168   3.043   1.023   6.187
  423SOL    HW2 2169   3.026   1.177   6.239
  424SOL     OW 2170   1.836   3.957   3.938
  424SOL    HW1 2171   1.846   3.871   3.988
  424SOL    HW2 2172   1.813   4.030   4.002
  425SOL     OW 2173   3.789   1.012   0.235
  425SOL    HW1 2174   3.782   0.926   0.184
  425SOL    HW2 2175   3.781   1.088   0.171
  426SOL     OW 2176   2.788   2.354   4.215
  426SOL    HW1 2177   2.873   2.312   4.244
  426SOL    HW2 2178   2.742   2.395   4.294
  427SOL     OW 2179   4.980   1.808   3.309
  427SOL    HW1 2180   4.966   1.900   3.345
  427SOL    HW2 2181   5.072   1.777   3.332
  428SOL     OW 2182   2.860   2.622   6.682
  428SOL    HW1 2183   2.769   2.662   6.668
  428SOL    HW2 2184   2.906   2.613   6.594
  429SOL     OW 2185   6.854   5.835   4.339
  429SOL    HW1 2186   6.878   5.912   4.397
  429SOL    HW2 2187   6.925   5.822   4.270
  430SOL     OW 2188   1.420   0.038   4.359
  430SOL    HW1 2189   1.406   7.010   4.444
  430SOL    HW2 2190   1.512   0.018   4.323
  431SOL     OW 2191   2.795   1.849   1.135
  431SOL    HW1 2192   2.699   1.825   1.145
  431SOL    HW2 2193   2.807   1.908   1.055
  432SOL     OW 2194   4.609   1.709   1.297
  432SOL    HW1 2195   4.658   1.771   1.360
  432SOL    HW2 2196   4.512   1.707   1.321
  433SOL     OW 2197   1.802   4.396   0.886
  433SOL    HW1 2198   1.891   4.429   0.857
  433SOL    HW2 2199   1.811   4.342   0.969
  434SOL     OW 2200   4.831   5.393   3.184
  434SOL    HW1 2201   4.811   5.462   3.254
  434SOL    HW2 2202   4.907   5.336   3.216
  435SOL     OW 2203   3.776   2.827   6.021
  435SOL    HW1 2204   3.733   2.878   5.947
  435SOL    HW2 2205   3.718   2.750   6.047
  436SOL     OW 2206   5.188   6.420   1.950
  436SOL    HW1 2207   5.161   6.516   1.944
  436SOL    HW2 2208   5.210   6.385   1.859
  437SOL     OW 2209   6.327   1.462   5.147
  437SOL    HW1 2210   6.376   1.419   5.224
  437SOL    HW2 2211   6.236   1.421   5.139
  438SOL     OW 2212   0.664   4.662   2.368
  438SOL    HW1 2213   0.725   4.725   2.416
  438SOL    HW2 2214   0.597   4.625   2.433
  439SOL     OW 2215   0.053   0.984   5.435
  439SOL    HW1 2216   0.151   0.970   5.420
  439SOL    HW2 2217   0.021   1.059   5.376
  440SOL     OW 2218   4.264   1.701   0.492
  440SOL    HW1 2219   4.274   1.672   0.587
  440SOL    HW2 2220   4.292   1.797   0.483
  441SOL     OW 2221   0.515   4.841   2.109
  441SOL    HW1 2222   0.593   4.897   2.081
  441SOL    HW2 2223   0.518   4.826   2.208
  442SOL     OW 2224   4.627   3.549   5.411
  442SOL    HW1 2225   4.665   3.594   5.330
  442SOL    HW2 2226   4.674   3.462   5.425
  443SOL     OW 2227   4.864   2.745   3.084
  443SOL    HW1 2228   4.943   2.806   3.090
  443SOL    HW2 2229   4.839   2.731   2.988
  444SOL     OW 2230   4.264   1.959   1.432
  444SOL    HW1 2231   4.216   1.956   1.520
  444SOL    HW2 2232   4.336   2.028   1.436
  445SOL     OW 2233   1.610   4.739   3.075
  445SOL    HW1 2234   1.605   4.686   3.160
  445SOL    HW2 2235   1.629   4.678   2.998
  446SOL     OW 2236   6.671   6.870   1.637
  446SOL    HW1 2237   6.574   6.874   1.611
  446SOL    HW2 2238   6.722   6.818   1.567
  447SOL     OW 2239   5.713   3.909   0.901
  447SOL    HW1 2240   5.696   3.984   0.966
  447SOL    HW2 2241   5.794   3.858   0.929
  448SOL     OW 2242   3.410   6.683   4.103
  448SOL    HW1 2243   3.411   6.605   4.165
  448SOL    HW2 2244   3.450   6.656   4.015
  449SOL     OW 2245   1.608   4.293   4.566
  449SOL    HW1 2246   1.541   4.220   4.581
  449SOL    HW2 2247   1.697   4.264   4.603
  450SOL     OW 2248   6.577   4.567   3.095
  450SOL    HW1 2249   6.515   4.611   3.160
  450SOL    HW2 2250   6.543   4.581   3.002
  451SOL     OW 2251   1.320   1.913   0.784
  451SOL    HW1 2252   1.329   1.994   0.841
  451SOL    HW2 2253   1.289   1.836   0.841
  452SOL     OW 2254   4.447   5.443   2.909
  452SOL    HW1 2255   4.353   5.476   2.912
  452SOL    HW2 2256   4.449   5.350   2.874
  453SOL     OW 2257   3.847   1.204   0.049
  453SOL    HW1 2258   3.945   1.225   0.040
  453SOL    HW2 2259   3.799   1.283   0.087
  454SOL     OW 2260   0.306   3.820   4.841
  454SOL    HW1 2261   0.318   3.721   4.833
  454SOL    HW2 2262   0.381   3.858   4.894
  455SOL     OW 2263   5.326   5.323   6.014
  455SOL    HW1 2264   5.279   5.306   5.927
  455SOL    HW2 2265   5.402   5.258   6.023
  456SOL     OW 2266   2.628   0.797   2.687
  456SOL    HW1 2267   2.659   0.882   2.729
  456SOL    HW2 2268   2.684   0.777   2.607
  457SOL     OW 2269   2.333   6.440   6.932
  457SOL    HW1 2270   2.387   6.406   7.010
  457SOL    HW2 2271   2.333   6.371   6.860
  458SOL     OW 2272   3.481   1.163   2.886
  458SOL    HW1 2273   3.500   1.133   2.792
  458SOL    HW2 2274   3.427   1.247   2.883
  459SOL     OW 2275   3.195   0.716   3.370
  459SOL    HW1 2276   3.249   0.731   3.453
  459SOL    HW2 2277   3.144   0.799   3.349
  460SOL     OW 2278   0.581   1.261   6.187
  460SOL    HW1 2279   0.664   1.311   6.164
  460SOL    HW2 2280   0.580   1.239   6.285
  461SOL     OW 2281   1.107   5.972   5.810
  461SOL    HW1 2282   1.031   5.908   5.807
  461SOL    HW2 2283   1.077   6.058   5.852
  462SOL     OW 2284   3.111   3.953   4.985
  462SOL    HW1 2285   3.144   3.953   4.891
  462SOL    HW2 2286   3.029   3.897   4.992
  463SOL     OW 2287   5.702   6.427   3.819
  463SOL    HW1 2288   5.625   6.487   3.841
  463SOL    HW2 2289   5.707   6.352   3.886
  464SOL     OW 2290   4.423   5.516   5.804
  464SOL    HW1 2291   4.490   5.562   5.746
  464SOL    HW2 2292   4.415   5.420   5.778
  465SOL     OW 2293   0.783   4.457   0.170
  465SOL    HW1 2294   0.726   4.506   0.103
  465SOL    HW2 2295   0.795   4.363   0.139
  466SOL     OW 2296   4.072   4.918   3.936
  466SOL    HW1 2297   4.040   5.009   3.961
  466SOL    HW2 2298   4.089   4.914   3.837
  467SOL     OW 2299   6.192   0.456   2.252
  467SOL    HW1 2300   6.174   0.553   2.238
  467SOL    HW2 2301   6.261   0.445   2.323
  468SOL     OW 2302   2.724   6.054   6.296
  468SOL    HW1 2303   2.771   6.022   6.214
  468SOL    HW2 2304   2.628   6.073   6.273
  469SOL     OW 2305   2.765   4.886   5.043
  469SOL    HW1 2306   2.706   4.902   5.122
  469SOL    HW2 2307   2.753   4.792   5.011
  470SOL     OW 2308   1.998   4.837   3.046
  470SOL    HW1 2309   2.086   4.821   3.000
  470SOL    HW2 2310   2.008   4.913   3.110
  471SOL     OW 2311   1.870   1.951   4.418
  471SOL    HW1 2312   1.869   1.863   4.466
  471SOL    HW2 2313   1.956   1.959   4.366
  472SOL     OW 2314   5.314   3.919   6.292
  472SOL    HW1 2315   5.358   3.971   6.365
  472SOL    HW2 2316   5.264   3.982   6.232
  473SOL     OW 2317   5.250   3.562   2.527
  473SOL    HW1 2318   5.343   3.526   2.536
  473SOL    HW2 2319   5.188   3.489   2.499
  474SOL     OW 2320   4.887   5.444   4.122
  474SOL    HW1 2321   4.908   5.517   4.188
  474SOL    HW2 2322   4.801   5.401   4.148
  475SOL     OW 2323   5.756   1.337   1.098
  475SOL    HW1 2324   5.730   1.430   1.070
  475SOL    HW2 2325   5.696   1.271   1.054
  476SOL     OW 2326   1.533   4.085   6.547
  476SOL    HW1 2327   1.626   4.116   6.525
  476SOL    HW2 2328   1.467   4.151   6.512
  477SOL     OW 2329   1.102   5.157   2.966
  477SOL    HW1 2330   1.201   5.172   2.969
  477SOL    HW2 2331   1.061   5.185   3.053
  478SOL     OW 2332   6.019   6.336   3.209
  478SOL    HW1 2333   5.991   6.247   3.245
  478SOL    HW2 2334   6.093   6.324   3.142
  479SOL     OW 2335   2.935   3.355   2.703
  479SOL    HW1 2336   3.033   3.367   2.720
  479SOL    HW2 2337   2.884   3.381   2.785
  480SOL     OW 2338   0.994   0.969   2.796
  480SOL    HW1 2339   0.913   1.023   2.772
  480SOL    HW2 2340   0.969   0.872   2.799
  481SOL     OW 2341   6.226   6.941   1.106
  481SOL    HW1 2342   6.139   6.893   1.121
  481SOL    HW2 2343   6.269   6.907   1.023
  482SOL     OW 2344   4.374   5.161   2.877
  482SOL    HW1 2345   4.368   5.094   2.803
  482SOL    HW2 2346   4.292   5.218   2.876
  483SOL     OW 2347   5.631   1.438   4.044
  483SOL    HW1 2348   5.540   1.475   4.026
  483SOL    HW2 2349   5.637   1.408   4.139
  484SOL     OW 2350   1.807   5.056   3.846
  484SOL    HW1 2351   1.751   4.991   3.896
  484SOL    HW2 2352   1.749   5.112   3.786
  485SOL     OW 2353   5.441   1.909   1.230
  485SOL    HW1 2354   5.386   1.975   1.180
  485SOL    HW2 2355   5.433   1.819   1.186
  486SOL     OW 2356   5.906   6.658   5.855
  486SOL    HW1 2357   5.889   6.736   5.915
  486SOL    HW2 2358   6.000   6.663   5.819
  487SOL     OW 2359   0.424   0.650   6.975
  487SOL    HW1 2360   0.345   0.708   6.958
  487SOL    HW2 2361   0.394   0.566   7.021
  488SOL     OW 2362   1.889   6.069   3.454
  488SOL    HW1 2363   1.924   6.011   3.380
  488SOL    HW2 2364   1.951   6.147   3.467
  489SOL     OW 2365   2.352   5.672   5.293
  489SOL    HW1 2366   2.428   5.668   5.229
  489SOL    HW2 2367   2.346   5.764   5.332
  490SOL     OW 2368   1.626   3.370   4.480
  490SOL    HW1 2369   1.683   3.291   4.456
  490SOL    HW2 2370   1.535   3.337   4.507
  491SOL     OW 2371   6.117   3.037   0.908
  491SOL    HW1 2372   6.156   3.074   0.992
  491SOL    HW2 2373   6.120   2.937   0.911
  492SOL     OW 2374   1.442   2.788   5.436
  492SOL    HW1 2375   1.526   2.817   5.390
  492SOL    HW2 2376   1.372   2.768   5.367
  493SOL     OW 2377   1.547   5.744   4.300
  493SOL    HW1 2378   1.474   5.808   4.326
  493SOL    HW2 2379   1.542   5.726   4.202
  494SOL     OW 2380   2.403   0.923   4.608
  494SOL    HW1 2381   2.502   0.916   4.624
  494SOL    HW2 2382   2.382   1.010   4.565
  495SOL     OW 2383   3.641   4.086   6.947
  495SOL    HW1 2384   3.547   4.056   6.931
  495SOL    HW2 2385   3.641   4.162   7.011
  496SOL     OW 2386   5.215   0.845   3.231
  496SOL    HW1 2387   5.144   0.866   3.164
  496SOL    HW2 2388   5.174   0.841   3.323
  497SOL     OW 2389   4.463   1.859   0.723
  497SOL    HW1 2390   4.439   1.762   0.730
  497SOL    HW2 2391   4.541   1.878   0.783
  498SOL     OW 2392   0.442   0.539   1.027
  498SOL    HW1 2393   0.486   0.614   1.078
  498SOL    HW2 2394   0.436   0.563   0.931
  499SOL     OW 2395   2.968   6.292   0.339
  499SOL    HW1 2396   3.050   6.248   0.301
  499SOL    HW2 2397   2.988   6.388   0.359
  500SOL     OW 2398   5.458   1.913   6.439
  500SOL    HW1 2399   5.386   1.974   6.474
  500SOL    HW2 2400   5.547   1.956   6.453
  501SOL     OW 2401   1.264   1.573   5.348
  501SOL    HW1 2402   1.346   1.630   5.359
  501SOL    HW2 2403   1.245   1.560   5.251
  502SOL     OW 2404   2.266   4.226   6.786
  502SOL    HW1 2405   2.215   4.220   6.872
  502SOL    HW2 2406   2.264   4.136   6.740
  503SOL     OW 2407   3.267   5.769   1.470
  503SOL    HW1 2408   3.330   5.740   1.399
  503SOL    HW2 2409   3.192   5.822   1.429
  504SOL     OW 2410   6.288   6.111   1.258
  504SOL    HW1 2411   6.310   6.079   1.166
  504SOL    HW2 2412   6.198   6.076   1.284
  505SOL     OW 2413   5.800   5.130   5.219
  505SOL    HW1 2414   5.855   5.084   5.289
  505SOL    HW2 2415   5.746   5.202   5.261
  506SOL     OW 2416   3.016   5.075   3.066
  506SOL    HW1 2417   3.006   4.993   3.123
  506SOL    HW2 2418   3.059   5.050   2.980
  507SOL     OW 2419   3.190   0.517   1.872
  507SOL    HW1 2420   3.230   0.448   1.812
  507SOL    HW2 2421   3.215   0.608   1.840
  508SOL     OW 2422   0.023   4.983   3.453
  508SOL    HW1 2423   0.122   4.977   3.437
  508SOL    HW2 2424   0.004   4.961   3.548
  509SOL     OW 2425   4.222   6.887   6.196
  509SOL    HW1 2426   4.150   6.854   6.257
  509SOL    HW2 2427   4.312   6.873   6.239
  510SOL     OW 2428   6.659   3.953   0.582
  510SOL    HW1 2429   6.586   3.994   0.637
  510SOL    HW2 2430   6.679   4.011   0.504
  511SOL     OW 2431   0.565   1.464   7.021
  511SOL    HW1 2432   0.495   1.393   7.013
  511SOL    HW2 2433   0.642   1.428   0.051
  512SOL     OW 2434   0.523   2.582   3.989
  512SOL    HW1 2435   0.489   2.488   3.992
  512SOL    HW2 2436   0.447   2.645   3.973
  513SOL     OW 2437   5.472   6.800   2.873
  513SOL    HW1 2438   5.516   6.725   2.922
  513SOL    HW2 2439   5.374   6.784   2.867
  514SOL     OW 2440   4.682   1.305   5.239
  514SOL    HW1 2441   4.608   1.335   5.299
  514SOL    HW2 2442   4.668   1.209   5.214
  515SOL     OW 2443   3.365   0.677   0.366
  515SOL    HW1 2444   3.443   0.739   0.367
  515SOL    HW2 2445   3.286   0.723   0.407
  516SOL     OW 2446   1.812   6.033   2.380
  516SOL    HW1 2447   1.780   5.947   2.420
  516SOL    HW2 2448   1.911   6.029   2.368
  517SOL     OW 2449   3.596   5.476   1.833
  517SOL    HW1 2450   3.507   5.445   1.799
  517SOL    HW2 2451   3.665   5.461   1.762
  518SOL     OW 2452   1.870   5.305   4.230
  518SOL    HW1 2453   1.871   5.217   4.277
  518SOL    HW2 2454   1.777   5.323   4.195
  519SOL     OW 2455   6.782   6.897   1.972
  519SOL    HW1 2456   6.838   6.827   1.926
  519SOL    HW2 2457   6.752   6.965   1.905
  520SOL     OW 2458   2.499   4.599   0.333
  520SOL    HW1 2459   2.448   4.641   0.408
  520SOL    HW2 2460   2.493   4.499   0.341
  521SOL     OW 2461   6.257   5.603   5.786
  521SOL    HW1 2462   6.262   5.508   5.754
  521SOL    HW2 2463   6.270   5.665   5.709
  522SOL     OW 2464   4.038   4.310   0.381
  522SOL    HW1 2465   3.994   4.362   0.307
  522SOL    HW2 2466   4.133   4.292   0.357
  523SOL     OW 2467   1.565   6.754   6.524
  523SOL    HW1 2468   1.653   6.715   6.498
  523SOL    HW2 2469   1.579   6.836   6.578
  524SOL     OW 2470   7.015   1.134   0.929
  524SOL    HW1 2471   0.046   1.206   0.885
  524SOL    HW2 2472   6.950   1.096   0.864
  525SOL     OW 2473   0.643   3.238   3.650
  525SOL    HW1 2474   0.715   3.306   3.664
  525SOL    HW2 2475   0.680   3.147   3.669
  526SOL     OW 2476   4.503   0.200   3.882
  526SOL    HW1 2477   4.490   0.167   3.976
  526SOL    HW2 2478   4.521   0.299   3.884
  527SOL     OW 2479   0.474   1.698   1.228
  527SOL    HW1 2480   0.559   1.655   1.259
  527SOL    HW2 2481   0.396   1.646   1.262
  528SOL     OW 2482   0.117   2.698   4.270
  528SOL    HW1 2483   0.194   2.668   4.326
  528SOL    HW2 2484   0.062   2.618   4.244
  529SOL     OW 2485   1.469   0.262   6.589
  529SOL    HW1 2486   1.440   0.170   6.564
  529SOL    HW2 2487   1.392   0.325   6.578
  530SOL     OW 2488   3.437   4.592   1.375
  530SOL    HW1 2489   3.386   4.581   1.289
  530SOL    HW2 2490   3.471   4.504   1.405
  531SOL     OW 2491   1.197   0.078   6.865
  531SOL    HW1 2492   1.209   0.145   6.938
  531SOL    HW2 2493   1.151   0.121   6.787
  532SOL     OW 2494   2.267   1.252   5.829
  532SOL    HW1 2495   2.328   1.307   5.886
  532SOL    HW2 2496   2.176   1.293   5.827
  533SOL     OW 2497   3.949   0.587   3.909
  533SOL    HW1 2498   4.038   0.543   3.924
  533SOL    HW2 2499   3.956   0.684   3.931
  534SOL     OW 2500   1.625   3.996   1.783
  534SOL    HW1 2501   1.532   3.968   1.803
  534SOL    HW2 2502   1.684   3.916   1.777
  535SOL     OW 2503   5.127   3.768   4.268
  535SOL    HW1 2504   5.179   3.704   4.213
  535SOL    HW2 2505   5.056   3.719   4.320
  536SOL     OW 2506   6.257   6.632   1.731
  536SOL    HW1 2507   6.224   6.609   1.823
  536SOL    HW2 2508   6.317   6.712   1.736
  537SOL     OW 2509   3.019   1.514   2.175
  537SOL    HW1 2510   3.046   1.606   2.203
  537SOL    HW2 2511   2.995   1.460   2.256
  538SOL     OW 2512   3.634   5.062   4.814
  538SOL    HW1 2513   3.655   5.090   4.720
  538SOL    HW2 2514   3.557   4.998   4.813
  539SOL     OW 2515   1.754   0.456   6.764
  539SOL    HW1 2516   1.827   0.486   6.826
  539SOL    HW2 2517   1.785   0.465   6.670
  540SOL     OW 2518   1.814   0.753   5.164
  540SOL    HW1 2519   1.735   0.805   5.131
  540SOL    HW2 2520   1.895   0.812   5.165
  541SOL     OW 2521   5.229   6.472   3.859
  541SOL    HW1 2522   5.299   6.531   3.819
  541SOL    HW2 2523   5.255   6.377   3.846
  542SOL     OW 2524   3.835   6.944   6.145
  542SOL    HW1 2525   3.851   0.019   6.128
  542SOL    HW2 2526   3.890   6.890   6.081
  543SOL     OW 2527   5.935   2.679   3.512
  543SOL    HW1 2528   5.945   2.742   3.588
  543SOL    HW2 2529   6.025   2.640   3.489
  544SOL     OW 2530   1.276   3.112   1.166
  544SOL    HW1 2531   1.296   3.014   1.154
  544SOL    HW2 2532   1.187   3.122   1.211
  545SOL     OW 2533   6.797   5.699   0.839
  545SOL    HW1 2534   6.712   5.698   0.893
  545SOL    HW2 2535   6.867   5.647   0.886
  546SOL     OW 2536   0.370   3.999   1.743
  546SOL    HW1 2537   0.439   4.064   1.711
  546SOL    HW2 2538   0.381   3.984   1.841
  547SOL     OW 2539   4.739   6.962   6.379
  547SOL    HW1 2540   4.762   6.977   6.475
  547SOL    HW2 2541   4.664   0.000   6.352
  548SOL     OW 2542   3.880   3.023   0.288
  548SOL    HW1 2543   3.804   3.042   0.351
  548SOL    HW2 2544   3.943   3.101   0.288
  549SOL     OW 2545   5.352   1.690   2.193
  549SOL    HW1 2546   5.334   1.784   2.163
  549SOL    HW2 2547   5.400   1.641   2.119
  550SOL     OW 2548   0.169   5.873   3.222
  550SOL    HW1 2549   0.179   5.833   3.131
  550SOL    HW2 2550   0.145   5.801   3.288
  551SOL     OW 2551   5.877   0.252   0.016
  551SOL    HW1 2552   5.800   0.301   0.058
  551SOL    HW2 2553   5.865   0.249   6.940
  552SOL     OW 2554   0.833   6.943   5.123
  552SOL    HW1 2555   0.764   6.993   5.176
  552SOL    HW2 2556   0.793   6.860   5.086
  553SOL     OW 2557   3.542   2.728   6.651
  553SOL    HW1 2558   3.488   2.644   6.649
  553SOL    HW2 2559   3.638   2.706   6.661
  554SOL     OW 2560   6.439   5.488   0.603
  554SOL    HW1 2561   6.394   5.409   0.561
  554SOL    HW2 2562   6.512   5.457   0.663
  555SOL     OW 2563   2.518   3.635   5.339
  555SOL    HW1 2564   2.597   3.577   5.359
  555SOL    HW2 2565   2.546   3.731   5.338
  556SOL     OW 2566   6.035   6.852   3.407
  556SOL    HW1 2567   5.968   6.890   3.471
  556SOL    HW2 2568   6.090   6.783   3.453
  557SOL     OW 2569   5.484   4.101   6.437
  557SOL    HW1 2570   5.483   4.052   6.524
  557SOL    HW2 2571   5.577   4.100   6.399
  558SOL     OW 2572   3.184   3.492   2.349
  558SOL    HW1 2573   3.260   3.436   2.317
  558SOL    HW2 2574   3.101   3.436   2.354
  559SOL     OW 2575   6.854   0.573   6.657
  559SOL    HW1 2576   6.903   0.513   6.593
  559SOL    HW2 2577   6.829   0.521   6.738
  560SOL     OW 2578   6.723   2.987   4.124
  560SOL    HW1 2579   6.639   2.938   4.100
  560SOL    HW2 2580   6.702   3.063   4.185
  561SOL     OW 2581   0.436   3.452   0.630
  561SOL    HW1 2582   0.476   3.499   0.552
  561SOL    HW2 2583   0.507   3.402   0.680
  562SOL     OW 2584   3.830   6.798   4.008
  562SOL    HW1 2585   3.914   6.808   3.955
  562SOL    HW2 2586   3.773   6.879   3.994
  563SOL     OW 2587   1.498   0.652   4.200
  563SOL    HW1 2588   1.461   0.736   4.239
  563SOL    HW2 2589   1.540   0.672   4.111
  564SOL     OW 2590   6.186   2.128   6.385
  564SOL    HW1 2591   6.226   2.116   6.475
  564SOL    HW2 2592   6.200   2.223   6.354
  565SOL     OW 2593   3.272   3.361   3.271
  565SOL    HW1 2594   3.218   3.433   3.228
  565SOL    HW2 2595   3.253   3.360   3.369
  566SOL     OW 2596   2.891   1.171   3.757
  566SOL    HW1 2597   2.866   1.148   3.851
  566SOL    HW2 2598   2.887   1.270   3.745
  567SOL     OW 2599   2.801   2.554   5.418
  567SOL    HW1 2600   2.798   2.498   5.501
  567SOL    HW2 2601   2.885   2.534   5.367
  568SOL     OW 2602   0.726   6.198   0.326
  568SOL    HW1 2603   0.776   6.245   0.253
  568SOL    HW2 2604   0.698   6.107   0.294
  569SOL     OW 2605   5.883   3.338   6.928
  569SOL    HW1 2606   5.895   3.398   6.849
  569SOL    HW2 2607   5.858   3.393   7.007
  570SOL     OW 2608   3.346   0.718   5.693
  570SOL    HW1 2609   3.389   0.670   5.769
  570SOL    HW2 2610   3.280   0.658   5.648
  571SOL     OW 2611   2.347   4.451   1.567
  571SOL    HW1 2612   2.315   4.528   1.622
  571SOL    HW2 2613   2.442   4.430   1.591
  572SOL     OW 2614   2.135   0.984   4.649
  572SOL    HW1 2615   2.223   0.938   4.646
  572SOL    HW2 2616   2.148   1.083   4.650
  573SOL     OW 2617   0.632   1.138   5.320
  573SOL    HW1 2618   0.678   1.069   5.376
  573SOL    HW2 2619   0.616   1.221   5.375
  574SOL     OW 2620   1.980   1.289   5.844
  574SOL    HW1 2621   1.902   1.349   5.864
  574SOL    HW2 2622   1.961   1.197   5.879
  575SOL     OW 2623   4.027   4.250   6.938
  575SOL    HW1 2624   3.974   4.230   7.020
  575SOL    HW2 2625   4.110   4.299   6.962
  576SOL     OW 2626   2.058   1.287   2.896
  576SOL    HW1 2627   2.098   1.377   2.912
  576SOL    HW2 2628   2.034   1.277   2.800
  577SOL     OW 2629   0.333   1.037   1.860
  577SOL    HW1 2630   0.278   1.061   1.780
  577SOL    HW2 2631   0.381   0.951   1.842
  578SOL     OW 2632   3.551   6.896   6.998
  578SOL    HW1 2633   3.587   6.871   6.908
  578SOL    HW2 2634   3.621   6.883   0.045
  579SOL     OW 2635   1.489   3.525   1.859
  579SOL    HW1 2636   1.569   3.543   1.915
  579SOL    HW2 2637   1.475   3.426   1.852
  580SOL     OW 2638   4.657   5.129   5.012
  580SOL    HW1 2639   4.577   5.185   4.989
  580SOL    HW2 2640   4.690   5.083   4.930
  581SOL     OW 2641   2.064   2.627   4.452
  581SOL    HW1 2642   2.033   2.587   4.538
  581SOL    HW2 2643   2.113   2.557   4.399
  582SOL     OW 2644   5.867   4.828   4.399
  582SOL    HW1 2645   5.909   4.739   4.418
  582SOL    HW2 2646   5.929   4.901   4.427
  583SOL     OW 2647   3.674   6.093   5.864
  583SOL    HW1 2648   3.659   6.012   5.807
  583SOL    HW2 2649   3.762   6.085   5.910
  584SOL     OW 2650   3.880   0.586   5.304
  584SOL    HW1 2651   3.962   0.540   5.269
  584SOL    HW2 2652   3.895   0.685   5.304
  585SOL     OW 2653   3.721   6.549   1.654
  585SOL    HW1 2654   3.626   6.528   1.675
  585SOL    HW2 2655   3.726   6.602   1.569
  586SOL     OW 2656   3.774   0.219   0.758
  586SOL    HW1 2657   3.827   0.162   0.695
  586SOL    HW2 2658   3.817   0.309   0.766
  587SOL     OW 2659   4.676   1.582   2.156
  587SOL    HW1 2660   4.759   1.632   2.132
  587SOL    HW2 2661   4.696   1.518   2.230
  588SOL     OW 2662   1.833   4.404   2.793
  588SOL    HW1 2663   1.926   4.392   2.759
  588SOL    HW2 2664   1.813   4.334   2.861
  589SOL     OW 2665   3.296   5.482   0.648
  589SOL    HW1 2666   3.347   5.401   0.678
  589SOL    HW2 2667   3.356   5.538   0.590
  590SOL     OW 2668   2.921   1.948   0.106
  590SOL    HW1 2669   3.020   1.964   0.107
  590SOL    HW2 2670   2.885   1.964   0.014
  591SOL     OW 2671   3.003   6.227   4.020
  591SOL    HW1 2672   3.049   6.265   3.940
  591SOL    HW2 2673   2.910   6.265   4.027
  592SOL     OW 2674   4.109   2.058   4.748
  592SOL    HW1 2675   4.136   2.049   4.653
  592SOL    HW2 2676   4.015   2.027   4.759
  593SOL     OW 2677   2.035   1.817   6.671
  593SOL    HW1 2678   2.041   1.866   6.758
  593SOL    HW2 2679   2.096   1.737   6.673
  594SOL     OW 2680   4.320   0.958   2.830
  594SOL    HW1 2681   4.395   1.011   2.870
  594SOL    HW2 2682   4.342   0.861   2.833
  595SOL     OW 2683   6.322   5.122   2.994
  595SOL    HW1 2684   6.387   5.170   2.935
  595SOL    HW2 2685   6.230   5.158   2.979
  596SOL     OW 2686   6.451   5.026   4.296
  596SOL    HW1 2687   6.370   5.039   4.238
  596SOL    HW2 2688   6.509   4.955   4.256
  597SOL     OW 2689   3.228   1.283   6.752
  597SOL    HW1 2690   3.246   1.185   6.750
  597SOL    HW2 2691   3.304   1.332   6.708
  598SOL     OW 2692   3.036   3.963   3.539
  598SOL    HW1 2693   3.125   3.936   3.577
  598SOL    HW2 2694   2.979   3.997   3.614
  599SOL     OW 2695   1.847   5.125   1.697
  599SOL    HW1 2696   1.886   5.211   1.733
  599SOL    HW2 2697   1.752   5.140   1.672
  600SOL     OW 2698   6.991   3.570   5.425
  600SOL    HW1 2699   6.958   3.635   5.357
  600SOL    HW2 2700   0.013   3.493   5.379
  601SOL     OW 2701   0.419   6.311   5.775
  601SOL    HW1 2702   0.473   6.389   5.806
  601SOL    HW2 2703   0.477   6.229   5.774
  602SOL     OW 2704   1.566   0.397   3.513
  602SOL    HW1 2705   1.592   0.394   3.610
  602SOL    HW2 2706   1.614   0.326   3.463
  603SOL     OW 2707   1.907   1.371   4.129
  603SOL    HW1 2708   1.953   1.397   4.214
  603SOL    HW2 2709   1.829   1.312   4.150
  604SOL     OW 2710   5.943   3.263   0.884
  604SOL    HW1 2711   5.916   3.274   0.789
  604SOL    HW2 2712   6.003   3.184   0.893
  605SOL     OW 2713   6.513   6.491   1.240
  605SOL    HW1 2714   6.533   6.544   1.322
  605SOL    HW2 2715   6.420   6.454   1.246
  606SOL     OW 2716   4.145   6.698   5.057
  606SOL    HW1 2717   4.064   6.683   5.115
  606SOL    HW2 2718   4.127   6.773   4.993
  607SOL     OW 2719   1.852   2.967   5.864
  607SOL    HW1 2720   1.793   2.952   5.784
  607SOL    HW2 2721   1.891   2.879   5.893
  608SOL     OW 2722   3.332   1.050   6.017
  608SOL    HW1 2723   3.317   1.026   5.921
  608SOL    HW2 2724   3.431   1.057   6.034
  609SOL     OW 2725   3.744   2.964   2.166
  609SOL    HW1 2726   3.662   2.921   2.203
  609SOL    HW2 2727   3.741   2.960   2.066
  610SOL     OW 2728   4.569   3.538   1.650
  610SOL    HW1 2729   4.639   3.512   1.716
  610SOL    HW2 2730   4.604   3.525   1.557
  611SOL     OW 2731   4.079   1.238   3.162
  611SOL    HW1 2732   3.985   1.273   3.160
  611SOL    HW2 2733   4.140   1.304   3.119
  612SOL     OW 2734   4.788   4.869   3.659
  612SOL    HW1 2735   4.818   4.774   3.646
  612SOL    HW2 2736   4.868   4.928   3.671
  613SOL     OW 2737   3.804   4.457   5.882
  613SOL    HW1 2738   3.861   4.509   5.818
  613SOL    HW2 2739   3.807   4.500   5.972
  614SOL     OW 2740   2.614   6.178   5.996
  614SOL    HW1 2741   2.651   6.237   6.068
  614SOL    HW2 2742   2.521   6.206   5.975
  615SOL     OW 2743   0.337   4.675   2.573
  615SOL    HW1 2744   0.300   4.764   2.598
  615SOL    HW2 2745   0.358   4.674   2.475
  616SOL     OW 2746   6.079   3.081   3.747
  616SOL    HW1 2747   6.015   3.085   3.823
  616SOL    HW2 2748   6.141   3.159   3.750
  617SOL     OW 2749   3.229   6.562   6.068
  617SOL    HW1 2750   3.285   6.480   6.061
  617SOL    HW2 2751   3.134   6.539   6.047
  618SOL     OW 2752   1.728   1.102   3.214
  618SOL    HW1 2753   1.713   1.003   3.220
  618SOL    HW2 2754   1.640   1.150   3.218
  619SOL     OW 2755   0.937   2.023   6.986
  619SOL    HW1 2756   0.956   2.118   6.963
  619SOL    HW2 2757   0.999   1.963   6.936
  620SOL     OW 2758   4.271   3.442   1.337
  620SOL    HW1 2759   4.318   3.529   1.348
  620SOL    HW2 2760   4.248   3.405   1.427
  621SOL     OW 2761   0.539   5.484   1.200
  621SOL    HW1 2762   0.479   5.442   1.132
  621SOL    HW2 2763   0.621   5.429   1.210
  622SOL     OW 2764   0.822   0.763   6.482
  622SOL    HW1 2765   0.831   0.676   6.432
  622SOL    HW2 2766   0.910   0.810   6.483
  623SOL     OW 2767   0.388   5.081   5.418
  623SOL    HW1 2768   0.452   5.145   5.461
  623SOL    HW2 2769   0.375   5.001   5.476
  624SOL     OW 2770   1.430   1.699   1.081
  624SOL    HW1 2771   1.361   1.699   1.009
  624SOL    HW2 2772   1.510   1.647   1.052
  625SOL     OW 2773   1.697   1.650   2.905
  625SOL    HW1 2774   1.786   1.631   2.945
  625SOL    HW2 2775   1.637   1.691   2.975
  626SOL     OW 2776   3.370   6.651   4.604
  626SOL    HW1 2777   3.437   6.584   4.573
  626SOL    HW2 2778   3.418   6.734   4.633
  627SOL     OW 2779   5.223   0.232   0.235
  627SOL    HW1 2780   5.312   0.270   0.258
  627SOL    HW2 2781   5.193   0.270   0.147
  628SOL     OW 2782   5.509   4.121   3.493
  628SOL    HW1 2783   5.558   4.077   3.419
  628SOL    HW2 2784   5.569   4.187   3.539
  629SOL     OW 2785   1.654   6.722   0.842
  629SOL    HW1 2786   1.636   6.813   0.804
  629SOL    HW2 2787   1.617   6.716   0.934
  630SOL     OW 2788   3.466   2.018   1.366
  630SOL    HW1 2789   3.388   1.957   1.380
  630SOL    HW2 2790   3.469   2.048   1.271
  631SOL     OW 2791   2.436   7.015   4.919
  631SOL    HW1 2792   2.523   0.042   4.925
  631SOL    HW2 2793   2.446   6.940   4.853
  632SOL     OW 2794   2.688   0.713   0.932
  632SOL    HW1 2795   2.591   0.736   0.932
  632SOL    HW2 2796   2.708   0.656   1.012
  633SOL     OW 2797   2.528   6.424   5.404
  633SOL    HW1 2798   2.513   6.479   5.487
  633SOL    HW2 2799   2.621   6.387   5.406
  634SOL     OW 2800   2.664   5.660   2.173
  634SOL    HW1 2801   2.748   5.663   2.119
  634SOL    HW2 2802   2.666   5.732   2.242
  635SOL     OW 2803   2.591   0.519   2.610
  635SOL    HW1 2804   2.631   0.587   2.671
  635SOL    HW2 2805   2.635   0.524   2.521
  636SOL     OW 2806   5.179   5.520   0.146
  636SOL    HW1 2807   5.086   5.495   0.123
  636SOL    HW2 2808   5.215   5.457   0.215
  637SOL     OW 2809   5.844   4.459   0.065
  637SOL    HW1 2810   5.795   4.510   7.018
  637SOL    HW2 2811   5.888   4.379   0.023
  638SOL     OW 2812   5.277   1.247   2.567
  638SOL    HW1 2813   5.298   1.337   2.529
  638SOL    HW2 2814   5.324   1.177   2.513
  639SOL     OW 2815   4.857   3.990   2.666
  639SOL    HW1 2816   4.841   4.035   2.579
  639SOL    HW2 2817   4.888   3.896   2.650
  640SOL     OW 2818   2.640   3.370   5.748
  640SOL    HW1 2819   2.572   3.427   5.795
  640SOL    HW2 2820   2.595   3.315   5.678
  641SOL     OW 2821   0.382   5.886   5.953
  641SOL    HW1 2822   0.405   5.796   5.990
  641SOL    HW2 2823   0.285   5.887   5.925
  642SOL     OW 2824   1.286   4.903   6.113
  642SOL    HW1 2825   1.269   4.959   6.031
  642SOL    HW2 2826   1.266   4.807   6.093
  643SOL     OW 2827   6.090   6.069   5.050
  643SOL    HW1 2828   6.129   5.980   5.072
  643SOL    HW2 2829   6.111   6.133   5.124
  644SOL     OW 2830   2.548   5.548   2.456
  644SOL    HW1 2831   2.578   5.629   2.407
  644SOL    HW2 2832   2.472   5.572   2.517
  645SOL     OW 2833   6.825   2.863   3.061
  645SOL    HW1 2834   6.812   2.884   3.157
  645SOL    HW2 2835   6.921   2.874   3.037
  646SOL     OW 2836   1.165   2.319   4.497
  646SOL    HW1 2837   1.190   2.308   4.400
  646SOL    HW2 2838   1.145   2.229   4.536
  647SOL     OW 2839   5.350   2.874   0.262
  647SOL    HW1 2840   5.404   2.956   0.281
  647SOL    HW2 2841   5.268   2.898   0.210
  648SOL     OW 2842   4.672   2.087   3.834
  648SOL    HW1 2843   4.769   2.111   3.825
  648SOL    HW2 2844   4.640   2.112   3.925
  649SOL     OW 2845   4.496   4.515   2.154
  649SOL    HW1 2846   4.503   4.426   2.110
  649SOL    HW2 2847   4.529   4.507   2.248
  650SOL     OW 2848   5.095   3.552   0.665
  650SOL    HW1 2849   5.061   3.458   0.675
  650SOL    HW2 2850   5.195   3.551   0.660
  651SOL     OW 2851   0.785   6.462   6.472
  651SOL    HW1 2852   0.835   6.474   6.386
  651SOL    HW2 2853   0.703   6.519   6.471
  652SOL     OW 2854   5.175   1.621   2.388
  652SOL    HW1 2855   5.131   1.698   2.435
  652SOL    HW2 2856   5.229   1.655   2.312
  653SOL     OW 2857   3.537   4.896   3.204
  653SOL    HW1 2858   3.556   4.913   3.107
  653SOL    HW2 2859   3.438   4.892   3.218
  654SOL     OW 2860   6.625   5.381   6.769
  654SOL    HW1 2861   6.553   5.317   6.796
  654SOL    HW2 2862   6.654   5.359   6.676
  655SOL     OW 2863   6.914   1.185   6.919
  655SOL    HW1 2864   6.917   1.274   6.874
  655SOL    HW2 2865   6.819   1.161   6.938
  656SOL     OW 2866   2.340   6.043   1.608
  656SOL    HW1 2867   2.270   6.056   1.679
  656SOL    HW2 2868   2.306   6.080   1.521
  657SOL     OW 2869   3.787   1.233   6.654
  657SOL    HW1 2870   3.716   1.198   6.593
  657SOL    HW2 2871   3.746   1.293   6.722
  658SOL     OW 2872   3.900   5.199   6.045
  658SOL    HW1 2873   3.973   5.131   6.038
  658SOL    HW2 2874   3.932   5.285   6.006
  659SOL     OW 2875   3.302   0.127   5.787
  659SOL    HW1 2876   3.262   0.206   5.741
  659SOL    HW2 2877   3.284   0.132   5.885
  660SOL     OW 2878   3.662   5.749   3.271
  660SOL    HW1 2879   3.727   5.825   3.277
  660SOL    HW2 2880   3.706   5.671   3.228
  661SOL     OW 2881   6.152   5.740   2.900
  661SOL    HW1 2882   6.153   5.835   2.930
  661SOL    HW2 2883   6.157   5.680   2.980
  662SOL     OW 2884   3.772   1.307   0.793
  662SOL    HW1 2885   3.807   1.237   0.730
  662SOL    HW2 2886   3.841   1.328   0.862
  663SOL     OW 2887   1.827   4.770   4.616
  663SOL    HW1 2888   1.880   4.855   4.623
  663SOL    HW2 2889   1.845   4.713   4.696
  664SOL     OW 2890   5.516   0.717   6.591
  664SOL    HW1 2891   5.561   0.657   6.657
  664SOL    HW2 2892   5.507   0.809   6.629
  665SOL     OW 2893   1.553   4.350   2.117
  665SOL    HW1 2894   1.545   4.449   2.116
  665SOL    HW2 2895   1.470   4.310   2.156
  666SOL     OW 2896   4.388   1.399   1.119
  666SOL    HW1 2897   4.371   1.488   1.161
  666SOL    HW2 2898   4.309   1.340   1.134
  667SOL     OW 2899   1.165   0.014   2.311
  667SOL    HW1 2900   1.218   6.991   2.382
  667SOL    HW2 2901   1.185   6.994   2.222
  668SOL     OW 2902   5.459   3.806   0.812
  668SOL    HW1 2903   5.400   3.831   0.889
  668SOL    HW2 2904   5.554   3.802   0.844
  669SOL     OW 2905   4.856   2.017   2.332
  669SOL    HW1 2906   4.825   1.922   2.329
  669SOL    HW2 2907   4.913   2.037   2.252
  670SOL     OW 2908   3.362   2.076   3.261
  670SOL    HW1 2909   3.397   1.985   3.236
  670SOL    HW2 2910   3.386   2.095   3.356
  671SOL     OW 2911   2.532   6.200   1.654
  671SOL    HW1 2912   2.509   6.282   1.708
  671SOL    HW2 2913   2.450   6.143   1.645
  672SOL     OW 2914   1.072   6.727   2.593
  672SOL    HW1 2915   1.035   6.694   2.680
  672SOL    HW2 2916   1.077   6.652   2.528
  673SOL     OW 2917   5.666   6.801   0.242
  673SOL    HW1 2918   5.588   6.767   0.295
  673SOL    HW2 2919   5.722   6.724   0.211
  674SOL     OW 2920   5.505   0.721   3.959
  674SOL    HW1 2921   5.535   0.801   4.010
  674SOL    HW2 2922   5.441   0.749   3.888
  675SOL     OW 2923   0.294   3.968   3.253
  675SOL    HW1 2924   0.223   3.914   3.297
  675SOL    HW2 2925   0.341   4.024   3.322
  676SOL     OW 2926   2.477   6.477   5.865
  676SOL    HW1 2927   2.547   6.426   5.815
  676SOL    HW2 2928   2.393   6.422   5.870
  677SOL     OW 2929   5.464   1.662   1.085
  677SOL    HW1 2930   5.401   1.651   1.008
  677SOL    HW2 2931   5.558   1.657   1.053
  678SOL     OW 2932   0.806   5.118   3.537
  678SOL    HW1 2933   0.779   5.167   3.454
  678SOL    HW2 2934   0.904   5.131   3.554
  679SOL     OW 2935   4.673   1.888   5.443
  679SOL    HW1 2936   4.636   1.921   5.356
  679SOL    HW2 2937   4.601   1.888   5.512
  680SOL     OW 2938   6.340   6.240   4.129
  680SOL    HW1 2939   6.418   6.291   4.164
  680SOL    HW2 2940   6.264   6.303   4.113
  681SOL     OW 2941   4.824   4.555   3.037
  681SOL    HW1 2942   4.794   4.542   2.943
  681SOL    HW2 2943   4.757   4.612   3.086
  682SOL     OW 2944   0.072   1.428   2.889
  682SOL    HW1 2945   0.008   1.503   2.910
  682SOL    HW2 2946   0.158   1.443   2.937
  683SOL     OW 2947   3.469   4.297   1.425
  683SOL    HW1 2948   3.437   4.217   1.476
  683SOL    HW2 2949   3.563   4.318   1.451
  684SOL     OW 2950   6.502   1.172   5.534
  684SOL    HW1 2951   6.591   1.199   5.570
  684SOL    HW2 2952   6.459   1.108   5.598
  685SOL     OW 2953   2.707   6.762   2.758
  685SOL    HW1 2954   2.663   6.746   2.670
  685SOL    HW2 2955   2.694   6.682   2.817
  686SOL     OW 2956   3.713   0.516   5.071
  686SOL    HW1 2957   3.743   0.555   5.158
  686SOL    HW2 2958   3.728   0.582   4.997
  687SOL     OW 2959   0.250   1.579   3.354
  687SOL    HW1 2960   0.234   1.598   3.451
  687SOL    HW2 2961   0.290   1.488   3.344
  688SOL     OW 2962   6.035   1.389   6.904
  688SOL    HW1 2963   5.988   1.466   6.860
  688SOL    HW2 2964   6.090   1.423   6.981
  689SOL     OW 2965   1.935   5.816   6.815
  689SOL    HW1 2966   1.989   5.767   6.884
  689SOL    HW2 2967   1.924   5.757   6.734
  690SOL     OW 2968   5.569   3.780   3.440
  690SOL    HW1 2969   5.506   3.795   3.364
  690SOL    HW2 2970   5.519   3.782   3.527
  691SOL     OW 2971   5.867   1.382   1.366
  691SOL    HW1 2972   5.783   1.380   1.421
  691SOL    HW2 2973   5.846   1.360   1.271
  692SOL     OW 2974   1.659   0.325   4.776
  692SOL    HW1 2975   1.755   0.304   4.796
  692SOL    HW2 2976   1.645   0.424   4.780
  693SOL     OW 2977   5.899   5.594   2.995
  693SOL    HW1 2978   5.924   5.611   3.091
  693SOL    HW2 2979   5.895   5.681   2.946
  694SOL     OW 2980   4.638   5.954   5.256
  694SOL    HW1 2981   4.708   5.896   5.213
  694SOL    HW2 2982   4.622   5.923   5.349
  695SOL     OW 2983   4.307   6.822   3.907
  695SOL    HW1 2984   4.300   6.855   4.001
  695SOL    HW2 2985   4.331   6.898   3.846
  696SOL     OW 2986   5.558   4.147   2.825
  696SOL    HW1 2987   5.490   4.090   2.779
  696SOL    HW2 2988   5.638   4.158   2.766
  697SOL     OW 2989   0.878   6.192   2.205
  697SOL    HW1 2990   0.919   6.129   2.272
  697SOL    HW2 2991   0.939   6.200   2.126
  698SOL     OW 2992   5.511   6.212   6.696
  698SOL    HW1 2993   5.551   6.135   6.647
  698SOL    HW2 2994   5.416   6.192   6.719
  699SOL     OW 2995   3.367   3.314   1.053
  699SOL    HW1 2996   3.357   3.235   0.993
  699SOL    HW2 2997   3.284   3.369   1.051
  700SOL     OW 2998   4.138   0.086   4.675
  700SOL    HW1 2999   4.068   0.155   4.694
  700SOL    HW2 3000   4.095   0.004   4.638
  701SOL     OW 3001   4.835   5.272   1.714
  701SOL    HW1 3002   4.871   5.245   1.625
  701SOL    HW2 3003   4.735   5.261   1.714
  702SOL     OW 3004   3.745   0.871   4.431
  702SOL    HW1 3005   3.779   0.779   4.414
  702SOL    HW2 3006   3.646   0.869   4.442
  703SOL     OW 3007   2.790   2.325   6.786
  703SOL    HW1 3008   2.766   2.388   6.712
  703SOL    HW2 3009   2.888   2.335   6.807
  704SOL     OW 3010   3.433   1.867   5.347
  704SOL    HW1 3011   3.502   1.926   5.305
  704SOL    HW2 3012   3.387   1.917   5.420
  705SOL     OW 3013   0.208   6.757   5.213
  705SOL    HW1 3014   0.275   6.737   5.142
  705SOL    HW2 3015   0.203   6.680   5.277
  706SOL     OW 3016   3.806   1.322   4.275
  706SOL    HW1 3017   3.881   1.260   4.295
  706SOL    HW2 3018   3.721   1.270   4.267
  707SOL     OW 3019   2.930   5.151   4.205
  707SOL    HW1 3020   2.941   5.164   4.106
  707SOL    HW2 3021   2.904   5.238   4.247
  708SOL     OW 3022   5.234   6.086   3.943
  708SOL    HW1 3023   5.182   6.087   3.858
  708SOL    HW2 3024   5.172   6.093   4.021
  709SOL     OW 3025   2.308   0.401   1.100
  709SOL    HW1 3026   2.387   0.347   1.129
  709SOL    HW2 3027   2.240   0.341   1.058
  710SOL     OW 3028   4.880   3.227   1.975
  710SOL    HW1 3029   4.970   3.190   1.999
  710SOL    HW2 3030   4.809   3.160   1.996
  711SOL     OW 3031   0.035   1.588   0.582
  711SOL    HW1 3032   7.010   1.632   0.658
  711SOL    HW2 3033   6.998   1.588   0.501
  712SOL     OW 3034   4.893   4.150   7.012
  712SOL    HW1 3035   4.856   4.057   7.011
  712SOL    HW2 3036   4.934   4.168   0.079
  713SOL     OW 3037   4.463   3.485   5.607
  713SOL    HW1 3038   4.530   3.501   5.534
  713SOL    HW2 3039   4.510   3.470   5.693
  714SOL     OW 3040   5.507   5.720   3.321
  714SOL    HW1 3041   5.570   5.750   3.393
  714SOL    HW2 3042   5.527   5.770   3.237
  715SOL     OW 3043   6.359   4.583   5.220
  715SOL    HW1 3044   6.432   4.651   5.213
  715SOL    HW2 3045   6.374   4.510   5.152
  716SOL     OW 3046   2.927   2.204   3.404
  716SOL    HW1 3047   2.946   2.240   3.495
  716SOL    HW2 3048   2.830   2.182   3.397
  717SOL     OW 3049   5.280   5.023   4.226
  717SOL    HW1 3050   5.211   5.074   4.277
  717SOL    HW2 3051   5.364   5.017   4.279
  718SOL     OW 3052   5.183   2.325   5.226
  718SOL    HW1 3053   5.148   2.418   5.221
  718SOL    HW2 3054   5.131   2.272   5.293
  719SOL     OW 3055   4.851   6.902   3.823
  719SOL    HW1 3056   4.906   6.975   3.866
  719SOL    HW2 3057   4.911   6.842   3.771
  720SOL     OW 3058   2.611   0.995   1.058
  720SOL    HW1 3059   2.709   1.013   1.068
  720SOL    HW2 3060   2.578   1.039   0.974
  721SOL     OW 3061   6.880   2.333   2.143
  721SOL    HW1 3062   6.977   2.333   2.118
  721SOL    HW2 3063   6.827   2.378   2.072
  722SOL     OW 3064   4.928   5.977   0.614
  722SOL    HW1 3065   4.990   6.052   0.637
  722SOL    HW2 3066   4.954   5.938   0.525
  723SOL     OW 3067   2.120   0.504   4.654
  723SOL    HW1 3068   2.197   0.442   4.637
  723SOL    HW2 3069   2.037   0.451   4.667
  724SOL     OW 3070   0.937   2.111   4.001
  724SOL    HW1 3071   0.914   2.014   4.006
  724SOL    HW2 3072   0.931   2.141   3.906
  725SOL     OW 3073   1.806   4.145   2.932
  725SOL    HW1 3074   1.873   4.126   3.004
  725SOL    HW2 3075   1.715   4.120   2.964
  726SOL     OW 3076   1.724   3.619   0.867
  726SOL    HW1 3077   1.743   3.642   0.962
  726SOL    HW2 3078   1.725   3.520   0.855
  727SOL     OW 3079   3.781   5.393   4.779
  727SOL    HW1 3080   3.696   5.395   4.832
  727SOL    HW2 3081   3.790   5.304   4.733
  728SOL     OW 3082   6.374   3.325   3.737
  728SOL    HW1 3083   6.387   3.375   3.651
  728SOL    HW2 3084   6.447   3.258   3.748
  729SOL     OW 3085   0.328   4.135   0.805
  729SOL    HW1 3086   0.230   4.127   0.791
  729SOL    HW2 3087   0.352   4.102   0.896
  730SOL     OW 3088   3.728   1.006   3.294
  730SOL    HW1 3089   3.746   1.056   3.209
  730SOL    HW2 3090   3.634   0.971   3.292
  731SOL     OW 3091   4.517   5.525   4.803
  731SOL    HW1 3092   4.488   5.470   4.882
  731SOL    HW2 3093   4.462   5.499   4.723
  732SOL     OW 3094   3.904   1.106   5.275
  732SOL    HW1 3095   3.880   1.200   5.300
  732SOL    HW2 3096   3.878   1.088   5.180
  733SOL     OW 3097   6.448   5.544   3.112
  733SOL    HW1 3098   6.445   5.503   3.203
  733SOL    HW2 3099   6.382   5.498   3.053
  734SOL     OW 3100   6.481   6.937   2.641
  734SOL    HW1 3101   6.428   6.941   2.726
  734SOL    HW2 3102   6.522   6.847   2.631
  735SOL     OW 3103   4.688   0.077   2.152
  735SOL    HW1 3104   4.659   7.011   2.188
  735SOL    HW2 3105   4.654   0.087   2.058
  736SOL     OW 3106   2.093   1.234   3.977
  736SOL    HW1 3107   2.049   1.221   3.888
  736SOL    HW2 3108   2.023   1.260   4.045
  737SOL     OW 3109   3.518   0.851   6.328
  737SOL    HW1 3110   3.502   0.834   6.425
  737SOL    HW2 3111   3.602   0.805   6.299
  738SOL     OW 3112   2.364   4.695   0.548
  738SOL    HW1 3113   2.413   4.682   0.634
  738SOL    HW2 3114   2.266   4.678   0.563
  739SOL     OW 3115   2.456   6.875   3.740
  739SOL    HW1 3116   2.544   6.912   3.711
  739SOL    HW2 3117   2.382   6.933   3.706
  740SOL     OW 3118   5.068   3.111   2.907
  740SOL    HW1 3119   5.031   3.058   2.831
  740SOL    HW2 3120   5.162   3.139   2.886
  741SOL     OW 3121   2.854   0.679   2.846
  741SOL    HW1 3122   2.836   0.666   2.943
  741SOL    HW2 3123   2.770   0.703   2.798
  742SOL     OW 3124   2.206   6.247   1.836
  742SOL    HW1 3125   2.129   6.200   1.877
  742SOL    HW2 3126   2.188   6.346   1.833
  743SOL     OW 3127   0.405   6.387   3.048
  743SOL    HW1 3128   0.369   6.461   2.992
  743SOL    HW2 3129   0.336   6.316   3.058
  744SOL     OW 3130   5.186   1.908   0.028
  744SOL    HW1 3131   5.171   1.948   6.960
  744SOL    HW2 3132   5.141   1.964   0.098
  745SOL     OW 3133   1.959   0.049   4.799
  745SOL    HW1 3134   2.054   0.069   4.823
  745SOL    HW2 3135   1.956   7.003   4.726
  746SOL     OW 3136   0.474   5.034   5.152
  746SOL    HW1 3137   0.391   5.079   5.116
  746SOL    HW2 3138   0.477   5.045   5.251
  747SOL     OW 3139   4.814   5.892   2.616
  747SOL    HW1 3140   4.834   5.822   2.548
  747SOL    HW2 3141   4.804   5.981   2.571
  748SOL     OW 3142   5.522   5.105   1.537
  748SOL    HW1 3143   5.575   5.168   1.594
  748SOL    HW2 3144   5.424   5.118   1.554
  749SOL     OW 3145   4.867   4.512   4.946
  749SOL    HW1 3146   4.870   4.469   4.855
  749SOL    HW2 3147   4.773   4.511   4.980
  750SOL     OW 3148   2.623   1.884   2.122
  750SOL    HW1 3149   2.575   1.972   2.119
  750SOL    HW2 3150   2.605   1.840   2.210
  751SOL     OW 3151   3.321   0.470   0.574
  751SOL    HW1 3152   3.343   0.537   0.503
  751SOL    HW2 3153   3.310   0.380   0.533
  752SOL     OW 3154   3.610   2.576   5.417
  752SOL    HW1 3155   3.538   2.639   5.389
  752SOL    HW2 3156   3.571   2.507   5.478
  753SOL     OW 3157   3.284   3.860   4.014
  753SOL    HW1 3158   3.196   3.816   4.035
  753SOL    HW2 3159   3.287   3.950   4.057
  754SOL     OW 3160   5.494   0.485   0.050
  754SOL    HW1 3161   5.580   0.466   0.099
  754SOL    HW2 3162   5.495   0.438   6.984
  755SOL     OW 3163   4.458   4.255   5.289
  755SOL    HW1 3164   4.368   4.298   5.285
  755SOL    HW2 3165   4.452   4.162   5.255
  756SOL     OW 3166   2.463   5.094   6.019
  756SOL    HW1 3167   2.404   5.023   5.981
  756SOL    HW2 3168   2.432   5.117   6.111
  757SOL     OW 3169   2.216   6.415   2.161
  757SOL    HW1 3170   2.167   6.356   2.225
  757SOL    HW2 3171   2.310   6.381   2.150
  758SOL     OW 3172   4.753   0.761   4.353
  758SOL    HW1 3173   4.840   0.715   4.337
  758SOL    HW2 3174   4.690   0.744   4.277
  759SOL     OW 3175   0.815   3.389   3.812
  759SOL    HW1 3176   0.906   3.414   3.779
  759SOL    HW2 3177   0.777   3.464   3.867
  760SOL     OW 3178   6.770   5.168   3.255
  760SOL    HW1 3179   6.801   5.209   3.340
  760SOL    HW2 3180   6.672   5.184   3.243
  761SOL     OW 3181   4.399   4.941   6.205
  761SOL    HW1 3182   4.460   4.880   6.256
  761SOL    HW2 3183   4.446   5.027   6.186
  762SOL     OW 3184   3.483   6.368   3.354
  762SOL    HW1 3185   3.461   6.465   3.349
  762SOL    HW2 3186   3.403   6.314   3.328
  763SOL     OW 3187   5.552   0.412   0.499
  763SOL    HW1 3188   5.486   0.478   0.465
  763SOL    HW2 3189   5.513   0.363   0.578
  764SOL     OW 3190   5.268   6.463   5.728
  764SOL    HW1 3191   5.224   6.373   5.729
  764SOL    HW2 3192   5.244   6.512   5.812
  765SOL     OW 3193   6.555   0.017   0.438
  765SOL    HW1 3194   6.574   0.087   0.369
  765SOL    HW2 3195   6.622   6.966   0.431
  766SOL     OW 3196   2.593   2.115   4.250
  766SOL    HW1 3197   2.618   2.211   4.249
  766SOL    HW2 3198   2.672   2.061   4.281
  767SOL     OW 3199   6.444   5.181   4.507
  767SOL    HW1 3200   6.456   5.119   4.430
  767SOL    HW2 3201   6.533   5.210   4.541
  768SOL     OW 3202   1.555   5.120   3.134
  768SOL    HW1 3203   1.573   5.125   3.232
  768SOL    HW2 3204   1.641   5.129   3.084
  769SOL     OW 3205   3.212   2.041   5.484
  769SOL    HW1 3206   3.123   2.081   5.504
  769SOL    HW2 3207   3.238   2.063   5.389
  770SOL     OW 3208   1.237   5.023   5.885
  770SOL    HW1 3209   1.299   5.090   5.845
  770SOL    HW2 3210   1.143   5.057   5.880
  771SOL     OW 3211   1.381   4.820   2.783
  771SOL    HW1 3212   1.388   4.850   2.879
  771SOL    HW2 3213   1.345   4.895   2.728
  772SOL     OW 3214   5.840   4.014   0.344
  772SOL    HW1 3215   5.789   3.975   0.421
  772SOL    HW2 3216   5.937   3.992   0.354
  773SOL     OW 3217   2.035   4.148   3.836
  773SOL    HW1 3218   1.949   4.099   3.854
  773SOL    HW2 3219   2.035   4.234   3.886
  774SOL     OW 3220   2.325   0.723   3.287
  774SOL    HW1 3221   2.342   0.764   3.197
  774SOL    HW2 3222   2.411   0.720   3.338
  775SOL     OW 3223   1.353   4.629   2.999
  775SOL    HW1 3224   1.354   4.729   2.991
  775SOL    HW2 3225   1.399   4.589   2.920
  776SOL     OW 3226   2.532   5.152   5.732
  776SOL    HW1 3227   2.516   5.174   5.829
  776SOL    HW2 3228   2.581   5.228   5.689
  777SOL     OW 3229   2.400   3.851   5.960
  777SOL    HW1 3230   2.347   3.884   6.038
  777SOL    HW2 3231   2.339   3.806   5.895
  778SOL     OW 3232   2.738   5.745   6.975
  778SOL    HW1 3233   2.805   5.679   6.940
  778SOL    HW2 3234   2.777   5.837   6.972
  779SOL     OW 3235   6.083   2.850   2.626
  779SOL    HW1 3236   6.136   2.871   2.543
  779SOL    HW2 3237   6.056   2.753   2.624
  780SOL     OW 3238   6.661   2.178   4.777
  780SOL    HW1 3239   6.757   2.188   4.750
  780SOL    HW2 3240   6.622   2.268   4.795
  781SOL     OW 3241   0.266   4.774   6.663
  781SOL    HW1 3242   0.345   4.715   6.645
  781SOL    HW2 3243   0.204   4.771   6.584
  782SOL     OW 3244   1.696   3.432   4.896
  782SOL    HW1 3245   1.615   3.375   4.881
  782SOL    HW2 3246   1.707   3.494   4.819
  783SOL     OW 3247   6.415   4.878   7.002
  783SOL    HW1 3248   6.383   4.833   6.919
  783SOL    HW2 3249   6.475   4.954   6.978
  784SOL     OW 3250   2.111   5.938   0.529
  784SOL    HW1 3251   2.091   6.031   0.498
  784SOL    HW2 3252   2.044   5.910   0.597
  785SOL     OW 3253   0.574   1.101   4.152
  785SOL    HW1 3254   0.538   1.008   4.161
  785SOL    HW2 3255   0.605   1.116   4.058
  786SOL     OW 3256   6.156   0.634   4.192
  786SOL    HW1 3257   6.109   0.548   4.213
  786SOL    HW2 3258   6.171   0.641   4.094
  787SOL     OW 3259   2.329   6.869   1.224
  787SOL    HW1 3260   2.404   6.803   1.220
  787SOL    HW2 3261   2.319   6.914   1.135
  788SOL     OW 3262   2.022   2.578   1.823
  788SOL    HW1 3263   2.110   2.579   1.777
  788SOL    HW2 3264   2.013   2.494   1.877
  789SOL     OW 3265   4.278   4.773   2.608
  789SOL    HW1 3266   4.339   4.837   2.654
  789SOL    HW2 3267   4.311   4.755   2.515
  790SOL     OW 3268   0.814   3.104   2.069
  790SOL    HW1 3269   0.775   3.021   2.108
  790SOL    HW2 3270   0.912   3.091   2.056
  791SOL     OW 3271   2.594   6.733   4.100
  791SOL    HW1 3272   2.552   6.719   4.010
  791SOL    HW2 3273   2.616   6.644   4.141
  792SOL     OW 3274   2.043   0.077   0.216
  792SOL    HW1 3275   2.027   0.166   0.260
  792SOL    HW2 3276   2.018   0.082   0.120
  793SOL     OW 3277   2.597   6.226   4.636
  793SOL    HW1 3278   2.687   6.247   4.598
  793SOL    HW2 3279   2.607   6.197   4.732
  794SOL     OW 3280   2.987   3.118   2.477
  794SOL    HW1 3281   3.080   3.150   2.494
  794SOL    HW2 3282   2.921   3.187   2.506
  795SOL     OW 3283   4.742   0.811   5.922
  795SOL    HW1 3284   4.675   0.800   5.849
  795SOL    HW2 3285   4.731   0.737   5.989
  796SOL     OW 3286   0.278   2.492   0.376
  796SOL    HW1 3287   0.197   2.455   0.422
  796SOL    HW2 3288   0.298   2.583   0.411
  797SOL     OW 3289   3.492   6.890   1.068
  797SOL    HW1 3290   3.528   6.957   1.003
  797SOL    HW2 3291   3.395   6.872   1.048
  798SOL     OW 3292   5.381   5.456   1.471
  798SOL    HW1 3293   5.459   5.439   1.532
  798SOL    HW2 3294   5.299   5.471   1.526
  799SOL     OW 3295   2.654   2.661   5.829
  799SOL    HW1 3296   2.675   2.755   5.803
  799SOL    HW2 3297   2.710   2.635   5.908
  800SOL     OW 3298   5.559   2.889   3.422
  800SOL    HW1 3299   5.648   2.844   3.413
  800SOL    HW2 3300   5.555   2.965   3.357
  801SOL     OW 3301   1.868   5.995   6.487
  801SOL    HW1 3302   1.872   6.089   6.521
  801SOL    HW2 3303   1.865   5.996   6.387
  802SOL     OW 3304   5.005   2.166   6.881
  802SOL    HW1 3305   4.953   2.084   6.905
  802SOL    HW2 3306   4.960   2.246   6.920
  803SOL     OW 3307   2.296   1.576   4.460
  803SOL    HW1 3308   2.243   1.643   4.407
  803SOL    HW2 3309   2.373   1.622   4.505
  804SOL     OW 3310   5.197   0.468   2.723
  804SOL    HW1 3311   5.176   0.483   2.820
  804SOL    HW2 3312   5.125   0.412   2.682
  805SOL     OW 3313   3.389   0.650   3.827
  805SOL    HW1 3314   3.409   0.731   3.881
  805SOL    HW2 3315   3.296   0.618   3.848
  806SOL     OW 3316   3.059   6.324   5.242
  806SOL    HW1 3317   3.031   6.400   5.301
  806SOL    HW2 3318   3.098   6.360   5.157
  807SOL     OW 3319   1.122   6.436   6.056
  807SOL    HW1 3320   1.202   6.448   5.997
  807SOL    HW2 3321   1.085   6.526   6.080
  808SOL     OW 3322   5.304   2.468   6.013
  808SOL    HW1 3323   5.386   2.412   5.999
  808SOL    HW2 3324   5.331   2.564   6.024
  809SOL     OW 3325   2.756   5.476   0.330
  809SOL    HW1 3326   2.808   5.554   0.295
  809SOL    HW2 3327   2.811   5.393   0.321
  810SOL     OW 3328   3.211   3.714   0.368
  810SOL    HW1 3329   3.300   3.718   0.323
  810SOL    HW2 3330   3.154   3.788   0.334
  811SOL     OW 3331   6.308   5.430   4.574
  811SOL    HW1 3332   6.338   5.335   4.566
  811SOL    HW2 3333   6.354   5.473   4.651
  812SOL     OW 3334   0.954   3.749   1.782
  812SOL    HW1 3335   0.867   3.743   1.733
  812SOL    HW2 3336   1.029   3.725   1.720
  813SOL     OW 3337   1.728   1.384   5.627
  813SOL    HW1 3338   1.744   1.465   5.570
  813SOL    HW2 3339   1.776   1.306   5.588
  814SOL     OW 3340   0.460   4.359   2.797
  814SOL    HW1 3341   0.556   4.379   2.776
  814SOL    HW2 3342   0.438   4.396   2.888
  815SOL     OW 3343   4.314   1.896   4.826
  815SOL    HW1 3344   4.264   1.967   4.776
  815SOL    HW2 3345   4.283   1.806   4.796
  816SOL     OW 3346   5.834   3.802   6.665
  816SOL    HW1 3347   5.897   3.844   6.600
  816SOL    HW2 3348   5.755   3.764   6.616
  817SOL     OW 3349   0.544   4.907   6.742
  817SOL    HW1 3350   0.496   4.992   6.721
  817SOL    HW2 3351   0.553   4.897   6.841
  818SOL     OW 3352   0.099   2.321   4.956
  818SOL    HW1 3353   0.168   2.273   5.010
  818SOL    HW2 3354   0.046   2.254   4.904
  819SOL     OW 3355   4.715   3.180   1.672
  819SOL    HW1 3356   4.753   3.259   1.720
  819SOL    HW2 3357   4.665   3.122   1.736
  820SOL     OW 3358   2.590   2.228   5.327
  820SOL    HW1 3359   2.579   2.192   5.420
  820SOL    HW2 3360   2.543   2.168   5.262
  821SOL     OW 3361   5.222   3.166   6.845
  821SOL    HW1 3362   5.275   3.228   6.787
  821SOL    HW2 3363   5.285   3.103   6.892
  822SOL     OW 3364   0.151   4.791   3.263
  822SOL    HW1 3365   0.075   4.856   3.254
  822SOL    HW2 3366   0.157   4.736   3.179
  823SOL     OW 3367   1.621   3.067   4.854
  823SOL    HW1 3368   1.718   3.070   4.830
  823SOL    HW2 3369   1.611   3.067   4.953
  824SOL     OW 3370   5.251   0.159   6.271
  824SOL    HW1 3371   5.169   0.211   6.248
  824SOL    HW2 3372   5.236   0.108   6.355
  825SOL     OW 3373   6.252   6.319   1.039
  825SOL    HW1 3374   6.195   6.276   0.969
  825SOL    HW2 3375   6.194   6.361   1.109
  826SOL     OW 3376   3.381   2.110   0.326
  826SOL    HW1 3377   3.476   2.124   0.353
  826SOL    HW2 3378   3.329   2.075   0.403
  827SOL     OW 3379   3.476   3.643   5.257
  827SOL    HW1 3380   3.517   3.627   5.168
  827SOL    HW2 3381   3.546   3.672   5.322
  828SOL     OW 3382   0.264   6.505   6.242
  828SOL    HW1 3383   0.187   6.468   6.293
  828SOL    HW2 3384   0.232   6.578   6.181
  829SOL     OW 3385   3.749   3.605   2.303
  829SOL    HW1 3386   3.718   3.548   2.378
  829SOL    HW2 3387   3.821   3.557   2.252
  830SOL     OW 3388   6.747   4.443   6.844
  830SOL    HW1 3389   6.694   4.479   6.921
  830SOL    HW2 3390   6.783   4.353   6.868
  831SOL     OW 3391   4.977   0.706   2.000
  831SOL    HW1 3392   5.001   0.689   2.096
  831SOL    HW2 3393   4.988   0.804   1.980
  832SOL     OW 3394   2.948   1.477   4.905
  832SOL    HW1 3395   3.002   1.405   4.950
  832SOL    HW2 3396   3.008   1.554   4.884
  833SOL     OW 3397   4.281   2.738   0.290
  833SOL    HW1 3398   4.338   2.688   0.355
  833SOL    HW2 3399   4.185   2.720   0.308
  834SOL     OW 3400   5.866   2.530   0.626
  834SOL    HW1 3401   5.913   2.618   0.639
  834SOL    HW2 3402   5.915   2.477   0.557
  835SOL     OW 3403   0.131   0.083   4.923
  835SOL    HW1 3404   0.194   0.150   4.962
  835SOL    HW2 3405   0.040   0.123   4.917
  836SOL     OW 3406   4.904   0.957   4.923
  836SOL    HW1 3407   4.990   0.997   4.891
  836SOL    HW2 3408   4.853   0.922   4.844
  837SOL     OW 3409   1.644   0.500   0.047
  837SOL    HW1 3410   1.635   0.549   6.983
  837SOL    HW2 3411   1.569   0.525   0.108
  838SOL     OW 3412   1.089   5.929   3.710
  838SOL    HW1 3413   1.189   5.924   3.712
  838SOL    HW2 3414   1.050   5.842   3.739
  839SOL     OW 3415   1.388   2.179   0.443
  839SOL    HW1 3416   1.480   2.154   0.411
  839SOL    HW2 3417   1.389   2.189   0.543
  840SOL     OW 3418   4.389   5.013   0.749
  840SOL    HW1 3419   4.473   5.062   0.723
  840SOL    HW2 3420   4.406   4.915   0.747
  841SOL     OW 3421   2.977   5.170   6.883
  841SOL    HW1 3422   3.031   5.246   6.920
  841SOL    HW2 3423   3.035   5.114   6.824
  842SOL     OW 3424   4.157   5.324   1.092
  842SOL    HW1 3425   4.221   5.396   1.064
  842SOL    HW2 3426   4.171   5.304   1.189
  843SOL     OW 3427   1.423   0.321   2.291
  843SOL    HW1 3428   1.340   0.377   2.303
  843SOL    HW2 3429   1.426   0.250   2.361
  844SOL     OW 3430   0.127   0.518   1.438
  844SOL    HW1 3431   0.219   0.550   1.461
  844SOL    HW2 3432   0.133   0.426   1.399
  845SOL     OW 3433   3.270   1.855   2.620
  845SOL    HW1 3434   3.178   1.816   2.621
  845SOL    HW2 3435   3.314   1.834   2.533
  846SOL     OW 3436   2.894   1.993   0.894
  846SOL    HW1 3437   2.974   2.023   0.842
  846SOL    HW2 3438   2.854   2.072   0.941
  847SOL     OW 3439   2.501   3.743   1.559
  847SOL    HW1 3440   2.547   3.771   1.474
  847SOL    HW2 3441   2.536   3.654   1.588
  848SOL     OW 3442   6.639   6.288   0.071
  848SOL    HW1 3443   6.540   6.290   0.081
  848SOL    HW2 3444   6.677   6.217   0.131
  849SOL     OW 3445   5.867   3.455   6.675
  849SOL    HW1 3446   5.918   3.418   6.598
  849SOL    HW2 3447   5.902   3.546   6.698
  850SOL     OW 3448   1.105   1.059   4.943
  850SOL    HW1 3449   1.074   1.148   4.909
  850SOL    HW2 3450   1.079   1.049   5.040
  851SOL     OW 3451   5.625   3.231   5.645
  851SOL    HW1 3452   5.635   3.138   5.679
  851SOL    HW2 3453   5.583   3.230   5.555
  852SOL     OW 3454   0.394   3.945   1.991
  852SOL    HW1 3455   0.457   3.873   2.019
  852SOL    HW2 3456   0.301   3.908   1.988
  853SOL     OW 3457   2.785   3.034   0.505
  853SOL    HW1 3458   2.747   3.066   0.592
  853SOL    HW2 3459   2.867   2.980   0.523
  854SOL     OW 3460   5.903   6.228   5.831
  854SOL    HW1 3461   5.983   6.264   5.784
  854SOL    HW2 3462   5.848   6.174   5.767
  855SOL     OW 3463   6.109   1.484   0.150
  855SOL    HW1 3464   6.017   1.523   0.150
  855SOL    HW2 3465   6.116   1.415   0.222
  856SOL     OW 3466   1.998   5.307   2.078
  856SOL    HW1 3467   1.975   5.377   2.144
  856SOL    HW2 3468   2.049   5.234   2.123
  857SOL     OW 3469   6.799   5.956   4.955
  857SOL    HW1 3470   6.720   5.992   4.906
  857SOL    HW2 3471   6.798   5.856   4.950
  858SOL     OW 3472   4.469   3.948   0.003
  858SOL    HW1 3473   4.494   3.882   0.074
  858SOL    HW2 3474   4.490   4.040   0.034
  859SOL     OW 3475   5.296   5.953   5.265
  859SOL    HW1 3476   5.217   5.947   5.326
  859SOL    HW2 3477   5.290   6.038   5.212
  860SOL     OW 3478   4.752   2.762   6.226
  860SOL    HW1 3479   4.679   2.724   6.283
  860SOL    HW2 3480   4.841   2.731   6.260
  861SOL     OW 3481   1.930   5.359   1.820
  861SOL    HW1 3482   1.865   5.434   1.805
  861SOL    HW2 3483   1.946   5.347   1.918
  862SOL     OW 3484   0.451   4.173   3.906
  862SOL    HW1 3485   0.530   4.186   3.846
  862SOL    HW2 3486   0.453   4.241   3.980
  863SOL     OW 3487   6.079   0.553   1.552
  863SOL    HW1 3488   6.041   0.495   1.624
  863SOL    HW2 3489   6.004   0.597   1.501
  864SOL     OW 3490   5.739   6.654   3.522
  864SOL    HW1 3491   5.669   6.696   3.465
  864SOL    HW2 3492   5.755   6.560   3.491
  865SOL     OW 3493   1.721   5.932   5.220
  865SOL    HW1 3494   1.777   6.009   5.188
  865SOL    HW2 3495   1.638   5.968   5.263
  866SOL     OW 3496   3.536   0.310   1.830
  866SOL    HW1 3497   3.493   0.264   1.908
  866SOL    HW2 3498   3.634   0.290   1.829
  867SOL     OW 3499   5.998   1.952   5.810
  867SOL    HW1 3500   5.983   2.040   5.765
  867SOL    HW2 3501   6.062   1.965   5.887
  868SOL     OW 3502   0.323   2.480   1.357
  868SOL    HW1 3503   0.337   2.500   1.454
  868SOL    HW2 3504   0.268   2.396   1.348
  869SOL     OW 3505   0.071   3.816   3.587
  869SOL    HW1 3506   7.020   3.788   3.525
  869SOL    HW2 3507   0.051   3.785   3.679
  870SOL     OW 3508   3.700   5.184   2.323
  870SOL    HW1 3509   3.732   5.145   2.237
  870SOL    HW2 3510   3.775   5.230   2.370
  871SOL     OW 3511   4.935   1.520   3.371
  871SOL    HW1 3512   4.953   1.595   3.308
  871SOL    HW2 3513   4.984   1.438   3.341
  872SOL     OW 3514   1.442   2.433   4.810
  872SOL    HW1 3515   1.344   2.451   4.810
  872SOL    HW2 3516   1.491   2.513   4.774
  873SOL     OW 3517   4.309   0.207   6.196
  873SOL    HW1 3518   4.389   0.242   6.147
  873SOL    HW2 3519   4.249   0.159   6.132
  874SOL     OW 3520   5.088   3.531   1.599
  874SOL    HW1 3521   5.069   3.629   1.592
  874SOL    HW2 3522   5.041   3.483   1.525
  875SOL     OW 3523   4.743   5.555   1.689
  875SOL    HW1 3524   4.797   5.558   1.773
  875SOL    HW2 3525   4.685   5.474   1.689
  876SOL     OW 3526   6.907   0.117   0.683
  876SOL    HW1 3527   6.963   0.061   0.744
  876SOL    HW2 3528   6.934   0.213   0.692
  877SOL     OW 3529   2.323   3.521   6.808
  877SOL    HW1 3530   2.349   3.426   6.824
  877SOL    HW2 3531   2.249   3.524   6.740
  878SOL     OW 3532   3.841   6.331   4.401
  878SOL    HW1 3533   3.818   6.357   4.308
  878SOL    HW2 3534   3.936   6.300   4.405
  879SOL     OW 3535   5.718   0.055   0.302
  879SOL    HW1 3536   5.693   6.985   0.273
  879SOL    HW2 3537   5.776   0.097   0.233
  880SOL     OW 3538   3.130   2.992   2.252
  880SOL    HW1 3539   3.071   3.030   2.323
  880SOL    HW2 3540   3.076   2.935   2.191
  881SOL     OW 3541   4.601   1.886   0.333
  881SOL    HW1 3542   4.651   1.803   0.358
  881SOL    HW2 3543   4.633   1.963   0.388
  882SOL     OW 3544   1.722   3.100   4.497
  882SOL    HW1 3545   1.740   3.022   4.558
  882SOL    HW2 3546   1.792   3.170   4.511
  883SOL     OW 3547   2.537   0.201   3.244
  883SOL    HW1 3548   2.584   0.269   3.300
  883SOL    HW2 3549   2.602   0.132   3.213
  884SOL     OW 3550   3.907   3.403   5.489
  884SOL    HW1 3551   3.846   3.387   5.412
  884SOL    HW2 3552   3.983   3.339   5.486
  885SOL     OW 3553   4.297   2.725   6.400
  885SOL    HW1 3554   4.296   2.626   6.414
  885SOL    HW2 3555   4.211   2.753   6.357
  886SOL     OW 3556   3.502   0.795   6.603
  886SOL    HW1 3557   3.555   0.782   6.687
  886SOL    HW2 3558   3.452   0.711   6.582
  887SOL     OW 3559   5.115   1.783   5.082
  887SOL    HW1 3560   5.168   1.812   5.002
  887SOL    HW2 3561   5.046   1.852   5.102
  888SOL     OW 3562   6.731   6.673   2.873
  888SOL    HW1 3563   6.824   6.653   2.906
  888SOL    HW2 3564   6.720   6.772   2.862
  889SOL     OW 3565   0.939   4.077   6.745
  889SOL    HW1 3566   0.986   4.005   6.693
  889SOL    HW2 3567   0.992   4.099   6.827
  890SOL     OW 3568   2.339   5.378   4.112
  890SOL    HW1 3569   2.262   5.314   4.106
  890SOL    HW2 3570   2.395   5.371   4.030
  891SOL     OW 3571   4.673   5.924   1.753
  891SOL    HW1 3572   4.736   5.867   1.807
  891SOL    HW2 3573   4.650   5.876   1.669
  892SOL     OW 3574   3.059   4.568   1.007
  892SOL    HW1 3575   3.038   4.640   0.940
  892SOL    HW2 3576   2.976   4.544   1.057
  893SOL     OW 3577   1.746   6.287   2.418
  893SOL    HW1 3578   1.739   6.324   2.511
  893SOL    HW2 3579   1.770   6.190   2.423
  894SOL     OW 3580   0.869   4.282   1.157
  894SOL    HW1 3581   0.952   4.329   1.126
  894SOL    HW2 3582   0.849   4.311   1.251
  895SOL     OW 3583   0.514   5.749   4.222
  895SOL    HW1 3584   0.513   5.805   4.139
  895SOL    HW2 3585   0.501   5.807   4.302
  896SOL     OW 3586   0.286   0.453   6.361
  896SOL    HW1 3587   0.265   0.364   6.401
  896SOL    HW2 3588   0.383   0.455   6.335
  897SOL     OW 3589   4.982   0.648   6.987
  897SOL    HW1 3590   5.014   0.557   6.961
  897SOL    HW2 3591   4.890   0.663   6.951
  898SOL     OW 3592   4.348   6.604   3.376
  898SOL    HW1 3593   4.410   6.531   3.350
  898SOL    HW2 3594   4.328   6.598   3.474
  899SOL     OW 3595   6.994   4.874   0.316
  899SOL    HW1 3596   0.021   4.960   0.302
  899SOL    HW2 3597   6.971   4.834   0.227
  900SOL     OW 3598   5.432   5.395   0.870
  900SOL    HW1 3599   5.496   5.318   0.867
  900SOL    HW2 3600   5.484   5.481   0.863
  901SOL     OW 3601   1.296   0.725   2.564
  901SOL    HW1 3602   1.343   0.644   2.528
  901SOL    HW2 3603   1.206   0.733   2.520
  902SOL     OW 3604   6.053   3.461   1.769
  902SOL    HW1 3605   5.969   3.409   1.754
  902SOL    HW2 3606   6.072   3.464   1.867
  903SOL     OW 3607   0.163   2.230   0.798
  903SOL    HW1 3608   0.153   2.147   0.853
  903SOL    HW2 3609   0.216   2.210   0.716
  904SOL     OW 3610   3.109   1.328   1.835
  904SOL    HW1 3611   3.162   1.410   1.813
  904SOL    HW2 3612   3.039   1.314   1.766
  905SOL     OW 3613   6.000   2.743   6.440
  905SOL    HW1 3614   6.099   2.743   6.458
  905SOL    HW2 3615   5.981   2.692   6.357
  906SOL     OW 3616   5.618   3.051   6.095
  906SOL    HW1 3617   5.646   2.956   6.081
  906SOL    HW2 3618   5.699   3.109   6.101
  907SOL     OW 3619   5.115   3.733   6.661
  907SOL    HW1 3620   5.067   3.720   6.748
  907SOL    HW2 3621   5.066   3.686   6.588
  908SOL     OW 3622   1.550   4.526   2.841
  908SOL    HW1 3623   1.519   4.503   2.749
  908SOL    HW2 3624   1.646   4.554   2.837
  909SOL     OW 3625   5.592   5.309   6.318
  909SOL    HW1 3626   5.548   5.389   6.359
  909SOL    HW2 3627   5.590   5.316   6.219
  910SOL     OW 3628   2.673   4.725   1.150
  910SOL    HW1 3629   2.586   4.768   1.171
  910SOL    HW2 3630   2.661   4.625   1.145
  911SOL     OW 3631   0.929   5.147   6.042
  911SOL    HW1 3632   0.939   5.189   6.133
  911SOL    HW2 3633   0.986   5.196   5.976
  912SOL     OW 3634   5.102   1.474   3.842
  912SOL    HW1 3635   5.066   1.389   3.880
  912SOL    HW2 3636   5.059   1.492   3.753
  913SOL     OW 3637   5.531   6.665   2.654
  913SOL    HW1 3638   5.494   6.580   2.693
  913SOL    HW2 3639   5.521   6.739   2.720
  914SOL     OW 3640   3.161   6.927   6.603
  914SOL    HW1 3641   3.126   6.903   6.512
  914SOL    HW2 3642   3.229   7.000   6.594
  915SOL     OW 3643   5.057   5.393   0.915
  915SOL    HW1 3644   4.967   5.350   0.909
  915SOL    HW2 3645   5.062   5.468   0.849
  916SOL     OW 3646   1.971   2.618   2.616
  916SOL    HW1 3647   2.017   2.585   2.698
  916SOL    HW2 3648   1.904   2.549   2.585
  917SOL     OW 3649   6.813   6.346   0.946
  917SOL    HW1 3650   6.784   6.366   1.040
  917SOL    HW2 3651   6.881   6.272   0.948
  918SOL     OW 3652   2.498   5.380   0.388
  918SOL    HW1 3653   2.591   5.410   0.369
  918SOL    HW2 3654   2.500   5.296   0.443
  919SOL     OW 3655   5.920   1.973   4.957
  919SOL    HW1 3656   5.871   2.046   4.909
  919SOL    HW2 3657   5.868   1.946   5.038
  920SOL     OW 3658   3.081   5.187   2.608
  920SOL    HW1 3659   3.000   5.237   2.636
  920SOL    HW2 3660   3.065   5.143   2.519
  921SOL     OW 3661   4.655   5.429   5.440
  921SOL    HW1 3662   4.668   5.520   5.479
  921SOL    HW2 3663   4.668   5.433   5.341
  922SOL     OW 3664   3.919   3.011   3.790
  922SOL    HW1 3665   3.981   3.089   3.799
  922SOL    HW2 3666   3.903   2.970   3.880
  923SOL     OW 3667   2.339   3.500   5.469
  923SOL    HW1 3668   2.395   3.541   5.397
  923SOL    HW2 3669   2.339   3.400   5.459
  924SOL     OW 3670   6.820   3.478   2.252
  924SOL    HW1 3671   6.786   3.456   2.161
  924SOL    HW2 3672   6.849   3.394   2.298
  925SOL     OW 3673   0.302   1.604   0.558
  925SOL    HW1 3674   0.207   1.583   0.581
  925SOL    HW2 3675   0.322   1.569   0.467
  926SOL     OW 3676   1.871   2.065   2.056
  926SOL    HW1 3677   1.874   2.028   2.149
  926SOL    HW2 3678   1.802   2.016   2.003
  927SOL     OW 3679   6.368   3.467   4.491
  927SOL    HW1 3680   6.386   3.385   4.544
  927SOL    HW2 3681   6.355   3.545   4.553
  928SOL     OW 3682   3.845   4.578   6.320
  928SOL    HW1 3683   3.867   4.615   6.231
  928SOL    HW2 3684   3.777   4.636   6.365
  929SOL     OW 3685   0.305   1.597   4.910
  929SOL    HW1 3686   0.283   1.660   4.835
  929SOL    HW2 3687   0.268   1.632   4.996
  930SOL     OW 3688   5.113   5.042   5.569
  930SOL    HW1 3689   5.020   5.023   5.601
  930SOL    HW2 3690   5.115   5.129   5.520
  931SOL     OW 3691   6.660   1.626   2.925
  931SOL    HW1 3692   6.607   1.627   2.840
  931SOL    HW2 3693   6.601   1.651   3.001
  932SOL     OW 3694   3.812   0.624   3.564
  932SOL    HW1 3695   3.794   0.614   3.662
  932SOL    HW2 3696   3.734   0.591   3.512
  933SOL     OW 3697   1.369   5.712   2.033
  933SOL    HW1 3698   1.469   5.708   2.031
  933SOL    HW2 3699   1.335   5.752   1.948
  934SOL     OW 3700   1.892   3.821   7.014
  934SOL    HW1 3701   1.981   3.778   6.995
  934SOL    HW2 3702   1.837   3.822   6.931
  935SOL     OW 3703   6.141   2.862   4.528
  935SOL    HW1 3704   6.050   2.867   4.488
  935SOL    HW2 3705   6.133   2.867   4.628
  936SOL     OW 3706   1.653   7.011   6.049
  936SOL    HW1 3707   1.713   0.068   6.060
  936SOL    HW2 3708   1.560   0.019   6.031
  937SOL     OW 3709   3.530   2.298   6.159
  937SOL    HW1 3710   3.598   2.261   6.223
  937SOL    HW2 3711   3.543   2.396   6.150
  938SOL     OW 3712   5.982   5.648   4.306
  938SOL    HW1 3713   5.913   5.679   4.372
  938SOL    HW2 3714   6.072   5.652   4.348
  939SOL     OW 3715   0.552   6.522   5.882
  939SOL    HW1 3716   0.542   6.619   5.905
  939SOL    HW2 3717   0.646   6.494   5.898
  940SOL     OW 3718   2.136   4.715   7.020
  940SOL    HW1 3719   2.233   4.711   0.024
  940SOL    HW2 3720   2.127   4.766   6.935
  941SOL     OW 3721   3.455   0.005   0.286
  941SOL    HW1 3722   3.399   0.055   0.219
  941SOL    HW2 3723   3.531   0.063   0.315
  942SOL     OW 3724   0.085   5.330   0.813
  942SOL    HW1 3725   0.148   5.289   0.880
  942SOL    HW2 3726   0.047   5.259   0.755
  943SOL     OW 3727   3.027   5.861   1.860
  943SOL    HW1 3728   2.941   5.835   1.816
  943SOL    HW2 3729   3.087   5.781   1.868
  944SOL     OW 3730   6.207   6.714   4.096
  944SOL    HW1 3731   6.157   6.737   4.013
  944SOL    HW2 3732   6.175   6.772   4.172
  945SOL     OW 3733   0.741   4.856   0.132
  945SOL    HW1 3734   0.778   4.931   0.077
  945SOL    HW2 3735   0.815   4.794   0.158
  946SOL     OW 3736   5.372   2.034   4.678
  946SOL    HW1 3737   5.323   2.053   4.593
  946SOL    HW2 3738   5.470   2.024   4.658
  947SOL     OW 3739   3.553   4.156   4.248
  947SOL    HW1 3740   3.461   4.126   4.274
  947SOL    HW2 3741   3.551   4.254   4.226
  948SOL     OW 3742   4.012   0.512   2.823
  948SOL    HW1 3743   3.941   0.475   2.763
  948SOL    HW2 3744   4.009   0.612   2.821
  949SOL     OW 3745   3.741   0.061   5.882
  949SOL    HW1 3746   3.648   0.025   5.882
  949SOL    HW2 3747   3.738   0.160   5.870
  950SOL     OW 3748   6.611   0.027   2.339
  950SOL    HW1 3749   6.590   0.093   2.412
  950SOL    HW2 3750   6.571   0.060   2.253
  951SOL     OW 3751   1.917   7.005   2.840
  951SOL    HW1 3752   1.844   0.032   2.887
  951SOL    HW2 3753   1.942   6.924   2.892
  952SOL     OW 3754   3.297   0.799   2.893
  952SOL    HW1 3755   3.302   0.872   2.961
  952SOL    HW2 3756   3.365   0.815   2.822
  953SOL     OW 3757   0.087   4.499   5.538
  953SOL    HW1 3758   0.181   4.500   5.573
  953SOL    HW2 3759   0.088   4.515   5.439
  954SOL     OW 3760   4.808   6.056   2.394
  954SOL    HW1 3761   4.838   5.992   2.323
  954SOL    HW2 3762   4.781   6.142   2.351
  955SOL     OW 3763   2.058   4.645   0.673
  955SOL    HW1 3764   1.989   4.712   0.701
  955SOL    HW2 3765   2.066   4.574   0.743
  956SOL     OW 3766   4.541   0.504   0.879
  956SOL    HW1 3767   4.609   0.442   0.918
  956SOL    HW2 3768   4.584   0.593   0.860
  957SOL     OW 3769   5.988   1.021   3.141
  957SOL    HW1 3770   5.980   0.964   3.059
  957SOL    HW2 3771   5.904   1.015   3.194
  958SOL     OW 3772   5.451   0.051   1.347
  958SOL    HW1 3773   5.406   0.013   1.428
  958SOL    HW2 3774   5.382   0.076   1.280
  959SOL     OW 3775   4.566   6.920   3.538
  959SOL    HW1 3776   4.584   6.872   3.452
  959SOL    HW2 3777   4.573   6.856   3.614
  960SOL     OW 3778   1.722   6.381   6.407
  960SOL    HW1 3779   1.735   6.330   6.493
  960SOL    HW2 3780   1.753   6.475   6.420
  961SOL     OW 3781   3.407   0.329   3.177
  961SOL    HW1 3782   3.461   0.411   3.156
  961SOL    HW2 3783   3.310   0.353   3.178
  962SOL     OW 3784   6.685   0.770   4.643
  962SOL    HW1 3785   6.724   0.854   4.680
  962SOL    HW2 3786   6.591   0.787   4.614
  963SOL     OW 3787   5.685   2.603   1.004
  963SOL    HW1 3788   5.600   2.582   1.053
  963SOL    HW2 3789   5.672   2.591   0.906
  964SOL     OW 3790   4.221   5.399   4.803
  964SOL    HW1 3791   4.164   5.481   4.806
  964SOL    HW2 3792   4.247   5.381   4.708
  965SOL     OW 3793   5.949   2.116   3.420
  965SOL    HW1 3794   5.889   2.095   3.498
  965SOL    HW2 3795   5.959   2.035   3.362
  966SOL     OW 3796   4.595   1.052   4.202
  966SOL    HW1 3797   4.682   1.076   4.245
  966SOL    HW2 3798   4.601   1.069   4.104
  967SOL     OW 3799   4.352   4.184   6.521
  967SOL    HW1 3800   4.399   4.145   6.442
  967SOL    HW2 3801   4.390   4.145   6.606
  968SOL     OW 3802   3.939   0.748   1.463
  968SOL    HW1 3803   3.877   0.788   1.397
  968SOL    HW2 3804   3.903   0.659   1.493
  969SOL     OW 3805   3.092   4.461   6.228
  969SOL    HW1 3806   3.021   4.446   6.159
  969SOL    HW2 3807   3.065   4.416   6.313
  970SOL     OW 3808   5.121   0.052   5.850
  970SOL    HW1 3809   5.094   0.035   5.945
  970SOL    HW2 3810   5.107   6.991   5.797
  971SOL     OW 3811   5.673   3.593   3.792
  971SOL    HW1 3812   5.687   3.495   3.807
  971SOL    HW2 3813   5.762   3.637   3.782
  972SOL     OW 3814   6.975   2.726   0.139
  972SOL    HW1 3815   0.036   2.687   0.099
  972SOL    HW2 3816   6.965   2.820   0.108
  973SOL     OW 3817   0.274   3.489   5.756
  973SOL    HW1 3818   0.229   3.400   5.751
  973SOL    HW2 3819   0.300   3.518   5.664
  974SOL     OW 3820   0.400   4.566   2.324
  974SOL    HW1 3821   0.352   4.648   2.293
  974SOL    HW2 3822   0.475   4.546   2.261
  975SOL     OW 3823   3.050   0.535   2.091
  975SOL    HW1 3824   3.084   0.533   1.997
  975SOL    HW2 3825   3.065   0.626   2.129
  976SOL     OW 3826   6.743   3.387   3.463
  976SOL    HW1 3827   6.747   3.410   3.561
  976SOL    HW2 3828   6.798   3.305   3.446
  977SOL     OW 3829   6.354   1.046   2.254
  977SOL    HW1 3830   6.345   1.075   2.159
  977SOL    HW2 3831   6.310   0.957   2.265
  978SOL     OW 3832   5.512   2.958   1.763
  978SOL    HW1 3833   5.462   2.953   1.676
  978SOL    HW2 3834   5.481   3.038   1.814
  979SOL     OW 3835   0.490   4.343   0.056
  979SOL    HW1 3836   0.482   4.297   0.144
  979SOL    HW2 3837   0.426   4.419   0.052
  980SOL     OW 3838   3.779   1.019   4.706
  980SOL    HW1 3839   3.686   1.053   4.721
  980SOL    HW2 3840   3.782   0.966   4.621
  981SOL     OW 3841   0.224   6.868   5.618
  981SOL    HW1 3842   0.167   6.791   5.648
  981SOL    HW2 3843   0.172   6.925   5.555
  982SOL     OW 3844   6.529   1.342   6.252
  982SOL    HW1 3845   6.580   1.260   6.280
  982SOL    HW2 3846   6.431   1.325   6.261
  983SOL     OW 3847   0.405   4.520   3.647
  983SOL    HW1 3848   0.331   4.579   3.615
  983SOL    HW2 3849   0.488   4.537   3.593
  984SOL     OW 3850   0.643   3.592   3.511
  984SOL    HW1 3851   0.562   3.553   3.554
  984SOL    HW2 3852   0.615   3.659   3.443
  985SOL     OW 3853   6.579   5.277   5.055
  985SOL    HW1 3854   6.570   5.252   5.152
  985SOL    HW2 3855   6.536   5.366   5.041
  986SOL     OW 3856   4.560   5.340   1.690
  986SOL    HW1 3857   4.523   5.403   1.622
  986SOL    HW2 3858   4.485   5.292   1.736
  987SOL     OW 3859   4.750   4.165   4.496
  987SOL    HW1 3860   4.769   4.099   4.569
  987SOL    HW2 3861   4.802   4.142   4.414
  988SOL     OW 3862   2.621   4.690   2.240
  988SOL    HW1 3863   2.680   4.710   2.319
  988SOL    HW2 3864   2.675   4.646   2.169
  989SOL     OW 3865   1.556   2.236   0.978
  989SOL    HW1 3866   1.601   2.303   1.037
  989SOL    HW2 3867   1.587   2.144   1.004
  990SOL     OW 3868   3.638   6.963   4.610
  990SOL    HW1 3869   3.684   6.875   4.600
  990SOL    HW2 3870   3.608   6.974   4.705
  991SOL     OW 3871   7.002   5.530   4.107
  991SOL    HW1 3872   7.019   5.618   4.062
  991SOL    HW2 3873   7.009   5.540   4.206
  992SOL     OW 3874   0.073   2.275   0.103
  992SOL    HW1 3875   0.089   2.176   0.101
  992SOL    HW2 3876   0.069   2.309   0.009
  993SOL     OW 3877   1.102   4.992   0.221
  993SOL    HW1 3878   1.027   5.006   0.285
  993SOL    HW2 3879   1.148   4.905   0.242
  994SOL     OW 3880   3.261   6.520   0.144
  994SOL    HW1 3881   3.318   6.462   0.085
  994SOL    HW2 3882   3.265   6.615   0.112
  995SOL     OW 3883   6.556   4.252   6.089
  995SOL    HW1 3884   6.539   4.330   6.029
  995SOL    HW2 3885   6.532   4.275   6.183
  996SOL     OW 3886   4.182   6.017   3.839
  996SOL    HW1 3887   4.114   6.087   3.860
  996SOL    HW2 3888   4.219   5.981   3.925
  997SOL     OW 3889   1.397   6.493   3.716
  997SOL    HW1 3890   1.418   6.395   3.712
  997SOL    HW2 3891   1.473   6.545   3.678
  998SOL     OW 3892   4.820   7.018   6.124
  998SOL    HW1 3893   4.769   6.958   6.062
  998SOL    HW2 3894   4.803   6.990   6.219
  999SOL     OW 3895   4.905   3.182   2.548
  999SOL    HW1 3896   4.829   3.118   2.536
  999SOL    HW2 3897   4.992   3.134   2.541
 1000SOL     OW 3898   5.243   2.407   1.782
 1000SOL    HW1 3899   5.186   2.373   1.857
 1000SOL    HW2 3900   5.321   2.345   1.769
 1001SOL     OW 3901   2.878   6.757   2.235
 1001SOL    HW1 3902   2.921   6.829   2.288
 1001SOL    HW2 3903   2.915   6.668   2.263
 1002SOL     OW 3904   4.621   2.442   1.348
 1002SOL    HW1 3905   4.620   2.343   1.362
 1002SOL    HW2 3906   4.628   2.489   1.436
 1003SOL     OW 3907   0.843   0.275   3.271
 1003SOL    HW1 3908   0.875   0.265   3.364
 1003SOL    HW2 3909   0.834   0.186   3.227
 1004SOL     OW 3910   5.278   1.472   4.261
 1004SOL    HW1 3911   5.198   1.528   4.281
 1004SOL    HW2 3912   5.317   1.437   4.347
 1005SOL     OW 3913   1.179   5.012   1.982
 1005SOL    HW1 3914   1.247   4.985   1.913
 1005SOL    HW2 3915   1.180   5.111   1.994
 1006SOL     OW 3916   2.487   4.022   1.675
 1006SOL    HW1 3917   2.430   4.095   1.637
 1006SOL    HW2 3918   2.461   3.934   1.636
 1007SOL     OW 3919   4.717   0.820   6.589
 1007SOL    HW1 3920   4.692   0.877   6.511
 1007SOL    HW2 3921   4.724   0.878   6.671
 1008SOL     OW 3922   0.760   5.064   5.270
 1008SOL    HW1 3923   0.771   4.964   5.273
 1008SOL    HW2 3924   0.733   5.091   5.177
 1009SOL     OW 3925   6.737   5.800   5.867
 1009SOL    HW1 3926   6.720   5.857   5.947
 1009SOL    HW2 3927   6.831   5.766   5.869
 1010SOL     OW 3928   3.040   3.666   0.573
 1010SOL    HW1 3929   3.072   3.690   0.481
 1010SOL    HW2 3930   2.962   3.604   0.565
 1011SOL     OW 3931   0.034   5.849   2.912
 1011SOL    HW1 3932   0.058   5.889   2.824
 1011SOL    HW2 3933   6.965   5.880   2.939
 1012SOL     OW 3934   5.356   6.533   3.113
 1012SOL    HW1 3935   5.296   6.462   3.151
 1012SOL    HW2 3936   5.300   6.601   3.066
 1013SOL     OW 3937   6.912   0.169   6.395
 1013SOL    HW1 3938   6.994   0.115   6.416
 1013SOL    HW2 3939   6.858   0.182   6.479
 1014SOL     OW 3940   1.098   4.425   5.232
 1014SOL    HW1 3941   1.167   4.485   5.272
 1014SOL    HW2 3942   1.043   4.476   5.166
 1015SOL     OW 3943   2.328   6.289   0.352
 1015SOL    HW1 3944   2.370   6.302   0.263
 1015SOL    HW2 3945   2.355   6.363   0.413
 1016SOL     OW 3946   6.503   3.808   1.162
 1016SOL    HW1 3947   6.477   3.784   1.068
 1016SOL    HW2 3948   6.602   3.810   1.170
 1017SOL     OW 3949   2.244   1.729   1.924
 1017SOL    HW1 3950   2.196   1.745   1.838
 1017SOL    HW2 3951   2.226   1.636   1.956
 1018SOL     OW 3952   6.185   6.319   4.790
 1018SOL    HW1 3953   6.093   6.341   4.822
 1018SOL    HW2 3954   6.195   6.220   4.781
 1019SOL     OW 3955   6.800   3.872   1.057
 1019SOL    HW1 3956   6.864   3.948   1.049
 1019SOL    HW2 3957   6.837   3.791   1.012
 1020SOL     OW 3958   5.229   1.286   0.489
 1020SOL    HW1 3959   5.259   1.264   0.582
 1020SOL    HW2 3960   5.285   1.361   0.453
 1021SOL     OW 3961   1.221   6.425   1.138
 1021SOL    HW1 3962   1.264   6.463   1.220
 1021SOL    HW2 3963   1.251   6.476   1.058
 1022SOL     OW 3964   2.538   5.582   6.465
 1022SOL    HW1 3965   2.492   5.533   6.539
 1022SOL    HW2 3966   2.619   5.628   6.501
 1023SOL     OW 3967   0.460   1.230   2.964
 1023SOL    HW1 3968   0.503   1.319   2.980
 1023SOL    HW2 3969   0.529   1.158   2.968
 1024SOL     OW 3970   1.687   1.750   4.130
 1024SOL    HW1 3971   1.675   1.845   4.158
 1024SOL    HW2 3972   1.616   1.693   4.173
 1025SOL     OW 3973   4.759   4.262   0.370
 1025SOL    HW1 3974   4.725   4.174   0.336
 1025SOL    HW2 3975   4.856   4.270   0.348
 1026SOL     OW 3976   2.902   2.779   1.570
 1026SOL    HW1 3977   3.000   2.798   1.571
 1026SOL    HW2 3978   2.872   2.762   1.476
 1027SOL     OW 3979   0.577   6.683   0.254
 1027SOL    HW1 3980   0.581   6.621   0.333
 1027SOL    HW2 3981   0.601   6.775   0.283
 1028SOL     OW 3982   1.305   6.244   3.048
 1028SOL    HW1 3983   1.305   6.204   2.957
 1028SOL    HW2 3984   1.396   6.277   3.071
 1029SOL     OW 3985   0.851   1.219   5.668
 1029SOL    HW1 3986   0.851   1.285   5.592
 1029SOL    HW2 3987   0.808   1.134   5.638
 1030SOL     OW 3988   3.704   3.393   1.001
 1030SOL    HW1 3989   3.665   3.387   0.909
 1030SOL    HW2 3990   3.729   3.487   1.020
 1031SOL     OW 3991   3.813   3.151   1.124
 1031SOL    HW1 3992   3.734   3.110   1.170
 1031SOL    HW2 3993   3.788   3.243   1.092
 1032SOL     OW 3994   1.949   1.558   0.054
 1032SOL    HW1 3995   1.945   1.492   7.001
 1032SOL    HW2 3996   1.953   1.509   0.141
 1033SOL     OW 3997   0.398   6.715   2.644
 1033SOL    HW1 3998   0.410   6.800   2.593
 1033SOL    HW2 3999   0.401   6.637   2.581
 1034SOL     OW 4000   3.092   0.626   4.828
 1034SOL    HW1 4001   3.139   0.589   4.907
 1034SOL    HW2 4002   3.152   0.692   4.781
 1035SOL     OW 4003   1.679   1.361   0.257
 1035SOL    HW1 4004   1.645   1.418   0.183
 1035SOL    HW2 4005   1.656   1.265   0.239
 1036SOL     OW 4006   4.715   1.157   1.423
 1036SOL    HW1 4007   4.810   1.188   1.420
 1036SOL    HW2 4008   4.668   1.185   1.340
 1037SOL     OW 4009   1.765   3.257   1.693
 1037SOL    HW1 4010   1.828   3.335   1.686
 1037SOL    HW2 4011   1.691   3.268   1.627
 1038SOL     OW 4012   2.226   5.965   6.980
 1038SOL    HW1 4013   2.241   5.958   0.057
 1038SOL    HW2 4014   2.209   6.061   6.956
 1039SOL     OW 4015   3.589   3.571   2.791
 1039SOL    HW1 4016   3.554   3.576   2.885
 1039SOL    HW2 4017   3.567   3.482   2.751
 1040SOL     OW 4018   3.621   2.077   3.531
 1040SOL    HW1 4019   3.665   2.006   3.476
 1040SOL    HW2 4020   3.675   2.094   3.614
 1041SOL     OW 4021   6.177   5.492   6.743
 1041SOL    HW1 4022   6.136   5.403   6.724
 1041SOL    HW2 4023   6.209   5.495   6.837
 1042SOL     OW 4024   5.366   4.466   3.287
 1042SOL    HW1 4025   5.306   4.411   3.229
 1042SOL    HW2 4026   5.358   4.434   3.382
 1043SOL     OW 4027   2.766   2.246   3.674
 1043SOL    HW1 4028   2.757   2.279   3.768
 1043SOL    HW2 4029   2.788   2.148   3.675
 1044SOL     OW 4030   6.103   4.875   1.522
 1044SOL    HW1 4031   6.107   4.778   1.546
 1044SOL    HW2 4032   6.009   4.908   1.533
 1045SOL     OW 4033   2.031   0.575   1.832
 1045SOL    HW1 4034   2.080   0.580   1.744
 1045SOL    HW2 4035   2.096   0.587   1.907
 1046SOL     OW 4036   3.157   1.928   1.448
 1046SOL    HW1 4037   3.115   1.910   1.537
 1046SOL    HW2 4038   3.087   1.957   1.383
 1047SOL     OW 4039   3.471   6.707   3.278
 1047SOL    HW1 4040   3.506   6.801   3.277
 1047SOL    HW2 4041   3.439   6.684   3.370
 1048SOL     OW 4042   1.042   6.482   2.428
 1048SOL    HW1 4043   0.983   6.518   2.357
 1048SOL    HW2 4044   1.113   6.425   2.387
 1049SOL     OW 4045   4.290   6.083   5.208
 1049SOL    HW1 4046   4.247   6.104   5.296
 1049SOL    HW2 4047   4.263   6.153   5.141
 1050SOL     OW 4048   2.747   6.506   3.852
 1050SOL    HW1 4049   2.685   6.483   3.777
 1050SOL    HW2 4050   2.829   6.551   3.816
 1051SOL     OW 4051   1.179   0.854   5.935
 1051SOL    HW1 4052   1.206   0.947   5.961
 1051SOL    HW2 4053   1.239   0.821   5.862
 1052SOL     OW 4054   3.506   0.933   6.924
 1052SOL    HW1 4055   3.489   1.018   6.974
 1052SOL    HW2 4056   3.479   0.855   6.980
 1053SOL     OW 4057   5.089   1.791   4.552
 1053SOL    HW1 4058   4.997   1.788   4.590
 1053SOL    HW2 4059   5.117   1.886   4.538
 1054SOL     OW 4060   3.929   5.175   6.315
 1054SOL    HW1 4061   3.906   5.204   6.222
 1054SOL    HW2 4062   3.965   5.252   6.367
 1055SOL     OW 4063   4.576   5.632   6.552
 1055SOL    HW1 4064   4.625   5.629   6.465
 1055SOL    HW2 4065   4.568   5.540   6.589
 1056SOL     OW 4066   2.910   3.820   0.361
 1056SOL    HW1 4067   2.824   3.783   0.396
 1056SOL    HW2 4068   2.892   3.906   0.314
 1057SOL     OW 4069   2.888   2.854   0.290
 1057SOL    HW1 4070   2.851   2.786   0.353
 1057SOL    HW2 4071   2.854   2.835   0.197
 1058SOL     OW 4072   2.901   2.231   2.320
 1058SOL    HW1 4073   2.898   2.139   2.280
 1058SOL    HW2 4074   2.907   2.299   2.247
 1059SOL     OW 4075   2.438   6.475   1.798
 1059SOL    HW1 4076   2.366   6.479   1.867
 1059SOL    HW2 4077   2.521   6.517   1.834
 1060SOL     OW 4078   6.278   0.626   5.857
 1060SOL    HW1 4079   6.290   0.700   5.923
 1060SOL    HW2 4080   6.207   0.651   5.791
 1061SOL     OW 4081   6.965   3.660   6.203
 1061SOL    HW1 4082   6.972   3.572   6.249
 1061SOL    HW2 4083   7.001   3.652   6.110
 1062SOL     OW 4084   3.484   6.104   4.339
 1062SOL    HW1 4085   3.416   6.174   4.321
 1062SOL    HW2 4086   3.546   6.135   4.412
 1063SOL     OW 4087   3.704   6.500   5.005
 1063SOL    HW1 4088   3.615   6.472   5.039
 1063SOL    HW2 4089   3.750   6.557   5.073
 1064SOL     OW 4090   1.702   3.369   0.112
 1064SOL    HW1 4091   1.618   3.423   0.115
 1064SOL    HW2 4092   1.758   3.399   0.035
 1065SOL     OW 4093   5.743   0.780   4.576
 1065SOL    HW1 4094   5.779   0.807   4.665
 1065SOL    HW2 4095   5.658   0.729   4.587
 1066SOL     OW 4096   5.249   6.693   1.024
 1066SOL    HW1 4097   5.299   6.729   0.945
 1066SOL    HW2 4098   5.279   6.599   1.042
 1067SOL     OW 4099   2.655   1.576   0.397
 1067SOL    HW1 4100   2.626   1.603   0.305
 1067SOL    HW2 4101   2.671   1.478   0.399
 1068SOL     OW 4102   6.890   2.964   1.456
 1068SOL    HW1 4103   6.819   2.928   1.517
 1068SOL    HW2 4104   6.947   2.889   1.423
 1069SOL     OW 4105   6.019   3.396   2.266
 1069SOL    HW1 4106   5.984   3.485   2.237
 1069SOL    HW2 4107   6.115   3.405   2.292
 1070SOL     OW 4108   0.995   0.220   2.366
 1070SOL    HW1 4109   1.060   0.146   2.346
 1070SOL    HW2 4110   0.945   0.198   2.450
 1071SOL     OW 4111   0.510   3.111   5.901
 1071SOL    HW1 4112   0.467   3.049   5.834
 1071SOL    HW2 4113   0.438   3.156   5.955
 1072SOL     OW 4114   1.386   1.737   2.324
 1072SOL    HW1 4115   1.298   1.692   2.307
 1072SOL    HW2 4116   1.460   1.670   2.318
 1073SOL     OW 4117   5.226   2.493   3.106
 1073SOL    HW1 4118   5.288   2.506   3.183
 1073SOL    HW2 4119   5.131   2.501   3.138
 1074SOL     OW 4120   2.829   4.886   1.604
 1074SOL    HW1 4121   2.925   4.860   1.618
 1074SOL    HW2 4122   2.773   4.849   1.678
 1075SOL     OW 4123   6.137   4.274   5.856
 1075SOL    HW1 4124   6.237   4.274   5.854
 1075SOL    HW2 4125   6.105   4.315   5.941
 1076SOL     OW 4126   1.730   4.478   4.987
 1076SOL    HW1 4127   1.672   4.478   5.069
 1076SOL    HW2 4128   1.703   4.402   4.928
 1077SOL     OW 4129   6.844   6.726   0.011
 1077SOL    HW1 4130   6.838   6.667   0.092
 1077SOL    HW2 4131   6.837   6.670   6.951
 1078SOL     OW 4132   6.446   6.901   5.001
 1078SOL    HW1 4133   6.543   6.906   4.980
 1078SOL    HW2 4134   6.394   6.942   4.925
 1079SOL     OW 4135   1.192   6.907   1.830
 1079SOL    HW1 4136   1.143   6.841   1.773
 1079SOL    HW2 4137   1.127   6.955   1.889
 1080SOL     OW 4138   3.834   6.378   6.669
 1080SOL    HW1 4139   3.776   6.400   6.747
 1080SOL    HW2 4140   3.926   6.415   6.684
 1081SOL     OW 4141   6.458   6.677   4.181
 1081SOL    HW1 4142   6.471   6.587   4.224
 1081SOL    HW2 4143   6.367   6.681   4.140
 1082SOL     OW 4144   4.454   6.894   6.963
 1082SOL    HW1 4145   4.516   6.968   6.986
 1082SOL    HW2 4146   4.369   6.904   7.015
 1083SOL     OW 4147   5.332   4.610   2.062
 1083SOL    HW1 4148   5.281   4.629   1.978
 1083SOL    HW2 4149   5.400   4.539   2.044
 1084SOL     OW 4150   6.364   0.755   5.403
 1084SOL    HW1 4151   6.424   0.774   5.325
 1084SOL    HW2 4152   6.314   0.839   5.427
 1085SOL     OW 4153   2.140   3.834   4.618
 1085SOL    HW1 4154   2.205   3.904   4.588
 1085SOL    HW2 4155   2.108   3.856   4.710
 1086SOL     OW 4156   5.921   5.463   0.760
 1086SOL    HW1 4157   5.876   5.445   0.848
 1086SOL    HW2 4158   5.870   5.534   0.711
 1087SOL     OW 4159   4.088   0.402   5.640
 1087SOL    HW1 4160   4.143   0.321   5.621
 1087SOL    HW2 4161   3.996   0.389   5.602
 1088SOL     OW 4162   6.526   5.220   3.180
 1088SOL    HW1 4163   6.462   5.293   3.206
 1088SOL    HW2 4164   6.479   5.154   3.121
 1089SOL     OW 4165   6.223   4.767   4.174
 1089SOL    HW1 4166   6.318   4.757   4.145
 1089SOL    HW2 4167   6.202   4.864   4.185
 1090SOL     OW 4168   5.031   2.227   5.460
 1090SOL    HW1 4169   5.001   2.146   5.509
 1090SOL    HW2 4170   5.035   2.305   5.522
 1091SOL     OW 4171   2.268   2.508   3.132
 1091SOL    HW1 4172   2.331   2.523   3.209
 1091SOL    HW2 4173   2.286   2.418   3.092
 1092SOL     OW 4174   0.115   5.507   0.616
 1092SOL    HW1 4175   0.037   5.508   0.553
 1092SOL    HW2 4176   0.093   5.450   0.695
 1093SOL     OW 4177   1.578   0.590   2.774
 1093SOL    HW1 4178   1.543   0.678   2.804
 1093SOL    HW2 4179   1.505   0.538   2.730
 1094SOL     OW 4180   0.373   0.531   3.267
 1094SOL    HW1 4181   0.453   0.471   3.266
 1094SOL    HW2 4182   0.363   0.572   3.357
 1095SOL     OW 4183   5.299   3.094   0.792
 1095SOL    HW1 4184   5.361   3.049   0.857
 1095SOL    HW2 4185   5.210   3.047   0.793
 1096SOL     OW 4186   2.288   6.063   2.029
 1096SOL    HW1 4187   2.277   5.971   1.993
 1096SOL    HW2 4188   2.286   6.129   1.954
 1097SOL     OW 4189   2.635   5.950   4.537
 1097SOL    HW1 4190   2.587   5.871   4.576
 1097SOL    HW2 4191   2.603   6.033   4.580
 1098SOL     OW 4192   6.105   4.016   0.504
 1098SOL    HW1 4193   6.167   4.042   0.430
 1098SOL    HW2 4194   6.139   4.053   0.590
 1099SOL     OW 4195   4.740   0.238   6.039
 1099SOL    HW1 4196   4.759   0.143   6.062
 1099SOL    HW2 4197   4.813   0.297   6.076
 1100SOL     OW 4198   4.045   1.724   4.434
 1100SOL    HW1 4199   4.006   1.699   4.523
 1100SOL    HW2 4200   3.988   1.685   4.361
 1101SOL     OW 4201   5.004   3.078   6.289
 1101SOL    HW1 4202   5.054   3.104   6.372
 1101SOL    HW2 4203   4.914   3.045   6.314
 1102SOL     OW 4204   2.732   0.613   3.117
 1102SOL    HW1 4205   2.663   0.543   3.102
 1102SOL    HW2 4206   2.688   0.702   3.124
 1103SOL     OW 4207   3.422   6.810   0.423
 1103SOL    HW1 4208   3.424   6.885   0.357
 1103SOL    HW2 4209   3.503   6.753   0.412
 1104SOL     OW 4210   0.695   2.781   3.582
 1104SOL    HW1 4211   0.611   2.773   3.636
 1104SOL    HW2 4212   0.764   2.718   3.618
 1105SOL     OW 4213   5.220   1.239   6.079
 1105SOL    HW1 4214   5.295   1.302   6.096
 1105SOL    HW2 4215   5.169   1.223   6.163
 1106SOL     OW 4216   6.634   1.440   0.726
 1106SOL    HW1 4217   6.697   1.453   0.802
 1106SOL    HW2 4218   6.642   1.347   0.690
 1107SOL     OW 4219   1.030   1.141   6.523
 1107SOL    HW1 4220   0.945   1.170   6.565
 1107SOL    HW2 4221   1.027   1.161   6.425
 1108SOL     OW 4222   2.389   0.403   4.369
 1108SOL    HW1 4223   2.400   0.496   4.402
 1108SOL    HW2 4224   2.394   0.401   4.269
 1109SOL     OW 4225   4.598   2.258   4.947
 1109SOL    HW1 4226   4.657   2.303   4.881
 1109SOL    HW2 4227   4.591   2.161   4.926
 1110SOL     OW 4228   2.387   0.763   2.221
 1110SOL    HW1 4229   2.449   0.835   2.188
 1110SOL    HW2 4230   2.336   0.797   2.301
 1111SOL     OW 4231   5.755   4.155   6.372
 1111SOL    HW1 4232   5.842   4.176   6.418
 1111SOL    HW2 4233   5.763   4.178   6.275
 1112SOL     OW 4234   5.566   0.741   2.191
 1112SOL    HW1 4235   5.507   0.666   2.159
 1112SOL    HW2 4236   5.602   0.719   2.281
 1113SOL     OW 4237   5.882   3.867   2.322
 1113SOL    HW1 4238   5.838   3.812   2.393
 1113SOL    HW2 4239   5.836   3.956   2.316
 1114SOL     OW 4240   3.585   3.851   4.588
 1114SOL    HW1 4241   3.666   3.865   4.644
 1114SOL    HW2 4242   3.602   3.884   4.495
 1115SOL     OW 4243   2.770   4.380   5.739
 1115SOL    HW1 4244   2.838   4.317   5.701
 1115SOL    HW2 4245   2.801   4.475   5.725
 1116SOL     OW 4246   4.649   6.750   6.800
 1116SOL    HW1 4247   4.567   6.790   6.842
 1116SOL    HW2 4248   4.622   6.692   6.724
 1117SOL     OW 4249   2.291   2.545   1.294
 1117SOL    HW1 4250   2.198   2.550   1.330
 1117SOL    HW2 4251   2.354   2.592   1.357
 1118SOL     OW 4252   4.197   6.158   0.269
 1118SOL    HW1 4253   4.288   6.181   0.302
 1118SOL    HW2 4254   4.204   6.102   0.186
 1119SOL     OW 4255   3.202   5.233   3.597
 1119SOL    HW1 4256   3.141   5.176   3.651
 1119SOL    HW2 4257   3.149   5.302   3.547
 1120SOL     OW 4258   6.521   3.493   1.221
 1120SOL    HW1 4259   6.474   3.455   1.301
 1120SOL    HW2 4260   6.591   3.558   1.252
 1121SOL     OW 4261   0.117   4.665   4.620
 1121SOL    HW1 4262   0.204   4.673   4.571
 1121SOL    HW2 4263   0.043   4.656   4.554
 1122SOL     OW 4264   5.436   2.245   1.957
 1122SOL    HW1 4265   5.396   2.331   1.989
 1122SOL    HW2 4266   5.407   2.171   2.018
 1123SOL     OW 4267   4.124   1.066   3.696
 1123SOL    HW1 4268   4.091   1.050   3.604
 1123SOL    HW2 4269   4.113   1.163   3.719
 1124SOL     OW 4270   1.883   2.214   4.509
 1124SOL    HW1 4271   1.973   2.221   4.465
 1124SOL    HW2 4272   1.854   2.118   4.510
 1125SOL     OW 4273   2.168   3.442   3.581
 1125SOL    HW1 4274   2.173   3.509   3.655
 1125SOL    HW2 4275   2.242   3.457   3.516
 1126SOL     OW 4276   3.836   4.893   4.473
 1126SOL    HW1 4277   3.932   4.883   4.500
 1126SOL    HW2 4278   3.827   4.874   4.376
 1127SOL     OW 4279   6.385   6.890   2.274
 1127SOL    HW1 4280   6.456   6.904   2.343
 1127SOL    HW2 4281   6.320   6.821   2.305
 1128SOL     OW 4282   4.943   1.267   4.027
 1128SOL    HW1 4283   5.029   1.221   4.004
 1128SOL    HW2 4284   4.881   1.202   4.072
 1129SOL     OW 4285   1.347   0.885   0.525
 1129SOL    HW1 4286   1.435   0.890   0.572
 1129SOL    HW2 4287   1.293   0.811   0.562
 1130SOL     OW 4288   2.167   4.784   2.130
 1130SOL    HW1 4289   2.260   4.770   2.165
 1130SOL    HW2 4290   2.147   4.715   2.060
 1131SOL     OW 4291   1.379   5.530   4.139
 1131SOL    HW1 4292   1.443   5.599   4.108
 1131SOL    HW2 4293   1.428   5.457   4.187
 1132SOL     OW 4294   2.242   1.347   2.372
 1132SOL    HW1 4295   2.282   1.310   2.455
 1132SOL    HW2 4296   2.290   1.432   2.347
 1133SOL     OW 4297   0.960   0.014   6.313
 1133SOL    HW1 4298   0.898   0.059   6.249
 1133SOL    HW2 4299   1.046   0.064   6.319
 1134SOL     OW 4300   3.460   6.454   1.698
 1134SOL    HW1 4301   3.483   6.366   1.740
 1134SOL    HW2 4302   3.380   6.492   1.744
 1135SOL     OW 4303   1.815   5.734   3.202
 1135SOL    HW1 4304   1.878   5.663   3.234
 1135SOL    HW2 4305   1.860   5.823   3.206
 1136SOL     OW 4306   1.773   5.089   2.141
 1136SOL    HW1 4307   1.820   5.020   2.086
 1136SOL    HW2 4308   1.837   5.126   2.209
 1137SOL     OW 4309   0.961   5.506   5.246
 1137SOL    HW1 4310   0.965   5.407   5.259
 1137SOL    HW2 4311   1.049   5.546   5.270
 1138SOL     OW 4312   2.163   3.318   4.795
 1138SOL    HW1 4313   2.244   3.274   4.834
 1138SOL    HW2 4314   2.181   3.415   4.779
 1139SOL     OW 4315   2.570   4.960   5.227
 1139SOL    HW1 4316   2.606   4.920   5.311
 1139SOL    HW2 4317   2.470   4.958   5.229
 1140SOL     OW 4318   2.240   2.155   1.306
 1140SOL    HW1 4319   2.297   2.201   1.374
 1140SOL    HW2 4320   2.291   2.142   1.222
 1141SOL     OW 4321   0.075   4.876   6.099
 1141SOL    HW1 4322   0.061   4.802   6.164
 1141SOL    HW2 4323   0.124   4.951   6.142
 1142SOL     OW 4324   1.753   6.386   2.167
 1142SOL    HW1 4325   1.764   6.366   2.265
 1142SOL    HW2 4326   1.790   6.476   2.147
 1143SOL     OW 4327   1.092   4.003   1.805
 1143SOL    HW1 4328   1.029   4.062   1.753
 1143SOL    HW2 4329   1.048   3.914   1.820
 1144SOL     OW 4330   5.848   4.552   0.433
 1144SOL    HW1 4331   5.882   4.602   0.513
 1144SOL    HW2 4332   5.752   4.574   0.418
 1145SOL     OW 4333   5.842   6.912   0.647
 1145SOL    HW1 4334   5.816   7.007   0.626
 1145SOL    HW2 4335   5.938   6.909   0.673
 1146SOL     OW 4336   0.871   1.153   1.321
 1146SOL    HW1 4337   0.845   1.115   1.409
 1146SOL    HW2 4338   0.969   1.139   1.306
 1147SOL     OW 4339   2.064   6.342   1.425
 1147SOL    HW1 4340   2.045   6.414   1.492
 1147SOL    HW2 4341   2.057   6.253   1.469
 1148SOL     OW 4342   4.027   6.125   3.201
 1148SOL    HW1 4343   4.111   6.073   3.183
 1148SOL    HW2 4344   4.049   6.211   3.246
 1149SOL     OW 4345   4.587   3.216   1.423
 1149SOL    HW1 4346   4.493   3.183   1.425
 1149SOL    HW2 4347   4.635   3.187   1.506
 1150SOL     OW 4348   1.388   3.566   0.764
 1150SOL    HW1 4349   1.384   3.666   0.769
 1150SOL    HW2 4350   1.483   3.536   0.778
 1151SOL     OW 4351   6.247   5.448   4.193
 1151SOL    HW1 4352   6.340   5.433   4.160
 1151SOL    HW2 4353   6.212   5.535   4.158
 1152SOL     OW 4354   3.577   6.386   6.338
 1152SOL    HW1 4355   3.631   6.459   6.380
 1152SOL    HW2 4356   3.497   6.366   6.394
 1153SOL     OW 4357   5.933   6.739   1.559
 1153SOL    HW1 4358   5.962   6.742   1.655
 1153SOL    HW2 4359   5.859   6.805   1.545
 1154SOL     OW 4360   1.971   2.997   1.049
 1154SOL    HW1 4361   1.973   2.962   0.955
 1154SOL    HW2 4362   2.021   2.934   1.108
 1155SOL     OW 4363   2.806   6.632   4.640
 1155SOL    HW1 4364   2.718   6.585   4.636
 1155SOL    HW2 4365   2.861   6.606   4.561
 1156SOL     OW 4366   2.720   1.862   3.470
 1156SOL    HW1 4367   2.732   1.770   3.509
 1156SOL    HW2 4368   2.784   1.875   3.394
 1157SOL     OW 4369   3.255   1.020   6.740
 1157SOL    HW1 4370   3.178   0.974   6.785
 1157SOL    HW2 4371   3.339   0.971   6.760
 1158SOL     OW 4372   5.651   4.366   3.013
 1158SOL    HW1 4373   5.613   4.276   2.990
 1158SOL    HW2 4374   5.640   4.428   2.935
 1159SOL     OW 4375   6.490   4.876   0.845
 1159SOL    HW1 4376   6.502   4.827   0.932
 1159SOL    HW2 4377   6.498   4.974   0.862
 1160SOL     OW 4378   5.640   1.730   0.266
 1160SOL    HW1 4379   5.563   1.793   0.258
 1160SOL    HW2 4380   5.721   1.781   0.295
 1161SOL     OW 4381   6.869   5.100   1.116
 1161SOL    HW1 4382   6.872   5.058   1.206
 1161SOL    HW2 4383   6.929   5.050   1.053
 1162SOL     OW 4384   3.034   2.047   4.867
 1162SOL    HW1 4385   3.066   2.030   4.774
 1162SOL    HW2 4386   3.067   2.136   4.898
 1163SOL     OW 4387   5.675   2.781   1.893
 1163SOL    HW1 4388   5.620   2.841   1.834
 1163SOL    HW2 4389   5.619   2.749   1.969
 1164SOL     OW 4390   4.078   2.451   5.787
 1164SOL    HW1 4391   4.086   2.545   5.821
 1164SOL    HW2 4392   4.112   2.447   5.693
 1165SOL     OW 4393   3.584   6.484   3.596
 1165SOL    HW1 4394   3.552   6.579   3.591
 1165SOL    HW2 4395   3.563   6.437   3.510
 1166SOL     OW 4396   3.342   4.587   6.160
 1166SOL    HW1 4397   3.265   4.529   6.189
 1166SOL    HW2 4398   3.327   4.618   6.066
 1167SOL     OW 4399   5.121   4.602   2.515
 1167SOL    HW1 4400   5.188   4.628   2.445
 1167SOL    HW2 4401   5.116   4.674   2.584
 1168SOL     OW 4402   6.086   0.585   2.758
 1168SOL    HW1 4403   6.107   0.632   2.672
 1168SOL    HW2 4404   6.158   0.605   2.825
 1169SOL     OW 4405   4.888   1.164   5.404
 1169SOL    HW1 4406   4.953   1.128   5.471
 1169SOL    HW2 4407   4.873   1.097   5.332
 1170SOL     OW 4408   5.220   6.028   3.507
 1170SOL    HW1 4409   5.213   5.930   3.526
 1170SOL    HW2 4410   5.171   6.049   3.422
 1171SOL     OW 4411   0.786   6.015   1.220
 1171SOL    HW1 4412   0.719   6.084   1.190
 1171SOL    HW2 4413   0.760   5.982   1.310
 1172SOL     OW 4414   6.662   3.346   6.879
 1172SOL    HW1 4415   6.581   3.371   6.931
 1172SOL    HW2 4416   6.717   3.427   6.859
 1173SOL     OW 4417   3.704   1.687   0.661
 1173SOL    HW1 4418   3.803   1.691   0.672
 1173SOL    HW2 4419   3.680   1.702   0.565
 1174SOL     OW 4420   2.474   4.081   0.720
 1174SOL    HW1 4421   2.433   4.124   0.801
 1174SOL    HW2 4422   2.566   4.048   0.742
 1175SOL     OW 4423   3.465   2.890   4.316
 1175SOL    HW1 4424   3.433   2.939   4.235
 1175SOL    HW2 4425   3.565   2.881   4.313
 1176SOL     OW 4426   5.596   3.446   5.848
 1176SOL    HW1 4427   5.695   3.436   5.860
 1176SOL    HW2 4428   5.562   3.369   5.794
 1177SOL     OW 4429   0.362   1.922   4.546
 1177SOL    HW1 4430   0.449   1.961   4.515
 1177SOL    HW2 4431   0.325   1.862   4.475
 1178SOL     OW 4432   3.864   5.713   0.536
 1178SOL    HW1 4433   3.909   5.698   0.625
 1178SOL    HW2 4434   3.863   5.627   0.485
 1179SOL     OW 4435   1.955   5.675   0.567
 1179SOL    HW1 4436   1.892   5.607   0.606
 1179SOL    HW2 4437   2.043   5.671   0.615
 1180SOL     OW 4438   3.442   6.147   0.726
 1180SOL    HW1 4439   3.413   6.242   0.741
 1180SOL    HW2 4440   3.456   6.131   0.629
 1181SOL     OW 4441   0.378   6.375   0.351
 1181SOL    HW1 4442   0.357   6.470   0.374
 1181SOL    HW2 4443   0.447   6.339   0.414
 1182SOL     OW 4444   4.424   4.664   2.906
 1182SOL    HW1 4445   4.460   4.610   2.982
 1182SOL    HW2 4446   4.399   4.755   2.939
 1183SOL     OW 4447   2.529   3.192   5.604
 1183SOL    HW1 4448   2.593   3.144   5.544
 1183SOL    HW2 4449   2.457   3.129   5.632
 1184SOL     OW 4450   0.635   6.779   5.658
 1184SOL    HW1 4451   0.593   6.784   5.749
 1184SOL    HW2 4452   0.636   6.871   5.618
 1185SOL     OW 4453   6.863   1.426   6.807
 1185SOL    HW1 4454   6.768   1.425   6.776
 1185SOL    HW2 4455   6.870   1.482   6.890
 1186SOL     OW 4456   5.665   6.323   4.656
 1186SOL    HW1 4457   5.615   6.365   4.731
 1186SOL    HW2 4458   5.718   6.245   4.690
 1187SOL     OW 4459   6.035   0.560   6.267
 1187SOL    HW1 4460   6.116   0.594   6.219
 1187SOL    HW2 4461   6.048   0.464   6.291
 1188SOL     OW 4462   2.440   0.337   6.284
 1188SOL    HW1 4463   2.519   0.276   6.281
 1188SOL    HW2 4464   2.358   0.284   6.308
 1189SOL     OW 4465   5.252   3.555   3.356
 1189SOL    HW1 4466   5.304   3.622   3.303
 1189SOL    HW2 4467   5.264   3.572   3.454
 1190SOL     OW 4468   2.085   5.891   3.208
 1190SOL    HW1 4469   2.094   5.870   3.110
 1190SOL    HW2 4470   2.161   5.949   3.237
 1191SOL     OW 4471   3.961   5.968   2.776
 1191SOL    HW1 4472   3.872   5.922   2.769
 1191SOL    HW2 4473   3.950   6.065   2.757
 1192SOL     OW 4474   5.773   6.069   3.606
 1192SOL    HW1 4475   5.836   6.092   3.680
 1192SOL    HW2 4476   5.815   6.091   3.518
 1193SOL     OW 4477   6.713   5.184   3.925
 1193SOL    HW1 4478   6.720   5.099   3.976
 1193SOL    HW2 4479   6.652   5.171   3.847
 1194SOL     OW 4480   3.667   0.896   0.809
 1194SOL    HW1 4481   3.623   0.871   0.896
 1194SOL    HW2 4482   3.762   0.866   0.810
 1195SOL     OW 4483   5.569   2.264   3.819
 1195SOL    HW1 4484   5.560   2.218   3.908
 1195SOL    HW2 4485   5.590   2.361   3.834
 1196SOL     OW 4486   6.212   6.238   5.251
 1196SOL    HW1 4487   6.272   6.298   5.303
 1196SOL    HW2 4488   6.156   6.293   5.189
 1197SOL     OW 4489   2.458   5.818   0.625
 1197SOL    HW1 4490   2.531   5.759   0.593
 1197SOL    HW2 4491   2.382   5.817   0.560
 1198SOL     OW 4492   1.228   3.013   0.123
 1198SOL    HW1 4493   1.219   2.919   0.156
 1198SOL    HW2 4494   1.278   3.067   0.190
 1199SOL     OW 4495   5.438   4.006   1.502
 1199SOL    HW1 4496   5.374   4.054   1.563
 1199SOL    HW2 4497   5.530   4.041   1.518
 1200SOL     OW 4498   3.111   3.088   1.882
 1200SOL    HW1 4499   3.124   3.182   1.915
 1200SOL    HW2 4500   3.174   3.070   1.807
 1201SOL     OW 4501   2.141   1.972   4.651
 1201SOL    HW1 4502   2.138   2.015   4.561
 1201SOL    HW2 4503   2.089   2.027   4.716
 1202SOL     OW 4504   0.317   5.351   5.625
 1202SOL    HW1 4505   0.280   5.344   5.718
 1202SOL    HW2 4506   0.241   5.363   5.560
 1203SOL     OW 4507   5.247   5.751   5.684
 1203SOL    HW1 4508   5.198   5.838   5.676
 1203SOL    HW2 4509   5.345   5.767   5.679
 1204SOL     OW 4510   2.193   6.853   3.022
 1204SOL    HW1 4511   2.190   6.844   2.923
 1204SOL    HW2 4512   2.207   6.950   3.046
 1205SOL     OW 4513   5.079   4.432   2.284
 1205SOL    HW1 4514   5.167   4.403   2.245
 1205SOL    HW2 4515   5.096   4.477   2.372
 1206SOL     OW 4516   3.081   3.097   4.837
 1206SOL    HW1 4517   3.091   3.077   4.739
 1206SOL    HW2 4518   3.029   3.182   4.849
 1207SOL     OW 4519   1.253   6.279   2.317
 1207SOL    HW1 4520   1.169   6.228   2.300
 1207SOL    HW2 4521   1.311   6.277   2.236
 1208SOL     OW 4522   3.457   4.057   5.990
 1208SOL    HW1 4523   3.368   4.102   5.988
 1208SOL    HW2 4524   3.499   4.062   5.899
 1209SOL     OW 4525   4.166   6.350   5.637
 1209SOL    HW1 4526   4.220   6.425   5.600
 1209SOL    HW2 4527   4.082   6.387   5.679
 1210SOL     OW 4528   3.273   0.504   2.908
 1210SOL    HW1 4529   3.372   0.491   2.910
 1210SOL    HW2 4530   3.252   0.602   2.905
 1211SOL     OW 4531   1.130   3.675   7.010
 1211SOL    HW1 4532   1.156   3.578   7.020
 1211SOL    HW2 4533   1.031   3.682   7.004
 1212SOL     OW 4534   1.580   6.737   0.401
 1212SOL    HW1 4535   1.560   6.697   0.312
 1212SOL    HW2 4536   1.523   6.819   0.414
 1213SOL     OW 4537   5.575   2.698   1.408
 1213SOL    HW1 4538   5.555   2.600   1.415
 1213SOL    HW2 4539   5.674   2.712   1.415
 1214SOL     OW 4540   6.911   2.234   1.303
 1214SOL    HW1 4541   6.861   2.320   1.308
 1214SOL    HW2 4542   6.980   2.239   1.231
 1215SOL     OW 4543   1.518   5.745   4.016
 1215SOL    HW1 4544   1.595   5.794   3.975
 1215SOL    HW2 4545   1.437   5.804   4.017
 1216SOL     OW 4546   4.573   6.184   1.088
 1216SOL    HW1 4547   4.658   6.158   1.134
 1216SOL    HW2 4548   4.588   6.266   1.033
 1217SOL     OW 4549   3.168   4.049   6.761
 1217SOL    HW1 4550   3.109   4.129   6.777
 1217SOL    HW2 4551   3.239   4.046   6.831
 1218SOL     OW 4552   1.795   4.780   3.685
 1218SOL    HW1 4553   1.799   4.820   3.594
 1218SOL    HW2 4554   1.862   4.706   3.692
 1219SOL     OW 4555   4.662   6.331   2.270
 1219SOL    HW1 4556   4.578   6.281   2.251
 1219SOL    HW2 4557   4.670   6.346   2.368
 1220SOL     OW 4558   0.957   4.620   2.548
 1220SOL    HW1 4559   1.057   4.622   2.547
 1220SOL    HW2 4560   0.925   4.526   2.555
 1221SOL     OW 4561   5.132   4.090   6.182
 1221SOL    HW1 4562   5.117   4.014   6.119
 1221SOL    HW2 4563   5.055   4.154   6.176
 1222SOL     OW 4564   6.465   0.020   6.442
 1222SOL    HW1 4565   6.443   0.032   6.345
 1222SOL    HW2 4566   6.456   0.107   6.489
 1223SOL     OW 4567   3.279   6.486   0.562
 1223SOL    HW1 4568   3.305   6.445   0.649
 1223SOL    HW2 4569   3.234   6.574   0.578
 1224SOL     OW 4570   3.338   0.330   2.095
 1224SOL    HW1 4571   3.398   0.410   2.106
 1224SOL    HW2 4572   3.264   0.353   2.032
 1225SOL     OW 4573   2.621   4.045   6.164
 1225SOL    HW1 4574   2.523   4.059   6.147
 1225SOL    HW2 4575   2.674   4.113   6.113
 1226SOL     OW 4576   1.810   4.913   1.096
 1226SOL    HW1 4577   1.762   4.831   1.126
 1226SOL    HW2 4578   1.903   4.913   1.134
 1227SOL     OW 4579   0.283   3.879   6.027
 1227SOL    HW1 4580   0.369   3.905   5.983
 1227SOL    HW2 4581   0.302   3.815   6.102
 1228SOL     OW 4582   3.622   1.516   5.931
 1228SOL    HW1 4583   3.538   1.465   5.912
 1228SOL    HW2 4584   3.687   1.456   5.978
 1229SOL     OW 4585   3.598   3.957   6.242
 1229SOL    HW1 4586   3.649   3.876   6.213
 1229SOL    HW2 4587   3.534   3.983   6.169
 1230SOL     OW 4588   4.513   6.286   3.574
 1230SOL    HW1 4589   4.520   6.338   3.659
 1230SOL    HW2 4590   4.419   6.286   3.542
 1231SOL     OW 4591   1.309   5.101   4.511
 1231SOL    HW1 4592   1.349   5.085   4.420
 1231SOL    HW2 4593   1.267   5.016   4.544
 1232SOL     OW 4594   1.803   2.359   4.763
 1232SOL    HW1 4595   1.793   2.324   4.670
 1232SOL    HW2 4596   1.728   2.326   4.820
 1233SOL     OW 4597   0.597   2.849   4.339
 1233SOL    HW1 4598   0.656   2.873   4.415
 1233SOL    HW2 4599   0.574   2.931   4.286
 1234SOL     OW 4600   6.773   4.223   4.456
 1234SOL    HW1 4601   6.790   4.249   4.551
 1234SOL    HW2 4602   6.678   4.243   4.432
 1235SOL     OW 4603   6.588   5.748   4.182
 1235SOL    HW1 4604   6.627   5.792   4.101
 1235SOL    HW2 4605   6.603   5.807   4.262
 1236SOL     OW 4606   5.145   1.237   6.691
 1236SOL    HW1 4607   5.154   1.312   6.757
 1236SOL    HW2 4608   5.109   1.273   6.605
 1237SOL     OW 4609   3.041   4.306   6.640
 1237SOL    HW1 4610   3.125   4.359   6.632
 1237SOL    HW2 4611   3.001   4.292   6.550
 1238SOL     OW 4612   1.722   1.479   1.461
 1238SOL    HW1 4613   1.643   1.422   1.439
 1238SOL    HW2 4614   1.804   1.439   1.422
 1239SOL     OW 4615   0.156   6.744   6.120
 1239SOL    HW1 4616   0.211   6.804   6.178
 1239SOL    HW2 4617   0.088   6.798   6.070
 1240SOL     OW 4618   4.350   5.846   2.080
 1240SOL    HW1 4619   4.306   5.876   2.164
 1240SOL    HW2 4620   4.449   5.844   2.093
 1241SOL     OW 4621   6.729   2.968   3.696
 1241SOL    HW1 4622   6.817   2.955   3.651
 1241SOL    HW2 4623   6.669   2.889   3.676
 1242SOL     OW 4624   2.633   3.544   6.149
 1242SOL    HW1 4625   2.688   3.560   6.231
 1242SOL    HW2 4626   2.641   3.622   6.088
 1243SOL     OW 4627   3.138   5.113   5.666
 1243SOL    HW1 4628   3.237   5.124   5.657
 1243SOL    HW2 4629   3.114   5.016   5.654
 1244SOL     OW 4630   0.674   0.991   2.948
 1244SOL    HW1 4631   0.702   1.060   3.016
 1244SOL    HW2 4632   0.707   1.018   2.858
 1245SOL     OW 4633   2.665   3.023   6.092
 1245SOL    HW1 4634   2.604   3.101   6.083
 1245SOL    HW2 4635   2.738   3.044   6.157
 1246SOL     OW 4636   1.164   6.606   2.155
 1246SOL    HW1 4637   1.123   6.586   2.066
 1246SOL    HW2 4638   1.102   6.664   2.208
 1247SOL     OW 4639   1.453   6.617   6.892
 1247SOL    HW1 4640   1.549   6.644   6.886
 1247SOL    HW2 4641   1.409   6.635   6.804
 1248SOL     OW 4642   1.843   6.530   3.232
 1248SOL    HW1 4643   1.930   6.506   3.275
 1248SOL    HW2 4644   1.834   6.480   3.145
 1249SOL     OW 4645   6.316   3.344   3.166
 1249SOL    HW1 4646   6.328   3.254   3.208
 1249SOL    HW2 4647   6.357   3.344   3.075
 1250SOL     OW 4648   0.878   3.950   4.340
 1250SOL    HW1 4649   0.879   3.859   4.382
 1250SOL    HW2 4650   0.896   4.019   4.410
 1251SOL     OW 4651   3.366   6.644   5.573
 1251SOL    HW1 4652   3.422   6.712   5.619
 1251SOL    HW2 4653   3.274   6.643   5.612
 1252SOL     OW 4654   3.444   3.411   6.526
 1252SOL    HW1 4655   3.366   3.372   6.477
 1252SOL    HW2 4656   3.413   3.455   6.609
 1253SOL     OW 4657   4.254   6.294   3.508
 1253SOL    HW1 4658   4.204   6.330   3.586
 1253SOL    HW2 4659   4.197   6.301   3.426
 1254SOL     OW 4660   6.358   2.182   2.493
 1254SOL    HW1 4661   6.448   2.146   2.469
 1254SOL    HW2 4662   6.358   2.282   2.486
 1255SOL     OW 4663   6.291   6.990   0.387
 1255SOL    HW1 4664   6.389   6.974   0.392
 1255SOL    HW2 4665   6.242   6.908   0.418
 1256SOL     OW 4666   4.360   1.830   3.877
 1256SOL    HW1 4667   4.382   1.767   3.802
 1256SOL    HW2 4668   4.294   1.898   3.844
 1257SOL     OW 4669   6.477   1.209   4.195
 1257SOL    HW1 4670   6.534   1.287   4.169
 1257SOL    HW2 4671   6.522   1.125   4.167
 1258SOL     OW 4672   0.042   6.350   4.046
 1258SOL    HW1 4673   7.011   6.327   3.964
 1258SOL    HW2 4674   0.125   6.295   4.048
 1259SOL     OW 4675   4.082   2.263   5.460
 1259SOL    HW1 4676   4.175   2.292   5.438
 1259SOL    HW2 4677   4.078   2.164   5.467
 1260SOL     OW 4678   0.666   1.453   5.757
 1260SOL    HW1 4679   0.723   1.512   5.815
 1260SOL    HW2 4680   0.708   1.444   5.667
 1261SOL     OW 4681   6.322   3.731   0.732
 1261SOL    HW1 4682   6.414   3.720   0.769
 1261SOL    HW2 4683   6.317   3.690   0.641
 1262SOL     OW 4684   5.100   6.440   2.858
 1262SOL    HW1 4685   5.020   6.499   2.857
 1262SOL    HW2 4686   5.078   6.352   2.816
 1263SOL     OW 4687   6.797   2.421   3.685
 1263SOL    HW1 4688   6.757   2.508   3.658
 1263SOL    HW2 4689   6.727   2.349   3.681
 1264SOL     OW 4690   0.776   2.692   5.104
 1264SOL    HW1 4691   0.764   2.611   5.161
 1264SOL    HW2 4692   0.712   2.763   5.133
 1265SOL     OW 4693   5.511   6.611   5.566
 1265SOL    HW1 4694   5.515   6.541   5.494
 1265SOL    HW2 4695   5.474   6.571   5.650
 1266SOL     OW 4696   1.974   1.744   5.813
 1266SOL    HW1 4697   1.978   1.769   5.717
 1266SOL    HW2 4698   1.927   1.655   5.822
 1267SOL     OW 4699   3.542   0.136   2.795
 1267SOL    HW1 4700   3.553   0.089   2.708
 1267SOL    HW2 4701   3.445   0.144   2.817
 1268SOL     OW 4702   4.128   2.689   5.859
 1268SOL    HW1 4703   4.134   2.733   5.949
 1268SOL    HW2 4704   4.220   2.678   5.821
 1269SOL     OW 4705   5.945   1.944   3.941
 1269SOL    HW1 4706   5.945   2.029   3.888
 1269SOL    HW2 4707   5.866   1.888   3.913
 1270SOL     OW 4708   6.652   5.554   2.807
 1270SOL    HW1 4709   6.664   5.614   2.886
 1270SOL    HW2 4710   6.597   5.475   2.833
 1271SOL     OW 4711   1.763   1.214   0.928
 1271SOL    HW1 4712   1.729   1.128   0.890
 1271SOL    HW2 4713   1.803   1.270   0.855
 1272SOL     OW 4714   6.273   2.771   6.432
 1272SOL    HW1 4715   6.343   2.700   6.441
 1272SOL    HW2 4716   6.312   2.850   6.385
 1273SOL     OW 4717   1.272   4.588   5.374
 1273SOL    HW1 4718   1.256   4.687   5.368
 1273SOL    HW2 4719   1.343   4.570   5.442
 1274SOL     OW 4720   6.945   5.158   2.801
 1274SOL    HW1 4721   6.906   5.209   2.877
 1274SOL    HW2 4722   0.019   5.139   2.820
 1275SOL     OW 4723   2.433   1.311   3.171
 1275SOL    HW1 4724   2.385   1.398   3.177
 1275SOL    HW2 4725   2.369   1.236   3.186
 1276SOL     OW 4726   5.344   4.832   3.818
 1276SOL    HW1 4727   5.406   4.755   3.827
 1276SOL    HW2 4728   5.376   4.909   3.872
 1277SOL     OW 4729   0.295   5.814   0.637
 1277SOL    HW1 4730   0.251   5.813   0.726
 1277SOL    HW2 4731   0.394   5.827   0.648
 1278SOL     OW 4732   1.314   5.871   3.247
 1278SOL    HW1 4733   1.326   5.932   3.326
 1278SOL    HW2 4734   1.391   5.808   3.242
 1279SOL     OW 4735   2.668   2.803   1.690
 1279SOL    HW1 4736   2.646   2.900   1.680
 1279SOL    HW2 4737   2.756   2.783   1.646
 1280SOL     OW 4738   2.166   1.753   4.299
 1280SOL    HW1 4739   2.075   1.714   4.317
 1280SOL    HW2 4740   2.156   1.849   4.275
 1281SOL     OW 4741   5.181   6.160   5.179
 1281SOL    HW1 4742   5.087   6.159   5.213
 1281SOL    HW2 4743   5.226   6.244   5.209
 1282SOL     OW 4744   0.490   2.835   1.315
 1282SOL    HW1 4745   0.404   2.884   1.329
 1282SOL    HW2 4746   0.536   2.823   1.403
 1283SOL     OW 4747   6.779   2.881   4.486
 1283SOL    HW1 4748   6.791   2.847   4.392
 1283SOL    HW2 4749   6.862   2.930   4.514
 1284SOL     OW 4750   4.035   2.199   2.007
 1284SOL    HW1 4751   4.069   2.253   1.930
 1284SOL    HW2 4752   3.941   2.227   2.028
 1285SOL     OW 4753   4.211   1.288   5.129
 1285SOL    HW1 4754   4.170   1.199   5.110
 1285SOL    HW2 4755   4.266   1.317   5.050
 1286SOL     OW 4756   5.354   1.263   0.733
 1286SOL    HW1 4757   5.425   1.207   0.776
 1286SOL    HW2 4758   5.391   1.354   0.714
 1287SOL     OW 4759   6.859   5.049   4.852
 1287SOL    HW1 4760   6.830   5.024   4.759
 1287SOL    HW2 4761   6.872   5.148   4.858
 1288SOL     OW 4762   4.718   4.740   6.833
 1288SOL    HW1 4763   4.727   4.840   6.829
 1288SOL    HW2 4764   4.631   4.717   6.878
 1289SOL     OW 4765   0.299   6.629   1.183
 1289SOL    HW1 4766   0.296   6.530   1.192
 1289SOL    HW2 4767   0.322   6.670   1.271
 1290SOL     OW 4768   1.040   6.292   5.355
 1290SOL    HW1 4769   1.059   6.322   5.262
 1290SOL    HW2 4770   1.093   6.210   5.375
 1291SOL     OW 4771   6.355   4.842   3.539
 1291SOL    HW1 4772   6.423   4.906   3.573
 1291SOL    HW2 4773   6.284   4.892   3.489
 1292SOL     OW 4774   0.876   6.854   1.755
 1292SOL    HW1 4775   0.955   6.811   1.710
 1292SOL    HW2 4776   0.802   6.787   1.762
 1293SOL     OW 4777   4.898   1.102   0.023
 1293SOL    HW1 4778   4.976   1.075   6.989
 1293SOL    HW2 4779   4.888   1.038   0.099
 1294SOL     OW 4780   2.066   4.432   5.083
 1294SOL    HW1 4781   1.988   4.372   5.069
 1294SOL    HW2 4782   2.135   4.385   5.138
 1295SOL     OW 4783   6.574   4.363   0.674
 1295SOL    HW1 4784   6.674   4.360   0.677
 1295SOL    HW2 4785   6.543   4.458   0.677
 1296SOL     OW 4786   5.287   0.197   5.687
 1296SOL    HW1 4787   5.375   0.210   5.732
 1296SOL    HW2 4788   5.227   0.141   5.745
 1297SOL     OW 4789   0.398   0.573   1.514
 1297SOL    HW1 4790   0.464   0.501   1.529
 1297SOL    HW2 4791   0.376   0.618   1.600
 1298SOL     OW 4792   5.162   0.774   2.560
 1298SOL    HW1 4793   5.167   0.752   2.657
 1298SOL    HW2 4794   5.236   0.838   2.537
 1299SOL     OW 4795   0.777   3.352   4.158
 1299SOL    HW1 4796   0.744   3.320   4.247
 1299SOL    HW2 4797   0.709   3.330   4.088
 1300SOL     OW 4798   0.617   5.564   1.553
 1300SOL    HW1 4799   0.605   5.465   1.553
 1300SOL    HW2 4800   0.528   5.609   1.557
 1301SOL     OW 4801   0.041   0.219   0.439
 1301SOL    HW1 4802   0.097   0.198   0.519
 1301SOL    HW2 4803   0.035   0.139   0.381
 1302SOL     OW 4804   6.258   6.771   5.339
 1302SOL    HW1 4805   6.186   6.761   5.270
 1302SOL    HW2 4806   6.327   6.835   5.306
 1303SOL     OW 4807   3.056   6.096   1.689
 1303SOL    HW1 4808   2.959   6.101   1.664
 1303SOL    HW2 4809   3.072   6.015   1.746
 1304SOL     OW 4810   0.338   0.500   0.587
 1304SOL    HW1 4811   0.380   0.419   0.545
 1304SOL    HW2 4812   0.240   0.502   0.565
 1305SOL     OW 4813   4.568   3.840   6.204
 1305SOL    HW1 4814   4.539   3.787   6.124
 1305SOL    HW2 4815   4.582   3.778   6.281
 1306SOL     OW 4816   3.271   5.885   3.952
 1306SOL    HW1 4817   3.328   5.802   3.953
 1306SOL    HW2 4818   3.306   5.948   3.883
 1307SOL     OW 4819   2.629   2.420   3.518
 1307SOL    HW1 4820   2.681   2.364   3.582
 1307SOL    HW2 4821   2.663   2.405   3.425
 1308SOL     OW 4822   0.293   4.323   6.326
 1308SOL    HW1 4823   0.345   4.245   6.291
 1308SOL    HW2 4824   0.256   4.376   6.250
 1309SOL     OW 4825   5.466   4.791   6.678
 1309SOL    HW1 4826   5.393   4.841   6.631
 1309SOL    HW2 4827   5.480   4.703   6.632
 1310SOL     OW 4828   1.637   4.609   3.301
 1310SOL    HW1 4829   1.694   4.528   3.313
 1310SOL    HW2 4830   1.550   4.595   3.348
 1311SOL     OW 4831   5.980   5.049   0.625
 1311SOL    HW1 4832   6.045   4.973   0.618
 1311SOL    HW2 4833   5.892   5.020   0.586
 1312SOL     OW 4834   3.020   1.176   5.866
 1312SOL    HW1 4835   2.928   1.189   5.902
 1312SOL    HW2 4836   3.084   1.166   5.943
 1313SOL     OW 4837   6.343   5.380   1.884
 1313SOL    HW1 4838   6.350   5.433   1.968
 1313SOL    HW2 4839   6.435   5.358   1.851
 1314SOL     OW 4840   2.484   1.890   4.917
 1314SOL    HW1 4841   2.580   1.869   4.901
 1314SOL    HW2 4842   2.429   1.854   4.842
 1315SOL     OW 4843   6.240   0.933   2.954
 1315SOL    HW1 4844   6.154   0.882   2.966
 1315SOL    HW2 4845   6.246   1.006   3.022
 1316SOL     OW 4846   5.352   0.440   6.521
 1316SOL    HW1 4847   5.370   0.409   6.427
 1316SOL    HW2 4848   5.435   0.434   6.575
 1317SOL     OW 4849   3.570   3.303   5.740
 1317SOL    HW1 4850   3.548   3.348   5.654
 1317SOL    HW2 4851   3.486   3.267   5.782
 1318SOL     OW 4852   1.603   1.844   6.320
 1318SOL    HW1 4853   1.664   1.919   6.345
 1318SOL    HW2 4854   1.564   1.804   6.403
 1319SOL     OW 4855   6.811   6.956   0.472
 1319SOL    HW1 4856   6.839   0.014   0.524
 1319SOL    HW2 4857   6.835   6.873   0.522
 1320SOL     OW 4858   3.680   3.036   5.838
 1320SOL    HW1 4859   3.672   3.062   5.934
 1320SOL    HW2 4860   3.660   3.115   5.780
 1321SOL     OW 4861   6.871   2.593   0.358
 1321SOL    HW1 4862   6.906   2.640   0.277
 1321SOL    HW2 4863   6.922   2.622   0.439
 1322SOL     OW 4864   3.208   2.272   6.978
 1322SOL    HW1 4865   3.168   2.333   6.910
 1322SOL    HW2 4866   3.308   2.275   6.971
 1323SOL     OW 4867   3.974   6.416   1.166
 1323SOL    HW1 4868   3.886   6.401   1.209
 1323SOL    HW2 4869   3.967   6.399   1.068
 1324SOL     OW 4870   2.373   4.013   6.407
 1324SOL    HW1 4871   2.322   3.986   6.489
 1324SOL    HW2 4872   2.322   3.985   6.326
 1325SOL     OW 4873   2.829   5.763   5.244
 1325SOL    HW1 4874   2.892   5.699   5.199
 1325SOL    HW2 4875   2.850   5.766   5.342
 1326SOL     OW 4876   4.916   2.067   4.676
 1326SOL    HW1 4877   4.905   2.104   4.768
 1326SOL    HW2 4878   4.827   2.057   4.633
 1327SOL     OW 4879   5.087   5.543   2.396
 1327SOL    HW1 4880   5.046   5.493   2.472
 1327SOL    HW2 4881   5.107   5.637   2.424
 1328SOL     OW 4882   1.877   2.588   5.799
 1328SOL    HW1 4883   1.849   2.605   5.704
 1328SOL    HW2 4884   1.951   2.651   5.823
 1329SOL     OW 4885   0.863   3.078   3.992
 1329SOL    HW1 4886   0.960   3.056   3.990
 1329SOL    HW2 4887   0.846   3.148   4.061
 1330SOL     OW 4888   5.662   3.201   2.824
 1330SOL    HW1 4889   5.742   3.202   2.764
 1330SOL    HW2 4890   5.586   3.154   2.777
 1331SOL     OW 4891   4.278   2.101   3.835
 1331SOL    HW1 4892   4.331   2.112   3.919
 1331SOL    HW2 4893   4.334   2.129   3.757
 1332SOL     OW 4894   2.349   5.576   0.249
 1332SOL    HW1 4895   2.319   5.661   0.293
 1332SOL    HW2 4896   2.396   5.519   0.317
 1333SOL     OW 4897   2.885   3.664   2.952
 1333SOL    HW1 4898   2.851   3.758   2.947
 1333SOL    HW2 4899   2.932   3.651   3.039
 1334SOL     OW 4900   6.693   3.548   1.683
 1334SOL    HW1 4901   6.619   3.488   1.714
 1334SOL    HW2 4902   6.660   3.643   1.680
 1335SOL     OW 4903   0.892   3.750   3.001
 1335SOL    HW1 4904   0.959   3.803   2.949
 1335SOL    HW2 4905   0.864   3.802   3.081
 1336SOL     OW 4906   2.261   0.292   5.725
 1336SOL    HW1 4907   2.185   0.356   5.725
 1336SOL    HW2 4908   2.294   0.280   5.632
 1337SOL     OW 4909   6.883   0.378   3.119
 1337SOL    HW1 4910   6.932   0.292   3.102
 1337SOL    HW2 4911   6.945   0.455   3.103
 1338SOL     OW 4912   6.687   4.121   4.777
 1338SOL    HW1 4913   6.629   4.039   4.778
 1338SOL    HW2 4914   6.783   4.093   4.782
 1339SOL     OW 4915   6.869   0.356   0.278
 1339SOL    HW1 4916   6.937   0.318   0.341
 1339SOL    HW2 4917   6.907   0.437   0.233
 1340SOL     OW 4918   4.121   2.621   1.358
 1340SOL    HW1 4919   4.164   2.700   1.316
 1340SOL    HW2 4920   4.095   2.555   1.287
 1341SOL     OW 4921   5.123   5.780   0.050
 1341SOL    HW1 4922   5.129   5.704   0.114
 1341SOL    HW2 4923   5.213   5.820   0.037
 1342SOL     OW 4924   1.904   6.151   1.801
 1342SOL    HW1 4925   1.878   6.131   1.895
 1342SOL    HW2 4926   1.915   6.249   1.789
 1343SOL     OW 4927   5.913   6.083   3.364
 1343SOL    HW1 4928   5.870   6.049   3.280
 1343SOL    HW2 4929   5.981   6.018   3.396
 1344SOL     OW 4930   0.812   0.912   4.584
 1344SOL    HW1 4931   0.900   0.892   4.540
 1344SOL    HW2 4932   0.828   0.946   4.677
 1345SOL     OW 4933   0.319   6.226   0.130
 1345SOL    HW1 4934   0.395   6.168   0.101
 1345SOL    HW2 4935   0.346   6.278   0.211
 1346SOL     OW 4936   3.242   4.958   5.011
 1346SOL    HW1 4937   3.311   4.926   5.077
 1346SOL    HW2 4938   3.224   5.055   5.026
 1347SOL     OW 4939   1.085   0.131   6.616
 1347SOL    HW1 4940   1.043   0.187   6.544
 1347SOL    HW2 4941   1.174   0.100   6.585
 1348SOL     OW 4942   0.351   6.439   5.158
 1348SOL    HW1 4943   0.409   6.424   5.238
 1348SOL    HW2 4944   0.256   6.445   5.187
 1349SOL     OW 4945   4.770   2.811   3.655
 1349SOL    HW1 4946   4.794   2.885   3.592
 1349SOL    HW2 4947   4.771   2.724   3.606
 1350SOL     OW 4948   4.166   4.546   6.571
 1350SOL    HW1 4949   4.187   4.582   6.661
 1350SOL    HW2 4950   4.196   4.611   6.501
 1351SOL     OW 4951   0.781   2.972   5.779
 1351SOL    HW1 4952   0.863   3.004   5.731
 1351SOL    HW2 4953   0.745   3.045   5.836
 1352SOL     OW 4954   7.001   0.525   2.277
 1352SOL    HW1 4955   7.009   0.551   2.373
 1352SOL    HW2 4956   0.036   0.584   2.221
 1353SOL     OW 4957   0.789   1.006   0.463
 1353SOL    HW1 4958   0.764   1.078   0.397
 1353SOL    HW2 4959   0.865   0.952   0.426
 1354SOL     OW 4960   4.636   5.253   2.682
 1354SOL    HW1 4961   4.689   5.290   2.758
 1354SOL    HW2 4962   4.684   5.175   2.642
 1355SOL     OW 4963   5.543   2.673   5.879
 1355SOL    HW1 4964   5.505   2.675   5.787
 1355SOL    HW2 4965   5.482   2.722   5.942
 1356SOL     OW 4966   2.414   3.200   0.225
 1356SOL    HW1 4967   2.458   3.285   0.197
 1356SOL    HW2 4968   2.479   3.125   0.222
 1357SOL     OW 4969   1.486   3.282   5.495
 1357SOL    HW1 4970   1.525   3.198   5.456
 1357SOL    HW2 4971   1.554   3.328   5.551
 1358SOL     OW 4972   2.483   0.032   0.426
 1358SOL    HW1 4973   2.384   0.027   0.419
 1358SOL    HW2 4974   2.512   0.127   0.419
 1359SOL     OW 4975   6.512   4.512   1.145
 1359SOL    HW1 4976   6.573   4.462   1.206
 1359SOL    HW2 4977   6.473   4.449   1.078
 1360SOL     OW 4978   1.916   2.559   6.927
 1360SOL    HW1 4979   1.817   2.567   6.938
 1360SOL    HW2 4980   1.952   2.495   6.994
 1361SOL     OW 4981   6.927   4.511   5.031
 1361SOL    HW1 4982   6.861   4.459   4.978
 1361SOL    HW2 4983   6.955   4.592   4.979
 1362SOL     OW 4984   3.524   3.357   3.138
 1362SOL    HW1 4985   3.448   3.324   3.195
 1362SOL    HW2 4986   3.553   3.447   3.170
 1363SOL     OW 4987   0.973   6.064   4.236
 1363SOL    HW1 4988   0.885   6.021   4.217
 1363SOL    HW2 4989   1.016   6.019   4.314
 1364SOL     OW 4990   4.653   4.219   0.931
 1364SOL    HW1 4991   4.617   4.230   0.839
 1364SOL    HW2 4992   4.635   4.126   0.963
 1365SOL     OW 4993   6.185   3.262   6.642
 1365SOL    HW1 4994   6.087   3.248   6.625
 1365SOL    HW2 4995   6.212   3.209   6.723
 1366SOL     OW 4996   3.104   6.908   5.331
 1366SOL    HW1 4997   3.116   6.911   5.430
 1366SOL    HW2 4998   3.007   6.909   5.309
 1367SOL     OW 4999   2.436   1.302   1.996
 1367SOL    HW1 5000   2.350   1.350   1.980
 1367SOL    HW2 5001   2.483   1.343   2.073
 1368SOL     OW 5002   5.609   6.352   3.318
 1368SOL    HW1 5003   5.568   6.319   3.403
 1368SOL    HW2 5004   5.598   6.282   3.247
 1369SOL     OW 5005   1.206   1.005   2.984
 1369SOL    HW1 5006   1.163   0.993   2.894
 1369SOL    HW2 5007   1.288   1.060   2.975
 1370SOL     OW 5008   2.219   0.429   1.599
 1370SOL    HW1 5009   2.178   0.351   1.552
 1370SOL    HW2 5010   2.318   0.425   1.591
 1371SOL     OW 5011   3.816   0.304   6.957
 1371SOL    HW1 5012   3.829   0.348   0.024
 1371SOL    HW2 5013   3.830   0.371   6.884
 1372SOL     OW 5014   3.106   2.137   1.984
 1372SOL    HW1 5015   3.169   2.160   1.910
 1372SOL    HW2 5016   3.025   2.195   1.978
 1373SOL     OW 5017   1.612   5.955   0.324
 1373SOL    HW1 5018   1.572   6.003   0.402
 1373SOL    HW2 5019   1.635   6.021   0.252
 1374SOL     OW 5020   5.114   3.737   0.120
 1374SOL    HW1 5021   5.204   3.716   0.081
 1374SOL    HW2 5022   5.090   3.669   0.188
 1375SOL     OW 5023   0.938   4.549   5.061
 1375SOL    HW1 5024   0.853   4.496   5.059
 1375SOL    HW2 5025   0.918   4.644   5.086
 1376SOL     OW 5026   4.132   1.461   2.653
 1376SOL    HW1 5027   4.222   1.418   2.650
 1376SOL    HW2 5028   4.125   1.527   2.579
 1377SOL     OW 5029   1.051   4.960   4.719
 1377SOL    HW1 5030   1.148   4.950   4.697
 1377SOL    HW2 5031   1.009   4.869   4.724
 1378SOL     OW 5032   1.630   2.793   6.444
 1378SOL    HW1 5033   1.640   2.755   6.535
 1378SOL    HW2 5034   1.645   2.892   6.447
 1379SOL     OW 5035   4.106   5.704   1.292
 1379SOL    HW1 5036   4.062   5.789   1.320
 1379SOL    HW2 5037   4.205   5.717   1.288
 1380SOL     OW 5038   6.310   6.380   2.627
 1380SOL    HW1 5039   6.304   6.464   2.573
 1380SOL    HW2 5040   6.276   6.397   2.719
 1381SOL     OW 5041   6.179   0.174   1.110
 1381SOL    HW1 5042   6.200   0.078   1.130
 1381SOL    HW2 5043   6.206   0.231   1.187
 1382SOL     OW 5044   0.149   4.882   6.430
 1382SOL    HW1 5045   0.241   4.920   6.441
 1382SOL    HW2 5046   0.150   4.813   6.359
 1383SOL     OW 5047   2.639   0.553   0.134
 1383SOL    HW1 5048   2.661   0.640   0.090
 1383SOL    HW2 5049   2.639   0.480   0.064
 1384SOL     OW 5050   2.490   2.198   2.243
 1384SOL    HW1 5051   2.400   2.220   2.204
 1384SOL    HW2 5052   2.561   2.251   2.198
 1385SOL     OW 5053   5.426   2.845   4.117
 1385SOL    HW1 5054   5.405   2.750   4.141
 1385SOL    HW2 5055   5.391   2.865   4.026
 1386SOL     OW 5056   2.029   2.857   3.972
 1386SOL    HW1 5057   2.026   2.864   4.072
 1386SOL    HW2 5058   2.110   2.903   3.937
 1387SOL     OW 5059   2.350   0.689   4.729
 1387SOL    HW1 5060   2.270   0.642   4.693
 1387SOL    HW2 5061   2.374   0.765   4.668
 1388SOL     OW 5062   6.294   1.275   4.622
 1388SOL    HW1 5063   6.273   1.206   4.553
 1388SOL    HW2 5064   6.244   1.359   4.600
 1389SOL     OW 5065   6.558   0.567   3.944
 1389SOL    HW1 5066   6.486   0.498   3.947
 1389SOL    HW2 5067   6.607   0.568   4.031
 1390SOL     OW 5068   4.440   2.353   2.323
 1390SOL    HW1 5069   4.390   2.335   2.407
 1390SOL    HW2 5070   4.490   2.439   2.332
 1391SOL     OW 5071   6.048   1.437   4.741
 1391SOL    HW1 5072   6.031   1.461   4.645
 1391SOL    HW2 5073   6.132   1.482   4.772
 1392SOL     OW 5074   4.505   6.194   5.340
 1392SOL    HW1 5075   4.588   6.164   5.293
 1392SOL    HW2 5076   4.438   6.120   5.337
 1393SOL     OW 5077   5.205   0.123   6.551
 1393SOL    HW1 5078   5.106   0.126   6.562
 1393SOL    HW2 5079   5.248   0.164   6.631
 1394SOL     OW 5080   4.250   0.448   3.592
 1394SOL    HW1 5081   4.297   0.462   3.679
 1394SOL    HW2 5082   4.172   0.386   3.606
 1395SOL     OW 5083   0.842   5.026   2.353
 1395SOL    HW1 5084   0.851   5.064   2.261
 1395SOL    HW2 5085   0.920   4.965   2.372
 1396SOL     OW 5086   1.242   1.378   3.926
 1396SOL    HW1 5087   1.314   1.331   3.978
 1396SOL    HW2 5088   1.211   1.319   3.852
 1397SOL     OW 5089   0.755   5.276   5.438
 1397SOL    HW1 5090   0.685   5.264   5.507
 1397SOL    HW2 5091   0.748   5.203   5.369
 1398SOL     OW 5092   1.814   6.647   6.467
 1398SOL    HW1 5093   1.901   6.599   6.480
 1398SOL    HW2 5094   1.828   6.726   6.408
 1399SOL     OW 5095   3.948   0.048   6.411
 1399SOL    HW1 5096   3.949   0.061   6.312
 1399SOL    HW2 5097   3.857   0.070   6.447
 1400SOL     OW 5098   6.922   1.236   4.986
 1400SOL    HW1 5099   6.846   1.271   5.041
 1400SOL    HW2 5100   6.954   1.308   4.924
 1401SOL     OW 5101   5.686   0.405   2.048
 1401SOL    HW1 5102   5.616   0.424   1.979
 1401SOL    HW2 5103   5.746   0.485   2.057
 1402SOL     OW 5104   6.757   4.761   2.123
 1402SOL    HW1 5105   6.844   4.713   2.132
 1402SOL    HW2 5106   6.708   4.759   2.210
 1403SOL     OW 5107   3.389   3.187   6.088
 1403SOL    HW1 5108   3.439   3.262   6.131
 1403SOL    HW2 5109   3.393   3.197   5.988
 1404SOL     OW 5110   4.222   6.783   0.727
 1404SOL    HW1 5111   4.226   6.770   0.826
 1404SOL    HW2 5112   4.287   6.720   0.683
 1405SOL     OW 5113   0.893   3.726   0.735
 1405SOL    HW1 5114   0.937   3.696   0.820
 1405SOL    HW2 5115   0.800   3.755   0.755
 1406SOL     OW 5116   2.084   2.792   6.940
 1406SOL    HW1 5117   2.021   2.717   6.920
 1406SOL    HW2 5118   2.041   2.879   6.916
 1407SOL     OW 5119   0.518   2.815   1.041
 1407SOL    HW1 5120   0.474   2.738   0.994
 1407SOL    HW2 5121   0.497   2.810   1.139
 1408SOL     OW 5122   5.475   6.433   0.735
 1408SOL    HW1 5123   5.418   6.393   0.663
 1408SOL    HW2 5124   5.548   6.370   0.760
 1409SOL     OW 5125   6.353   1.789   5.808
 1409SOL    HW1 5126   6.397   1.771   5.720
 1409SOL    HW2 5127   6.261   1.750   5.808
 1410SOL     OW 5128   3.189   0.145   6.814
 1410SOL    HW1 5129   3.134   0.063   6.831
 1410SOL    HW2 5130   3.224   0.180   6.901
 1411SOL     OW 5131   3.601   4.955   6.903
 1411SOL    HW1 5132   3.666   4.879   6.900
 1411SOL    HW2 5133   3.511   4.923   6.873
 1412SOL     OW 5134   2.550   2.214   0.363
 1412SOL    HW1 5135   2.484   2.199   0.289
 1412SOL    HW2 5136   2.536   2.305   0.402
 1413SOL     OW 5137   2.010   1.805   5.504
 1413SOL    HW1 5138   1.999   1.837   5.410
 1413SOL    HW2 5139   2.086   1.741   5.508
 1414SOL     OW 5140   1.019   4.836   1.875
 1414SOL    HW1 5141   1.078   4.907   1.913
 1414SOL    HW2 5142   1.075   4.760   1.842
 1415SOL     OW 5143   3.341   1.775   4.790
 1415SOL    HW1 5144   3.356   1.847   4.858
 1415SOL    HW2 5145   3.429   1.737   4.762
 1416SOL     OW 5146   4.211   0.540   4.969
 1416SOL    HW1 5147   4.220   0.485   4.886
 1416SOL    HW2 5148   4.286   0.605   4.975
 1417SOL     OW 5149   3.330   3.347   4.309
 1417SOL    HW1 5150   3.296   3.441   4.301
 1417SOL    HW2 5151   3.255   3.283   4.302
 1418SOL     OW 5152   3.550   3.777   5.959
 1418SOL    HW1 5153   3.574   3.716   5.884
 1418SOL    HW2 5154   3.531   3.868   5.922
 1419SOL     OW 5155   1.074   6.005   2.360
 1419SOL    HW1 5156   1.086   5.953   2.444
 1419SOL    HW2 5157   1.102   5.948   2.282
 1420SOL     OW 5158   3.047   5.870   3.116
 1420SOL    HW1 5159   3.115   5.916   3.059
 1420SOL    HW2 5160   2.965   5.850   3.061
 1421SOL     OW 5161   1.995   5.476   0.051
 1421SOL    HW1 5162   2.056   5.403   0.083
 1421SOL    HW2 5163   2.023   5.563   0.090
 1422SOL     OW 5164   1.666   3.347   6.559
 1422SOL    HW1 5165   1.620   3.261   6.577
 1422SOL    HW2 5166   1.765   3.332   6.558
 1423SOL     OW 5167   3.750   0.762   4.903
 1423SOL    HW1 5168   3.713   0.772   4.811
 1423SOL    HW2 5169   3.683   0.795   4.970
 1424SOL     OW 5170   6.460   2.646   1.185
 1424SOL    HW1 5171   6.544   2.650   1.240
 1424SOL    HW2 5172   6.444   2.552   1.155
 1425SOL     OW 5173   5.415   0.428   3.462
 1425SOL    HW1 5174   5.508   0.429   3.498
 1425SOL    HW2 5175   5.381   0.334   3.460
 1426SOL     OW 5176   4.265   0.547   0.090
 1426SOL    HW1 5177   4.211   0.623   0.054
 1426SOL    HW2 5178   4.342   0.529   0.028
 1427SOL     OW 5179   1.086   0.667   4.230
 1427SOL    HW1 5180   1.060   0.671   4.134
 1427SOL    HW2 5181   1.162   0.602   4.242
 1428SOL     OW 5182   2.170   3.906   3.962
 1428SOL    HW1 5183   2.126   3.964   3.893
 1428SOL    HW2 5184   2.140   3.935   4.054
 1429SOL     OW 5185   5.967   0.142   1.671
 1429SOL    HW1 5186   5.871   0.129   1.697
 1429SOL    HW2 5187   6.021   0.159   1.753
 1430SOL     OW 5188   2.232   4.031   4.447
 1430SOL    HW1 5189   2.200   4.031   4.352
 1430SOL    HW2 5190   2.290   4.110   4.463
 1431SOL     OW 5191   3.401   1.126   0.464
 1431SOL    HW1 5192   3.429   1.056   0.399
 1431SOL    HW2 5193   3.309   1.159   0.439
 1432SOL     OW 5194   4.526   6.700   2.772
 1432SOL    HW1 5195   4.598   6.658   2.716
 1432SOL    HW2 5196   4.485   6.631   2.831
 1433SOL     OW 5197   3.414   1.337   3.785
 1433SOL    HW1 5198   3.486   1.366   3.848
 1433SOL    HW2 5199   3.432   1.244   3.753
 1434SOL     OW 5200   5.454   4.180   0.701
 1434SOL    HW1 5201   5.515   4.214   0.772
 1434SOL    HW2 5202   5.415   4.257   0.650
 1435SOL     OW 5203   0.694   6.839   4.442
 1435SOL    HW1 5204   0.757   6.876   4.375
 1435SOL    HW2 5205   0.713   6.741   4.455
 1436SOL     OW 5206   5.721   0.936   0.242
 1436SOL    HW1 5207   5.748   0.887   0.325
 1436SOL    HW2 5208   5.621   0.944   0.239
 1437SOL     OW 5209   4.309   1.446   0.425
 1437SOL    HW1 5210   4.309   1.542   0.453
 1437SOL    HW2 5211   4.383   1.430   0.359
 1438SOL     OW 5212   2.427   6.965   2.435
 1438SOL    HW1 5213   2.492   0.015   2.457
 1438SOL    HW2 5214   2.338   6.985   2.477
 1439SOL     OW 5215   0.913   5.294   6.326
 1439SOL    HW1 5216   0.851   5.218   6.308
 1439SOL    HW2 5217   0.862   5.380   6.322
 1440SOL     OW 5218   4.077   3.262   2.383
 1440SOL    HW1 5219   4.131   3.260   2.299
 1440SOL    HW2 5220   4.024   3.177   2.391
 1441SOL     OW 5221   6.275   2.064   5.892
 1441SOL    HW1 5222   6.280   1.973   5.851
 1441SOL    HW2 5223   6.205   2.064   5.963
 1442SOL     OW 5224   5.322   6.084   0.299
 1442SOL    HW1 5225   5.339   5.992   0.335
 1442SOL    HW2 5226   5.233   6.086   0.254
 1443SOL     OW 5227   1.188   2.640   3.502
 1443SOL    HW1 5228   1.170   2.697   3.421
 1443SOL    HW2 5229   1.132   2.558   3.498
 1444SOL     OW 5230   5.328   6.486   4.903
 1444SOL    HW1 5231   5.278   6.400   4.901
 1444SOL    HW2 5232   5.425   6.469   4.886
 1445SOL     OW 5233   6.363   1.841   0.397
 1445SOL    HW1 5234   6.442   1.899   0.418
 1445SOL    HW2 5235   6.300   1.840   0.475
 1446SOL     OW 5236   3.689   5.927   1.444
 1446SOL    HW1 5237   3.694   5.858   1.517
 1446SOL    HW2 5238   3.662   6.015   1.483
 1447SOL     OW 5239   6.422   1.106   4.808
 1447SOL    HW1 5240   6.462   1.097   4.717
 1447SOL    HW2 5241   6.329   1.143   4.801
 1448SOL     OW 5242   5.517   0.306   6.807
 1448SOL    HW1 5243   5.557   0.262   6.726
 1448SOL    HW2 5244   5.531   0.247   6.887
 1449SOL     OW 5245   4.557   5.414   1.169
 1449SOL    HW1 5246   4.489   5.481   1.141
 1449SOL    HW2 5247   4.552   5.399   1.267
 1450SOL     OW 5248   6.220   1.770   3.498
 1450SOL    HW1 5249   6.257   1.681   3.525
 1450SOL    HW2 5250   6.197   1.823   3.579
 1451SOL     OW 5251   1.597   6.333   1.735
 1451SOL    HW1 5252   1.627   6.264   1.802
 1451SOL    HW2 5253   1.509   6.370   1.764
 1452SOL     OW 5254   3.575   0.642   5.458
 1452SOL    HW1 5255   3.652   0.592   5.498
 1452SOL    HW2 5256   3.489   0.608   5.497
 1453SOL     OW 5257   4.794   4.801   4.406
 1453SOL    HW1 5258   4.707   4.810   4.357
 1453SOL    HW2 5259   4.814   4.886   4.455
 1454SOL     OW 5260   4.917   4.364   0.775
 1454SOL    HW1 5261   4.885   4.444   0.827
 1454SOL    HW2 5262   4.842   4.328   0.719
 1455SOL     OW 5263   1.973   2.302   1.971
 1455SOL    HW1 5264   2.042   2.287   1.900
 1455SOL    HW2 5265   1.957   2.217   2.021
 1456SOL     OW 5266   5.890   5.103   4.957
 1456SOL    HW1 5267   5.940   5.016   4.959
 1456SOL    HW2 5268   5.851   5.122   5.047
 1457SOL     OW 5269   2.268   0.400   4.006
 1457SOL    HW1 5270   2.183   0.349   4.024
 1457SOL    HW2 5271   2.263   0.489   4.051
 1458SOL     OW 5272   6.947   5.601   0.327
 1458SOL    HW1 5273   7.018   5.661   0.365
 1458SOL    HW2 5274   6.880   5.580   0.398
 1459SOL     OW 5275   2.899   6.914   1.174
 1459SOL    HW1 5276   2.863   7.001   1.140
 1459SOL    HW2 5277   2.867   6.899   1.268
 1460SOL     OW 5278   1.072   6.587   6.970
 1460SOL    HW1 5279   1.009   6.567   6.895
 1460SOL    HW2 5280   1.154   6.530   6.961
 1461SOL     OW 5281   4.548   5.400   2.429
 1461SOL    HW1 5282   4.476   5.349   2.383
 1461SOL    HW2 5283   4.553   5.372   2.525
 1462SOL     OW 5284   5.452   0.215   5.227
 1462SOL    HW1 5285   5.415   0.152   5.296
 1462SOL    HW2 5286   5.452   0.308   5.264
 1463SOL     OW 5287   0.929   2.204   6.078
 1463SOL    HW1 5288   0.865   2.128   6.085
 1463SOL    HW2 5289   0.920   2.264   6.158
 1464SOL     OW 5290   0.831   1.086   1.583
 1464SOL    HW1 5291   0.921   1.115   1.616
 1464SOL    HW2 5292   0.761   1.118   1.646
 1465SOL     OW 5293   0.590   0.649   4.243
 1465SOL    HW1 5294   0.651   0.713   4.291
 1465SOL    HW2 5295   0.506   0.637   4.296
 1466SOL     OW 5296   5.641   5.117   4.853
 1466SOL    HW1 5297   5.640   5.066   4.767
 1466SOL    HW2 5298   5.736   5.132   4.881
 1467SOL     OW 5299   5.929   3.685   3.763
 1467SOL    HW1 5300   5.961   3.770   3.806
 1467SOL    HW2 5301   5.962   3.607   3.815
 1468SOL     OW 5302   4.960   0.145   2.091
 1468SOL    HW1 5303   4.861   0.146   2.110
 1468SOL    HW2 5304   4.984   0.227   2.039
 1469SOL     OW 5305   0.718   1.009   2.286
 1469SOL    HW1 5306   0.666   1.093   2.297
 1469SOL    HW2 5307   0.816   1.030   2.279
 1470SOL     OW 5308   6.874   0.732   3.114
 1470SOL    HW1 5309   6.807   0.687   3.173
 1470SOL    HW2 5310   6.964   0.730   3.157
 1471SOL     OW 5311   5.833   0.554   1.368
 1471SOL    HW1 5312   5.846   0.563   1.269
 1471SOL    HW2 5313   5.807   0.460   1.390
 1472SOL     OW 5314   4.783   5.578   4.742
 1472SOL    HW1 5315   4.685   5.568   4.758
 1472SOL    HW2 5316   4.833   5.513   4.799
 1473SOL     OW 5317   6.111   3.772   3.110
 1473SOL    HW1 5318   6.104   3.690   3.168
 1473SOL    HW2 5319   6.191   3.825   3.138
 1474SOL     OW 5320   5.260   5.355   3.212
 1474SOL    HW1 5321   5.287   5.395   3.300
 1474SOL    HW2 5322   5.214   5.425   3.157
 1475SOL     OW 5323   5.940   0.581   3.811
 1475SOL    HW1 5324   5.864   0.646   3.815
 1475SOL    HW2 5325   5.999   0.604   3.733
 1476SOL     OW 5326   0.210   2.474   0.896
 1476SOL    HW1 5327   0.194   2.382   0.862
 1476SOL    HW2 5328   0.200   2.540   0.821
 1477SOL     OW 5329   2.007   6.495   3.649
 1477SOL    HW1 5330   2.014   6.553   3.731
 1477SOL    HW2 5331   1.995   6.399   3.677
 1478SOL     OW 5332   0.041   4.035   1.555
 1478SOL    HW1 5333   0.040   4.099   1.632
 1478SOL    HW2 5334   0.040   3.941   1.591
 1479SOL     OW 5335   0.937   5.302   0.564
 1479SOL    HW1 5336   0.906   5.208   0.549
 1479SOL    HW2 5337   0.984   5.307   0.652
 1480SOL     OW 5338   2.627   1.129   0.176
 1480SOL    HW1 5339   2.695   1.171   0.236
 1480SOL    HW2 5340   2.671   1.092   0.095
 1481SOL     OW 5341   0.693   3.293   6.491
 1481SOL    HW1 5342   0.620   3.350   6.453
 1481SOL    HW2 5343   0.782   3.328   6.462
 1482SOL     OW 5344   5.254   0.719   6.251
 1482SOL    HW1 5345   5.319   0.643   6.253
 1482SOL    HW2 5346   5.169   0.692   6.296
 1483SOL     OW 5347   6.668   2.057   6.309
 1483SOL    HW1 5348   6.659   1.965   6.347
 1483SOL    HW2 5349   6.601   2.070   6.237
 1484SOL     OW 5350   6.301   6.983   3.181
 1484SOL    HW1 5351   6.351   6.943   3.258
 1484SOL    HW2 5352   6.253   0.043   3.212
 1485SOL     OW 5353   5.706   2.925   4.100
 1485SOL    HW1 5354   5.721   3.002   4.162
 1485SOL    HW2 5355   5.611   2.894   4.108
 1486SOL     OW 5356   5.930   2.206   1.976
 1486SOL    HW1 5357   5.989   2.279   2.009
 1486SOL    HW2 5358   5.913   2.141   2.051
 1487SOL     OW 5359   6.812   1.012   6.046
 1487SOL    HW1 5360   6.793   0.941   5.978
 1487SOL    HW2 5361   6.909   1.035   6.044
 1488SOL     OW 5362   5.259   1.836   4.285
 1488SOL    HW1 5363   5.218   1.891   4.212
 1488SOL    HW2 5364   5.192   1.770   4.319
 1489SOL     OW 5365   3.808   5.501   3.799
 1489SOL    HW1 5366   3.876   5.429   3.813
 1489SOL    HW2 5367   3.855   5.589   3.792
 1490SOL     OW 5368   2.473   2.713   1.429
 1490SOL    HW1 5369   2.457   2.757   1.518
 1490SOL    HW2 5370   2.555   2.656   1.434
 1491SOL     OW 5371   0.395   2.675   5.432
 1491SOL    HW1 5372   0.458   2.752   5.431
 1491SOL    HW2 5373   0.303   2.707   5.454
 1492SOL     OW 5374   5.874   2.471   1.627
 1492SOL    HW1 5375   5.905   2.401   1.563
 1492SOL    HW2 5376   5.857   2.556   1.577
 1493SOL     OW 5377   6.027   1.748   5.242
 1493SOL    HW1 5378   6.012   1.654   5.212
 1493SOL    HW2 5379   5.976   1.811   5.183
 1494SOL     OW 5380   5.885   1.536   4.535
 1494SOL    HW1 5381   5.852   1.623   4.572
 1494SOL    HW2 5382   5.900   1.546   4.437
 1495SOL     OW 5383   1.065   3.880   2.807
 1495SOL    HW1 5384   1.069   3.816   2.730
 1495SOL    HW2 5385   1.156   3.890   2.847
 1496SOL     OW 5386   1.047   1.079   2.556
 1496SOL    HW1 5387   1.134   1.118   2.527
 1496SOL    HW2 5388   1.055   1.048   2.651
 1497SOL     OW 5389   5.341   4.990   5.732
 1497SOL    HW1 5390   5.371   4.898   5.710
 1497SOL    HW2 5391   5.250   5.007   5.695
 1498SOL     OW 5392   2.273   5.215   0.528
 1498SOL    HW1 5393   2.179   5.235   0.557
 1498SOL    HW2 5394   2.273   5.156   0.448
 1499SOL     OW 5395   1.095   4.360   4.424
 1499SOL    HW1 5396   1.145   4.427   4.479
 1499SOL    HW2 5397   1.160   4.304   4.372
 1500SOL     OW 5398   4.444   6.457   5.278
 1500SOL    HW1 5399   4.414   6.470   5.183
 1500SOL    HW2 5400   4.469   6.361   5.292
 1501SOL     OW 5401   3.942   0.421   0.149
 1501SOL    HW1 5402   4.011   0.359   0.113
 1501SOL    HW2 5403   3.980   0.470   0.228
 1502SOL     OW 5404   6.977   6.095   6.829
 1502SOL    HW1 5405   0.023   6.042   6.779
 1502SOL    HW2 5406   6.900   6.035   6.853
 1503SOL     OW 5407   3.607   4.369   5.385
 1503SOL    HW1 5408   3.632   4.333   5.295
 1503SOL    HW2 5409   3.662   4.449   5.406
 1504SOL     OW 5410   2.597   6.492   4.526
 1504SOL    HW1 5411   2.576   6.489   4.429
 1504SOL    HW2 5412   2.566   6.408   4.571
 1505SOL     OW 5413   4.771   6.737   2.389
 1505SOL    HW1 5414   4.693   6.701   2.338
 1505SOL    HW2 5415   4.856   6.709   2.344
 1506SOL     OW 5416   1.042   6.578   3.209
 1506SOL    HW1 5417   1.116   6.512   3.222
 1506SOL    HW2 5418   0.959   6.531   3.181
 1507SOL     OW 5419   2.763   2.174   0.145
 1507SOL    HW1 5420   2.704   2.168   0.226
 1507SOL    HW2 5421   2.832   2.103   0.149
 1508SOL     OW 5422   4.600   6.916   0.874
 1508SOL    HW1 5423   4.617   6.959   0.963
 1508SOL    HW2 5424   4.569   6.984   0.809
 1509SOL     OW 5425   5.548   1.812   6.847
 1509SOL    HW1 5426   5.466   1.859   6.814
 1509SOL    HW2 5427   5.595   1.770   6.771
 1510SOL     OW 5428   6.809   1.981   2.718
 1510SOL    HW1 5429   6.763   1.983   2.807
 1510SOL    HW2 5430   6.856   1.893   2.707
 1511SOL     OW 5431   0.864   3.406   0.559
 1511SOL    HW1 5432   0.918   3.490   0.565
 1511SOL    HW2 5433   0.877   3.363   0.470
 1512SOL     OW 5434   6.267   1.195   2.035
 1512SOL    HW1 5435   6.206   1.274   2.040
 1512SOL    HW2 5436   6.320   1.198   1.951
 1513SOL     OW 5437   3.220   0.285   2.495
 1513SOL    HW1 5438   3.203   0.321   2.587
 1513SOL    HW2 5439   3.316   0.299   2.471
 1514SOL     OW 5440   4.726   0.574   6.046
 1514SOL    HW1 5441   4.649   0.512   6.061
 1514SOL    HW2 5442   4.770   0.595   6.133
 1515SOL     OW 5443   5.714   5.372   5.003
 1515SOL    HW1 5444   5.800   5.397   4.956
 1515SOL    HW2 5445   5.645   5.348   4.935
 1516SOL     OW 5446   0.412   1.060   0.731
 1516SOL    HW1 5447   0.387   1.035   0.825
 1516SOL    HW2 5448   0.500   1.108   0.732
 1517SOL     OW 5449   3.389   5.408   3.154
 1517SOL    HW1 5450   3.361   5.315   3.128
 1517SOL    HW2 5451   3.376   5.419   3.253
 1518SOL     OW 5452   0.723   4.582   0.787
 1518SOL    HW1 5453   0.768   4.671   0.780
 1518SOL    HW2 5454   0.721   4.538   0.697
 1519SOL     OW 5455   0.085   3.999   0.825
 1519SOL    HW1 5456   0.019   4.032   0.891
 1519SOL    HW2 5457   0.107   3.903   0.845
 1520SOL     OW 5458   1.442   2.576   3.096
 1520SOL    HW1 5459   1.430   2.582   3.195
 1520SOL    HW2 5460   1.422   2.664   3.055
 1521SOL     OW 5461   2.435   4.099   5.387
 1521SOL    HW1 5462   2.449   4.038   5.310
 1521SOL    HW2 5463   2.477   4.187   5.368
 1522SOL     OW 5464   0.929   2.412   6.290
 1522SOL    HW1 5465   0.868   2.490   6.301
 1522SOL    HW2 5466   0.953   2.375   6.380
 1523SOL     OW 5467   5.382   1.161   1.100
 1523SOL    HW1 5468   5.449   1.145   1.026
 1523SOL    HW2 5469   5.290   1.163   1.061
 1524SOL     OW 5470   6.206   0.751   2.257
 1524SOL    HW1 5471   6.167   0.773   2.167
 1524SOL    HW2 5472   6.298   0.714   2.246
 1525SOL     OW 5473   4.718   1.020   6.103
 1525SOL    HW1 5474   4.622   1.044   6.115
 1525SOL    HW2 5475   4.725   0.939   6.045
 1526SOL     OW 5476   6.643   1.089   7.000
 1526SOL    HW1 5477   6.606   1.127   6.916
 1526SOL    HW2 5478   6.569   1.074   0.043
 1527SOL     OW 5479   3.040   1.411   5.749
 1527SOL    HW1 5480   2.992   1.480   5.803
 1527SOL    HW2 5481   3.017   1.320   5.784
 1528SOL     OW 5482   5.981   5.074   3.972
 1528SOL    HW1 5483   5.917   5.145   4.001
 1528SOL    HW2 5484   5.930   4.994   3.939
 1529SOL     OW 5485   2.512   0.419   5.533
 1529SOL    HW1 5486   2.451   0.369   5.472
 1529SOL    HW2 5487   2.523   0.368   5.618
 1530SOL     OW 5488   2.505   6.511   1.333
 1530SOL    HW1 5489   2.439   6.541   1.402
 1530SOL    HW2 5490   2.541   6.421   1.359
 1531SOL     OW 5491   5.469   0.546   6.235
 1531SOL    HW1 5492   5.473   0.446   6.241
 1531SOL    HW2 5493   5.523   0.576   6.156
 1532SOL     OW 5494   3.044   2.492   5.331
 1532SOL    HW1 5495   3.110   2.434   5.284
 1532SOL    HW2 5496   3.080   2.516   5.421
 1533SOL     OW 5497   5.106   2.867   6.892
 1533SOL    HW1 5498   5.179   2.803   6.868
 1533SOL    HW2 5499   5.121   2.955   6.846
 1534SOL     OW 5500   6.555   0.384   2.155
 1534SOL    HW1 5501   6.480   0.328   2.190
 1534SOL    HW2 5502   6.582   0.351   2.064
 1535SOL     OW 5503   5.115   4.395   4.534
 1535SOL    HW1 5504   5.075   4.474   4.488
 1535SOL    HW2 5505   5.095   4.313   4.480
 1536SOL     OW 5506   3.079   5.644   3.253
 1536SOL    HW1 5507   3.091   5.595   3.167
 1536SOL    HW2 5508   3.080   5.742   3.236
 1537SOL     OW 5509   3.007   5.675   4.717
 1537SOL    HW1 5510   2.929   5.637   4.668
 1537SOL    HW2 5511   3.054   5.741   4.659
 1538SOL     OW 5512   3.606   5.242   6.617
 1538SOL    HW1 5513   3.659   5.202   6.692
 1538SOL    HW2 5514   3.665   5.254   6.537
 1539SOL     OW 5515   3.295   6.139   1.991
 1539SOL    HW1 5516   3.350   6.196   2.051
 1539SOL    HW2 5517   3.266   6.192   1.911
 1540SOL     OW 5518   5.963   7.018   5.331
 1540SOL    HW1 5519   5.997   6.976   5.415
 1540SOL    HW2 5520   5.976   0.095   5.335
 1541SOL     OW 5521   4.975   1.361   1.331
 1541SOL    HW1 5522   5.015   1.411   1.253
 1541SOL    HW2 5523   4.905   1.418   1.374
 1542SOL     OW 5524   0.623   5.873   1.004
 1542SOL    HW1 5525   0.709   5.923   0.999
 1542SOL    HW2 5526   0.639   5.777   0.978
 1543SOL     OW 5527   3.389   4.104   3.316
 1543SOL    HW1 5528   3.454   4.127   3.388
 1543SOL    HW2 5529   3.429   4.126   3.227
 1544SOL     OW 5530   3.416   3.266   2.315
 1544SOL    HW1 5531   3.409   3.204   2.237
 1544SOL    HW2 5532   3.370   3.227   2.394
 1545SOL     OW 5533   0.383   0.570   4.408
 1545SOL    HW1 5534   0.387   0.667   4.432
 1545SOL    HW2 5535   0.435   0.516   4.475
 1546SOL     OW 5536   6.372   6.490   6.338
 1546SOL    HW1 5537   6.427   6.512   6.257
 1546SOL    HW2 5538   6.431   6.484   6.418
 1547SOL     OW 5539   3.245   5.774   0.265
 1547SOL    HW1 5540   3.344   5.779   0.260
 1547SOL    HW2 5541   3.217   5.765   0.361
 1548SOL     OW 5542   6.009   3.973   3.784
 1548SOL    HW1 5543   6.063   3.996   3.703
 1548SOL    HW2 5544   5.912   3.986   3.764
 1549SOL     OW 5545   0.064   2.659   0.571
 1549SOL    HW1 5546   0.158   2.662   0.604
 1549SOL    HW2 5547   0.023   2.572   0.595
 1550SOL     OW 5548   2.233   5.275   2.762
 1550SOL    HW1 5549   2.280   5.348   2.812
 1550SOL    HW2 5550   2.297   5.234   2.696
 1551SOL     OW 5551   0.376   3.024   1.608
 1551SOL    HW1 5552   0.442   3.098   1.595
 1551SOL    HW2 5553   0.405   2.966   1.684
 1552SOL     OW 5554   0.957   6.733   2.267
 1552SOL    HW1 5555   0.942   6.770   2.359
 1552SOL    HW2 5556   0.869   6.729   2.219
 1553SOL     OW 5557   5.174   0.917   6.076
 1553SOL    HW1 5558   5.164   0.986   6.148
 1553SOL    HW2 5559   5.193   0.829   6.118
 1554SOL     OW 5560   2.831   2.641   1.025
 1554SOL    HW1 5561   2.749   2.636   0.968
 1554SOL    HW2 5562   2.882   2.556   1.019
 1555SOL     OW 5563   4.144   0.819   0.476
 1555SOL    HW1 5564   4.191   0.869   0.404
 1555SOL    HW2 5565   4.186   0.839   0.565
 1556SOL     OW 5566   3.855   2.128   0.022
 1556SOL    HW1 5567   3.854   2.225   7.017
 1556SOL    HW2 5568   3.929   2.081   6.996
 1557SOL     OW 5569   1.781   3.496   0.525
 1557SOL    HW1 5570   1.818   3.450   0.445
 1557SOL    HW2 5571   1.700   3.446   0.558
 1558SOL     OW 5572   5.298   2.855   6.468
 1558SOL    HW1 5573   5.235   2.779   6.480
 1558SOL    HW2 5574   5.247   2.939   6.454
 1559SOL     OW 5575   2.349   6.157   3.049
 1559SOL    HW1 5576   2.398   6.238   3.081
 1559SOL    HW2 5577   2.328   6.167   2.952
 1560SOL     OW 5578   3.979   2.431   1.229
 1560SOL    HW1 5579   3.973   2.424   1.129
 1560SOL    HW2 5580   3.889   2.450   1.266
 1561SOL     OW 5581   5.696   6.188   0.819
 1561SOL    HW1 5582   5.793   6.187   0.791
 1561SOL    HW2 5583   5.689   6.161   0.915
 1562SOL     OW 5584   3.492   0.539   2.163
 1562SOL    HW1 5585   3.478   0.628   2.119
 1562SOL    HW2 5586   3.589   0.525   2.178
 1563SOL     OW 5587   2.018   2.851   4.283
 1563SOL    HW1 5588   2.069   2.775   4.325
 1563SOL    HW2 5589   1.922   2.844   4.308
 1564SOL     OW 5590   0.737   1.527   2.903
 1564SOL    HW1 5591   0.699   1.530   2.811
 1564SOL    HW2 5592   0.664   1.534   2.970
 1565SOL     OW 5593   4.868   1.528   5.198
 1565SOL    HW1 5594   4.802   1.603   5.186
 1565SOL    HW2 5595   4.819   1.445   5.225
 1566SOL     OW 5596   6.729   3.943   3.813
 1566SOL    HW1 5597   6.690   3.950   3.905
 1566SOL    HW2 5598   6.825   3.973   3.815
 1567SOL     OW 5599   5.568   0.269   4.931
 1567SOL    HW1 5600   5.667   0.278   4.939
 1567SOL    HW2 5601   5.530   0.241   5.020
 1568SOL     OW 5602   2.909   5.125   1.473
 1568SOL    HW1 5603   2.869   5.035   1.492
 1568SOL    HW2 5604   2.976   5.117   1.400
 1569SOL     OW 5605   2.697   1.292   2.654
 1569SOL    HW1 5606   2.666   1.387   2.663
 1569SOL    HW2 5607   2.726   1.275   2.560
 1570SOL     OW 5608   2.877   6.098   6.524
 1570SOL    HW1 5609   2.820   6.091   6.442
 1570SOL    HW2 5610   2.973   6.104   6.497
 1571SOL     OW 5611   0.010   3.241   4.384
 1571SOL    HW1 5612   6.989   3.329   4.363
 1571SOL    HW2 5613   0.065   3.212   4.306
 1572SOL     OW 5614   2.170   5.875   2.920
 1572SOL    HW1 5615   2.242   5.820   2.878
 1572SOL    HW2 5616   2.182   5.971   2.895
 1573SOL     OW 5617   5.314   5.842   0.402
 1573SOL    HW1 5618   5.328   5.869   0.498
 1573SOL    HW2 5619   5.358   5.754   0.386
 1574SOL     OW 5620   1.165   4.394   2.744
 1574SOL    HW1 5621   1.126   4.332   2.812
 1574SOL    HW2 5622   1.252   4.358   2.712
 1575SOL     OW 5623   7.004   2.360   0.355
 1575SOL    HW1 5624   6.937   2.434   0.351
 1575SOL    HW2 5625   0.028   2.352   0.267
 1576SOL     OW 5626   1.935   5.737   1.823
 1576SOL    HW1 5627   1.848   5.717   1.869
 1576SOL    HW2 5628   1.917   5.768   1.730
 1577SOL     OW 5629   3.883   6.004   3.986
 1577SOL    HW1 5630   3.830   6.012   4.070
 1577SOL    HW2 5631   3.927   6.091   3.966
 1578SOL     OW 5632   4.837   1.321   1.759
 1578SOL    HW1 5633   4.881   1.409   1.777
 1578SOL    HW2 5634   4.892   1.269   1.693
 1579SOL     OW 5635   1.543   3.279   1.537
 1579SOL    HW1 5636   1.491   3.363   1.519
 1579SOL    HW2 5637   1.482   3.209   1.572
 1580SOL     OW 5638   3.438   2.998   2.671
 1580SOL    HW1 5639   3.491   2.927   2.625
 1580SOL    HW2 5640   3.453   2.993   2.769
 1581SOL     OW 5641   6.338   4.119   4.990
 1581SOL    HW1 5642   6.307   4.048   5.053
 1581SOL    HW2 5643   6.376   4.076   4.908
 1582SOL     OW 5644   5.133   5.917   4.753
 1582SOL    HW1 5645   5.143   5.899   4.851
 1582SOL    HW2 5646   5.072   5.849   4.712
 1583SOL     OW 5647   1.487   5.687   5.678
 1583SOL    HW1 5648   1.505   5.594   5.644
 1583SOL    HW2 5649   1.411   5.727   5.628
 1584SOL     OW 5650   0.155   3.899   0.422
 1584SOL    HW1 5651   0.158   3.802   0.444
 1584SOL    HW2 5652   0.130   3.912   0.326
 1585SOL     OW 5653   4.406   6.493   4.039
 1585SOL    HW1 5654   4.450   6.527   4.122
 1585SOL    HW2 5655   4.308   6.512   4.043
 1586SOL     OW 5656   2.816   5.809   2.969
 1586SOL    HW1 5657   2.798   5.725   2.918
 1586SOL    HW2 5658   2.729   5.852   2.995
 1587SOL     OW 5659   3.330   6.610   6.822
 1587SOL    HW1 5660   3.244   6.563   6.806
 1587SOL    HW2 5661   3.400   6.544   6.850
 1588SOL     OW 5662   6.497   1.935   3.163
 1588SOL    HW1 5663   6.467   1.950   3.257
 1588SOL    HW2 5664   6.419   1.939   3.102
 1589SOL     OW 5665   6.895   3.469   4.348
 1589SOL    HW1 5666   6.828   3.450   4.420
 1589SOL    HW2 5667   6.859   3.541   4.288
 1590SOL     OW 5668   6.407   1.447   3.159
 1590SOL    HW1 5669   6.461   1.531   3.160
 1590SOL    HW2 5670   6.455   1.376   3.212
 1591SOL     OW 5671   1.231   5.810   0.839
 1591SOL    HW1 5672   1.315   5.797   0.892
 1591SOL    HW2 5673   1.208   5.908   0.837
 1592SOL     OW 5674   0.097   3.646   5.966
 1592SOL    HW1 5675   0.165   3.593   5.916
 1592SOL    HW2 5676   0.143   3.713   6.024
 1593SOL     OW 5677   3.473   6.477   0.352
 1593SOL    HW1 5678   3.403   6.499   0.420
 1593SOL    HW2 5679   3.443   6.507   0.262
 1594SOL     OW 5680   5.407   0.578   2.508
 1594SOL    HW1 5681   5.449   0.669   2.516
 1594SOL    HW2 5682   5.321   0.576   2.559
 1595SOL     OW 5683   0.660   3.165   6.745
 1595SOL    HW1 5684   0.679   3.223   6.824
 1595SOL    HW2 5685   0.710   3.200   6.665
 1596SOL     OW 5686   4.809   4.595   3.635
 1596SOL    HW1 5687   4.903   4.574   3.661
 1596SOL    HW2 5688   4.799   4.590   3.536
 1597SOL     OW 5689   3.125   6.004   0.129
 1597SOL    HW1 5690   3.158   5.922   0.175
 1597SOL    HW2 5691   3.129   6.081   0.192
 1598SOL     OW 5692   0.970   4.519   6.230
 1598SOL    HW1 5693   1.020   4.549   6.149
 1598SOL    HW2 5694   1.027   4.534   6.311
 1599SOL     OW 5695   4.527   5.627   3.552
 1599SOL    HW1 5696   4.505   5.670   3.639
 1599SOL    HW2 5697   4.546   5.529   3.566
 1600SOL     OW 5698   4.159   0.816   1.639
 1600SOL    HW1 5699   4.148   0.811   1.738
 1600SOL    HW2 5700   4.074   0.788   1.595
 1601SOL     OW 5701   6.720   1.353   4.523
 1601SOL    HW1 5702   6.665   1.397   4.594
 1601SOL    HW2 5703   6.813   1.339   4.557
 1602SOL     OW 5704   4.576   5.840   3.969
 1602SOL    HW1 5705   4.635   5.762   3.985
 1602SOL    HW2 5706   4.630   5.916   3.934
 1603SOL     OW 5707   3.081   4.818   2.745
 1603SOL    HW1 5708   3.075   4.718   2.743
 1603SOL    HW2 5709   3.002   4.855   2.794
 1604SOL     OW 5710   4.613   4.980   2.955
 1604SOL    HW1 5711   4.596   4.979   2.856
 1604SOL    HW2 5712   4.695   4.926   2.974
 1605SOL     OW 5713   4.974   4.729   0.477
 1605SOL    HW1 5714   5.041   4.802   0.495
 1605SOL    HW2 5715   4.895   4.741   0.536
 1606SOL     OW 5716   3.134   6.201   4.835
 1606SOL    HW1 5717   3.141   6.116   4.888
 1606SOL    HW2 5718   3.210   6.207   4.771
 1607SOL     OW 5719   4.644   4.374   4.002
 1607SOL    HW1 5720   4.661   4.457   3.949
 1607SOL    HW2 5721   4.637   4.397   4.099
 1608SOL     OW 5722   5.729   2.126   3.630
 1608SOL    HW1 5723   5.668   2.169   3.697
 1608SOL    HW2 5724   5.698   2.032   3.612
 1609SOL     OW 5725   2.228   0.077   1.371
 1609SOL    HW1 5726   2.258   7.008   1.343
 1609SOL    HW2 5727   2.185   0.072   1.461
 1610SOL     OW 5728   5.567   6.869   0.639
 1610SOL    HW1 5729   5.572   6.864   0.539
 1610SOL    HW2 5730   5.659   6.880   0.676
 1611SOL     OW 5731   1.263   3.892   0.038
 1611SOL    HW1 5732   1.296   3.903   0.132
 1611SOL    HW2 5733   1.212   3.806   0.031
 1612SOL     OW 5734   4.151   1.366   2.358
 1612SOL    HW1 5735   4.128   1.374   2.261
 1612SOL    HW2 5736   4.171   1.457   2.394
 1613SOL     OW 5737   6.755   5.491   2.369
 1613SOL    HW1 5738   6.820   5.513   2.442
 1613SOL    HW2 5739   6.806   5.467   2.286
 1614SOL     OW 5740   6.626   1.618   6.152
 1614SOL    HW1 5741   6.554   1.661   6.099
 1614SOL    HW2 5742   6.590   1.538   6.200
 1615SOL     OW 5743   6.896   3.965   5.798
 1615SOL    HW1 5744   6.938   4.030   5.735
 1615SOL    HW2 5745   6.925   3.986   5.892
 1616SOL     OW 5746   0.619   0.528   3.801
 1616SOL    HW1 5747   0.581   0.568   3.885
 1616SOL    HW2 5748   0.662   0.441   3.823
 1617SOL     OW 5749   6.613   5.503   3.513
 1617SOL    HW1 5750   6.589   5.568   3.586
 1617SOL    HW2 5751   6.688   5.540   3.459
 1618SOL     OW 5752   3.345   5.160   3.079
 1618SOL    HW1 5753   3.308   5.142   2.988
 1618SOL    HW2 5754   3.317   5.088   3.141
 1619SOL     OW 5755   0.765   4.644   6.378
 1619SOL    HW1 5756   0.840   4.615   6.318
 1619SOL    HW2 5757   0.708   4.565   6.401
 1620SOL     OW 5758   3.511   6.408   4.219
 1620SOL    HW1 5759   3.423   6.376   4.255
 1620SOL    HW2 5760   3.570   6.330   4.199
 1621SOL     OW 5761   4.658   5.366   0.705
 1621SOL    HW1 5762   4.569   5.393   0.742
 1621SOL    HW2 5763   4.696   5.441   0.652
 1622SOL     OW 5764   6.460   4.392   4.166
 1622SOL    HW1 5765   6.515   4.317   4.201
 1622SOL    HW2 5766   6.363   4.365   4.166
 1623SOL     OW 5767   0.231   2.671   2.922
 1623SOL    HW1 5768   0.209   2.649   3.017
 1623SOL    HW2 5769   0.296   2.604   2.887
 1624SOL     OW 5770   3.729   3.227   0.667
 1624SOL    HW1 5771   3.717   3.169   0.586
 1624SOL    HW2 5772   3.771   3.173   0.740
 1625SOL     OW 5773   0.583   6.784   0.694
 1625SOL    HW1 5774   0.606   6.879   0.672
 1625SOL    HW2 5775   0.549   6.778   0.788
 1626SOL     OW 5776   2.622   1.783   1.649
 1626SOL    HW1 5777   2.589   1.772   1.743
 1626SOL    HW2 5778   2.722   1.787   1.649
 1627SOL     OW 5779   4.022   2.189   6.182
 1627SOL    HW1 5780   3.979   2.241   6.108
 1627SOL    HW2 5781   4.112   2.227   6.202
 1628SOL     OW 5782   5.543   0.042   1.023
 1628SOL    HW1 5783   5.446   0.024   1.038
 1628SOL    HW2 5784   5.581   0.089   1.103
 1629SOL     OW 5785   0.893   0.264   3.804
 1629SOL    HW1 5786   0.852   0.174   3.791
 1629SOL    HW2 5787   0.892   0.288   3.901
 1630SOL     OW 5788   0.280   3.719   6.256
 1630SOL    HW1 5789   0.249   3.630   6.289
 1630SOL    HW2 5790   0.379   3.727   6.269
 1631SOL     OW 5791   6.298   3.401   0.699
 1631SOL    HW1 5792   6.252   3.448   0.623
 1631SOL    HW2 5793   6.277   3.448   0.785
 1632SOL     OW 5794   6.320   5.575   2.076
 1632SOL    HW1 5795   6.383   5.582   2.154
 1632SOL    HW2 5796   6.233   5.538   2.107
 1633SOL     OW 5797   5.321   3.636   4.577
 1633SOL    HW1 5798   5.266   3.569   4.528
 1633SOL    HW2 5799   5.261   3.696   4.630
 1634SOL     OW 5800   0.459   2.906   6.130
 1634SOL    HW1 5801   0.428   2.814   6.104
 1634SOL    HW2 5802   0.556   2.916   6.106
 1635SOL     OW 5803   3.230   6.821   3.732
 1635SOL    HW1 5804   3.244   6.733   3.779
 1635SOL    HW2 5805   3.228   6.895   3.799
 1636SOL     OW 5806   6.603   5.956   1.101
 1636SOL    HW1 5807   6.552   6.039   1.078
 1636SOL    HW2 5808   6.701   5.975   1.099
 1637SOL     OW 5809   1.302   1.432   3.116
 1637SOL    HW1 5810   1.240   1.413   3.040
 1637SOL    HW2 5811   1.250   1.472   3.192
 1638SOL     OW 5812   5.291   2.410   2.141
 1638SOL    HW1 5813   5.213   2.370   2.093
 1638SOL    HW2 5814   5.284   2.389   2.239
 1639SOL     OW 5815   5.094   2.297   1.969
 1639SOL    HW1 5816   5.020   2.330   2.027
 1639SOL    HW2 5817   5.060   2.225   1.909
 1640SOL     OW 5818   5.877   1.004   6.478
 1640SOL    HW1 5819   5.837   0.913   6.474
 1640SOL    HW2 5820   5.950   1.005   6.547
 1641SOL     OW 5821   6.328   1.870   2.921
 1641SOL    HW1 5822   6.312   1.772   2.909
 1641SOL    HW2 5823   6.381   1.905   2.844
 1642SOL     OW 5824   6.941   3.393   6.262
 1642SOL    HW1 5825   6.923   3.413   6.165
 1642SOL    HW2 5826   6.875   3.326   6.295
 1643SOL     OW 5827   2.130   5.217   4.132
 1643SOL    HW1 5828   2.131   5.117   4.134
 1643SOL    HW2 5829   2.041   5.250   4.163
 1644SOL     OW 5830   6.231   2.260   1.513
 1644SOL    HW1 5831   6.198   2.264   1.607
 1644SOL    HW2 5832   6.313   2.318   1.504
 1645SOL     OW 5833   2.345   0.786   5.296
 1645SOL    HW1 5834   2.407   0.855   5.257
 1645SOL    HW2 5835   2.315   0.816   5.387
 1646SOL     OW 5836   1.471   5.124   1.347
 1646SOL    HW1 5837   1.405   5.200   1.346
 1646SOL    HW2 5838   1.559   5.157   1.314
 1647SOL     OW 5839   5.900   2.897   4.395
 1647SOL    HW1 5840   5.863   2.990   4.398
 1647SOL    HW2 5841   5.845   2.837   4.452
 1648SOL     OW 5842   5.697   5.940   1.577
 1648SOL    HW1 5843   5.768   5.877   1.544
 1648SOL    HW2 5844   5.739   6.020   1.619
 1649SOL     OW 5845   3.812   1.539   3.402
 1649SOL    HW1 5846   3.848   1.449   3.425
 1649SOL    HW2 5847   3.719   1.547   3.439
 1650SOL     OW 5848   3.066   3.357   5.432
 1650SOL    HW1 5849   2.986   3.414   5.447
 1650SOL    HW2 5850   3.133   3.406   5.376
 1651SOL     OW 5851   1.042   2.381   3.638
 1651SOL    HW1 5852   0.985   2.443   3.584
 1651SOL    HW2 5853   0.985   2.309   3.677
 1652SOL     OW 5854   0.650   3.594   1.948
 1652SOL    HW1 5855   0.630   3.497   1.936
 1652SOL    HW2 5856   0.745   3.605   1.979
 1653SOL     OW 5857   0.242   4.799   2.006
 1653SOL    HW1 5858   0.191   4.732   2.060
 1653SOL    HW2 5859   0.336   4.806   2.041
 1654SOL     OW 5860   0.361   3.625   1.803
 1654SOL    HW1 5861   0.455   3.630   1.837
 1654SOL    HW2 5862   0.345   3.700   1.739
 1655SOL     OW 5863   0.428   0.760   5.725
 1655SOL    HW1 5864   0.410   0.843   5.674
 1655SOL    HW2 5865   0.471   0.783   5.813
 1656SOL     OW 5866   2.137   3.956   3.130
 1656SOL    HW1 5867   2.126   3.985   3.034
 1656SOL    HW2 5868   2.196   4.021   3.177
 1657SOL     OW 5869   0.324   6.989   5.839
 1657SOL    HW1 5870   0.305   6.941   5.753
 1657SOL    HW2 5871   0.249   6.974   5.903
 1658SOL     OW 5872   5.201   6.433   6.162
 1658SOL    HW1 5873   5.103   6.434   6.143
 1658SOL    HW2 5874   5.246   6.507   6.112
 1659SOL     OW 5875   4.160   6.660   5.713
 1659SOL    HW1 5876   4.187   6.696   5.624
 1659SOL    HW2 5877   4.062   6.672   5.726
 1660SOL     OW 5878   2.251   0.623   2.003
 1660SOL    HW1 5879   2.271   0.676   1.920
 1660SOL    HW2 5880   2.274   0.678   2.083
 1661SOL     OW 5881   4.880   3.840   3.045
 1661SOL    HW1 5882   4.932   3.759   3.073
 1661SOL    HW2 5883   4.897   3.859   2.949
 1662SOL     OW 5884   0.344   1.957   3.800
 1662SOL    HW1 5885   0.278   1.965   3.725
 1662SOL    HW2 5886   0.295   1.955   3.887
 1663SOL     OW 5887   5.182   4.490   0.997
 1663SOL    HW1 5888   5.121   4.567   1.014
 1663SOL    HW2 5889   5.248   4.482   1.071
 1664SOL     OW 5890   1.578   0.587   6.238
 1664SOL    HW1 5891   1.482   0.615   6.239
 1664SOL    HW2 5892   1.615   0.594   6.331
 1665SOL     OW 5893   2.827   4.343   6.827
 1665SOL    HW1 5894   2.895   4.327   6.756
 1665SOL    HW2 5895   2.854   4.422   6.882
 1666SOL     OW 5896   4.777   6.493   6.334
 1666SOL    HW1 5897   4.865   6.541   6.343
 1666SOL    HW2 5898   4.794   6.398   6.307
 1667SOL     OW 5899   6.812   5.532   0.548
 1667SOL    HW1 5900   6.807   5.472   0.628
 1667SOL    HW2 5901   6.751   5.609   0.561
 1668SOL     OW 5902   5.653   3.549   2.213
 1668SOL    HW1 5903   5.715   3.620   2.181
 1668SOL    HW2 5904   5.600   3.583   2.291
 1669SOL     OW 5905   6.640   3.414   5.335
 1669SOL    HW1 5906   6.540   3.406   5.338
 1669SOL    HW2 5907   6.665   3.497   5.286
 1670SOL     OW 5908   2.869   4.620   5.731
 1670SOL    HW1 5909   2.954   4.644   5.777
 1670SOL    HW2 5910   2.794   4.674   5.768
 1671SOL     OW 5911   5.984   2.780   0.434
 1671SOL    HW1 5912   6.016   2.739   0.519
 1671SOL    HW2 5913   6.057   2.836   0.394
 1672SOL     OW 5914   0.490   2.533   0.950
 1672SOL    HW1 5915   0.395   2.516   0.925
 1672SOL    HW2 5916   0.519   2.467   1.020
 1673SOL     OW 5917   1.243   0.494   4.567
 1673SOL    HW1 5918   1.264   0.505   4.470
 1673SOL    HW2 5919   1.262   0.400   4.595
 1674SOL     OW 5920   5.038   1.903   2.770
 1674SOL    HW1 5921   4.957   1.876   2.822
 1674SOL    HW2 5922   5.057   2.000   2.785
 1675SOL     OW 5923   4.988   0.369   1.669
 1675SOL    HW1 5924   5.038   0.417   1.741
 1675SOL    HW2 5925   4.890   0.370   1.690
 1676SOL     OW 5926   1.248   2.220   3.603
 1676SOL    HW1 5927   1.180   2.293   3.608
 1676SOL    HW2 5928   1.311   2.239   3.528
 1677SOL     OW 5929   3.447   3.136   3.308
 1677SOL    HW1 5930   3.370   3.184   3.266
 1677SOL    HW2 5931   3.452   3.043   3.272
 1678SOL     OW 5932   1.546   0.409   0.532
 1678SOL    HW1 5933   1.559   0.380   0.627
 1678SOL    HW2 5934   1.559   0.331   0.471
 1679SOL     OW 5935   6.604   1.486   6.746
 1679SOL    HW1 5936   6.556   1.402   6.770
 1679SOL    HW2 5937   6.584   1.509   6.650
 1680SOL     OW 5938   5.805   2.566   3.152
 1680SOL    HW1 5939   5.801   2.647   3.095
 1680SOL    HW2 5940   5.725   2.562   3.211
 1681SOL     OW 5941   3.780   6.081   4.743
 1681SOL    HW1 5942   3.834   6.139   4.804
 1681SOL    HW2 5943   3.755   5.996   4.792
 1682SOL     OW 5944   3.511   0.255   4.165
 1682SOL    HW1 5945   3.516   0.354   4.160
 1682SOL    HW2 5946   3.536   0.225   4.256
 1683SOL     OW 5947   6.774   2.883   3.314
 1683SOL    HW1 5948   6.709   2.814   3.346
 1683SOL    HW2 5949   6.769   2.964   3.373
 1684SOL     OW 5950   2.770   4.834   1.868
 1684SOL    HW1 5951   2.767   4.737   1.892
 1684SOL    HW2 5952   2.786   4.888   1.951
 1685SOL     OW 5953   6.976   1.651   5.501
 1685SOL    HW1 5954   6.877   1.663   5.494
 1685SOL    HW2 5955   7.022   1.735   5.473
 1686SOL     OW 5956   4.353   5.564   2.583
 1686SOL    HW1 5957   4.309   5.600   2.665
 1686SOL    HW2 5958   4.452   5.580   2.589
 1687SOL     OW 5959   4.867   4.616   0.924
 1687SOL    HW1 5960   4.916   4.662   0.998
 1687SOL    HW2 5961   4.831   4.684   0.861
 1688SOL     OW 5962   1.384   0.169   3.494
 1688SOL    HW1 5963   1.428   0.258   3.509
 1688SOL    HW2 5964   1.347   0.166   3.401
 1689SOL     OW 5965   4.343   0.578   1.612
 1689SOL    HW1 5966   4.405   0.549   1.539
 1689SOL    HW2 5967   4.289   0.656   1.581
 1690SOL     OW 5968   6.913   4.691   4.094
 1690SOL    HW1 5969   6.847   4.624   4.059
 1690SOL    HW2 5970   7.004   4.669   4.060
 1691SOL     OW 5971   4.250   2.723   5.452
 1691SOL    HW1 5972   4.265   2.666   5.532
 1691SOL    HW2 5973   4.219   2.666   5.375
 1692SOL     OW 5974   5.067   4.933   1.514
 1692SOL    HW1 5975   4.982   4.981   1.494
 1692SOL    HW2 5976   5.139   4.999   1.532
 1693SOL     OW 5977   5.472   6.715   6.138
 1693SOL    HW1 5978   5.403   6.682   6.073
 1693SOL    HW2 5979   5.465   6.661   6.222
 1694SOL     OW 5980   4.484   1.612   6.285
 1694SOL    HW1 5981   4.452   1.556   6.361
 1694SOL    HW2 5982   4.583   1.602   6.276
 1695SOL     OW 5983   3.791   0.468   5.539
 1695SOL    HW1 5984   3.818   0.530   5.465
 1695SOL    HW2 5985   3.768   0.378   5.501
 1696SOL     OW 5986   4.424   6.517   0.836
 1696SOL    HW1 5987   4.409   6.590   0.902
 1696SOL    HW2 5988   4.429   6.556   0.744
 1697SOL     OW 5989   4.917   2.862   1.893
 1697SOL    HW1 5990   4.909   2.763   1.904
 1697SOL    HW2 5991   4.850   2.908   1.952
 1698SOL     OW 5992   4.120   1.306   1.427
 1698SOL    HW1 5993   4.080   1.391   1.461
 1698SOL    HW2 5994   4.199   1.281   1.484
 1699SOL     OW 5995   2.038   0.314   0.385
 1699SOL    HW1 5996   1.952   0.364   0.389
 1699SOL    HW2 5997   2.114   0.379   0.386
 1700SOL     OW 5998   5.292   2.821   3.261
 1700SOL    HW1 5999   5.369   2.885   3.266
 1700SOL    HW2 6000   5.320   2.732   3.295
 1701SOL     OW 6001   0.125   6.142   5.122
 1701SOL    HW1 6002   0.152   6.072   5.057
 1701SOL    HW2 6003   0.038   6.182   5.094
 1702SOL     OW 6004   2.265   2.550   6.886
 1702SOL    HW1 6005   2.345   2.535   6.944
 1702SOL    HW2 6006   2.217   2.632   6.916
 1703SOL     OW 6007   1.150   1.741   2.129
 1703SOL    HW1 6008   1.084   1.675   2.164
 1703SOL    HW2 6009   1.134   1.830   2.172
 1704SOL     OW 6010   2.746   2.838   0.042
 1704SOL    HW1 6011   2.826   2.787   0.011
 1704SOL    HW2 6012   2.680   2.844   6.990
 1705SOL     OW 6013   4.599   3.228   0.544
 1705SOL    HW1 6014   4.698   3.211   0.541
 1705SOL    HW2 6015   4.579   3.293   0.618
 1706SOL     OW 6016   6.127   1.935   6.650
 1706SOL    HW1 6017   6.068   1.926   6.730
 1706SOL    HW2 6018   6.078   1.904   6.569
 1707SOL     OW 6019   3.703   1.245   2.188
 1707SOL    HW1 6020   3.788   1.268   2.235
 1707SOL    HW2 6021   3.672   1.154   2.215
 1708SOL     OW 6022   2.907   4.782   2.188
 1708SOL    HW1 6023   2.849   4.717   2.139
 1708SOL    HW2 6024   2.916   4.753   2.284
 1709SOL     OW 6025   5.140   4.884   0.862
 1709SOL    HW1 6026   5.150   4.884   0.962
 1709SOL    HW2 6027   5.046   4.910   0.839
 1710SOL     OW 6028   4.910   3.789   2.346
 1710SOL    HW1 6029   4.844   3.855   2.310
 1710SOL    HW2 6030   4.899   3.780   2.445
 1711SOL     OW 6031   3.943   6.014   0.042
 1711SOL    HW1 6032   3.863   6.004   7.005
 1711SOL    HW2 6033   4.003   5.935   0.030
 1712SOL     OW 6034   0.859   1.697   1.975
 1712SOL    HW1 6035   0.785   1.681   2.041
 1712SOL    HW2 6036   0.862   1.621   1.910
 1713SOL     OW 6037   2.765   1.570   2.705
 1713SOL    HW1 6038   2.807   1.495   2.755
 1713SOL    HW2 6039   2.696   1.615   2.762
 1714SOL     OW 6040   2.719   4.021   1.167
 1714SOL    HW1 6041   2.754   3.945   1.113
 1714SOL    HW2 6042   2.775   4.102   1.151
 1715SOL     OW 6043   1.028   6.166   1.366
 1715SOL    HW1 6044   1.087   6.180   1.446
 1715SOL    HW2 6045   0.975   6.082   1.378
 1716SOL     OW 6046   3.847   1.437   3.018
 1716SOL    HW1 6047   3.887   1.527   3.036
 1716SOL    HW2 6048   3.818   1.433   2.922
 1717SOL     OW 6049   3.488   6.225   3.910
 1717SOL    HW1 6050   3.404   6.248   3.861
 1717SOL    HW2 6051   3.483   6.130   3.940
 1718SOL     OW 6052   1.761   3.210   1.379
 1718SOL    HW1 6053   1.687   3.234   1.442
 1718SOL    HW2 6054   1.795   3.119   1.401
 1719SOL     OW 6055   1.327   5.334   2.709
 1719SOL    HW1 6056   1.395   5.399   2.676
 1719SOL    HW2 6057   1.344   5.313   2.806
 1720SOL     OW 6058   0.835   3.476   5.353
 1720SOL    HW1 6059   0.878   3.553   5.305
 1720SOL    HW2 6060   0.893   3.450   5.430
 1721SOL     OW 6061   1.837   2.911   0.302
 1721SOL    HW1 6062   1.930   2.903   0.264
 1721SOL    HW2 6063   1.841   2.964   0.386
 1722SOL     OW 6064   2.093   2.024   4.282
 1722SOL    HW1 6065   2.044   2.075   4.211
 1722SOL    HW2 6066   2.189   2.053   4.283
 1723SOL     OW 6067   5.741   4.382   1.309
 1723SOL    HW1 6068   5.707   4.469   1.345
 1723SOL    HW2 6069   5.754   4.391   1.210
 1724SOL     OW 6070   5.062   2.423   0.900
 1724SOL    HW1 6071   5.086   2.411   0.804
 1724SOL    HW2 6072   4.986   2.487   0.908
 1725SOL     OW 6073   2.069   6.390   5.789
 1725SOL    HW1 6074   2.019   6.472   5.817
 1725SOL    HW2 6075   2.144   6.417   5.728
 1726SOL     OW 6076   4.876   4.353   2.723
 1726SOL    HW1 6077   4.816   4.431   2.740
 1726SOL    HW2 6078   4.885   4.299   2.807
 1727SOL     OW 6079   3.107   4.027   3.011
 1727SOL    HW1 6080   3.205   4.019   2.991
 1727SOL    HW2 6081   3.095   4.046   3.109
 1728SOL     OW 6082   5.934   2.464   4.029
 1728SOL    HW1 6083   5.924   2.557   4.065
 1728SOL    HW2 6084   5.908   2.398   4.099
 1729SOL     OW 6085   1.510   2.714   2.522
 1729SOL    HW1 6086   1.422   2.698   2.567
 1729SOL    HW2 6087   1.495   2.723   2.423
 1730SOL     OW 6088   2.033   6.473   4.347
 1730SOL    HW1 6089   2.021   6.397   4.412
 1730SOL    HW2 6090   2.104   6.535   4.382
 1731SOL     OW 6091   5.001   4.923   4.125
 1731SOL    HW1 6092   5.004   4.867   4.208
 1731SOL    HW2 6093   4.928   4.891   4.065
 1732SOL     OW 6094   2.896   3.644   5.094
 1732SOL    HW1 6095   2.859   3.611   5.181
 1732SOL    HW2 6096   2.958   3.575   5.056
 1733SOL     OW 6097   1.737   2.715   6.203
 1733SOL    HW1 6098   1.694   2.761   6.281
 1733SOL    HW2 6099   1.672   2.712   6.126
 1734SOL     OW 6100   0.046   2.938   1.076
 1734SOL    HW1 6101   7.003   3.009   1.050
 1734SOL    HW2 6102   0.021   2.901   1.165
 1735SOL     OW 6103   3.656   5.329   6.209
 1735SOL    HW1 6104   3.594   5.342   6.286
 1735SOL    HW2 6105   3.727   5.400   6.210
 1736SOL     OW 6106   5.185   2.449   6.515
 1736SOL    HW1 6107   5.091   2.447   6.481
 1736SOL    HW2 6108   5.220   2.355   6.521
 1737SOL     OW 6109   3.570   0.760   5.901
 1737SOL    HW1 6110   3.519   0.842   5.876
 1737SOL    HW2 6111   3.646   0.746   5.837
 1738SOL     OW 6112   1.787   3.426   2.298
 1738SOL    HW1 6113   1.878   3.435   2.257
 1738SOL    HW2 6114   1.795   3.422   2.397
 1739SOL     OW 6115   5.536   6.108   3.140
 1739SOL    HW1 6116   5.516   6.126   3.044
 1739SOL    HW2 6117   5.464   6.052   3.179
 1740SOL     OW 6118   6.783   3.136   4.779
 1740SOL    HW1 6119   6.856   3.090   4.727
 1740SOL    HW2 6120   6.695   3.096   4.753
 1741SOL     OW 6121   0.981   1.975   4.834
 1741SOL    HW1 6122   1.001   2.073   4.838
 1741SOL    HW2 6123   0.920   1.956   4.757
 1742SOL     OW 6124   6.552   6.686   6.945
 1742SOL    HW1 6125   6.507   6.754   7.002
 1742SOL    HW2 6126   6.646   6.672   6.978
 1743SOL     OW 6127   1.746   2.409   2.098
 1743SOL    HW1 6128   1.810   2.366   2.034
 1743SOL    HW2 6129   1.748   2.508   2.087
 1744SOL     OW 6130   3.609   2.297   5.673
 1744SOL    HW1 6131   3.516   2.260   5.672
 1744SOL    HW2 6132   3.608   2.390   5.710
 1745SOL     OW 6133   6.500   6.220   1.079
 1745SOL    HW1 6134   6.408   6.256   1.096
 1745SOL    HW2 6135   6.566   6.294   1.090
 1746SOL     OW 6136   2.619   4.629   3.474
 1746SOL    HW1 6137   2.697   4.692   3.464
 1746SOL    HW2 6138   2.592   4.626   3.571
 1747SOL     OW 6139   3.979   6.742   2.672
 1747SOL    HW1 6140   4.011   6.835   2.651
 1747SOL    HW2 6141   3.900   6.747   2.733
 1748SOL     OW 6142   6.949   2.132   4.708
 1748SOL    HW1 6143   6.887   2.101   4.635
 1748SOL    HW2 6144   0.021   2.119   4.679
 1749SOL     OW 6145   6.735   5.582   1.594
 1749SOL    HW1 6146   6.729   5.546   1.501
 1749SOL    HW2 6147   6.646   5.575   1.638
 1750SOL     OW 6148   3.157   0.870   0.495
 1750SOL    HW1 6149   3.089   0.807   0.457
 1750SOL    HW2 6150   3.135   0.964   0.469
 1751SOL     OW 6151   5.538   3.359   4.952
 1751SOL    HW1 6152   5.477   3.418   5.005
 1751SOL    HW2 6153   5.546   3.394   4.859
 1752SOL     OW 6154   0.322   0.735   2.485
 1752SOL    HW1 6155   0.331   0.650   2.536
 1752SOL    HW2 6156   0.227   0.765   2.485
 1753SOL     OW 6157   0.045   1.609   1.399
 1753SOL    HW1 6158   0.119   1.634   1.337
 1753SOL    HW2 6159   0.035   1.679   1.469
 1754SOL     OW 6160   2.973   5.187   3.344
 1754SOL    HW1 6161   2.960   5.204   3.246
 1754SOL    HW2 6162   3.047   5.245   3.379
 1755SOL     OW 6163   6.879   0.178   5.953
 1755SOL    HW1 6164   6.875   0.131   6.041
 1755SOL    HW2 6165   6.886   0.110   5.880
 1756SOL     OW 6166   4.692   5.653   0.712
 1756SOL    HW1 6167   4.661   5.669   0.619
 1756SOL    HW2 6168   4.685   5.738   0.765
 1757SOL     OW 6169   2.895   4.582   5.449
 1757SOL    HW1 6170   2.907   4.516   5.524
 1757SOL    HW2 6171   2.925   4.541   5.363
 1758SOL     OW 6172   1.381   6.241   4.102
 1758SOL    HW1 6173   1.389   6.155   4.152
 1758SOL    HW2 6174   1.431   6.312   4.151
 1759SOL     OW 6175   0.846   5.692   0.226
 1759SOL    HW1 6176   0.844   5.642   0.312
 1759SOL    HW2 6177   0.911   5.650   0.163
 1760SOL     OW 6178   6.643   1.731   4.728
 1760SOL    HW1 6179   6.619   1.825   4.751
 1760SOL    HW2 6180   6.565   1.672   4.746
 1761SOL     OW 6181   5.171   1.131   2.796
 1761SOL    HW1 6182   5.165   1.211   2.855
 1761SOL    HW2 6183   5.197   1.160   2.704
 1762SOL     OW 6184   0.719   1.756   5.834
 1762SOL    HW1 6185   0.798   1.779   5.778
 1762SOL    HW2 6186   0.648   1.716   5.776
 1763SOL     OW 6187   1.263   5.402   3.679
 1763SOL    HW1 6188   1.323   5.460   3.734
 1763SOL    HW2 6189   1.304   5.388   3.589
 1764SOL     OW 6190   0.556   6.154   3.643
 1764SOL    HW1 6191   0.590   6.093   3.714
 1764SOL    HW2 6192   0.538   6.245   3.682
 1765SOL     OW 6193   5.469   3.993   1.916
 1765SOL    HW1 6194   5.436   3.964   2.005
 1765SOL    HW2 6195   5.397   3.980   1.848
 1766SOL     OW 6196   4.653   4.471   4.285
 1766SOL    HW1 6197   4.640   4.449   4.382
 1766SOL    HW2 6198   4.749   4.453   4.261
 1767SOL     OW 6199   0.311   4.981   1.575
 1767SOL    HW1 6200   0.407   4.955   1.584
 1767SOL    HW2 6201   0.260   4.909   1.528
 1768SOL     OW 6202   4.769   4.259   2.500
 1768SOL    HW1 6203   4.730   4.338   2.452
 1768SOL    HW2 6204   4.813   4.290   2.584
 1769SOL     OW 6205   5.274   0.351   0.961
 1769SOL    HW1 6206   5.365   0.393   0.961
 1769SOL    HW2 6207   5.233   0.360   1.052
 1770SOL     OW 6208   1.888   4.961   0.394
 1770SOL    HW1 6209   1.972   4.943   0.343
 1770SOL    HW2 6210   1.816   4.989   0.331
 1771SOL     OW 6211   1.946   3.401   6.009
 1771SOL    HW1 6212   1.930   3.481   6.066
 1771SOL    HW2 6213   1.860   3.352   5.995
 1772SOL     OW 6214   1.886   3.624   2.776
 1772SOL    HW1 6215   1.933   3.664   2.697
 1772SOL    HW2 6216   1.832   3.694   2.822
 1773SOL     OW 6217   2.281   6.249   5.871
 1773SOL    HW1 6218   2.263   6.183   5.944
 1773SOL    HW2 6219   2.201   6.309   5.860
 1774SOL     OW 6220   5.890   5.710   1.132
 1774SOL    HW1 6221   5.857   5.619   1.109
 1774SOL    HW2 6222   5.942   5.706   1.218
 1775SOL     OW 6223   1.826   5.489   0.752
 1775SOL    HW1 6224   1.817   5.391   0.772
 1775SOL    HW2 6225   1.909   5.524   0.794
 1776SOL     OW 6226   4.686   3.080   5.933
 1776SOL    HW1 6227   4.702   3.146   6.006
 1776SOL    HW2 6228   4.693   3.127   5.845
 1777SOL     OW 6229   4.307   6.456   7.011
 1777SOL    HW1 6230   4.316   6.475   0.086
 1777SOL    HW2 6231   4.378   6.392   6.982
 1778SOL     OW 6232   6.086   0.350   4.214
 1778SOL    HW1 6233   6.124   0.305   4.295
 1778SOL    HW2 6234   6.075   0.282   4.141
 1779SOL     OW 6235   5.281   0.767   4.841
 1779SOL    HW1 6236   5.210   0.817   4.890
 1779SOL    HW2 6237   5.261   0.669   4.845
 1780SOL     OW 6238   2.572   5.677   5.678
 1780SOL    HW1 6239   2.585   5.658   5.580
 1780SOL    HW2 6240   2.513   5.757   5.689
 1781SOL     OW 6241   3.863   1.207   5.610
 1781SOL    HW1 6242   3.851   1.305   5.623
 1781SOL    HW2 6243   3.787   1.171   5.556
 1782SOL     OW 6244   4.658   1.165   2.675
 1782SOL    HW1 6245   4.653   1.194   2.579
 1782SOL    HW2 6246   4.747   1.125   2.693
 1783SOL     OW 6247   1.795   4.500   6.766
 1783SOL    HW1 6248   1.854   4.508   6.847
 1783SOL    HW2 6249   1.721   4.436   6.785
 1784SOL     OW 6250   2.597   6.254   1.391
 1784SOL    HW1 6251   2.568   6.231   1.483
 1784SOL    HW2 6252   2.688   6.296   1.394
 1785SOL     OW 6253   1.579   6.715   4.983
 1785SOL    HW1 6254   1.515   6.790   4.969
 1785SOL    HW2 6255   1.657   6.726   4.921
 1786SOL     OW 6256   0.493   6.057   1.935
 1786SOL    HW1 6257   0.499   6.010   2.023
 1786SOL    HW2 6258   0.550   6.009   1.868
 1787SOL     OW 6259   1.779   3.190   5.479
 1787SOL    HW1 6260   1.854   3.236   5.430
 1787SOL    HW2 6261   1.800   3.188   5.577
 1788SOL     OW 6262   4.079   3.446   0.387
 1788SOL    HW1 6263   4.107   3.352   0.367
 1788SOL    HW2 6264   4.065   3.496   0.302
 1789SOL     OW 6265   5.693   3.296   2.241
 1789SOL    HW1 6266   5.766   3.269   2.178
 1789SOL    HW2 6267   5.678   3.395   2.233
 1790SOL     OW 6268   1.803   2.584   5.091
 1790SOL    HW1 6269   1.769   2.549   5.178
 1790SOL    HW2 6270   1.903   2.579   5.090
 1791SOL     OW 6271   4.842   0.528   3.623
 1791SOL    HW1 6272   4.746   0.535   3.596
 1791SOL    HW2 6273   4.869   0.613   3.669
 1792SOL     OW 6274   6.813   2.497   6.579
 1792SOL    HW1 6275   6.843   2.568   6.516
 1792SOL    HW2 6276   6.827   2.407   6.537
 1793SOL     OW 6277   6.621   1.902   5.111
 1793SOL    HW1 6278   6.544   1.939   5.163
 1793SOL    HW2 6279   6.619   1.802   5.115
 1794SOL     OW 6280   0.363   1.401   6.467
 1794SOL    HW1 6281   0.370   1.478   6.531
 1794SOL    HW2 6282   0.429   1.330   6.493
 1795SOL     OW 6283   5.528   4.885   1.086
 1795SOL    HW1 6284   5.597   4.948   1.122
 1795SOL    HW2 6285   5.565   4.792   1.084
 1796SOL     OW 6286   6.267   0.120   0.837
 1796SOL    HW1 6287   6.244   0.150   0.929
 1796SOL    HW2 6288   6.290   0.023   0.838
 1797SOL     OW 6289   2.908   5.774   5.578
 1797SOL    HW1 6290   2.842   5.777   5.652
 1797SOL    HW2 6291   2.935   5.679   5.561
 1798SOL     OW 6292   2.330   3.775   5.526
 1798SOL    HW1 6293   2.293   3.785   5.434
 1798SOL    HW2 6294   2.361   3.681   5.540
 1799SOL     OW 6295   2.839   1.322   1.973
 1799SOL    HW1 6296   2.797   1.403   1.934
 1799SOL    HW2 6297   2.932   1.311   1.937
 1800SOL     OW 6298   6.215   3.100   5.703
 1800SOL    HW1 6299   6.141   3.157   5.667
 1800SOL    HW2 6300   6.303   3.137   5.673
 1801SOL     OW 6301   0.371   0.592   2.977
 1801SOL    HW1 6302   0.385   0.686   2.946
 1801SOL    HW2 6303   0.349   0.591   3.074
 1802SOL     OW 6304   6.199   4.776   3.773
 1802SOL    HW1 6305   6.265   4.765   3.699
 1802SOL    HW2 6306   6.205   4.869   3.810
 1803SOL     OW 6307   0.153   0.261   4.002
 1803SOL    HW1 6308   0.122   0.182   3.950
 1803SOL    HW2 6309   0.184   0.333   3.940
 1804SOL     OW 6310   1.717   2.099   6.324
 1804SOL    HW1 6311   1.676   2.147   6.246
 1804SOL    HW2 6312   1.749   2.167   6.391
 1805SOL     OW 6313   6.512   4.666   0.672
 1805SOL    HW1 6314   6.504   4.739   0.739
 1805SOL    HW2 6315   6.565   4.698   0.593
 1806SOL     OW 6316   0.838   1.496   1.004
 1806SOL    HW1 6317   0.825   1.399   1.020
 1806SOL    HW2 6318   0.807   1.548   1.084
 1807SOL     OW 6319   6.115   2.967   2.870
 1807SOL    HW1 6320   6.105   2.917   2.784
 1807SOL    HW2 6321   6.211   2.971   2.895
 1808SOL     OW 6322   5.514   1.361   6.258
 1808SOL    HW1 6323   5.557   1.270   6.249
 1808SOL    HW2 6324   5.584   1.428   6.282
 1809SOL     OW 6325   5.910   0.487   5.438
 1809SOL    HW1 6326   5.995   0.525   5.476
 1809SOL    HW2 6327   5.837   0.554   5.448
 1810SOL     OW 6328   1.310   0.838   4.253
 1810SOL    HW1 6329   1.232   0.787   4.216
 1810SOL    HW2 6330   1.340   0.906   4.186
 1811SOL     OW 6331   3.195   5.775   2.273
 1811SOL    HW1 6332   3.159   5.807   2.185
 1811SOL    HW2 6333   3.238   5.851   2.322
 1812SOL     OW 6334   3.740   6.784   6.716
 1812SOL    HW1 6335   3.791   6.870   6.718
 1812SOL    HW2 6336   3.783   6.720   6.653
 1813SOL     OW 6337   4.866   3.943   1.975
 1813SOL    HW1 6338   4.803   3.987   1.912
 1813SOL    HW2 6339   4.839   3.963   2.069
 1814SOL     OW 6340   6.685   5.956   0.669
 1814SOL    HW1 6341   6.674   5.866   0.626
 1814SOL    HW2 6342   6.603   5.979   0.720
 1815SOL     OW 6343   5.715   5.454   1.452
 1815SOL    HW1 6344   5.736   5.373   1.398
 1815SOL    HW2 6345   5.750   5.443   1.545
 1816SOL     OW 6346   4.404   5.382   5.008
 1816SOL    HW1 6347   4.333   5.410   4.945
 1816SOL    HW2 6348   4.364   5.326   5.081
 1817SOL     OW 6349   0.161   2.571   3.736
 1817SOL    HW1 6350   0.121   2.553   3.826
 1817SOL    HW2 6351   0.205   2.487   3.702
 1818SOL     OW 6352   2.351   1.291   0.565
 1818SOL    HW1 6353   2.438   1.338   0.551
 1818SOL    HW2 6354   2.369   1.194   0.580
 1819SOL     OW 6355   1.218   4.602   1.792
 1819SOL    HW1 6356   1.190   4.550   1.711
 1819SOL    HW2 6357   1.163   4.574   1.870
 1820SOL     OW 6358   3.559   0.185   4.495
 1820SOL    HW1 6359   3.562   0.244   4.576
 1820SOL    HW2 6360   3.572   0.090   4.523
 1821SOL     OW 6361   3.559   1.099   2.629
 1821SOL    HW1 6362   3.518   1.135   2.545
 1821SOL    HW2 6363   3.654   1.129   2.636
 1822SOL     OW 6364   1.434   3.885   3.769
 1822SOL    HW1 6365   1.498   3.816   3.803
 1822SOL    HW2 6366   1.415   3.951   3.842
 1823SOL     OW 6367   3.557   6.966   3.282
 1823SOL    HW1 6368   3.617   0.013   3.241
 1823SOL    HW2 6369   3.466   7.006   3.298
 1824SOL     OW 6370   4.372   3.086   1.717
 1824SOL    HW1 6371   4.382   3.063   1.620
 1824SOL    HW2 6372   4.460   3.076   1.763
 1825SOL     OW 6373   1.039   3.563   6.311
 1825SOL    HW1 6374   0.945   3.554   6.345
 1825SOL    HW2 6375   1.048   3.650   6.262
 1826SOL     OW 6376   3.953   2.387   0.924
 1826SOL    HW1 6377   4.010   2.393   0.842
 1826SOL    HW2 6378   3.890   2.311   0.915
 1827SOL     OW 6379   5.576   4.600   0.352
 1827SOL    HW1 6380   5.568   4.688   0.306
 1827SOL    HW2 6381   5.553   4.526   0.288
 1828SOL     OW 6382   1.951   4.422   4.605
 1828SOL    HW1 6383   1.923   4.483   4.680
 1828SOL    HW2 6384   2.006   4.347   4.642
 1829SOL     OW 6385   2.446   6.032   2.276
 1829SOL    HW1 6386   2.395   6.094   2.335
 1829SOL    HW2 6387   2.405   6.031   2.185
 1830SOL     OW 6388   4.380   0.887   6.007
 1830SOL    HW1 6389   4.411   0.833   5.928
 1830SOL    HW2 6390   4.411   0.982   5.996
 1831SOL     OW 6391   3.469   4.796   0.325
 1831SOL    HW1 6392   3.427   4.721   0.274
 1831SOL    HW2 6393   3.547   4.761   0.378
 1832SOL     OW 6394   1.921   3.217   5.727
 1832SOL    HW1 6395   2.020   3.224   5.713
 1832SOL    HW2 6396   1.900   3.140   5.786
 1833SOL     OW 6397   5.955   0.635   6.940
 1833SOL    HW1 6398   6.045   0.676   6.933
 1833SOL    HW2 6399   5.942   0.597   0.009
 1834SOL     OW 6400   0.583   3.651   6.181
 1834SOL    HW1 6401   0.628   3.565   6.206
 1834SOL    HW2 6402   0.652   3.724   6.175
 1835SOL     OW 6403   6.972   6.586   1.271
 1835SOL    HW1 6404   0.011   6.574   1.349
 1835SOL    HW2 6405   7.011   6.653   1.208
 1836SOL     OW 6406   5.595   1.617   2.502
 1836SOL    HW1 6407   5.681   1.567   2.509
 1836SOL    HW2 6408   5.586   1.656   2.410
 1837SOL     OW 6409   2.622   2.185   6.940
 1837SOL    HW1 6410   2.675   2.172   0.001
 1837SOL    HW2 6411   2.679   2.226   6.870
 1838SOL     OW 6412   4.704   0.653   0.442
 1838SOL    HW1 6413   4.790   0.694   0.472
 1838SOL    HW2 6414   4.631   0.681   0.504
 1839SOL     OW 6415   6.315   0.497   0.117
 1839SOL    HW1 6416   6.341   0.497   0.214
 1839SOL    HW2 6417   6.393   0.528   0.062
 1840SOL     OW 6418   4.102   6.980   4.121
 1840SOL    HW1 6419   4.156   6.928   4.187
 1840SOL    HW2 6420   4.007   6.985   4.152
 1841SOL     OW 6421   1.821   0.611   1.561
 1841SOL    HW1 6422   1.855   0.518   1.575
 1841SOL    HW2 6423   1.868   0.652   1.482
 1842SOL     OW 6424   0.099   5.159   1.547
 1842SOL    HW1 6425   0.175   5.094   1.557
 1842SOL    HW2 6426   0.083   5.176   1.450
 1843SOL     OW 6427   2.466   1.313   0.253
 1843SOL    HW1 6428   2.527   1.241   0.221
 1843SOL    HW2 6429   2.376   1.301   0.211
 1844SOL     OW 6430   5.499   2.823   6.645
 1844SOL    HW1 6431   5.455   2.770   6.718
 1844SOL    HW2 6432   5.432   2.842   6.573
 1845SOL     OW 6433   1.210   2.590   3.993
 1845SOL    HW1 6434   1.226   2.497   3.960
 1845SOL    HW2 6435   1.159   2.642   3.924
 1846SOL     OW 6436   3.104   0.754   1.530
 1846SOL    HW1 6437   3.199   0.737   1.502
 1846SOL    HW2 6438   3.101   0.770   1.629
 1847SOL     OW 6439   2.215   5.801   6.146
 1847SOL    HW1 6440   2.245   5.706   6.152
 1847SOL    HW2 6441   2.166   5.826   6.230
 1848SOL     OW 6442   4.058   6.522   3.554
 1848SOL    HW1 6443   4.100   6.590   3.615
 1848SOL    HW2 6444   3.967   6.553   3.529
 1849SOL     OW 6445   4.936   2.666   2.788
 1849SOL    HW1 6446   4.867   2.594   2.795
 1849SOL    HW2 6447   4.977   2.664   2.697
 1850SOL     OW 6448   3.977   1.848   0.954
 1850SOL    HW1 6449   3.963   1.784   0.878
 1850SOL    HW2 6450   3.948   1.940   0.925
 1851SOL     OW 6451   0.424   4.751   4.306
 1851SOL    HW1 6452   0.413   4.761   4.207
 1851SOL    HW2 6453   0.500   4.807   4.337
 1852SOL     OW 6454   0.552   6.977   3.491
 1852SOL    HW1 6455   0.502   6.921   3.425
 1852SOL    HW2 6456   0.576   6.922   3.571
 1853SOL     OW 6457   0.894   2.225   5.618
 1853SOL    HW1 6458   0.893   2.181   5.708
 1853SOL    HW2 6459   0.800   2.241   5.589
 1854SOL     OW 6460   0.072   0.627   3.871
 1854SOL    HW1 6461   0.125   0.654   3.791
 1854SOL    HW2 6462   0.093   0.689   3.947
 1855SOL     OW 6463   5.880   2.537   5.210
 1855SOL    HW1 6464   5.913   2.616   5.261
 1855SOL    HW2 6465   5.783   2.522   5.230
 1856SOL     OW 6466   4.770   3.744   0.438
 1856SOL    HW1 6467   4.866   3.729   0.413
 1856SOL    HW2 6468   4.760   3.834   0.480
 1857SOL     OW 6469   4.020   0.991   6.557
 1857SOL    HW1 6470   3.985   0.970   6.648
 1857SOL    HW2 6471   4.027   1.090   6.545
 1858SOL     OW 6472   5.493   1.874   5.085
 1858SOL    HW1 6473   5.443   1.795   5.123
 1858SOL    HW2 6474   5.448   1.958   5.114
 1859SOL     OW 6475   6.520   0.363   3.186
 1859SOL    HW1 6476   6.454   0.400   3.252
 1859SOL    HW2 6477   6.480   0.364   3.095
 1860SOL     OW 6478   2.721   1.443   6.182
 1860SOL    HW1 6479   2.638   1.415   6.230
 1860SOL    HW2 6480   2.761   1.522   6.229
 1861SOL     OW 6481   6.004   6.388   5.132
 1861SOL    HW1 6482   5.926   6.390   5.195
 1861SOL    HW2 6483   5.971   6.382   5.038
 1862SOL     OW 6484   3.133   5.583   5.805
 1862SOL    HW1 6485   3.144   5.501   5.861
 1862SOL    HW2 6486   3.077   5.562   5.725
 1863SOL     OW 6487   0.163   1.860   1.242
 1863SOL    HW1 6488   0.245   1.909   1.211
 1863SOL    HW2 6489   0.102   1.844   1.164
 1864SOL     OW 6490   2.798   6.343   1.863
 1864SOL    HW1 6491   2.785   6.285   1.782
 1864SOL    HW2 6492   2.839   6.288   1.936
 1865SOL     OW 6493   6.298   2.267   5.731
 1865SOL    HW1 6494   6.295   2.206   5.810
 1865SOL    HW2 6495   6.328   2.217   5.650
 1866SOL     OW 6496   0.214   5.254   3.595
 1866SOL    HW1 6497   0.250   5.330   3.649
 1866SOL    HW2 6498   0.132   5.218   3.639
 1867SOL     OW 6499   1.102   1.366   1.550
 1867SOL    HW1 6500   1.055   1.401   1.470
 1867SOL    HW2 6501   1.132   1.442   1.608
 1868SOL     OW 6502   5.177   3.637   6.148
 1868SOL    HW1 6503   5.135   3.575   6.083
 1868SOL    HW2 6504   5.264   3.671   6.111
 1869SOL     OW 6505   5.150   0.669   5.306
 1869SOL    HW1 6506   5.235   0.617   5.313
 1869SOL    HW2 6507   5.170   0.767   5.301
 1870SOL     OW 6508   5.963   0.061   6.218
 1870SOL    HW1 6509   5.992   0.077   6.124
 1870SOL    HW2 6510   5.939   6.988   6.230
 1871SOL     OW 6511   0.911   5.943   0.234
 1871SOL    HW1 6512   0.908   5.844   0.218
 1871SOL    HW2 6513   0.818   5.978   0.246
 1872SOL     OW 6514   2.661   3.013   1.201
 1872SOL    HW1 6515   2.627   3.054   1.286
 1872SOL    HW2 6516   2.647   3.077   1.125
 1873SOL     OW 6517   6.142   1.091   1.696
 1873SOL    HW1 6518   6.113   1.130   1.608
 1873SOL    HW2 6519   6.147   0.991   1.687
 1874SOL     OW 6520   1.453   5.991   6.671
 1874SOL    HW1 6521   1.449   5.971   6.573
 1874SOL    HW2 6522   1.381   5.940   6.718
 1875SOL     OW 6523   0.210   6.385   2.233
 1875SOL    HW1 6524   0.179   6.327   2.308
 1875SOL    HW2 6525   0.241   6.328   2.157
 1876SOL     OW 6526   0.682   4.427   0.544
 1876SOL    HW1 6527   0.640   4.445   0.455
 1876SOL    HW2 6528   0.636   4.349   0.587
 1877SOL     OW 6529   1.288   1.689   2.605
 1877SOL    HW1 6530   1.313   1.781   2.634
 1877SOL    HW2 6531   1.331   1.669   2.517
 1878SOL     OW 6532   4.965   3.639   4.448
 1878SOL    HW1 6533   5.036   3.584   4.491
 1878SOL    HW2 6534   4.927   3.702   4.516
 1879SOL     OW 6535   4.158   6.259   5.057
 1879SOL    HW1 6536   4.079   6.276   5.116
 1879SOL    HW2 6537   4.216   6.341   5.053
 1880SOL     OW 6538   0.956   2.287   4.190
 1880SOL    HW1 6539   1.055   2.299   4.194
 1880SOL    HW2 6540   0.932   2.234   4.109
 1881SOL     OW 6541   1.809   1.015   3.897
 1881SOL    HW1 6542   1.832   0.949   3.825
 1881SOL    HW2 6543   1.892   1.058   3.932
 1882SOL     OW 6544   2.902   5.578   0.618
 1882SOL    HW1 6545   2.811   5.609   0.590
 1882SOL    HW2 6546   2.927   5.496   0.565
 1883SOL     OW 6547   2.490   2.443   2.748
 1883SOL    HW1 6548   2.565   2.424   2.684
 1883SOL    HW2 6549   2.446   2.529   2.722
 1884SOL     OW 6550   4.990   0.683   0.473
 1884SOL    HW1 6551   4.989   0.710   0.377
 1884SOL    HW2 6552   5.005   0.584   0.480
 1885SOL     OW 6553   0.263   1.318   0.736
 1885SOL    HW1 6554   0.219   1.286   0.652
 1885SOL    HW2 6555   0.315   1.243   0.776
 1886SOL     OW 6556   3.839   2.591   5.690
 1886SOL    HW1 6557   3.749   2.573   5.730
 1886SOL    HW2 6558   3.909   2.541   5.742
 1887SOL     OW 6559   0.634   6.045   5.037
 1887SOL    HW1 6560   0.550   6.045   5.092
 1887SOL    HW2 6561   0.703   5.988   5.081
 1888SOL     OW 6562   1.972   2.058   6.099
 1888SOL    HW1 6563   1.983   1.960   6.111
 1888SOL    HW2 6564   1.899   2.091   6.158
 1889SOL     OW 6565   2.858   3.307   0.141
 1889SOL    HW1 6566   2.784   3.345   0.084
 1889SOL    HW2 6567   2.818   3.264   0.222
 1890SOL     OW 6568   5.852   5.943   6.348
 1890SOL    HW1 6569   5.915   6.020   6.358
 1890SOL    HW2 6570   5.775   5.970   6.289
 1891SOL     OW 6571   5.198   3.484   6.881
 1891SOL    HW1 6572   5.248   3.438   6.808
 1891SOL    HW2 6573   5.255   3.556   6.921
 1892SOL     OW 6574   4.045   0.090   3.024
 1892SOL    HW1 6575   3.959   0.051   2.990
 1892SOL    HW2 6576   4.032   0.189   3.038
 1893SOL     OW 6577   3.167   0.884   6.168
 1893SOL    HW1 6578   3.216   0.805   6.206
 1893SOL    HW2 6579   3.233   0.948   6.129
 1894SOL     OW 6580   4.999   3.382   1.364
 1894SOL    HW1 6581   5.048   3.447   1.306
 1894SOL    HW2 6582   5.060   3.306   1.388
 1895SOL     OW 6583   4.935   6.120   3.825
 1895SOL    HW1 6584   4.914   6.027   3.793
 1895SOL    HW2 6585   4.882   6.138   3.908
 1896SOL     OW 6586   6.136   2.451   5.153
 1896SOL    HW1 6587   6.134   2.391   5.073
 1896SOL    HW2 6588   6.045   2.488   5.170
 1897SOL     OW 6589   5.293   5.191   2.912
 1897SOL    HW1 6590   5.339   5.261   2.967
 1897SOL    HW2 6591   5.199   5.178   2.944
 1898SOL     OW 6592   5.561   6.863   0.004
 1898SOL    HW1 6593   5.594   6.875   6.933
 1898SOL    HW2 6594   5.636   6.835   0.063
 1899SOL     OW 6595   1.669   2.690   3.869
 1899SOL    HW1 6596   1.722   2.704   3.785
 1899SOL    HW2 6597   1.730   2.662   3.943
 1900SOL     OW 6598   2.205   5.809   1.934
 1900SOL    HW1 6599   2.266   5.780   1.860
 1900SOL    HW2 6600   2.111   5.809   1.901
 1901SOL     OW 6601   1.154   0.784   5.562
 1901SOL    HW1 6602   1.213   0.720   5.611
 1901SOL    HW2 6603   1.210   0.853   5.516
 1902SOL     OW 6604   1.123   2.657   4.870
 1902SOL    HW1 6605   1.203   2.670   4.929
 1902SOL    HW2 6606   1.149   2.672   4.774
 1903SOL     OW 6607   6.509   4.831   4.119
 1903SOL    HW1 6608   6.503   4.811   4.021
 1903SOL    HW2 6609   6.547   4.752   4.166
 1904SOL     OW 6610   0.442   0.187   4.495
 1904SOL    HW1 6611   0.377   0.216   4.424
 1904SOL    HW2 6612   0.494   0.266   4.526
 1905SOL     OW 6613   6.502   3.092   4.359
 1905SOL    HW1 6614   6.500   3.018   4.427
 1905SOL    HW2 6615   6.592   3.136   4.362
 1906SOL     OW 6616   2.751   6.615   5.700
 1906SOL    HW1 6617   2.827   6.652   5.752
 1906SOL    HW2 6618   2.742   6.517   5.719
 1907SOL     OW 6619   4.144   6.599   3.919
 1907SOL    HW1 6620   4.199   6.683   3.915
 1907SOL    HW2 6621   4.064   6.609   3.861
 1908SOL     OW 6622   5.096   5.772   0.798
 1908SOL    HW1 6623   5.136   5.842   0.739
 1908SOL    HW2 6624   5.061   5.815   0.881
 1909SOL     OW 6625   4.869   5.881   3.704
 1909SOL    HW1 6626   4.775   5.888   3.670
 1909SOL    HW2 6627   4.901   5.787   3.692
 1910SOL     OW 6628   4.870   2.915   4.766
 1910SOL    HW1 6629   4.964   2.892   4.744
 1910SOL    HW2 6630   4.816   2.831   4.775
 1911SOL     OW 6631   0.127   3.273   5.412
 1911SOL    HW1 6632   0.181   3.345   5.456
 1911SOL    HW2 6633   0.080   3.309   5.332
 1912SOL     OW 6634   2.771   6.020   3.239
 1912SOL    HW1 6635   2.843   5.989   3.176
 1912SOL    HW2 6636   2.809   6.029   3.331
 1913SOL     OW 6637   1.793   4.261   5.486
 1913SOL    HW1 6638   1.878   4.286   5.531
 1913SOL    HW2 6639   1.812   4.201   5.409
 1914SOL     OW 6640   4.209   1.516   5.315
 1914SOL    HW1 6641   4.218   1.425   5.276
 1914SOL    HW2 6642   4.174   1.509   5.409
 1915SOL     OW 6643   3.063   0.329   5.203
 1915SOL    HW1 6644   3.080   0.268   5.280
 1915SOL    HW2 6645   2.971   0.367   5.211
 1916SOL     OW 6646   3.925   6.336   2.837
 1916SOL    HW1 6647   3.962   6.408   2.895
 1916SOL    HW2 6648   3.900   6.374   2.748
 1917SOL     OW 6649   2.927   3.642   4.753
 1917SOL    HW1 6650   2.890   3.631   4.661
 1917SOL    HW2 6651   2.921   3.738   4.781
 1918SOL     OW 6652   6.812   6.613   5.637
 1918SOL    HW1 6653   6.721   6.653   5.623
 1918SOL    HW2 6654   6.813   6.519   5.604
 1919SOL     OW 6655   6.300   0.427   2.525
 1919SOL    HW1 6656   6.393   0.407   2.554
 1919SOL    HW2 6657   6.288   0.527   2.519
 1920SOL     OW 6658   6.524   5.853   4.841
 1920SOL    HW1 6659   6.457   5.778   4.843
 1920SOL    HW2 6660   6.605   5.828   4.893
 1921SOL     OW 6661   1.986   6.884   6.720
 1921SOL    HW1 6662   2.021   6.831   6.642
 1921SOL    HW2 6663   1.951   6.972   6.688
 1922SOL     OW 6664   4.443   3.979   0.779
 1922SOL    HW1 6665   4.477   3.890   0.808
 1922SOL    HW2 6666   4.373   4.010   0.844
 1923SOL     OW 6667   1.647   2.846   0.830
 1923SOL    HW1 6668   1.566   2.842   0.772
 1923SOL    HW2 6669   1.663   2.756   0.871
 1924SOL     OW 6670   0.701   4.391   0.960
 1924SOL    HW1 6671   0.747   4.442   0.888
 1924SOL    HW2 6672   0.767   4.365   1.031
 1925SOL     OW 6673   3.694   4.596   0.513
 1925SOL    HW1 6674   3.622   4.537   0.477
 1925SOL    HW2 6675   3.692   4.593   0.613
 1926SOL     OW 6676   0.521   0.546   3.528
 1926SOL    HW1 6677   0.557   0.512   3.614
 1926SOL    HW2 6678   0.553   0.487   3.453
 1927SOL     OW 6679   4.732   3.239   1.177
 1927SOL    HW1 6680   4.785   3.189   1.246
 1927SOL    HW2 6681   4.681   3.313   1.222
 1928SOL     OW 6682   0.003   6.074   4.825
 1928SOL    HW1 6683   0.001   5.991   4.769
 1928SOL    HW2 6684   6.946   6.075   4.886
 1929SOL     OW 6685   1.514   6.220   3.354
 1929SOL    HW1 6686   1.563   6.242   3.438
 1929SOL    HW2 6687   1.571   6.246   3.275
 1930SOL     OW 6688   6.791   4.858   6.584
 1930SOL    HW1 6689   6.752   4.879   6.674
 1930SOL    HW2 6690   6.827   4.942   6.543
 1931SOL     OW 6691   0.418   2.142   4.842
 1931SOL    HW1 6692   0.486   2.113   4.775
 1931SOL    HW2 6693   0.397   2.239   4.829
 1932SOL     OW 6694   5.886   3.169   2.692
 1932SOL    HW1 6695   5.951   3.137   2.622
 1932SOL    HW2 6696   5.933   3.176   2.780
 1933SOL     OW 6697   2.704   4.840   0.604
 1933SOL    HW1 6698   2.710   4.892   0.690
 1933SOL    HW2 6699   2.622   4.782   0.607
 1934SOL     OW 6700   6.902   6.569   3.343
 1934SOL    HW1 6701   6.896   6.480   3.299
 1934SOL    HW2 6702   6.858   6.638   3.285
 1935SOL     OW 6703   1.894   0.840   2.930
 1935SOL    HW1 6704   1.858   0.931   2.912
 1935SOL    HW2 6705   1.993   0.840   2.918
 1936SOL     OW 6706   6.410   5.867   5.300
 1936SOL    HW1 6707   6.422   5.965   5.290
 1936SOL    HW2 6708   6.354   5.832   5.225
 1937SOL     OW 6709   3.934   0.993   3.103
 1937SOL    HW1 6710   4.001   1.059   3.137
 1937SOL    HW2 6711   3.863   1.041   3.052
 1938SOL     OW 6712   5.411   1.128   4.582
 1938SOL    HW1 6713   5.507   1.115   4.557
 1938SOL    HW2 6714   5.387   1.225   4.573
 1939SOL     OW 6715   2.603   0.908   4.038
 1939SOL    HW1 6716   2.574   1.000   4.062
 1939SOL    HW2 6717   2.689   0.886   4.085
 1940SOL     OW 6718   6.110   5.137   6.227
 1940SOL    HW1 6719   6.196   5.113   6.181
 1940SOL    HW2 6720   6.089   5.068   6.297
 1941SOL     OW 6721   5.321   5.176   2.487
 1941SOL    HW1 6722   5.412   5.217   2.500
 1941SOL    HW2 6723   5.313   5.095   2.545
 1942SOL     OW 6724   6.613   4.275   3.330
 1942SOL    HW1 6725   6.626   4.176   3.325
 1942SOL    HW2 6726   6.626   4.315   3.239
 1943SOL     OW 6727   2.814   5.461   3.282
 1943SOL    HW1 6728   2.826   5.401   3.203
 1943SOL    HW2 6729   2.888   5.528   3.285
 1944SOL     OW 6730   0.020   0.030   2.150
 1944SOL    HW1 6731   0.110   0.055   2.183
 1944SOL    HW2 6732   6.973   0.084   2.198
 1945SOL     OW 6733   3.224   4.942   3.573
 1945SOL    HW1 6734   3.285   5.020   3.583
 1945SOL    HW2 6735   3.162   4.938   3.652
 1946SOL     OW 6736   1.482   6.280   6.974
 1946SOL    HW1 6737   1.385   6.278   6.999
 1946SOL    HW2 6738   1.502   6.367   6.928
 1947SOL     OW 6739   4.803   0.190   3.822
 1947SOL    HW1 6740   4.837   0.219   3.911
 1947SOL    HW2 6741   4.708   0.160   3.831
 1948SOL     OW 6742   6.607   3.673   5.193
 1948SOL    HW1 6743   6.577   3.751   5.248
 1948SOL    HW2 6744   6.707   3.673   5.186
 1949SOL     OW 6745   5.057   4.007   6.584
 1949SOL    HW1 6746   5.083   3.910   6.585
 1949SOL    HW2 6747   4.986   4.022   6.516
 1950SOL     OW 6748   3.221   5.440   1.289
 1950SOL    HW1 6749   3.179   5.526   1.259
 1950SOL    HW2 6750   3.319   5.444   1.272
 1951SOL     OW 6751   6.751   2.994   0.323
 1951SOL    HW1 6752   6.748   2.949   0.412
 1951SOL    HW2 6753   6.670   2.968   0.270
 1952SOL     OW 6754   3.662   3.070   4.875
 1952SOL    HW1 6755   3.752   3.100   4.845
 1952SOL    HW2 6756   3.631   2.994   4.818
 1953SOL     OW 6757   0.350   2.708   4.405
 1953SOL    HW1 6758   0.419   2.756   4.351
 1953SOL    HW2 6759   0.359   2.735   4.501
 1954SOL     OW 6760   2.879   1.985   3.686
 1954SOL    HW1 6761   2.893   1.938   3.773
 1954SOL    HW2 6762   2.823   1.927   3.626
 1955SOL     OW 6763   6.365   5.076   2.023
 1955SOL    HW1 6764   6.461   5.090   2.047
 1955SOL    HW2 6765   6.359   5.043   1.929
 1956SOL     OW 6766   5.464   5.827   2.299
 1956SOL    HW1 6767   5.547   5.771   2.306
 1956SOL    HW2 6768   5.482   5.918   2.338
 1957SOL     OW 6769   0.818   6.593   5.260
 1957SOL    HW1 6770   0.721   6.617   5.263
 1957SOL    HW2 6771   0.866   6.639   5.335
 1958SOL     OW 6772   4.689   3.198   5.689
 1958SOL    HW1 6773   4.704   3.222   5.593
 1958SOL    HW2 6774   4.607   3.141   5.696
 1959SOL     OW 6775   2.284   1.611   0.398
 1959SOL    HW1 6776   2.211   1.672   0.428
 1959SOL    HW2 6777   2.248   1.543   0.334
 1960SOL     OW 6778   5.936   6.182   2.484
 1960SOL    HW1 6779   5.979   6.145   2.567
 1960SOL    HW2 6780   6.005   6.190   2.412
 1961SOL     OW 6781   6.110   4.784   5.241
 1961SOL    HW1 6782   6.178   4.715   5.215
 1961SOL    HW2 6783   6.066   4.820   5.159
 1962SOL     OW 6784   6.866   0.067   3.745
 1962SOL    HW1 6785   6.866   0.140   3.678
 1962SOL    HW2 6786   6.950   0.071   3.799
 1963SOL     OW 6787   2.654   0.382   3.409
 1963SOL    HW1 6788   2.644   0.361   3.506
 1963SOL    HW2 6789   2.732   0.443   3.396
 1964SOL     OW 6790   5.883   3.837   1.920
 1964SOL    HW1 6791   5.802   3.781   1.902
 1964SOL    HW2 6792   5.923   3.812   2.008
 1965SOL     OW 6793   2.464   6.265   3.829
 1965SOL    HW1 6794   2.366   6.265   3.809
 1965SOL    HW2 6795   2.479   6.233   3.922
 1966SOL     OW 6796   6.300   6.653   6.654
 1966SOL    HW1 6797   6.382   6.709   6.664
 1966SOL    HW2 6798   6.219   6.712   6.650
 1967SOL     OW 6799   5.083   3.437   4.586
 1967SOL    HW1 6800   5.030   3.449   4.670
 1967SOL    HW2 6801   5.077   3.341   4.556
 1968SOL     OW 6802   3.997   5.583   4.770
 1968SOL    HW1 6803   3.984   5.671   4.815
 1968SOL    HW2 6804   3.912   5.530   4.774
 1969SOL     OW 6805   6.961   1.770   1.600
 1969SOL    HW1 6806   6.994   1.704   1.668
 1969SOL    HW2 6807   6.866   1.793   1.619
 1970SOL     OW 6808   1.579   0.121   3.850
 1970SOL    HW1 6809   1.490   0.118   3.805
 1970SOL    HW2 6810   1.575   0.188   3.925
 1971SOL     OW 6811   0.207   1.147   5.909
 1971SOL    HW1 6812   0.278   1.104   5.964
 1971SOL    HW2 6813   0.225   1.245   5.902
 1972SOL     OW 6814   1.706   6.514   3.496
 1972SOL    HW1 6815   1.725   6.520   3.398
 1972SOL    HW2 6816   1.704   6.419   3.524
 1973SOL     OW 6817   2.544   2.718   6.858
 1973SOL    HW1 6818   2.587   2.756   6.776
 1973SOL    HW2 6819   2.445   2.714   6.845
 1974SOL     OW 6820   5.594   0.020   4.174
 1974SOL    HW1 6821   5.524   7.003   4.234
 1974SOL    HW2 6822   5.577   0.118   4.162
 1975SOL     OW 6823   2.644   0.301   3.658
 1975SOL    HW1 6824   2.705   0.239   3.706
 1975SOL    HW2 6825   2.561   0.315   3.712
 1976SOL     OW 6826   6.858   4.395   6.606
 1976SOL    HW1 6827   6.793   4.433   6.672
 1976SOL    HW2 6828   6.906   4.317   6.647
 1977SOL     OW 6829   2.733   2.462   5.680
 1977SOL    HW1 6830   2.810   2.427   5.732
 1977SOL    HW2 6831   2.701   2.547   5.721
 1978SOL     OW 6832   6.592   2.322   5.909
 1978SOL    HW1 6833   6.591   2.353   6.004
 1978SOL    HW2 6834   6.569   2.225   5.906
 1979SOL     OW 6835   6.000   4.398   2.645
 1979SOL    HW1 6836   5.973   4.325   2.582
 1979SOL    HW2 6837   6.055   4.359   2.719
 1980SOL     OW 6838   3.067   1.086   1.643
 1980SOL    HW1 6839   3.071   1.026   1.723
 1980SOL    HW2 6840   2.997   1.052   1.580
 1981SOL     OW 6841   4.775   3.442   1.809
 1981SOL    HW1 6842   4.832   3.376   1.856
 1981SOL    HW2 6843   4.814   3.534   1.820
 1982SOL     OW 6844   6.550   6.707   5.574
 1982SOL    HW1 6845   6.524   6.704   5.478
 1982SOL    HW2 6846   6.487   6.649   5.627
 1983SOL     OW 6847   0.619   4.501   2.153
 1983SOL    HW1 6848   0.674   4.424   2.121
 1983SOL    HW2 6849   0.670   4.554   2.220
 1984SOL     OW 6850   4.299   0.515   5.367
 1984SOL    HW1 6851   4.250   0.540   5.450
 1984SOL    HW2 6852   4.397   0.512   5.385
 1985SOL     OW 6853   2.176   6.823   1.596
 1985SOL    HW1 6854   2.252   6.762   1.574
 1985SOL    HW2 6855   2.204   6.888   1.666
 1986SOL     OW 6856   0.263   1.954   0.048
 1986SOL    HW1 6857   0.329   2.024   0.076
 1986SOL    HW2 6858   0.312   1.871   0.021
 1987SOL     OW 6859   2.762   4.175   0.461
 1987SOL    HW1 6860   2.789   4.108   0.531
 1987SOL    HW2 6861   2.822   4.165   0.381
 1988SOL     OW 6862   4.775   3.497   0.548
 1988SOL    HW1 6863   4.739   3.464   0.636
 1988SOL    HW2 6864   4.733   3.585   0.526
 1989SOL     OW 6865   2.312   1.208   4.356
 1989SOL    HW1 6866   2.306   1.298   4.313
 1989SOL    HW2 6867   2.369   1.148   4.301
 1990SOL     OW 6868   2.009   1.285   2.577
 1990SOL    HW1 6869   1.966   1.197   2.597
 1990SOL    HW2 6870   2.104   1.271   2.551
 1991SOL     OW 6871   5.000   5.679   3.414
 1991SOL    HW1 6872   4.921   5.635   3.370
 1991SOL    HW2 6873   5.056   5.724   3.345
 1992SOL     OW 6874   2.415   6.251   5.194
 1992SOL    HW1 6875   2.459   6.297   5.272
 1992SOL    HW2 6876   2.431   6.153   5.200
 1993SOL     OW 6877   3.401   2.992   4.073
 1993SOL    HW1 6878   3.442   2.972   3.984
 1993SOL    HW2 6879   3.309   3.030   4.060
 1994SOL     OW 6880   6.097   2.669   1.985
 1994SOL    HW1 6881   6.042   2.687   1.903
 1994SOL    HW2 6882   6.075   2.578   2.020
 1995SOL     OW 6883   4.119   2.263   1.369
 1995SOL    HW1 6884   4.145   2.210   1.288
 1995SOL    HW2 6885   4.071   2.345   1.341
 1996SOL     OW 6886   2.993   3.919   5.380
 1996SOL    HW1 6887   3.057   3.942   5.307
 1996SOL    HW2 6888   2.900   3.941   5.351
 1997SOL     OW 6889   5.677   0.170   3.883
 1997SOL    HW1 6890   5.757   0.231   3.882
 1997SOL    HW2 6891   5.703   0.080   3.917
 1998SOL     OW 6892   3.124   4.824   5.266
 1998SOL    HW1 6893   3.146   4.834   5.169
 1998SOL    HW2 6894   3.089   4.733   5.284
 1999SOL     OW 6895   2.318   0.699   1.746
 1999SOL    HW1 6896   2.401   0.646   1.733
 1999SOL    HW2 6897   2.287   0.735   1.658
 2000SOL     OW 6898   3.531   1.463   4.544
 2000SOL    HW1 6899   3.616   1.453   4.596
 2000SOL    HW2 6900   3.457   1.419   4.595
 2001SOL     OW 6901   2.138   3.676   7.001
 2001SOL    HW1 6902   2.196   3.626   6.937
 2001SOL    HW2 6903   2.195   3.739   0.032
 2002SOL     OW 6904   1.255   5.578   5.519
 2002SOL    HW1 6905   1.275   5.481   5.503
 2002SOL    HW2 6906   1.240   5.624   5.432
 2003SOL     OW 6907   6.230   4.514   2.931
 2003SOL    HW1 6908   6.164   4.589   2.927
 2003SOL    HW2 6909   6.310   4.537   2.875
 2004SOL     OW 6910   3.340   0.093   6.520
 2004SOL    HW1 6911   3.303   0.160   6.456
 2004SOL    HW2 6912   3.403   0.138   6.583
 2005SOL     OW 6913   3.200   6.398   5.000
 2005SOL    HW1 6914   3.189   6.490   4.962
 2005SOL    HW2 6915   3.176   6.330   4.931
 2006SOL     OW 6916   4.737   6.310   3.398
 2006SOL    HW1 6917   4.814   6.314   3.461
 2006SOL    HW2 6918   4.652   6.303   3.449
 2007SOL     OW 6919   6.266   5.359   0.027
 2007SOL    HW1 6920   6.283   5.310   0.113
 2007SOL    HW2 6921   6.336   5.430   0.016
 2008SOL     OW 6922   0.074   6.533   4.260
 2008SOL    HW1 6923   0.020   6.510   4.341
 2008SOL    HW2 6924   0.057   6.466   4.188
 2009SOL     OW 6925   0.725   0.427   0.336
 2009SOL    HW1 6926   0.784   0.402   0.413
 2009SOL    HW2 6927   0.664   0.502   0.364
 2010SOL     OW 6928   1.353   0.236   0.913
 2010SOL    HW1 6929   1.311   0.303   0.974
 2010SOL    HW2 6930   1.384   0.157   0.967
 2011SOL     OW 6931   7.016   2.595   4.826
 2011SOL    HW1 6932   0.027   2.501   4.828
 2011SOL    HW2 6933   0.063   2.655   4.786
 2012SOL     OW 6934   0.117   3.327   0.906
 2012SOL    HW1 6935   0.156   3.399   0.848
 2012SOL    HW2 6936   0.190   3.262   0.930
 2013SOL     OW 6937   4.478   1.798   2.665
 2013SOL    HW1 6938   4.406   1.859   2.633
 2013SOL    HW2 6939   4.563   1.849   2.676
 2014SOL     OW 6940   2.184   5.699   3.402
 2014SOL    HW1 6941   2.280   5.691   3.373
 2014SOL    HW2 6942   2.139   5.768   3.346
 2015SOL     OW 6943   2.975   6.434   0.068
 2015SOL    HW1 6944   3.057   6.487   0.089
 2015SOL    HW2 6945   2.900   6.464   0.128
 2016SOL     OW 6946   6.280   5.177   3.516
 2016SOL    HW1 6947   6.221   5.170   3.597
 2016SOL    HW2 6948   6.247   5.116   3.445
 2017SOL     OW 6949   2.225   5.112   2.124
 2017SOL    HW1 6950   2.180   5.023   2.134
 2017SOL    HW2 6951   2.309   5.101   2.072
 2018SOL     OW 6952   0.282   4.244   5.981
 2018SOL    HW1 6953   0.333   4.184   6.044
 2018SOL    HW2 6954   0.344   4.281   5.912
 2019SOL     OW 6955   5.612   1.754   2.949
 2019SOL    HW1 6956   5.546   1.737   2.876
 2019SOL    HW2 6957   5.650   1.846   2.939
 2020SOL     OW 6958   1.447   5.522   3.821
 2020SOL    HW1 6959   1.411   5.612   3.847
 2020SOL    HW2 6960   1.495   5.482   3.900
 2021SOL     OW 6961   1.552   6.684   1.941
 2021SOL    HW1 6962   1.507   6.707   2.028
 2021SOL    HW2 6963   1.650   6.672   1.958
 2022SOL     OW 6964   3.128   4.930   1.064
 2022SOL    HW1 6965   3.123   4.967   1.157
 2022SOL    HW2 6966   3.037   4.904   1.033
 2023SOL     OW 6967   6.395   1.798   6.450
 2023SOL    HW1 6968   6.320   1.829   6.391
 2023SOL    HW2 6969   6.482   1.814   6.405
 2024SOL     OW 6970   5.946   0.404   2.642
 2024SOL    HW1 6971   6.019   0.376   2.579
 2024SOL    HW2 6972   5.983   0.469   2.708
 2025SOL     OW 6973   6.202   0.665   0.790
 2025SOL    HW1 6974   6.299   0.641   0.787
 2025SOL    HW2 6975   6.160   0.650   0.701
 2026SOL     OW 6976   1.573   2.163   5.242
 2026SOL    HW1 6977   1.540   2.242   5.293
 2026SOL    HW2 6978   1.539   2.168   5.148
 2027SOL     OW 6979   0.982   1.517   2.227
 2027SOL    HW1 6980   0.943   1.429   2.203
 2027SOL    HW2 6981   0.908   1.583   2.245
 2028SOL     OW 6982   3.598   4.033   5.754
 2028SOL    HW1 6983   3.544   4.052   5.672
 2028SOL    HW2 6984   3.695   4.032   5.730
 2029SOL     OW 6985   1.803   0.542   0.305
 2029SOL    HW1 6986   1.878   0.521   0.242
 2029SOL    HW2 6987   1.719   0.502   0.270
 2030SOL     OW 6988   1.557   1.962   2.954
 2030SOL    HW1 6989   1.608   1.955   2.868
 2030SOL    HW2 6990   1.573   2.052   2.995
 2031SOL     OW 6991   5.085   6.771   2.731
 2031SOL    HW1 6992   5.157   6.779   2.662
 2031SOL    HW2 6993   5.037   6.858   2.740
 2032SOL     OW 6994   5.680   6.516   1.297
 2032SOL    HW1 6995   5.701   6.613   1.308
 2032SOL    HW2 6996   5.625   6.484   1.374
 2033SOL     OW 6997   6.760   5.659   6.710
 2033SOL    HW1 6998   6.721   5.567   6.719
 2033SOL    HW2 6999   6.687   5.727   6.718
 2034SOL     OW 7000   2.561   6.836   3.247
 2034SOL    HW1 7001   2.527   6.862   3.337
 2034SOL    HW2 7002   2.596   6.918   3.200
 2035SOL     OW 7003   0.603   3.013   0.895
 2035SOL    HW1 7004   0.526   3.054   0.847
 2035SOL    HW2 7005   0.569   2.945   0.960
 2036SOL     OW 7006   0.952   4.450   0.467
 2036SOL    HW1 7007   0.969   4.460   0.369
 2036SOL    HW2 7008   0.853   4.449   0.484
 2037SOL     OW 7009   0.217   1.862   6.023
 2037SOL    HW1 7010   0.265   1.775   6.032
 2037SOL    HW2 7011   0.221   1.911   6.110
 2038SOL     OW 7012   0.944   0.110   5.487
 2038SOL    HW1 7013   0.966   0.030   5.431
 2038SOL    HW2 7014   1.026   0.137   5.539
 2039SOL     OW 7015   1.185   5.179   2.256
 2039SOL    HW1 7016   1.229   5.116   2.192
 2039SOL    HW2 7017   1.250   5.207   2.326
 2040SOL     OW 7018   3.197   3.594   4.306
 2040SOL    HW1 7019   3.153   3.656   4.372
 2040SOL    HW2 7020   3.156   3.607   4.216
 2041SOL     OW 7021   6.004   3.603   0.338
 2041SOL    HW1 7022   5.932   3.534   0.341
 2041SOL    HW2 7023   6.007   3.643   0.247
 2042SOL     OW 7024   3.560   5.835   0.622
 2042SOL    HW1 7025   3.490   5.842   0.693
 2042SOL    HW2 7026   3.614   5.753   0.637
 2043SOL     OW 7027   4.480   4.543   2.654
 2043SOL    HW1 7028   4.445   4.450   2.666
 2043SOL    HW2 7029   4.439   4.604   2.722
 2044SOL     OW 7030   6.162   0.865   2.022
 2044SOL    HW1 7031   6.235   0.873   1.955
 2044SOL    HW2 7032   6.091   0.932   2.003
 2045SOL     OW 7033   2.505   5.637   6.204
 2045SOL    HW1 7034   2.525   5.617   6.300
 2045SOL    HW2 7035   2.459   5.559   6.163
 2046SOL     OW 7036   6.248   0.122   5.159
 2046SOL    HW1 7037   6.323   0.062   5.189
 2046SOL    HW2 7038   6.256   0.211   5.204
 2047SOL     OW 7039   5.475   2.409   0.404
 2047SOL    HW1 7040   5.487   2.502   0.370
 2047SOL    HW2 7041   5.384   2.376   0.380
 2048SOL     OW 7042   4.356   6.865   5.312
 2048SOL    HW1 7043   4.415   6.820   5.245
 2048SOL    HW2 7044   4.303   6.936   5.266
 2049SOL     OW 7045   4.654   5.929   0.621
 2049SOL    HW1 7046   4.752   5.945   0.632
 2049SOL    HW2 7047   4.610   5.932   0.711
 2050SOL     OW 7048   5.486   1.015   4.264
 2050SOL    HW1 7049   5.545   0.995   4.186
 2050SOL    HW2 7050   5.543   1.032   4.345
 2051SOL     OW 7051   2.689   5.190   0.717
 2051SOL    HW1 7052   2.668   5.170   0.621
 2051SOL    HW2 7053   2.688   5.289   0.732
 2052SOL     OW 7054   1.335   2.572   0.913
 2052SOL    HW1 7055   1.273   2.537   0.842
 2052SOL    HW2 7056   1.308   2.535   1.001
 2053SOL     OW 7057   5.176   1.208   0.121
 2053SOL    HW1 7058   5.206   1.154   0.200
 2053SOL    HW2 7059   5.153   1.147   0.045
 2054SOL     OW 7060   0.060   3.673   1.505
 2054SOL    HW1 7061   0.097   3.732   1.576
 2054SOL    HW2 7062   0.022   3.590   1.547
 2055SOL     OW 7063   6.389   1.915   3.912
 2055SOL    HW1 7064   6.331   1.929   3.993
 2055SOL    HW2 7065   6.343   1.853   3.849
 2056SOL     OW 7066   1.072   0.238   2.069
 2056SOL    HW1 7067   1.040   0.237   2.164
 2056SOL    HW2 7068   1.107   0.147   2.045
 2057SOL     OW 7069   6.737   2.303   3.976
 2057SOL    HW1 7070   6.809   2.291   3.908
 2057SOL    HW2 7071   6.648   2.287   3.934
 2058SOL     OW 7072   0.278   1.566   1.946
 2058SOL    HW1 7073   0.313   1.476   1.922
 2058SOL    HW2 7074   0.265   1.572   2.045
 2059SOL     OW 7075   1.514   0.967   6.774
 2059SOL    HW1 7076   1.564   1.015   6.703
 2059SOL    HW2 7077   1.577   0.910   6.827
 2060SOL     OW 7078   0.424   5.419   2.113
 2060SOL    HW1 7079   0.420   5.499   2.173
 2060SOL    HW2 7080   0.386   5.443   2.024
 2061SOL     OW 7081   0.797   1.386   1.462
 2061SOL    HW1 7082   0.833   1.307   1.413
 2061SOL    HW2 7083   0.854   1.466   1.443
 2062SOL     OW 7084   4.167   0.289   3.303
 2062SOL    HW1 7085   4.260   0.319   3.328
 2062SOL    HW2 7086   4.141   0.331   3.216
 2063SOL     OW 7087   2.859   1.687   0.520
 2063SOL    HW1 7088   2.783   1.663   0.459
 2063SOL    HW2 7089   2.822   1.710   0.610
 2064SOL     OW 7090   0.914   2.301   0.223
 2064SOL    HW1 7091   0.882   2.370   0.158
 2064SOL    HW2 7092   0.912   2.339   0.316
 2065SOL     OW 7093   6.232   2.998   2.030
 2065SOL    HW1 7094   6.288   2.918   2.013
 2065SOL    HW2 7095   6.210   3.043   1.943
 2066SOL     OW 7096   1.699   6.772   3.207
 2066SOL    HW1 7097   1.743   6.690   3.244
 2066SOL    HW2 7098   1.696   6.843   3.278
 2067SOL     OW 7099   0.048   6.982   0.814
 2067SOL    HW1 7100   0.125   6.918   0.804
 2067SOL    HW2 7101   0.037   7.006   0.910
 2068SOL     OW 7102   1.862   1.288   5.348
 2068SOL    HW1 7103   1.939   1.320   5.401
 2068SOL    HW2 7104   1.894   1.258   5.258
 2069SOL     OW 7105   0.965   1.961   2.005
 2069SOL    HW1 7106   0.939   1.864   2.005
 2069SOL    HW2 7107   1.063   1.969   1.989
 2070SOL     OW 7108   1.007   1.674   2.736
 2070SOL    HW1 7109   0.957   1.600   2.690
 2070SOL    HW2 7110   1.087   1.698   2.681
 2071SOL     OW 7111   1.418   6.180   5.078
 2071SOL    HW1 7112   1.460   6.107   5.131
 2071SOL    HW2 7113   1.431   6.267   5.126
 2072SOL     OW 7114   4.855   4.650   2.418
 2072SOL    HW1 7115   4.926   4.607   2.473
 2072SOL    HW2 7116   4.897   4.704   2.345
 2073SOL     OW 7117   3.510   6.028   5.493
 2073SOL    HW1 7118   3.536   6.095   5.423
 2073SOL    HW2 7119   3.505   5.937   5.452
 2074SOL     OW 7120   6.384   2.395   1.782
 2074SOL    HW1 7121   6.293   2.359   1.804
 2074SOL    HW2 7122   6.453   2.332   1.816
 2075SOL     OW 7123   3.672   3.399   6.206
 2075SOL    HW1 7124   3.699   3.412   6.301
 2075SOL    HW2 7125   3.573   3.414   6.197
 2076SOL     OW 7126   4.722   0.701   0.842
 2076SOL    HW1 7127   4.758   0.727   0.753
 2076SOL    HW2 7128   4.775   0.745   0.915
 2077SOL     OW 7129   5.298   1.588   3.693
 2077SOL    HW1 7130   5.221   1.563   3.752
 2077SOL    HW2 7131   5.370   1.631   3.747
 2078SOL     OW 7132   4.416   5.872   4.908
 2078SOL    HW1 7133   4.332   5.878   4.853
 2078SOL    HW2 7134   4.445   5.964   4.934
 2079SOL     OW 7135   5.506   1.198   3.403
 2079SOL    HW1 7136   5.534   1.158   3.316
 2079SOL    HW2 7137   5.546   1.145   3.478
 2080SOL     OW 7138   3.039   2.193   4.378
 2080SOL    HW1 7139   3.101   2.177   4.301
 2080SOL    HW2 7140   3.092   2.224   4.457
 2081SOL     OW 7141   0.863   5.789   4.851
 2081SOL    HW1 7142   0.775   5.788   4.900
 2081SOL    HW2 7143   0.860   5.856   4.778
 2082SOL     OW 7144   5.042   0.671   2.259
 2082SOL    HW1 7145   5.033   0.572   2.275
 2082SOL    HW2 7146   5.099   0.711   2.331
 2083SOL     OW 7147   3.603   4.848   5.554
 2083SOL    HW1 7148   3.609   4.817   5.649
 2083SOL    HW2 7149   3.507   4.853   5.527
 2084SOL     OW 7150   6.915   3.007   2.782
 2084SOL    HW1 7151   6.842   3.023   2.849
 2084SOL    HW2 7152   7.000   2.985   2.829
 2085SOL     OW 7153   5.284   6.402   6.653
 2085SOL    HW1 7154   5.279   6.309   6.690
 2085SOL    HW2 7155   5.210   6.415   6.587
 2086SOL     OW 7156   3.118   4.940   0.428
 2086SOL    HW1 7157   3.139   4.996   0.508
 2086SOL    HW2 7158   3.019   4.938   0.414
 2087SOL     OW 7159   5.957   6.161   3.810
 2087SOL    HW1 7160   5.914   6.198   3.892
 2087SOL    HW2 7161   5.981   6.235   3.748
 2088SOL     OW 7162   2.435   0.172   0.739
 2088SOL    HW1 7163   2.355   0.212   0.785
 2088SOL    HW2 7164   2.442   0.209   0.647
 2089SOL     OW 7165   2.903   0.765   6.583
 2089SOL    HW1 7166   2.912   0.700   6.507
 2089SOL    HW2 7167   2.868   0.852   6.548
 2090SOL     OW 7168   3.797   3.052   3.488
 2090SOL    HW1 7169   3.699   3.067   3.480
 2090SOL    HW2 7170   3.821   3.031   3.583
 2091SOL     OW 7171   2.071   5.176   0.721
 2091SOL    HW1 7172   2.061   5.079   0.698
 2091SOL    HW2 7173   1.985   5.210   0.761
 2092SOL     OW 7174   6.664   6.378   0.709
 2092SOL    HW1 7175   6.718   6.350   0.788
 2092SOL    HW2 7176   6.569   6.396   0.737
 2093SOL     OW 7177   0.681   2.180   1.321
 2093SOL    HW1 7178   0.766   2.230   1.300
 2093SOL    HW2 7179   0.682   2.154   1.418
 2094SOL     OW 7180   5.925   0.731   1.898
 2094SOL    HW1 7181   5.939   0.656   1.834
 2094SOL    HW2 7182   6.011   0.750   1.946
 2095SOL     OW 7183   0.151   4.817   4.865
 2095SOL    HW1 7184   0.130   4.912   4.887
 2095SOL    HW2 7185   0.116   4.795   4.775
 2096SOL     OW 7186   4.885   3.737   3.367
 2096SOL    HW1 7187   4.904   3.643   3.338
 2096SOL    HW2 7188   4.818   3.778   3.304
 2097SOL     OW 7189   6.447   3.456   0.018
 2097SOL    HW1 7190   6.355   3.485   0.040
 2097SOL    HW2 7191   6.498   3.438   0.102
 2098SOL     OW 7192   4.604   0.658   4.130
 2098SOL    HW1 7193   4.688   0.669   4.076
 2098SOL    HW2 7194   4.550   0.583   4.092
 2099SOL     OW 7195   3.227   1.534   3.699
 2099SOL    HW1 7196   3.230   1.580   3.787
 2099SOL    HW2 7197   3.298   1.464   3.695
 2100SOL     OW 7198   3.752   4.086   6.714
 2100SOL    HW1 7199   3.705   4.088   6.802
 2100SOL    HW2 7200   3.686   4.073   6.641
 2101SOL     OW 7201   6.346   0.595   2.914
 2101SOL    HW1 7202   6.428   0.649   2.894
 2101SOL    HW2 7203   6.370   0.499   2.924
 2102SOL     OW 7204   0.455   5.083   1.863
 2102SOL    HW1 7205   0.475   4.990   1.832
 2102SOL    HW2 7206   0.523   5.110   1.931
 2103SOL     OW 7207   2.642   3.761   6.487
 2103SOL    HW1 7208   2.715   3.749   6.554
 2103SOL    HW2 7209   2.655   3.848   6.439
 2104SOL     OW 7210   1.428   3.555   5.097
 2104SOL    HW1 7211   1.383   3.509   5.173
 2104SOL    HW2 7212   1.523   3.575   5.122
 2105SOL     OW 7213   6.375   5.730   1.418
 2105SOL    HW1 7214   6.408   5.704   1.327
 2105SOL    HW2 7215   6.378   5.650   1.478
 2106SOL     OW 7216   5.177   5.794   6.539
 2106SOL    HW1 7217   5.140   5.887   6.536
 2106SOL    HW2 7218   5.116   5.736   6.595
 2107SOL     OW 7219   3.350   4.221   0.001
 2107SOL    HW1 7220   3.282   4.268   0.058
 2107SOL    HW2 7221   3.349   4.124   0.023
 2108SOL     OW 7222   5.572   4.747   5.450
 2108SOL    HW1 7223   5.540   4.667   5.399
 2108SOL    HW2 7224   5.609   4.814   5.386
 2109SOL     OW 7225   5.585   6.567   2.377
 2109SOL    HW1 7226   5.582   6.492   2.443
 2109SOL    HW2 7227   5.543   6.649   2.417
 2110SOL     OW 7228   1.876   4.668   5.168
 2110SOL    HW1 7229   1.880   4.600   5.095
 2110SOL    HW2 7230   1.969   4.701   5.188
 2111SOL     OW 7231   1.618   2.572   6.952
 2111SOL    HW1 7232   1.611   2.616   0.019
 2111SOL    HW2 7233   1.533   2.524   6.931
 2112SOL     OW 7234   5.053   3.277   0.674
 2112SOL    HW1 7235   5.099   3.238   0.594
 2112SOL    HW2 7236   5.115   3.274   0.752
 2113SOL     OW 7237   6.844   1.446   3.388
 2113SOL    HW1 7238   6.929   1.492   3.412
 2113SOL    HW2 7239   6.768   1.490   3.438
 2114SOL     OW 7240   1.998   3.761   6.641
 2114SOL    HW1 7241   1.980   3.814   6.558
 2114SOL    HW2 7242   1.910   3.734   6.682
 2115SOL     OW 7243   2.800   5.056   2.135
 2115SOL    HW1 7244   2.851   4.974   2.161
 2115SOL    HW2 7245   2.768   5.104   2.217
 2116SOL     OW 7246   0.059   4.108   3.164
 2116SOL    HW1 7247   0.130   4.039   3.177
 2116SOL    HW2 7248   0.037   4.116   3.067
 2117SOL     OW 7249   6.773   5.203   0.073
 2117SOL    HW1 7250   6.735   5.177   0.162
 2117SOL    HW2 7251   6.811   5.296   0.080
 2118SOL     OW 7252   6.830   4.097   2.277
 2118SOL    HW1 7253   6.887   4.167   2.234
 2118SOL    HW2 7254   6.877   4.062   2.359
 2119SOL     OW 7255   3.406   6.039   0.973
 2119SOL    HW1 7256   3.424   6.050   0.876
 2119SOL    HW2 7257   3.417   6.126   1.020
 2120SOL     OW 7258   7.003   5.458   2.114
 2120SOL    HW1 7259   0.054   5.390   2.109
 2120SOL    HW2 7260   6.990   5.499   2.024
 2121SOL     OW 7261   0.775   4.354   4.751
 2121SOL    HW1 7262   0.703   4.422   4.739
 2121SOL    HW2 7263   0.808   4.323   4.662
 2122SOL     OW 7264   4.674   4.505   5.344
 2122SOL    HW1 7265   4.651   4.470   5.253
 2122SOL    HW2 7266   4.659   4.434   5.412
 2123SOL     OW 7267   4.669   4.589   3.844
 2123SOL    HW1 7268   4.723   4.588   3.760
 2123SOL    HW2 7269   4.716   4.644   3.913
 2124SOL     OW 7270   3.084   1.591   1.440
 2124SOL    HW1 7271   3.091   1.665   1.507
 2124SOL    HW2 7272   3.024   1.519   1.476
 2125SOL     OW 7273   2.988   6.886   0.920
 2125SOL    HW1 7274   2.956   6.968   0.872
 2125SOL    HW2 7275   2.938   6.875   1.006
 2126SOL     OW 7276   2.601   0.930   2.109
 2126SOL    HW1 7277   2.558   0.965   2.026
 2126SOL    HW2 7278   2.674   0.867   2.086
 2127SOL     OW 7279   5.575   3.027   4.505
 2127SOL    HW1 7280   5.542   2.933   4.497
 2127SOL    HW2 7281   5.532   3.072   4.583
 2128SOL     OW 7282   0.723   4.355   4.207
 2128SOL    HW1 7283   0.794   4.409   4.163
 2128SOL    HW2 7284   0.633   4.384   4.174
 2129SOL     OW 7285   3.822   2.142   5.657
 2129SOL    HW1 7286   3.884   2.180   5.589
 2129SOL    HW2 7287   3.737   2.195   5.658
 2130SOL     OW 7288   4.285   6.723   3.643
 2130SOL    HW1 7289   4.250   6.762   3.728
 2130SOL    HW2 7290   4.336   6.793   3.592
 2131SOL     OW 7291   5.118   1.819   6.716
 2131SOL    HW1 7292   5.197   1.872   6.745
 2131SOL    HW2 7293   5.064   1.792   6.796
 2132SOL     OW 7294   2.294   3.395   0.544
 2132SOL    HW1 7295   2.372   3.331   0.546
 2132SOL    HW2 7296   2.255   3.396   0.452
 2133SOL     OW 7297   3.132   3.391   6.123
 2133SOL    HW1 7298   3.082   3.478   6.120
 2133SOL    HW2 7299   3.100   3.332   6.048
 2134SOL     OW 7300   0.967   6.974   0.900
 2134SOL    HW1 7301   0.952   6.974   0.802
 2134SOL    HW2 7302   0.884   6.944   0.947
 2135SOL     OW 7303   6.622   4.475   5.101
 2135SOL    HW1 7304   6.649   4.466   5.197
 2135SOL    HW2 7305   6.684   4.420   5.045
 2136SOL     OW 7306   0.703   4.874   1.223
 2136SOL    HW1 7307   0.724   4.887   1.320
 2136SOL    HW2 7308   0.733   4.783   1.195
 2137SOL     OW 7309   1.905   6.653   4.544
 2137SOL    HW1 7310   1.920   6.616   4.452
 2137SOL    HW2 7311   1.915   6.579   4.611
 2138SOL     OW 7312   5.167   1.259   1.786
 2138SOL    HW1 7313   5.247   1.317   1.801
 2138SOL    HW2 7314   5.087   1.302   1.827
 2139SOL     OW 7315   2.845   0.343   5.752
 2139SOL    HW1 7316   2.775   0.306   5.690
 2139SOL    HW2 7317   2.816   0.433   5.784
 2140SOL     OW 7318   2.794   1.656   4.416
 2140SOL    HW1 7319   2.826   1.730   4.357
 2140SOL    HW2 7320   2.847   1.656   4.501
 2141SOL     OW 7321   6.634   3.202   3.211
 2141SOL    HW1 7322   6.685   3.182   3.127
 2141SOL    HW2 7323   6.683   3.273   3.262
 2142SOL     OW 7324   1.655   2.494   2.938
 2142SOL    HW1 7325   1.585   2.537   2.995
 2142SOL    HW2 7326   1.653   2.534   2.847
 2143SOL     OW 7327   0.766   4.641   5.907
 2143SOL    HW1 7328   0.706   4.647   5.828
 2143SOL    HW2 7329   0.713   4.617   5.988
 2144SOL     OW 7330   6.545   4.552   3.466
 2144SOL    HW1 7331   6.568   4.459   3.437
 2144SOL    HW2 7332   6.483   4.593   3.399
 2145SOL     OW 7333   4.467   1.119   3.554
 2145SOL    HW1 7334   4.421   1.099   3.641
 2145SOL    HW2 7335   4.402   1.107   3.479
 2146SOL     OW 7336   2.245   3.045   0.452
 2146SOL    HW1 7337   2.228   2.980   0.526
 2146SOL    HW2 7338   2.172   3.114   0.453
 2147SOL     OW 7339   5.807   6.867   4.466
 2147SOL    HW1 7340   5.711   6.839   4.461
 2147SOL    HW2 7341   5.840   6.889   4.374
 2148SOL     OW 7342   0.378   3.333   6.004
 2148SOL    HW1 7343   0.337   3.373   6.086
 2148SOL    HW2 7344   0.370   3.398   5.928
 2149SOL     OW 7345   1.287   0.161   0.199
 2149SOL    HW1 7346   1.259   0.252   0.228
 2149SOL    HW2 7347   1.296   0.102   0.280
 2150SOL     OW 7348   1.753   2.783   1.359
 2150SOL    HW1 7349   1.719   2.781   1.266
 2150SOL    HW2 7350   1.690   2.735   1.419
 2151SOL     OW 7351   0.700   5.161   0.554
 2151SOL    HW1 7352   0.606   5.165   0.521
 2151SOL    HW2 7353   0.707   5.209   0.641
 2152SOL     OW 7354   5.534   5.939   4.245
 2152SOL    HW1 7355   5.471   6.005   4.204
 2152SOL    HW2 7356   5.568   5.877   4.174
 2153SOL     OW 7357   4.819   1.082   3.770
 2153SOL    HW1 7358   4.740   1.120   3.817
 2153SOL    HW2 7359   4.871   1.156   3.727
 2154SOL     OW 7360   3.129   0.397   3.105
 2154SOL    HW1 7361   3.054   0.354   3.053
 2154SOL    HW2 7362   3.164   0.474   3.053
 2155SOL     OW 7363   3.865   0.735   0.612
 2155SOL    HW1 7364   3.931   0.770   0.546
 2155SOL    HW2 7365   3.913   0.701   0.692
 2156SOL     OW 7366   5.424   2.095   5.225
 2156SOL    HW1 7367   5.514   2.116   5.264
 2156SOL    HW2 7368   5.355   2.153   5.268
 2157SOL     OW 7369   3.787   6.315   4.101
 2157SOL    HW1 7370   3.763   6.219   4.086
 2157SOL    HW2 7371   3.775   6.366   4.015
 2158SOL     OW 7372   3.492   6.865   0.704
 2158SOL    HW1 7373   3.462   6.840   0.612
 2158SOL    HW2 7374   3.568   6.806   0.732
 2159SOL     OW 7375   0.697   0.990   5.584
 2159SOL    HW1 7376   0.757   0.928   5.633
 2159SOL    HW2 7377   0.606   0.989   5.626
 2160SOL     OW 7378   5.495   0.220   0.304
 2160SOL    HW1 7379   5.559   0.143   0.303
 2160SOL    HW2 7380   5.516   0.281   0.380
 2161SOL     OW 7381   1.500   2.616   1.240
 2161SOL    HW1 7382   1.438   2.550   1.199
 2161SOL    HW2 7383   1.449   2.698   1.267
 2162SOL     OW 7384   1.709   6.472   1.511
 2162SOL    HW1 7385   1.704   6.566   1.478
 2162SOL    HW2 7386   1.660   6.466   1.599
 2163SOL     OW 7387   1.936   2.722   3.013
 2163SOL    HW1 7388   1.926   2.719   2.913
 2163SOL    HW2 7389   2.030   2.746   3.036
 2164SOL     OW 7390   2.271   2.675   2.742
 2164SOL    HW1 7391   2.255   2.643   2.648
 2164SOL    HW2 7392   2.283   2.774   2.741
 2165SOL     OW 7393   6.840   1.268   4.236
 2165SOL    HW1 7394   6.926   1.298   4.276
 2165SOL    HW2 7395   6.764   1.296   4.296
 2166SOL     OW 7396   0.079   4.131   2.446
 2166SOL    HW1 7397   0.044   4.037   2.455
 2166SOL    HW2 7398   0.093   4.151   2.349
 2167SOL     OW 7399   2.380   1.555   2.730
 2167SOL    HW1 7400   2.331   1.592   2.651
 2167SOL    HW2 7401   2.440   1.625   2.768
 2168SOL     OW 7402   1.732   1.739   3.449
 2168SOL    HW1 7403   1.759   1.668   3.385
 2168SOL    HW2 7404   1.673   1.699   3.520
 2169SOL     OW 7405   0.589   0.215   1.378
 2169SOL    HW1 7406   0.500   0.175   1.359
 2169SOL    HW2 7407   0.635   0.237   1.292
 2170SOL     OW 7408   1.261   3.897   5.914
 2170SOL    HW1 7409   1.282   3.978   5.860
 2170SOL    HW2 7410   1.308   3.817   5.876
 2171SOL     OW 7411   6.780   5.794   1.331
 2171SOL    HW1 7412   6.717   5.872   1.331
 2171SOL    HW2 7413   6.851   5.809   1.399
 2172SOL     OW 7414   1.727   1.508   5.260
 2172SOL    HW1 7415   1.766   1.578   5.319
 2172SOL    HW2 7416   1.773   1.421   5.276
 2173SOL     OW 7417   5.678   1.052   5.654
 2173SOL    HW1 7418   5.640   1.126   5.597
 2173SOL    HW2 7419   5.607   0.984   5.671
 2174SOL     OW 7420   5.563   0.556   5.905
 2174SOL    HW1 7421   5.469   0.575   5.936
 2174SOL    HW2 7422   5.592   0.626   5.840
 2175SOL     OW 7423   2.734   3.970   5.299
 2175SOL    HW1 7424   2.712   3.994   5.393
 2175SOL    HW2 7425   2.652   3.940   5.251
 2176SOL     OW 7426   5.267   2.412   2.412
 2176SOL    HW1 7427   5.276   2.468   2.494
 2176SOL    HW2 7428   5.188   2.351   2.422
 2177SOL     OW 7429   0.302   0.740   4.792
 2177SOL    HW1 7430   0.394   0.708   4.771
 2177SOL    HW2 7431   0.241   0.662   4.803
 2178SOL     OW 7432   1.100   2.045   3.042
 2178SOL    HW1 7433   1.087   2.059   2.943
 2178SOL    HW2 7434   1.134   2.130   3.083
 2179SOL     OW 7435   1.810   4.430   6.148
 2179SOL    HW1 7436   1.757   4.489   6.087
 2179SOL    HW2 7437   1.908   4.449   6.136
 2180SOL     OW 7438   0.960   6.172   2.782
 2180SOL    HW1 7439   0.976   6.270   2.792
 2180SOL    HW2 7440   0.917   6.137   2.865
 2181SOL     OW 7441   3.400   4.919   4.754
 2181SOL    HW1 7442   3.359   4.863   4.825
 2181SOL    HW2 7443   3.334   4.934   4.680
 2182SOL     OW 7444   6.939   6.533   2.531
 2182SOL    HW1 7445   0.016   6.548   2.533
 2182SOL    HW2 7446   6.921   6.437   2.508
 2183SOL     OW 7447   3.394   3.463   6.185
 2183SOL    HW1 7448   3.300   3.430   6.196
 2183SOL    HW2 7449   3.394   3.562   6.171
 2184SOL     OW 7450   6.602   1.382   0.350
 2184SOL    HW1 7451   6.617   1.465   0.404
 2184SOL    HW2 7452   6.638   1.303   0.400
 2185SOL     OW 7453   1.005   0.340   6.437
 2185SOL    HW1 7454   0.922   0.367   6.485
 2185SOL    HW2 7455   1.003   0.376   6.344
 2186SOL     OW 7456   6.845   5.540   5.510
 2186SOL    HW1 7457   6.803   5.619   5.465
 2186SOL    HW2 7458   6.819   5.456   5.462
 2187SOL     OW 7459   6.710   5.623   1.921
 2187SOL    HW1 7460   6.681   5.535   1.960
 2187SOL    HW2 7461   6.806   5.617   1.893
 2188SOL     OW 7462   2.844   0.858   0.734
 2188SOL    HW1 7463   2.791   0.801   0.797
 2188SOL    HW2 7464   2.853   0.811   0.646
 2189SOL     OW 7465   2.508   1.387   1.488
 2189SOL    HW1 7466   2.482   1.483   1.502
 2189SOL    HW2 7467   2.461   1.351   1.408
 2190SOL     OW 7468   6.534   4.062   1.811
 2190SOL    HW1 7469   6.495   3.970   1.810
 2190SOL    HW2 7470   6.633   4.056   1.795
 2191SOL     OW 7471   2.969   0.159   6.609
 2191SOL    HW1 7472   3.061   0.122   6.619
 2191SOL    HW2 7473   2.903   0.085   6.595
 2192SOL     OW 7474   5.366   1.983   2.068
 2192SOL    HW1 7475   5.464   1.995   2.081
 2192SOL    HW2 7476   5.350   1.911   2.000
 2193SOL     OW 7477   1.615   6.676   5.686
 2193SOL    HW1 7478   1.630   6.754   5.746
 2193SOL    HW2 7479   1.695   6.662   5.628
 2194SOL     OW 7480   0.754   4.082   6.068
 2194SOL    HW1 7481   0.736   4.159   6.129
 2194SOL    HW2 7482   0.814   4.111   5.994
 2195SOL     OW 7483   0.645   3.429   4.790
 2195SOL    HW1 7484   0.696   3.363   4.846
 2195SOL    HW2 7485   0.599   3.381   4.715
 2196SOL     OW 7486   2.856   0.396   6.811
 2196SOL    HW1 7487   2.918   0.327   6.773
 2196SOL    HW2 7488   2.788   0.352   6.869
 2197SOL     OW 7489   3.697   5.544   5.678
 2197SOL    HW1 7490   3.599   5.534   5.695
 2197SOL    HW2 7491   3.746   5.548   5.765
 2198SOL     OW 7492   0.749   0.884   0.110
 2198SOL    HW1 7493   0.780   0.866   0.204
 2198SOL    HW2 7494   0.826   0.874   0.047
 2199SOL     OW 7495   3.977   6.423   4.755
 2199SOL    HW1 7496   4.031   6.342   4.731
 2199SOL    HW2 7497   3.888   6.394   4.790
 2200SOL     OW 7498   2.562   2.093   3.858
 2200SOL    HW1 7499   2.562   2.155   3.779
 2200SOL    HW2 7500   2.473   2.047   3.864
 2201SOL     OW 7501   6.063   3.826   4.836
 2201SOL    HW1 7502   6.105   3.754   4.780
 2201SOL    HW2 7503   6.042   3.905   4.777
 2202SOL     OW 7504   3.412   0.063   2.058
 2202SOL    HW1 7505   3.376   0.138   2.115
 2202SOL    HW2 7506   3.382   0.077   1.963
 2203SOL     OW 7507   2.211   4.788   1.364
 2203SOL    HW1 7508   2.182   4.694   1.381
 2203SOL    HW2 7509   2.273   4.818   1.437
 2204SOL     OW 7510   5.896   3.341   0.626
 2204SOL    HW1 7511   5.874   3.389   0.541
 2204SOL    HW2 7512   5.924   3.247   0.605
 2205SOL     OW 7513   0.311   5.259   0.966
 2205SOL    HW1 7514   0.334   5.354   0.990
 2205SOL    HW2 7515   0.327   5.201   1.046
 2206SOL     OW 7516   3.900   2.291   5.927
 2206SOL    HW1 7517   3.971   2.319   5.863
 2206SOL    HW2 7518   3.871   2.198   5.908
 2207SOL     OW 7519   4.969   5.569   0.678
 2207SOL    HW1 7520   5.035   5.635   0.714
 2207SOL    HW2 7521   4.876   5.604   0.691
 2208SOL     OW 7522   6.581   6.640   3.687
 2208SOL    HW1 7523   6.652   6.705   3.714
 2208SOL    HW2 7524   6.621   6.569   3.631
 2209SOL     OW 7525   2.812   5.945   4.076
 2209SOL    HW1 7526   2.751   5.883   4.026
 2209SOL    HW2 7527   2.763   6.029   4.099
 2210SOL     OW 7528   4.602   0.148   1.605
 2210SOL    HW1 7529   4.531   0.083   1.578
 2210SOL    HW2 7530   4.657   0.172   1.526
 2211SOL     OW 7531   1.016   1.539   1.353
 2211SOL    HW1 7532   0.953   1.613   1.328
 2211SOL    HW2 7533   1.109   1.567   1.332
 2212SOL     OW 7534   2.939   5.530   6.882
 2212SOL    HW1 7535   2.998   5.562   6.808
 2212SOL    HW2 7536   2.867   5.471   6.844
 2213SOL     OW 7537   3.410   1.988   4.969
 2213SOL    HW1 7538   3.344   2.001   5.043
 2213SOL    HW2 7539   3.499   2.024   4.997
 2214SOL     OW 7540   4.411   4.115   6.799
 2214SOL    HW1 7541   4.423   4.031   6.852
 2214SOL    HW2 7542   4.370   4.186   6.857
 2215SOL     OW 7543   3.976   0.033   6.735
 2215SOL    HW1 7544   3.957   0.008   6.640
 2215SOL    HW2 7545   4.067   0.002   6.761
 2216SOL     OW 7546   0.986   6.678   6.513
 2216SOL    HW1 7547   0.999   6.766   6.560
 2216SOL    HW2 7548   0.958   6.609   6.580
 2217SOL     OW 7549   4.362   1.030   3.795
 2217SOL    HW1 7550   4.267   1.029   3.764
 2217SOL    HW2 7551   4.366   1.009   3.892
 2218SOL     OW 7552   0.603   6.094   5.754
 2218SOL    HW1 7553   0.581   6.016   5.813
 2218SOL    HW2 7554   0.589   6.069   5.658
 2219SOL     OW 7555   5.468   0.891   1.116
 2219SOL    HW1 7556   5.438   0.983   1.141
 2219SOL    HW2 7557   5.401   0.850   1.053
 2220SOL     OW 7558   0.315   6.088   4.565
 2220SOL    HW1 7559   0.266   6.170   4.534
 2220SOL    HW2 7560   0.371   6.110   4.644
 2221SOL     OW 7561   6.525   0.932   4.073
 2221SOL    HW1 7562   6.428   0.909   4.081
 2221SOL    HW2 7563   6.579   0.863   4.122
 2222SOL     OW 7564   5.028   0.399   2.298
 2222SOL    HW1 7565   4.933   0.371   2.281
 2222SOL    HW2 7566   5.069   0.338   2.365
 2223SOL     OW 7567   0.517   6.366   5.359
 2223SOL    HW1 7568   0.507   6.424   5.440
 2223SOL    HW2 7569   0.604   6.317   5.364
 2224SOL     OW 7570   5.750   3.907   0.615
 2224SOL    HW1 7571   5.797   3.819   0.604
 2224SOL    HW2 7572   5.756   3.936   0.710
 2225SOL     OW 7573   6.741   6.193   2.241
 2225SOL    HW1 7574   6.788   6.151   2.163
 2225SOL    HW2 7575   6.645   6.164   2.241
 2226SOL     OW 7576   2.750   4.813   0.196
 2226SOL    HW1 7577   2.750   4.714   0.210
 2226SOL    HW2 7578   2.751   4.834   0.099
 2227SOL     OW 7579   3.777   1.957   1.925
 2227SOL    HW1 7580   3.753   1.964   1.828
 2227SOL    HW2 7581   3.766   2.047   1.968
 2228SOL     OW 7582   5.559   5.593   6.859
 2228SOL    HW1 7583   5.565   5.673   6.799
 2228SOL    HW2 7584   5.624   5.602   6.934
 2229SOL     OW 7585   3.347   3.230   3.709
 2229SOL    HW1 7586   3.443   3.211   3.733
 2229SOL    HW2 7587   3.317   3.164   3.640
 2230SOL     OW 7588   5.834   0.190   6.729
 2230SOL    HW1 7589   5.930   0.217   6.718
 2230SOL    HW2 7590   5.781   0.222   6.650
 2231SOL     OW 7591   1.287   6.977   6.482
 2231SOL    HW1 7592   1.328   7.017   6.400
 2231SOL    HW2 7593   1.241   6.891   6.458
 2232SOL     OW 7594   1.549   0.871   5.197
 2232SOL    HW1 7595   1.510   0.871   5.105
 2232SOL    HW2 7596   1.524   0.957   5.243
 2233SOL     OW 7597   3.298   4.954   0.845
 2233SOL    HW1 7598   3.226   4.972   0.912
 2233SOL    HW2 7599   3.258   4.906   0.766
 2234SOL     OW 7600   5.052   1.765   1.735
 2234SOL    HW1 7601   4.957   1.744   1.714
 2234SOL    HW2 7602   5.093   1.816   1.660
 2235SOL     OW 7603   0.927   1.855   3.100
 2235SOL    HW1 7604   0.971   1.940   3.070
 2235SOL    HW2 7605   0.982   1.777   3.069
 2236SOL     OW 7606   2.293   4.950   5.278
 2236SOL    HW1 7607   2.297   4.994   5.368
 2236SOL    HW2 7608   2.226   4.876   5.280
 2237SOL     OW 7609   6.115   5.114   5.617
 2237SOL    HW1 7610   6.107   5.191   5.555
 2237SOL    HW2 7611   6.108   5.146   5.711
 2238SOL     OW 7612   5.950   3.726   1.675
 2238SOL    HW1 7613   5.999   3.643   1.701
 2238SOL    HW2 7614   5.960   3.795   1.747
 2239SOL     OW 7615   4.829   6.699   3.091
 2239SOL    HW1 7616   4.919   6.743   3.098
 2239SOL    HW2 7617   4.812   6.673   2.996
 2240SOL     OW 7618   4.772   5.020   2.577
 2240SOL    HW1 7619   4.763   4.978   2.487
 2240SOL    HW2 7620   4.868   5.033   2.599
 2241SOL     OW 7621   0.469   1.518   2.332
 2241SOL    HW1 7622   0.407   1.580   2.285
 2241SOL    HW2 7623   0.424   1.481   2.414
 2242SOL     OW 7624   5.389   2.706   3.583
 2242SOL    HW1 7625   5.399   2.667   3.674
 2242SOL    HW2 7626   5.448   2.786   3.574
 2243SOL     OW 7627   2.091   6.771   0.820
 2243SOL    HW1 7628   2.163   6.710   0.851
 2243SOL    HW2 7629   2.011   6.717   0.793
 2244SOL     OW 7630   2.382   1.024   0.580
 2244SOL    HW1 7631   2.433   0.980   0.507
 2244SOL    HW2 7632   2.294   0.979   0.591
 2245SOL     OW 7633   0.269   0.454   0.070
 2245SOL    HW1 7634   0.293   0.361   0.044
 2245SOL    HW2 7635   0.237   0.455   0.165
 2246SOL     OW 7636   3.217   1.710   5.240
 2246SOL    HW1 7637   3.267   1.753   5.314
 2246SOL    HW2 7638   3.174   1.780   5.183
 2247SOL     OW 7639   3.292   3.184   2.523
 2247SOL    HW1 7640   3.258   3.261   2.577
 2247SOL    HW2 7641   3.358   3.132   2.577
 2248SOL     OW 7642   4.947   4.123   5.075
 2248SOL    HW1 7643   4.923   4.211   5.116
 2248SOL    HW2 7644   4.887   4.104   4.998
 2249SOL     OW 7645   1.200   6.281   3.612
 2249SOL    HW1 7646   1.111   6.253   3.649
 2249SOL    HW2 7647   1.200   6.380   3.597
 2250SOL     OW 7648   4.485   5.427   6.179
 2250SOL    HW1 7649   4.431   5.410   6.261
 2250SOL    HW2 7650   4.570   5.474   6.203
 2251SOL     OW 7651   5.590   6.145   5.426
 2251SOL    HW1 7652   5.657   6.078   5.395
 2251SOL    HW2 7653   5.572   6.132   5.524
 2252SOL     OW 7654   4.318   1.981   2.236
 2252SOL    HW1 7655   4.268   1.989   2.323
 2252SOL    HW2 7656   4.404   2.031   2.244
 2253SOL     OW 7657   0.543   3.468   1.310
 2253SOL    HW1 7658   0.581   3.561   1.307
 2253SOL    HW2 7659   0.447   3.472   1.336
 2254SOL     OW 7660   3.763   3.825   2.522
 2254SOL    HW1 7661   3.789   3.730   2.540
 2254SOL    HW2 7662   3.770   3.878   2.607
 2255SOL     OW 7663   3.160   3.073   6.182
 2255SOL    HW1 7664   3.070   3.115   6.171
 2255SOL    HW2 7665   3.230   3.131   6.139
 2256SOL     OW 7666   5.112   0.129   1.279
 2256SOL    HW1 7667   5.117   0.148   1.377
 2256SOL    HW2 7668   5.113   0.215   1.228
 2257SOL     OW 7669   7.008   1.160   5.239
 2257SOL    HW1 7670   6.949   1.150   5.159
 2257SOL    HW2 7671   6.967   1.226   5.302
 2258SOL     OW 7672   2.648   5.705   4.137
 2258SOL    HW1 7673   2.610   5.659   4.217
 2258SOL    HW2 7674   2.592   5.686   4.057
 2259SOL     OW 7675   5.957   2.332   4.814
 2259SOL    HW1 7676   5.892   2.297   4.881
 2259SOL    HW2 7677   5.915   2.330   4.723
 2260SOL     OW 7678   0.778   4.004   1.509
 2260SOL    HW1 7679   0.726   4.025   1.426
 2260SOL    HW2 7680   0.849   3.937   1.487
 2261SOL     OW 7681   5.346   3.727   6.492
 2261SOL    HW1 7682   5.269   3.708   6.553
 2261SOL    HW2 7683   5.314   3.782   6.415
 2262SOL     OW 7684   6.533   0.116   4.721
 2262SOL    HW1 7685   6.595   0.189   4.752
 2262SOL    HW2 7686   6.586   0.033   4.704
 2263SOL     OW 7687   2.304   4.404   6.361
 2263SOL    HW1 7688   2.268   4.415   6.454
 2263SOL    HW2 7689   2.404   4.404   6.364
 2264SOL     OW 7690   2.883   0.002   5.765
 2264SOL    HW1 7691   2.847   0.094   5.750
 2264SOL    HW2 7692   2.881   7.003   5.862
 2265SOL     OW 7693   0.460   6.455   4.472
 2265SOL    HW1 7694   0.437   6.547   4.504
 2265SOL    HW2 7695   0.416   6.438   4.384
 2266SOL     OW 7696   4.139   2.798   6.801
 2266SOL    HW1 7697   4.074   2.851   6.856
 2266SOL    HW2 7698   4.108   2.795   6.706
 2267SOL     OW 7699   4.888   2.488   4.314
 2267SOL    HW1 7700   4.836   2.403   4.312
 2267SOL    HW2 7701   4.834   2.559   4.359
 2268SOL     OW 7702   1.127   5.509   4.993
 2268SOL    HW1 7703   1.197   5.564   5.038
 2268SOL    HW2 7704   1.039   5.524   5.038
 2269SOL     OW 7705   1.780   2.485   5.350
 2269SOL    HW1 7706   1.794   2.410   5.414
 2269SOL    HW2 7707   1.795   2.573   5.396
 2270SOL     OW 7708   4.923   1.879   6.057
 2270SOL    HW1 7709   4.871   1.807   6.010
 2270SOL    HW2 7710   4.914   1.965   6.007
 2271SOL     OW 7711   4.803   5.708   5.425
 2271SOL    HW1 7712   4.851   5.707   5.513
 2271SOL    HW2 7713   4.832   5.629   5.370
 2272SOL     OW 7714   5.449   1.566   6.083
 2272SOL    HW1 7715   5.467   1.500   6.157
 2272SOL    HW2 7716   5.405   1.647   6.120
 2273SOL     OW 7717   0.846   2.442   2.947
 2273SOL    HW1 7718   0.841   2.426   2.848
 2273SOL    HW2 7719   0.917   2.509   2.966
 2274SOL     OW 7720   0.467   1.525   0.332
 2274SOL    HW1 7721   0.531   1.576   0.275
 2274SOL    HW2 7722   0.518   1.461   0.391
 2275SOL     OW 7723   5.733   4.768   3.131
 2275SOL    HW1 7724   5.681   4.854   3.124
 2275SOL    HW2 7725   5.672   4.695   3.160
 2276SOL     OW 7726   1.894   2.050   1.262
 2276SOL    HW1 7727   1.963   2.005   1.319
 2276SOL    HW2 7728   1.938   2.102   1.190
 2277SOL     OW 7729   3.763   3.489   3.315
 2277SOL    HW1 7730   3.702   3.563   3.344
 2277SOL    HW2 7731   3.785   3.500   3.218
 2278SOL     OW 7732   0.833   2.745   3.999
 2278SOL    HW1 7733   0.838   2.830   4.050
 2278SOL    HW2 7734   0.798   2.672   4.058
 2279SOL     OW 7735   0.624   6.011   5.499
 2279SOL    HW1 7736   0.565   5.971   5.428
 2279SOL    HW2 7737   0.691   6.072   5.456
 2280SOL     OW 7738   4.806   1.643   5.859
 2280SOL    HW1 7739   4.870   1.589   5.913
 2280SOL    HW2 7740   4.847   1.666   5.771
 2281SOL     OW 7741   6.045   6.576   2.757
 2281SOL    HW1 7742   6.121   6.581   2.692
 2281SOL    HW2 7743   5.962   6.608   2.712
 2282SOL     OW 7744   4.332   6.567   5.499
 2282SOL    HW1 7745   4.254   6.626   5.480
 2282SOL    HW2 7746   4.360   6.520   5.415
 2283SOL     OW 7747   0.296   0.423   3.844
 2283SOL    HW1 7748   0.393   0.423   3.866
 2283SOL    HW2 7749   0.263   0.517   3.835
 2284SOL     OW 7750   0.858   2.483   0.018
 2284SOL    HW1 7751   0.929   2.545   7.006
 2284SOL    HW2 7752   0.799   2.531   0.082
 2285SOL     OW 7753   1.654   4.254   6.299
 2285SOL    HW1 7754   1.680   4.240   6.395
 2285SOL    HW2 7755   1.707   4.329   6.261
 2286SOL     OW 7756   4.917   5.601   3.670
 2286SOL    HW1 7757   4.938   5.640   3.579
 2286SOL    HW2 7758   4.856   5.523   3.659
 2287SOL     OW 7759   1.985   1.135   3.318
 2287SOL    HW1 7760   1.990   1.226   3.358
 2287SOL    HW2 7761   1.889   1.112   3.299
 2288SOL     OW 7762   7.008   6.023   2.658
 2288SOL    HW1 7763   0.001   5.955   2.587
 2288SOL    HW2 7764   7.012   6.115   2.619
 2289SOL     OW 7765   0.512   5.248   1.417
 2289SOL    HW1 7766   0.469   5.257   1.506
 2289SOL    HW2 7767   0.499   5.331   1.364
 2290SOL     OW 7768   0.635   5.825   0.511
 2290SOL    HW1 7769   0.617   5.898   0.445
 2290SOL    HW2 7770   0.616   5.736   0.469
 2291SOL     OW 7771   2.389   1.801   6.808
 2291SOL    HW1 7772   2.332   1.733   6.854
 2291SOL    HW2 7773   2.332   1.878   6.778
 2292SOL     OW 7774   0.971   1.379   5.123
 2292SOL    HW1 7775   0.956   1.477   5.137
 2292SOL    HW2 7776   0.961   1.357   5.026
 2293SOL     OW 7777   5.363   4.406   2.683
 2293SOL    HW1 7778   5.280   4.353   2.667
 2293SOL    HW2 7779   5.385   4.460   2.601
 2294SOL     OW 7780   3.431   6.349   6.684
 2294SOL    HW1 7781   3.336   6.378   6.669
 2294SOL    HW2 7782   3.433   6.272   6.747
 2295SOL     OW 7783   0.528   2.395   1.217
 2295SOL    HW1 7784   0.457   2.423   1.281
 2295SOL    HW2 7785   0.560   2.303   1.241
 2296SOL     OW 7786   2.781   6.573   0.196
 2296SOL    HW1 7787   2.815   6.572   0.290
 2296SOL    HW2 7788   2.688   6.611   0.194
 2297SOL     OW 7789   4.381   6.047   5.767
 2297SOL    HW1 7790   4.427   6.101   5.696
 2297SOL    HW2 7791   4.308   6.101   5.808
 2298SOL     OW 7792   3.888   2.952   6.788
 2298SOL    HW1 7793   3.953   2.948   6.712
 2298SOL    HW2 7794   3.895   3.041   6.832
 2299SOL     OW 7795   4.565   5.856   0.347
 2299SOL    HW1 7796   4.560   5.758   0.329
 2299SOL    HW2 7797   4.624   5.872   0.427
 2300SOL     OW 7798   1.747   4.868   1.491
 2300SOL    HW1 7799   1.811   4.858   1.567
 2300SOL    HW2 7800   1.770   4.951   1.439
 2301SOL     OW 7801   4.016   3.651   1.925
 2301SOL    HW1 7802   4.062   3.589   1.988
 2301SOL    HW2 7803   3.968   3.722   1.977
 2302SOL     OW 7804   2.566   5.935   3.052
 2302SOL    HW1 7805   2.469   5.958   3.052
 2302SOL    HW2 7806   2.610   5.974   3.133
 2303SOL     OW 7807   0.632   3.062   4.553
 2303SOL    HW1 7808   0.652   3.153   4.514
 2303SOL    HW2 7809   0.718   3.019   4.581
 2304SOL     OW 7810   2.833   1.140   4.027
 2304SOL    HW1 7811   2.818   1.056   4.079
 2304SOL    HW2 7812   2.768   1.210   4.057
 2305SOL     OW 7813   3.767   5.498   2.036
 2305SOL    HW1 7814   3.696   5.475   1.969
 2305SOL    HW2 7815   3.852   5.520   1.988
 2306SOL     OW 7816   0.974   3.602   0.973
 2306SOL    HW1 7817   1.042   3.539   0.935
 2306SOL    HW2 7818   0.898   3.550   1.013
 2307SOL     OW 7819   0.487   2.512   2.634
 2307SOL    HW1 7820   0.539   2.598   2.643
 2307SOL    HW2 7821   0.514   2.466   2.550
 2308SOL     OW 7822   0.308   0.058   0.307
 2308SOL    HW1 7823   0.218   0.022   0.330
 2308SOL    HW2 7824   0.373   7.005   0.294
 2309SOL     OW 7825   3.695   5.043   6.170
 2309SOL    HW1 7826   3.628   5.107   6.133
 2309SOL    HW2 7827   3.787   5.083   6.165
 2310SOL     OW 7828   5.453   1.012   2.152
 2310SOL    HW1 7829   5.410   0.998   2.062
 2310SOL    HW2 7830   5.521   0.941   2.168
 2311SOL     OW 7831   2.945   0.277   2.960
 2311SOL    HW1 7832   2.960   0.206   2.891
 2311SOL    HW2 7833   2.854   0.318   2.947
 2312SOL     OW 7834   3.072   1.185   2.810
 2312SOL    HW1 7835   3.028   1.095   2.802
 2312SOL    HW2 7836   3.040   1.244   2.736
 2313SOL     OW 7837   5.227   3.909   1.792
 2313SOL    HW1 7838   5.240   3.818   1.831
 2313SOL    HW2 7839   5.181   3.967   1.860
 2314SOL     OW 7840   6.248   0.249   2.755
 2314SOL    HW1 7841   6.246   0.334   2.701
 2314SOL    HW2 7842   6.154   0.224   2.779
 2315SOL     OW 7843   4.164   5.646   5.293
 2315SOL    HW1 7844   4.185   5.636   5.390
 2315SOL    HW2 7845   4.243   5.684   5.245
 2316SOL     OW 7846   3.085   1.811   6.013
 2316SOL    HW1 7847   3.112   1.796   6.108
 2316SOL    HW2 7848   3.160   1.854   5.964
 2317SOL     OW 7849   6.706   6.007   3.409
 2317SOL    HW1 7850   6.624   5.987   3.356
 2317SOL    HW2 7851   6.740   5.922   3.451
 2318SOL     OW 7852   1.718   4.844   4.982
 2318SOL    HW1 7853   1.769   4.766   5.019
 2318SOL    HW2 7854   1.771   4.928   4.994
 2319SOL     OW 7855   2.275   5.056   3.861
 2319SOL    HW1 7856   2.358   5.011   3.828
 2319SOL    HW2 7857   2.199   4.990   3.861
 2320SOL     OW 7858   1.674   2.915   5.332
 2320SOL    HW1 7859   1.681   2.902   5.234
 2320SOL    HW2 7860   1.766   2.918   5.372
 2321SOL     OW 7861   2.725   5.041   5.962
 2321SOL    HW1 7862   2.744   4.979   6.038
 2321SOL    HW2 7863   2.654   5.106   5.989
 2322SOL     OW 7864   0.910   3.643   2.035
 2322SOL    HW1 7865   0.957   3.678   1.954
 2322SOL    HW2 7866   0.967   3.656   2.115
 2323SOL     OW 7867   2.368   4.896   1.568
 2323SOL    HW1 7868   2.363   4.984   1.616
 2323SOL    HW2 7869   2.462   4.879   1.539
 2324SOL     OW 7870   6.988   5.617   1.852
 2324SOL    HW1 7871   0.031   5.677   1.898
 2324SOL    HW2 7872   7.013   5.607   1.756
 2325SOL     OW 7873   0.017   5.110   1.783
 2325SOL    HW1 7874   0.054   5.143   1.696
 2325SOL    HW2 7875   0.092   5.090   1.845
 2326SOL     OW 7876   1.296   0.623   6.357
 2326SOL    HW1 7877   1.263   0.544   6.409
 2326SOL    HW2 7878   1.366   0.671   6.410
 2327SOL     OW 7879   6.930   0.619   2.844
 2327SOL    HW1 7880   6.905   0.624   2.941
 2327SOL    HW2 7881   6.942   0.711   2.808
 2328SOL     OW 7882   2.395   2.384   2.468
 2328SOL    HW1 7883   2.460   2.312   2.443
 2328SOL    HW2 7884   2.324   2.347   2.528
 2329SOL     OW 7885   0.804   5.622   3.268
 2329SOL    HW1 7886   0.871   5.682   3.313
 2329SOL    HW2 7887   0.744   5.677   3.210
 2330SOL     OW 7888   6.583   2.608   0.414
 2330SOL    HW1 7889   6.554   2.529   0.468
 2330SOL    HW2 7890   6.681   2.602   0.395
 2331SOL     OW 7891   3.933   6.214   0.288
 2331SOL    HW1 7892   4.029   6.188   0.288
 2331SOL    HW2 7893   3.880   6.143   0.335
 2332SOL     OW 7894   5.114   6.337   6.405
 2332SOL    HW1 7895   5.169   6.357   6.324
 2332SOL    HW2 7896   5.038   6.278   6.379
 2333SOL     OW 7897   0.272   4.810   2.292
 2333SOL    HW1 7898   0.346   4.864   2.250
 2333SOL    HW2 7899   0.210   4.872   2.340
 2334SOL     OW 7900   2.946   0.973   5.720
 2334SOL    HW1 7901   2.987   1.057   5.755
 2334SOL    HW2 7902   2.921   0.913   5.796
 2335SOL     OW 7903   5.899   1.489   3.254
 2335SOL    HW1 7904   5.819   1.512   3.310
 2335SOL    HW2 7905   5.963   1.565   3.253
 2336SOL     OW 7906   2.228   1.649   2.535
 2336SOL    HW1 7907   2.130   1.638   2.554
 2336SOL    HW2 7908   2.245   1.633   2.438
 2337SOL     OW 7909   4.342   1.691   1.388
 2337SOL    HW1 7910   4.295   1.779   1.392
 2337SOL    HW2 7911   4.346   1.650   1.479
 2338SOL     OW 7912   0.242   4.365   4.209
 2338SOL    HW1 7913   0.265   4.380   4.113
 2338SOL    HW2 7914   0.220   4.269   4.223
 2339SOL     OW 7915   3.818   2.952   2.855
 2339SOL    HW1 7916   3.889   2.990   2.915
 2339SOL    HW2 7917   3.741   2.920   2.911
 2340SOL     OW 7918   1.887   5.644   6.475
 2340SOL    HW1 7919   1.922   5.653   6.381
 2340SOL    HW2 7920   1.806   5.701   6.486
 2341SOL     OW 7921   2.366   4.594   3.712
 2341SOL    HW1 7922   2.366   4.496   3.728
 2341SOL    HW2 7923   2.417   4.640   3.785
 2342SOL     OW 7924   2.724   6.975   3.983
 2342SOL    HW1 7925   2.685   6.894   4.027
 2342SOL    HW2 7926   2.822   6.979   4.003
 2343SOL     OW 7927   1.451   6.676   2.456
 2343SOL    HW1 7928   1.545   6.677   2.422
 2343SOL    HW2 7929   1.428   6.583   2.487
 2344SOL     OW 7930   5.946   4.198   1.223
 2344SOL    HW1 7931   5.915   4.251   1.144
 2344SOL    HW2 7932   5.898   4.228   1.305
 2345SOL     OW 7933   2.695   5.761   4.862
 2345SOL    HW1 7934   2.756   5.682   4.875
 2345SOL    HW2 7935   2.748   5.837   4.825
 2346SOL     OW 7936   4.044   4.107   6.367
 2346SOL    HW1 7937   3.977   4.134   6.298
 2346SOL    HW2 7938   4.002   4.040   6.428
 2347SOL     OW 7939   1.023   2.460   1.477
 2347SOL    HW1 7940   0.944   2.514   1.504
 2347SOL    HW2 7941   1.060   2.412   1.557
 2348SOL     OW 7942   0.537   5.022   2.872
 2348SOL    HW1 7943   0.487   5.017   2.959
 2348SOL    HW2 7944   0.492   5.088   2.812
 2349SOL     OW 7945   0.522   4.719   6.549
 2349SOL    HW1 7946   0.561   4.782   6.617
 2349SOL    HW2 7947   0.555   4.744   6.458
 2350SOL     OW 7948   6.486   4.294   6.350
 2350SOL    HW1 7949   6.566   4.349   6.375
 2350SOL    HW2 7950   6.490   4.206   6.397
 2351SOL     OW 7951   2.458   4.507   3.285
 2351SOL    HW1 7952   2.413   4.435   3.337
 2351SOL    HW2 7953   2.513   4.563   3.348
 2352SOL     OW 7954   0.218   3.333   3.404
 2352SOL    HW1 7955   0.305   3.285   3.416
 2352SOL    HW2 7956   0.173   3.300   3.321
 2353SOL     OW 7957   3.592   5.957   5.075
 2353SOL    HW1 7958   3.496   5.947   5.100
 2353SOL    HW2 7959   3.606   5.921   4.983
 2354SOL     OW 7960   2.514   1.508   3.968
 2354SOL    HW1 7961   2.482   1.574   3.900
 2354SOL    HW2 7962   2.519   1.553   4.058
 2355SOL     OW 7963   2.215   5.833   4.666
 2355SOL    HW1 7964   2.214   5.754   4.728
 2355SOL    HW2 7965   2.151   5.818   4.592
 2356SOL     OW 7966   0.249   3.050   0.088
 2356SOL    HW1 7967   0.336   3.045   0.039
 2356SOL    HW2 7968   0.258   3.113   0.165
 2357SOL     OW 7969   2.977   6.938   2.411
 2357SOL    HW1 7970   3.074   6.935   2.433
 2357SOL    HW2 7971   2.943   0.010   2.420
 2358SOL     OW 7972   3.677   4.407   6.531
 2358SOL    HW1 7973   3.740   4.370   6.600
 2358SOL    HW2 7974   3.696   4.364   6.442
 2359SOL     OW 7975   1.164   0.436   5.057
 2359SOL    HW1 7976   1.090   0.489   5.099
 2359SOL    HW2 7977   1.154   0.340   5.081
 2360SOL     OW 7978   6.459   3.165   0.454
 2360SOL    HW1 7979   6.423   3.105   0.526
 2360SOL    HW2 7980   6.558   3.153   0.447
 2361SOL     OW 7981   3.879   1.405   6.002
 2361SOL    HW1 7982   3.958   1.347   5.980
 2361SOL    HW2 7983   3.894   1.497   5.966
 2362SOL     OW 7984   3.653   5.152   3.557
 2362SOL    HW1 7985   3.670   5.076   3.495
 2362SOL    HW2 7986   3.595   5.122   3.632
 2363SOL     OW 7987   3.876   1.442   3.945
 2363SOL    HW1 7988   3.823   1.359   3.955
 2363SOL    HW2 7989   3.892   1.459   3.848
 2364SOL     OW 7990   1.178   1.977   1.085
 2364SOL    HW1 7991   1.204   1.903   1.147
 2364SOL    HW2 7992   1.102   1.947   1.028
 2365SOL     OW 7993   5.663   2.060   6.573
 2365SOL    HW1 7994   5.738   2.101   6.521
 2365SOL    HW2 7995   5.641   2.118   6.651
 2366SOL     OW 7996   3.969   5.086   1.100
 2366SOL    HW1 7997   3.884   5.054   1.058
 2366SOL    HW2 7998   4.025   5.132   1.032
 2367SOL     OW 7999   2.110   3.224   6.939
 2367SOL    HW1 8000   2.057   3.153   6.891
 2367SOL    HW2 8001   2.170   3.270   6.875
 2368SOL     OW 8002   6.105   6.652   3.615
 2368SOL    HW1 8003   6.085   6.713   3.692
 2368SOL    HW2 8004   6.101   6.557   3.646
 2369SOL     OW 8005   2.078   0.183   4.082
 2369SOL    HW1 8006   2.110   0.090   4.061
 2369SOL    HW2 8007   2.019   0.181   4.162
 2370SOL     OW 8008   5.501   2.456   6.846
 2370SOL    HW1 8009   5.528   2.426   6.938
 2370SOL    HW2 8010   5.494   2.556   6.845
 2371SOL     OW 8011   3.164   0.052   1.551
 2371SOL    HW1 8012   3.137   6.981   1.528
 2371SOL    HW2 8013   3.237   0.082   1.489
 2372SOL     OW 8014   6.624   3.240   2.211
 2372SOL    HW1 8015   6.553   3.242   2.140
 2372SOL    HW2 8016   6.599   3.300   2.286
 2373SOL     OW 8017   1.968   3.369   6.435
 2373SOL    HW1 8018   1.942   3.442   6.372
 2373SOL    HW2 8019   1.966   3.404   6.529
 2374SOL     OW 8020   6.233   2.267   4.809
 2374SOL    HW1 8021   6.248   2.239   4.714
 2374SOL    HW2 8022   6.137   2.291   4.821
 2375SOL     OW 8023   3.354   5.555   4.874
 2375SOL    HW1 8024   3.285   5.489   4.842
 2375SOL    HW2 8025   3.386   5.609   4.796
 2376SOL     OW 8026   6.094   2.892   4.201
 2376SOL    HW1 8027   6.022   2.902   4.270
 2376SOL    HW2 8028   6.157   2.969   4.207
 2377SOL     OW 8029   3.132   3.075   4.047
 2377SOL    HW1 8030   3.093   3.014   3.977
 2377SOL    HW2 8031   3.078   3.158   4.052
 2378SOL     OW 8032   5.417   2.632   6.293
 2378SOL    HW1 8033   5.364   2.548   6.282
 2378SOL    HW2 8034   5.375   2.690   6.363
 2379SOL     OW 8035   6.206   0.288   0.655
 2379SOL    HW1 8036   6.271   0.270   0.581
 2379SOL    HW2 8037   6.224   0.226   0.731
 2380SOL     OW 8038   5.835   2.661   1.437
 2380SOL    HW1 8039   5.826   2.592   1.364
 2380SOL    HW2 8040   5.927   2.700   1.434
 2381SOL     OW 8041   1.627   6.310   3.015
 2381SOL    HW1 8042   1.591   6.218   3.032
 2381SOL    HW2 8043   1.726   6.311   3.030
 2382SOL     OW 8044   2.213   3.212   5.139
 2382SOL    HW1 8045   2.278   3.272   5.185
 2382SOL    HW2 8046   2.262   3.143   5.086
 2383SOL     OW 8047   6.491   5.975   1.414
 2383SOL    HW1 8048   6.428   6.046   1.382
 2383SOL    HW2 8049   6.447   5.885   1.407
 2384SOL     OW 8050   4.700   2.057   1.613
 2384SOL    HW1 8051   4.733   2.150   1.631
 2384SOL    HW2 8052   4.617   2.040   1.666
 2385SOL     OW 8053   0.647   1.711   6.659
 2385SOL    HW1 8054   0.713   1.702   6.733
 2385SOL    HW2 8055   0.622   1.807   6.647
 2386SOL     OW 8056   5.370   5.661   4.216
 2386SOL    HW1 8057   5.356   5.719   4.136
 2386SOL    HW2 8058   5.354   5.565   4.191
 2387SOL     OW 8059   1.678   1.257   4.183
 2387SOL    HW1 8060   1.654   1.160   4.191
 2387SOL    HW2 8061   1.677   1.299   4.274
 2388SOL     OW 8062   6.360   2.197   3.904
 2388SOL    HW1 8063   6.371   2.098   3.892
 2388SOL    HW2 8064   6.379   2.221   3.999
 2389SOL     OW 8065   4.236   5.122   3.183
 2389SOL    HW1 8066   4.150   5.163   3.214
 2389SOL    HW2 8067   4.219   5.070   3.099
 2390SOL     OW 8068   3.444   3.762   2.388
 2390SOL    HW1 8069   3.416   3.772   2.293
 2390SOL    HW2 8070   3.532   3.807   2.402
 2391SOL     OW 8071   4.376   5.236   5.825
 2391SOL    HW1 8072   4.362   5.137   5.820
 2391SOL    HW2 8073   4.332   5.271   5.908
 2392SOL     OW 8074   2.959   0.639   0.012
 2392SOL    HW1 8075   2.861   0.638   7.015
 2392SOL    HW2 8076   2.992   0.545   0.023
 2393SOL     OW 8077   4.106   4.742   5.939
 2393SOL    HW1 8078   4.181   4.684   5.972
 2393SOL    HW2 8079   4.118   4.759   5.841
 2394SOL     OW 8080   0.717   4.022   4.776
 2394SOL    HW1 8081   0.699   4.115   4.744
 2394SOL    HW2 8082   0.741   3.965   4.697
 2395SOL     OW 8083   3.837   6.635   6.046
 2395SOL    HW1 8084   3.851   6.639   5.947
 2395SOL    HW2 8085   3.746   6.669   6.068
 2396SOL     OW 8086   4.282   4.678   0.228
 2396SOL    HW1 8087   4.332   4.714   0.307
 2396SOL    HW2 8088   4.196   4.729   0.218
 2397SOL     OW 8089   0.740   3.769   4.651
 2397SOL    HW1 8090   0.640   3.763   4.659
 2397SOL    HW2 8091   0.767   3.734   4.561
 2398SOL     OW 8092   4.459   4.387   5.758
 2398SOL    HW1 8093   4.362   4.409   5.750
 2398SOL    HW2 8094   4.479   4.352   5.849
 2399SOL     OW 8095   4.887   2.270   1.634
 2399SOL    HW1 8096   4.850   2.361   1.615
 2399SOL    HW2 8097   4.979   2.263   1.596
 2400SOL     OW 8098   2.600   5.138   1.008
 2400SOL    HW1 8099   2.543   5.163   1.086
 2400SOL    HW2 8100   2.594   5.210   0.938
 2401SOL     OW 8101   6.352   6.110   6.382
 2401SOL    HW1 8102   6.313   6.163   6.307
 2401SOL    HW2 8103   6.319   6.147   6.469
 2402SOL     OW 8104   0.257   6.889   4.445
 2402SOL    HW1 8105   0.214   6.945   4.515
 2402SOL    HW2 8106   0.189   6.863   4.376
 2403SOL     OW 8107   0.759   2.536   5.331
 2403SOL    HW1 8108   0.675   2.496   5.294
 2403SOL    HW2 8109   0.736   2.595   5.408
 2404SOL     OW 8110   1.711   0.612   0.539
 2404SOL    HW1 8111   1.636   0.547   0.548
 2404SOL    HW2 8112   1.748   0.607   0.446
 2405SOL     OW 8113   2.749   3.829   1.711
 2405SOL    HW1 8114   2.718   3.735   1.696
 2405SOL    HW2 8115   2.669   3.889   1.720
 2406SOL     OW 8116   4.826   1.585   0.647
 2406SOL    HW1 8117   4.762   1.553   0.717
 2406SOL    HW2 8118   4.838   1.684   0.654
 2407SOL     OW 8119   5.418   1.028   3.167
 2407SOL    HW1 8120   5.496   0.966   3.173
 2407SOL    HW2 8121   5.336   0.981   3.198
 2408SOL     OW 8122   4.717   4.265   2.183
 2408SOL    HW1 8123   4.775   4.346   2.175
 2408SOL    HW2 8124   4.662   4.255   2.100
 2409SOL     OW 8125   1.821   4.028   0.493
 2409SOL    HW1 8126   1.766   3.945   0.480
 2409SOL    HW2 8127   1.769   4.095   0.545
 2410SOL     OW 8128   3.441   3.244   2.891
 2410SOL    HW1 8129   3.467   3.303   2.967
 2410SOL    HW2 8130   3.505   3.255   2.815
 2411SOL     OW 8131   5.539   6.947   5.015
 2411SOL    HW1 8132   5.546   6.995   5.103
 2411SOL    HW2 8133   5.628   6.945   4.971
 2412SOL     OW 8134   4.883   3.691   1.179
 2412SOL    HW1 8135   4.928   3.604   1.159
 2412SOL    HW2 8136   4.789   3.689   1.144
 2413SOL     OW 8137   5.424   0.200   2.090
 2413SOL    HW1 8138   5.341   0.256   2.090
 2413SOL    HW2 8139   5.494   0.245   2.145
 2414SOL     OW 8140   5.132   3.120   3.975
 2414SOL    HW1 8141   5.194   3.063   3.921
 2414SOL    HW2 8142   5.040   3.117   3.937
 2415SOL     OW 8143   4.765   1.095   3.460
 2415SOL    HW1 8144   4.697   1.046   3.514
 2415SOL    HW2 8145   4.823   1.149   3.521
 2416SOL     OW 8146   4.696   1.331   5.825
 2416SOL    HW1 8147   4.756   1.296   5.896
 2416SOL    HW2 8148   4.703   1.431   5.821
 2417SOL     OW 8149   3.157   2.982   4.322
 2417SOL    HW1 8150   3.149   3.015   4.228
 2417SOL    HW2 8151   3.227   2.911   4.326
 2418SOL     OW 8152   4.043   3.342   2.964
 2418SOL    HW1 8153   4.018   3.256   3.008
 2418SOL    HW2 8154   4.084   3.323   2.875
 2419SOL     OW 8155   0.426   0.151   2.802
 2419SOL    HW1 8156   0.504   0.214   2.801
 2419SOL    HW2 8157   0.459   0.057   2.793
 2420SOL     OW 8158   2.248   0.011   1.755
 2420SOL    HW1 8159   2.176   0.070   1.790
 2420SOL    HW2 8160   2.318   0.066   1.709
 2421SOL     OW 8161   2.359   2.077   4.389
 2421SOL    HW1 8162   2.436   2.087   4.327
 2421SOL    HW2 8163   2.384   2.018   4.465
 2422SOL     OW 8164   4.716   1.688   1.042
 2422SOL    HW1 8165   4.681   1.602   1.008
 2422SOL    HW2 8166   4.687   1.701   1.137
 2423SOL     OW 8167   1.794   5.383   2.795
 2423SOL    HW1 8168   1.850   5.441   2.854
 2423SOL    HW2 8169   1.769   5.300   2.844
 2424SOL     OW 8170   5.557   0.121   0.637
 2424SOL    HW1 8171   5.652   0.152   0.631
 2424SOL    HW2 8172   5.555   0.023   0.657
 2425SOL     OW 8173   6.644   6.891   4.684
 2425SOL    HW1 8174   6.670   6.909   4.590
 2425SOL    HW2 8175   6.589   6.807   4.689
 2426SOL     OW 8176   2.499   4.986   4.010
 2426SOL    HW1 8177   2.523   5.021   4.101
 2426SOL    HW2 8178   2.422   5.039   3.974
 2427SOL     OW 8179   6.107   0.074   5.970
 2427SOL    HW1 8180   6.171   0.064   5.893
 2427SOL    HW2 8181   6.015   0.086   5.934
 2428SOL     OW 8182   6.639   0.730   0.577
 2428SOL    HW1 8183   6.643   0.630   0.586
 2428SOL    HW2 8184   6.689   0.773   0.651
 2429SOL     OW 8185   4.969   6.138   1.717
 2429SOL    HW1 8186   4.889   6.188   1.750
 2429SOL    HW2 8187   4.940   6.046   1.688
 2430SOL     OW 8188   5.735   1.025   2.645
 2430SOL    HW1 8189   5.827   1.058   2.667
 2430SOL    HW2 8190   5.671   1.101   2.647
 2431SOL     OW 8191   4.023   0.745   2.110
 2431SOL    HW1 8192   4.009   0.833   2.157
 2431SOL    HW2 8193   3.964   0.676   2.152
 2432SOL     OW 8194   2.475   6.340   2.213
 2432SOL    HW1 8195   2.549   6.280   2.244
 2432SOL    HW2 8196   2.476   6.425   2.265
 2433SOL     OW 8197   3.673   0.427   0.197
 2433SOL    HW1 8198   3.667   0.412   0.296
 2433SOL    HW2 8199   3.768   0.418   0.168
 2434SOL     OW 8200   4.316   3.072   6.135
 2434SOL    HW1 8201   4.300   2.976   6.114
 2434SOL    HW2 8202   4.369   3.079   6.220
 2435SOL     OW 8203   5.831   5.773   5.147
 2435SOL    HW1 8204   5.891   5.751   5.071
 2435SOL    HW2 8205   5.811   5.691   5.200
 2436SOL     OW 8206   2.912   5.707   0.278
 2436SOL    HW1 8207   2.979   5.735   0.346
 2436SOL    HW2 8208   2.956   5.698   0.189
 2437SOL     OW 8209   0.257   0.160   6.218
 2437SOL    HW1 8210   0.235   0.165   6.315
 2437SOL    HW2 8211   0.194   0.217   6.166
 2438SOL     OW 8212   2.889   2.908   1.098
 2438SOL    HW1 8213   2.829   2.958   1.160
 2438SOL    HW2 8214   2.843   2.826   1.065
 2439SOL     OW 8215   6.173   4.544   4.901
 2439SOL    HW1 8216   6.262   4.507   4.930
 2439SOL    HW2 8217   6.104   4.521   4.968
 2440SOL     OW 8218   5.951   4.960   6.367
 2440SOL    HW1 8219   5.949   4.888   6.436
 2440SOL    HW2 8220   5.859   4.973   6.330
 2441SOL     OW 8221   6.164   2.508   1.199
 2441SOL    HW1 8222   6.084   2.459   1.163
 2441SOL    HW2 8223   6.245   2.482   1.148
 2442SOL     OW 8224   6.955   3.574   4.911
 2442SOL    HW1 8225   6.865   3.594   4.872
 2442SOL    HW2 8226   6.984   3.482   4.885
 2443SOL     OW 8227   3.020   4.721   5.928
 2443SOL    HW1 8228   2.940   4.687   5.976
 2443SOL    HW2 8229   3.005   4.815   5.899
 2444SOL     OW 8230   2.927   3.142   5.383
 2444SOL    HW1 8231   2.996   3.211   5.406
 2444SOL    HW2 8232   2.955   3.054   5.420
 2445SOL     OW 8233   0.627   0.296   0.600
 2445SOL    HW1 8234   0.553   0.298   0.533
 2445SOL    HW2 8235   0.714   0.285   0.552
 2446SOL     OW 8236   5.455   3.573   6.070
 2446SOL    HW1 8237   5.525   3.628   6.115
 2446SOL    HW2 8238   5.497   3.519   5.997
 2447SOL     OW 8239   0.343   2.233   6.388
 2447SOL    HW1 8240   0.354   2.330   6.367
 2447SOL    HW2 8241   0.304   2.222   6.479
 2448SOL     OW 8242   0.504   0.349   4.198
 2448SOL    HW1 8243   0.421   0.298   4.222
 2448SOL    HW2 8244   0.495   0.444   4.226
 2449SOL     OW 8245   0.389   2.405   4.789
 2449SOL    HW1 8246   0.487   2.415   4.771
 2449SOL    HW2 8247   0.371   2.424   4.886
 2450SOL     OW 8248   1.829   3.209   2.135
 2450SOL    HW1 8249   1.768   3.135   2.160
 2450SOL    HW2 8250   1.795   3.295   2.174
 2451SOL     OW 8251   2.312   6.537   4.492
 2451SOL    HW1 8252   2.275   6.470   4.556
 2451SOL    HW2 8253   2.408   6.556   4.514
 2452SOL     OW 8254   1.762   2.470   4.428
 2452SOL    HW1 8255   1.783   2.379   4.465
 2452SOL    HW2 8256   1.846   2.517   4.404
 2453SOL     OW 8257   0.356   3.291   1.554
 2453SOL    HW1 8258   0.454   3.271   1.550
 2453SOL    HW2 8259   0.331   3.316   1.648
 2454SOL     OW 8260   2.167   0.369   2.182
 2454SOL    HW1 8261   2.220   0.378   2.098
 2454SOL    HW2 8262   2.082   0.420   2.174
 2455SOL     OW 8263   5.092   4.126   0.725
 2455SOL    HW1 8264   4.999   4.094   0.743
 2455SOL    HW2 8265   5.150   4.048   0.703
 2456SOL     OW 8266   3.270   6.542   1.117
 2456SOL    HW1 8267   3.359   6.554   1.161
 2456SOL    HW2 8268   3.252   6.620   1.056
 2457SOL     OW 8269   6.106   6.524   1.164
 2457SOL    HW1 8270   6.015   6.490   1.188
 2457SOL    HW2 8271   6.169   6.509   1.240
 2458SOL     OW 8272   0.642   5.959   2.846
 2458SOL    HW1 8273   0.706   5.997   2.780
 2458SOL    HW2 8274   0.610   5.870   2.815
 2459SOL     OW 8275   0.851   0.814   0.655
 2459SOL    HW1 8276   0.788   0.878   0.611
 2459SOL    HW2 8277   0.802   0.760   0.723
 2460SOL     OW 8278   3.602   5.332   1.507
 2460SOL    HW1 8279   3.593   5.333   1.408
 2460SOL    HW2 8280   3.533   5.392   1.547
 2461SOL     OW 8281   5.035   0.965   3.463
 2461SOL    HW1 8282   5.010   0.869   3.471
 2461SOL    HW2 8283   4.954   1.019   3.440
 2462SOL     OW 8284   2.774   4.535   6.346
 2462SOL    HW1 8285   2.842   4.604   6.368
 2462SOL    HW2 8286   2.767   4.525   6.247
 2463SOL     OW 8287   0.326   2.182   4.258
 2463SOL    HW1 8288   0.406   2.134   4.295
 2463SOL    HW2 8289   0.274   2.223   4.332
 2464SOL     OW 8290   1.493   3.482   1.187
 2464SOL    HW1 8291   1.573   3.532   1.155
 2464SOL    HW2 8292   1.483   3.397   1.136
 2465SOL     OW 8293   5.846   5.083   2.619
 2465SOL    HW1 8294   5.840   5.024   2.700
 2465SOL    HW2 8295   5.858   5.026   2.538
 2466SOL     OW 8296   3.815   1.598   2.020
 2466SOL    HW1 8297   3.865   1.677   2.053
 2466SOL    HW2 8298   3.733   1.628   1.971
 2467SOL     OW 8299   6.589   1.402   4.994
 2467SOL    HW1 8300   6.515   1.402   5.062
 2467SOL    HW2 8301   6.673   1.370   5.037
 2468SOL     OW 8302   6.866   3.783   0.642
 2468SOL    HW1 8303   6.791   3.848   0.650
 2468SOL    HW2 8304   6.914   3.798   0.556
 2469SOL     OW 8305   3.028   2.875   5.916
 2469SOL    HW1 8306   3.101   2.898   5.852
 2469SOL    HW2 8307   3.041   2.925   6.002
 2470SOL     OW 8308   5.864   2.914   0.761
 2470SOL    HW1 8309   5.840   2.895   0.856
 2470SOL    HW2 8310   5.782   2.940   0.710
 2471SOL     OW 8311   0.597   1.095   3.478
 2471SOL    HW1 8312   0.631   1.002   3.467
 2471SOL    HW2 8313   0.540   1.120   3.400
 2472SOL     OW 8314   5.733   1.781   3.855
 2472SOL    HW1 8315   5.648   1.833   3.859
 2472SOL    HW2 8316   5.748   1.749   3.762
 2473SOL     OW 8317   0.564   6.716   5.352
 2473SOL    HW1 8318   0.514   6.666   5.423
 2473SOL    HW2 8319   0.588   6.807   5.386
 2474SOL     OW 8320   5.932   5.888   4.508
 2474SOL    HW1 8321   5.884   5.952   4.448
 2474SOL    HW2 8322   6.004   5.937   4.559
 2475SOL     OW 8323   4.608   2.375   6.071
 2475SOL    HW1 8324   4.546   2.338   6.002
 2475SOL    HW2 8325   4.574   2.352   6.162
 2476SOL     OW 8326   0.561   1.716   3.275
 2476SOL    HW1 8327   0.643   1.773   3.284
 2476SOL    HW2 8328   0.562   1.646   3.347
 2477SOL     OW 8329   4.393   5.205   2.276
 2477SOL    HW1 8330   4.480   5.206   2.228
 2477SOL    HW2 8331   4.319   5.196   2.210
 2478SOL     OW 8332   6.923   0.065   3.289
 2478SOL    HW1 8333   6.833   0.089   3.254
 2478SOL    HW2 8334   6.949   0.129   3.361
 2479SOL     OW 8335   0.354   2.021   6.745
 2479SOL    HW1 8336   0.329   1.967   6.826
 2479SOL    HW2 8337   0.444   2.062   6.759
 2480SOL     OW 8338   0.685   5.063   2.055
 2480SOL    HW1 8339   0.746   4.986   2.074
 2480SOL    HW2 8340   0.731   5.148   2.077
 2481SOL     OW 8341   3.762   4.901   2.476
 2481SOL    HW1 8342   3.760   4.994   2.438
 2481SOL    HW2 8343   3.849   4.858   2.453
 2482SOL     OW 8344   4.656   2.517   3.863
 2482SOL    HW1 8345   4.557   2.527   3.865
 2482SOL    HW2 8346   4.697   2.575   3.933
 2483SOL     OW 8347   0.513   2.918   6.768
 2483SOL    HW1 8348   0.536   3.016   6.767
 2483SOL    HW2 8349   0.526   2.880   6.677
 2484SOL     OW 8350   3.807   3.431   6.455
 2484SOL    HW1 8351   3.861   3.378   6.390
 2484SOL    HW2 8352   3.789   3.376   6.536
 2485SOL     OW 8353   0.892   5.785   0.848
 2485SOL    HW1 8354   0.939   5.762   0.933
 2485SOL    HW2 8355   0.878   5.884   0.843
 2486SOL     OW 8356   0.618   5.229   3.306
 2486SOL    HW1 8357   0.691   5.233   3.238
 2486SOL    HW2 8358   0.563   5.147   3.292
 2487SOL     OW 8359   3.307   1.723   1.327
 2487SOL    HW1 8360   3.250   1.803   1.309
 2487SOL    HW2 8361   3.256   1.656   1.381
 2488SOL     OW 8362   2.621   6.377   6.188
 2488SOL    HW1 8363   2.606   6.338   6.279
 2488SOL    HW2 8364   2.541   6.430   6.161
 2489SOL     OW 8365   6.601   6.138   4.392
 2489SOL    HW1 8366   6.646   6.133   4.303
 2489SOL    HW2 8367   6.633   6.220   4.441
 2490SOL     OW 8368   5.386   3.246   1.875
 2490SOL    HW1 8369   5.354   3.283   1.788
 2490SOL    HW2 8370   5.422   3.320   1.931
 2491SOL     OW 8371   0.043   4.329   2.632
 2491SOL    HW1 8372   6.981   4.297   2.677
 2491SOL    HW2 8373   0.080   4.255   2.575
 2492SOL     OW 8374   4.297   1.456   5.767
 2492SOL    HW1 8375   4.346   1.370   5.781
 2492SOL    HW2 8376   4.359   1.532   5.786
 2493SOL     OW 8377   6.536   1.422   4.736
 2493SOL    HW1 8378   6.471   1.350   4.711
 2493SOL    HW2 8379   6.563   1.411   4.831
 2494SOL     OW 8380   4.266   4.309   1.009
 2494SOL    HW1 8381   4.209   4.391   1.005
 2494SOL    HW2 8382   4.361   4.336   1.026
 2495SOL     OW 8383   6.431   1.001   3.166
 2495SOL    HW1 8384   6.496   0.925   3.175
 2495SOL    HW2 8385   6.479   1.087   3.175
 2496SOL     OW 8386   1.605   5.507   6.938
 2496SOL    HW1 8387   1.585   5.605   6.943
 2496SOL    HW2 8388   1.520   5.455   6.937
 2497SOL     OW 8389   5.542   0.165   0.015
 2497SOL    HW1 8390   5.523   0.190   0.110
 2497SOL    HW2 8391   5.538   0.066   0.005
 2498SOL     OW 8392   0.545   2.894   5.064
 2498SOL    HW1 8393   0.561   2.896   4.965
 2498SOL    HW2 8394   0.454   2.929   5.084
 2499SOL     OW 8395   4.893   0.356   0.230
 2499SOL    HW1 8396   4.966   0.363   0.298
 2499SOL    HW2 8397   4.805   0.372   0.274
 2500SOL     OW 8398   4.198   3.800   6.560
 2500SOL    HW1 8399   4.217   3.765   6.469
 2500SOL    HW2 8400   4.116   3.858   6.557
 2501SOL     OW 8401   6.184   4.770   0.809
 2501SOL    HW1 8402   6.220   4.724   0.727
 2501SOL    HW2 8403   6.200   4.713   0.889
 2502SOL     OW 8404   0.622   6.959   2.808
 2502SOL    HW1 8405   0.659   6.946   2.716
 2502SOL    HW2 8406   0.673   0.009   2.855
 2503SOL     OW 8407   5.219   0.427   4.477
 2503SOL    HW1 8408   5.189   0.332   4.480
 2503SOL    HW2 8409   5.285   0.438   4.402
 2504SOL     OW 8410   2.191   4.054   2.869
 2504SOL    HW1 8411   2.257   4.121   2.903
 2504SOL    HW2 8412   2.199   4.048   2.769
 2505SOL     OW 8413   5.339   4.114   4.760
 2505SOL    HW1 8414   5.424   4.138   4.807
 2505SOL    HW2 8415   5.330   4.014   4.756
 2506SOL     OW 8416   1.157   1.401   1.001
 2506SOL    HW1 8417   1.104   1.333   0.950
 2506SOL    HW2 8418   1.098   1.476   1.028
 2507SOL     OW 8419   6.552   5.862   0.329
 2507SOL    HW1 8420   6.519   5.954   0.305
 2507SOL    HW2 8421   6.651   5.857   0.314
 2508SOL     OW 8422   2.266   2.577   1.713
 2508SOL    HW1 8423   2.295   2.612   1.623
 2508SOL    HW2 8424   2.343   2.583   1.776
 2509SOL     OW 8425   5.282   1.329   3.513
 2509SOL    HW1 8426   5.351   1.269   3.472
 2509SOL    HW2 8427   5.317   1.422   3.516
 2510SOL     OW 8428   4.075   5.834   2.486
 2510SOL    HW1 8429   4.133   5.866   2.561
 2510SOL    HW2 8430   4.058   5.909   2.422
 2511SOL     OW 8431   1.107   6.820   3.339
 2511SOL    HW1 8432   1.053   6.741   3.309
 2511SOL    HW2 8433   1.085   6.898   3.281
 2512SOL     OW 8434   5.928   3.027   3.976
 2512SOL    HW1 8435   5.998   2.998   4.041
 2512SOL    HW2 8436   5.837   3.001   4.010
 2513SOL     OW 8437   0.486   4.608   1.020
 2513SOL    HW1 8438   0.548   4.589   0.943
 2513SOL    HW2 8439   0.410   4.543   1.018
 2514SOL     OW 8440   0.342   2.546   3.482
 2514SOL    HW1 8441   0.352   2.627   3.540
 2514SOL    HW2 8442   0.302   2.472   3.535
 2515SOL     OW 8443   0.948   4.683   0.227
 2515SOL    HW1 8444   0.938   4.586   0.205
 2515SOL    HW2 8445   1.040   4.713   0.202
 2516SOL     OW 8446   5.001   6.245   4.261
 2516SOL    HW1 8447   5.052   6.320   4.218
 2516SOL    HW2 8448   4.961   6.277   4.347
 2517SOL     OW 8449   2.402   5.452   1.007
 2517SOL    HW1 8450   2.352   5.369   0.981
 2517SOL    HW2 8451   2.344   5.532   0.992
 2518SOL     OW 8452   1.973   3.018   6.809
 2518SOL    HW1 8453   1.876   2.993   6.815
 2518SOL    HW2 8454   2.015   2.968   6.734
 2519SOL     OW 8455   5.945   4.207   5.140
 2519SOL    HW1 8456   5.983   4.193   5.048
 2519SOL    HW2 8457   5.948   4.120   5.190
 2520SOL     OW 8458   3.203   5.389   2.023
 2520SOL    HW1 8459   3.234   5.445   2.100
 2520SOL    HW2 8460   3.231   5.294   2.038
 2521SOL     OW 8461   5.595   6.930   6.074
 2521SOL    HW1 8462   5.555   6.858   6.130
 2521SOL    HW2 8463   5.591   7.017   6.122
 2522SOL     OW 8464   2.871   4.768   4.185
 2522SOL    HW1 8465   2.805   4.772   4.260
 2522SOL    HW2 8466   2.962   4.790   4.221
 2523SOL     OW 8467   1.179   2.544   5.594
 2523SOL    HW1 8468   1.121   2.579   5.668
 2523SOL    HW2 8469   1.234   2.618   5.556
 2524SOL     OW 8470   1.383   6.973   4.614
 2524SOL    HW1 8471   1.391   6.873   4.611
 2524SOL    HW2 8472   1.460   7.011   4.664
 2525SOL     OW 8473   2.119   4.483   2.461
 2525SOL    HW1 8474   2.090   4.452   2.370
 2525SOL    HW2 8475   2.218   4.498   2.461
 2526SOL     OW 8476   1.585   2.676   4.981
 2526SOL    HW1 8477   1.668   2.649   5.030
 2526SOL    HW2 8478   1.608   2.698   4.886
 2527SOL     OW 8479   6.768   0.320   3.981
 2527SOL    HW1 8480   6.712   0.237   3.987
 2527SOL    HW2 8481   6.738   0.385   4.051
 2528SOL     OW 8482   6.019   5.214   0.062
 2528SOL    HW1 8483   6.023   5.181   0.156
 2528SOL    HW2 8484   6.104   5.260   0.038
 2529SOL     OW 8485   5.203   3.893   5.107
 2529SOL    HW1 8486   5.154   3.949   5.174
 2529SOL    HW2 8487   5.145   3.881   5.027
 2530SOL     OW 8488   0.960   6.590   3.638
 2530SOL    HW1 8489   1.051   6.612   3.602
 2530SOL    HW2 8490   0.931   6.661   3.701
 2531SOL     OW 8491   5.159   1.424   6.904
 2531SOL    HW1 8492   5.249   1.466   6.913
 2531SOL    HW2 8493   5.130   1.388   6.993
 2532SOL     OW 8494   0.376   4.892   6.102
 2532SOL    HW1 8495   0.299   4.846   6.060
 2532SOL    HW2 8496   0.460   4.871   6.051
 2533SOL     OW 8497   5.724   0.028   5.651
 2533SOL    HW1 8498   5.702   0.123   5.629
 2533SOL    HW2 8499   5.822   0.013   5.642
 2534SOL     OW 8500   0.109   2.037   2.947
 2534SOL    HW1 8501   0.034   2.014   3.008
 2534SOL    HW2 8502   0.161   1.955   2.925
 2535SOL     OW 8503   2.316   1.585   3.180
 2535SOL    HW1 8504   2.382   1.660   3.174
 2535SOL    HW2 8505   2.277   1.582   3.272
 2536SOL     OW 8506   0.448   0.625   3.976
 2536SOL    HW1 8507   0.372   0.690   3.978
 2536SOL    HW2 8508   0.459   0.584   4.066
 2537SOL     OW 8509   3.774   5.965   1.824
 2537SOL    HW1 8510   3.678   5.941   1.809
 2537SOL    HW2 8511   3.789   5.983   1.921
 2538SOL     OW 8512   0.681   4.772   4.966
 2538SOL    HW1 8513   0.590   4.813   4.956
 2538SOL    HW2 8514   0.705   4.722   4.883
 2539SOL     OW 8515   2.228   0.550   5.169
 2539SOL    HW1 8516   2.172   0.504   5.238
 2539SOL    HW2 8517   2.280   0.623   5.213
 2540SOL     OW 8518   5.240   1.998   2.487
 2540SOL    HW1 8519   5.236   1.901   2.512
 2540SOL    HW2 8520   5.310   2.043   2.542
 2541SOL     OW 8521   0.427   1.046   6.024
 2541SOL    HW1 8522   0.495   1.085   6.087
 2541SOL    HW2 8523   0.460   0.959   5.988
 2542SOL     OW 8524   3.772   2.106   3.754
 2542SOL    HW1 8525   3.751   2.158   3.837
 2542SOL    HW2 8526   3.872   2.106   3.740
 2543SOL     OW 8527   6.627   1.736   4.446
 2543SOL    HW1 8528   6.585   1.651   4.412
 2543SOL    HW2 8529   6.641   1.729   4.544
 2544SOL     OW 8530   0.034   6.453   1.937
 2544SOL    HW1 8531   0.056   6.370   1.885
 2544SOL    HW2 8532   0.117   6.503   1.959
 2545SOL     OW 8533   6.706   1.886   0.295
 2545SOL    HW1 8534   6.731   1.976   0.259
 2545SOL    HW2 8535   6.661   1.896   0.383
 2546SOL     OW 8536   6.300   3.373   2.314
 2546SOL    HW1 8537   6.319   3.447   2.380
 2546SOL    HW2 8538   6.313   3.285   2.359
 2547SOL     OW 8539   5.662   3.868   1.246
 2547SOL    HW1 8540   5.684   3.867   1.343
 2547SOL    HW2 8541   5.574   3.913   1.231
 2548SOL     OW 8542   6.199   0.991   5.510
 2548SOL    HW1 8543   6.125   1.055   5.528
 2548SOL    HW2 8544   6.266   0.996   5.584
 2549SOL     OW 8545   2.831   4.919   1.043
 2549SOL    HW1 8546   2.797   4.848   1.105
 2549SOL    HW2 8547   2.763   4.992   1.036
 2550SOL     OW 8548   3.738   6.486   0.780
 2550SOL    HW1 8549   3.732   6.586   0.785
 2550SOL    HW2 8550   3.679   6.452   0.707
 2551SOL     OW 8551   3.713   4.632   1.379
 2551SOL    HW1 8552   3.702   4.540   1.417
 2551SOL    HW2 8553   3.627   4.683   1.388
 2552SOL     OW 8554   2.386   4.368   1.972
 2552SOL    HW1 8555   2.447   4.420   1.912
 2552SOL    HW2 8556   2.400   4.270   1.957
 2553SOL     OW 8557   4.733   1.408   0.003
 2553SOL    HW1 8558   4.816   1.410   0.060
 2553SOL    HW2 8559   4.709   1.313   7.006
 2554SOL     OW 8560   1.256   5.545   1.066
 2554SOL    HW1 8561   1.304   5.458   1.055
 2554SOL    HW2 8562   1.261   5.598   0.981
 2555SOL     OW 8563   6.875   6.788   5.387
 2555SOL    HW1 8564   6.835   6.726   5.320
 2555SOL    HW2 8565   6.837   6.769   5.478
 2556SOL     OW 8566   4.136   0.331   0.895
 2556SOL    HW1 8567   4.217   0.316   0.952
 2556SOL    HW2 8568   4.072   0.254   0.906
 2557SOL     OW 8569   3.001   0.868   6.827
 2557SOL    HW1 8570   2.987   0.826   6.738
 2557SOL    HW2 8571   3.017   0.797   6.896
 2558SOL     OW 8572   5.350   1.679   1.602
 2558SOL    HW1 8573   5.347   1.596   1.658
 2558SOL    HW2 8574   5.270   1.681   1.542
 2559SOL     OW 8575   0.346   5.404   2.605
 2559SOL    HW1 8576   0.378   5.309   2.597
 2559SOL    HW2 8577   0.358   5.434   2.700
 2560SOL     OW 8578   4.899   2.346   2.185
 2560SOL    HW1 8579   4.815   2.332   2.133
 2560SOL    HW2 8580   4.880   2.406   2.263
 2561SOL     OW 8581   2.853   0.050   4.441
 2561SOL    HW1 8582   2.807   0.121   4.388
 2561SOL    HW2 8583   2.792   0.018   4.513
 2562SOL     OW 8584   1.439   6.437   5.186
 2562SOL    HW1 8585   1.520   6.496   5.175
 2562SOL    HW2 8586   1.381   6.473   5.258
 2563SOL     OW 8587   3.498   2.995   6.625
 2563SOL    HW1 8588   3.522   3.017   6.530
 2563SOL    HW2 8589   3.525   2.901   6.645
 2564SOL     OW 8590   1.642   2.188   6.960
 2564SOL    HW1 8591   1.545   2.179   6.982
 2564SOL    HW2 8592   1.687   2.099   6.965
 2565SOL     OW 8593   0.703   0.583   0.694
 2565SOL    HW1 8594   0.604   0.571   0.687
 2565SOL    HW2 8595   0.749   0.524   0.627
 2566SOL     OW 8596   2.922   1.114   0.900
 2566SOL    HW1 8597   2.885   1.024   0.876
 2566SOL    HW2 8598   2.848   1.172   0.934
 2567SOL     OW 8599   1.621   0.898   6.293
 2567SOL    HW1 8600   1.574   0.879   6.207
 2567SOL    HW2 8601   1.606   0.823   6.357
 2568SOL     OW 8602   2.121   5.397   1.360
 2568SOL    HW1 8603   2.109   5.320   1.422
 2568SOL    HW2 8604   2.213   5.435   1.371
 2569SOL     OW 8605   1.697   6.727   6.912
 2569SOL    HW1 8606   1.690   6.725   7.012
 2569SOL    HW2 8607   1.708   6.821   6.881
 2570SOL     OW 8608   0.627   6.222   4.069
 2570SOL    HW1 8609   0.674   6.294   4.017
 2570SOL    HW2 8610   0.695   6.160   4.109
 2571SOL     OW 8611   3.095   3.718   3.126
 2571SOL    HW1 8612   3.117   3.816   3.125
 2571SOL    HW2 8613   3.089   3.686   3.220
 2572SOL     OW 8614   2.562   4.922   2.690
 2572SOL    HW1 8615   2.630   4.854   2.664
 2572SOL    HW2 8616   2.566   4.938   2.789
 2573SOL     OW 8617   6.561   1.222   3.243
 2573SOL    HW1 8618   6.577   1.190   3.336
 2573SOL    HW2 8619   6.648   1.240   3.198
 2574SOL     OW 8620   0.933   3.361   1.934
 2574SOL    HW1 8621   0.838   3.341   1.907
 2574SOL    HW2 8622   0.940   3.457   1.960
 2575SOL     OW 8623   4.879   3.453   5.675
 2575SOL    HW1 8624   4.905   3.497   5.589
 2575SOL    HW2 8625   4.907   3.357   5.674
 2576SOL     OW 8626   1.016   0.170   3.489
 2576SOL    HW1 8627   1.078   0.246   3.505
 2576SOL    HW2 8628   0.979   0.138   3.576
 2577SOL     OW 8629   2.044   4.930   1.618
 2577SOL    HW1 8630   1.968   4.981   1.658
 2577SOL    HW2 8631   2.112   4.912   1.689
 2578SOL     OW 8632   4.534   1.965   4.934
 2578SOL    HW1 8633   4.604   1.913   4.885
 2578SOL    HW2 8634   4.444   1.943   4.897
 2579SOL     OW 8635   0.127   1.273   6.425
 2579SOL    HW1 8636   0.061   1.332   6.471
 2579SOL    HW2 8637   0.220   1.308   6.439
 2580SOL     OW 8638   1.501   1.304   5.738
 2580SOL    HW1 8639   1.592   1.318   5.700
 2580SOL    HW2 8640   1.433   1.308   5.665
 2581SOL     OW 8641   6.392   6.529   4.789
 2581SOL    HW1 8642   6.310   6.472   4.778
 2581SOL    HW2 8643   6.414   6.536   4.886
 2582SOL     OW 8644   0.007   4.902   2.506
 2582SOL    HW1 8645   6.947   4.919   2.559
 2582SOL    HW2 8646   0.030   4.982   2.452
 2583SOL     OW 8647   2.289   1.088   6.238
 2583SOL    HW1 8648   2.234   1.049   6.164
 2583SOL    HW2 8649   2.275   1.035   6.322
 2584SOL     OW 8650   4.819   0.495   2.662
 2584SOL    HW1 8651   4.885   0.421   2.656
 2584SOL    HW2 8652   4.734   0.468   2.615
 2585SOL     OW 8653   3.989   1.404   2.051
 2585SOL    HW1 8654   3.904   1.458   2.052
 2585SOL    HW2 8655   4.044   1.429   1.971
 2586SOL     OW 8656   0.044   1.304   4.348
 2586SOL    HW1 8657   0.057   1.209   4.376
 2586SOL    HW2 8658   0.091   1.365   4.412
 2587SOL     OW 8659   6.487   5.679   2.556
 2587SOL    HW1 8660   6.566   5.725   2.596
 2587SOL    HW2 8661   6.496   5.677   2.456
 2588SOL     OW 8662   4.330   6.926   2.244
 2588SOL    HW1 8663   4.298   7.019   2.231
 2588SOL    HW2 8664   4.414   6.912   2.193
 2589SOL     OW 8665   5.039   6.148   1.252
 2589SOL    HW1 8666   5.038   6.065   1.196
 2589SOL    HW2 8667   5.084   6.222   1.202
 2590SOL     OW 8668   2.976   6.479   3.175
 2590SOL    HW1 8669   2.915   6.557   3.165
 2590SOL    HW2 8670   3.069   6.512   3.192
 2591SOL     OW 8671   6.341   0.472   1.212
 2591SOL    HW1 8672   6.286   0.444   1.290
 2591SOL    HW2 8673   6.282   0.507   1.140
 2592SOL     OW 8674   3.140   4.823   1.627
 2592SOL    HW1 8675   3.087   4.742   1.600
 2592SOL    HW2 8676   3.161   4.818   1.724
 2593SOL     OW 8677   3.759   6.738   2.862
 2593SOL    HW1 8678   3.691   6.771   2.927
 2593SOL    HW2 8679   3.717   6.667   2.804
 2594SOL     OW 8680   1.123   6.035   6.892
 2594SOL    HW1 8681   1.101   6.071   6.801
 2594SOL    HW2 8682   1.170   5.947   6.882
 2595SOL     OW 8683   6.808   2.179   4.222
 2595SOL    HW1 8684   6.874   2.229   4.279
 2595SOL    HW2 8685   6.786   2.234   4.142
 2596SOL     OW 8686   3.887   2.137   1.134
 2596SOL    HW1 8687   3.895   2.110   1.037
 2596SOL    HW2 8688   3.979   2.154   1.171
 2597SOL     OW 8689   2.137   2.379   6.489
 2597SOL    HW1 8690   2.110   2.347   6.398
 2597SOL    HW2 8691   2.110   2.312   6.558
 2598SOL     OW 8692   6.396   1.208   2.619
 2598SOL    HW1 8693   6.475   1.195   2.679
 2598SOL    HW2 8694   6.416   1.168   2.529
 2599SOL     OW 8695   4.483   5.401   6.902
 2599SOL    HW1 8696   4.562   5.450   6.938
 2599SOL    HW2 8697   4.513   5.335   6.833
 2600SOL     OW 8698   6.971   2.483   4.230
 2600SOL    HW1 8699   6.997   2.417   4.300
 2600SOL    HW2 8700   6.876   2.512   4.245
 2601SOL     OW 8701   3.800   3.644   4.743
 2601SOL    HW1 8702   3.701   3.645   4.759
 2601SOL    HW2 8703   3.824   3.560   4.694
 2602SOL     OW 8704   6.148   5.812   5.947
 2602SOL    HW1 8705   6.233   5.853   5.982
 2602SOL    HW2 8706   6.170   5.727   5.900
 2603SOL     OW 8707   1.739   2.376   6.770
 2603SOL    HW1 8708   1.690   2.456   6.804
 2603SOL    HW2 8709   1.734   2.302   6.837
 2604SOL     OW 8710   5.818   1.424   0.499
 2604SOL    HW1 8711   5.778   1.458   0.584
 2604SOL    HW2 8712   5.883   1.350   0.520
 2605SOL     OW 8713   5.584   3.242   4.089
 2605SOL    HW1 8714   5.533   3.201   4.165
 2605SOL    HW2 8715   5.567   3.340   4.086
 2606SOL     OW 8716   6.922   4.441   1.215
 2606SOL    HW1 8717   6.998   4.481   1.164
 2606SOL    HW2 8718   6.857   4.400   1.152
 2607SOL     OW 8719   1.268   1.763   4.266
 2607SOL    HW1 8720   1.237   1.855   4.240
 2607SOL    HW2 8721   1.217   1.733   4.347
 2608SOL     OW 8722   5.157   6.939   0.630
 2608SOL    HW1 8723   5.222   7.008   0.660
 2608SOL    HW2 8724   5.116   6.895   0.710
 2609SOL     OW 8725   0.454   3.190   3.442
 2609SOL    HW1 8726   0.454   3.090   3.435
 2609SOL    HW2 8727   0.516   3.218   3.514
 2610SOL     OW 8728   5.701   5.722   4.383
 2610SOL    HW1 8729   5.644   5.795   4.345
 2610SOL    HW2 8730   5.662   5.691   4.470
 2611SOL     OW 8731   2.930   5.611   2.073
 2611SOL    HW1 8732   2.997   5.582   2.141
 2611SOL    HW2 8733   2.916   5.539   2.005
 2612SOL     OW 8734   0.255   0.177   5.430
 2612SOL    HW1 8735   0.237   0.272   5.403
 2612SOL    HW2 8736   0.237   0.117   5.353
 2613SOL     OW 8737   3.349   0.894   0.691
 2613SOL    HW1 8738   3.401   0.979   0.690
 2613SOL    HW2 8739   3.276   0.899   0.622
 2614SOL     OW 8740   6.231   6.140   6.630
 2614SOL    HW1 8741   6.220   6.083   6.711
 2614SOL    HW2 8742   6.249   6.234   6.658
 2615SOL     OW 8743   5.731   4.364   1.796
 2615SOL    HW1 8744   5.741   4.265   1.791
 2615SOL    HW2 8745   5.648   4.391   1.747
 2616SOL     OW 8746   4.144   3.609   2.174
 2616SOL    HW1 8747   4.233   3.636   2.139
 2616SOL    HW2 8748   4.119   3.667   2.252
 2617SOL     OW 8749   3.113   0.239   1.214
 2617SOL    HW1 8750   3.051   0.295   1.159
 2617SOL    HW2 8751   3.068   0.153   1.238
 2618SOL     OW 8752   1.347   6.810   0.234
 2618SOL    HW1 8753   1.267   6.751   0.227
 2618SOL    HW2 8754   1.399   6.807   0.149
 2619SOL     OW 8755   6.004   1.935   1.148
 2619SOL    HW1 8756   6.052   1.899   1.228
 2619SOL    HW2 8757   5.906   1.928   1.163
 2620SOL     OW 8758   1.144   5.614   4.003
 2620SOL    HW1 8759   1.084   5.534   4.002
 2620SOL    HW2 8760   1.237   5.585   4.025
 2621SOL     OW 8761   0.585   4.966   3.497
 2621SOL    HW1 8762   0.548   4.930   3.582
 2621SOL    HW2 8763   0.659   5.030   3.517
 2622SOL     OW 8764   2.404   2.580   6.195
 2622SOL    HW1 8765   2.430   2.594   6.100
 2622SOL    HW2 8766   2.419   2.665   6.247
 2623SOL     OW 8767   3.027   0.372   6.442
 2623SOL    HW1 8768   3.095   0.419   6.498
 2623SOL    HW2 8769   2.990   0.294   6.493
 2624SOL     OW 8770   6.589   1.790   4.022
 2624SOL    HW1 8771   6.663   1.855   4.040
 2624SOL    HW2 8772   6.516   1.834   3.971
 2625SOL     OW 8773   4.169   6.804   5.481
 2625SOL    HW1 8774   4.091   6.864   5.462
 2625SOL    HW2 8775   4.240   6.820   5.412
 2626SOL     OW 8776   2.359   0.260   2.717
 2626SOL    HW1 8777   2.321   0.338   2.767
 2626SOL    HW2 8778   2.291   0.226   2.651
 2627SOL     OW 8779   0.485   1.408   4.658
 2627SOL    HW1 8780   0.491   1.414   4.758
 2627SOL    HW2 8781   0.573   1.436   4.619
 2628SOL     OW 8782   3.827   6.196   6.460
 2628SOL    HW1 8783   3.821   6.262   6.534
 2628SOL    HW2 8784   3.865   6.110   6.495
 2629SOL     OW 8785   3.118   3.986   1.052
 2629SOL    HW1 8786   3.043   3.921   1.042
 2629SOL    HW2 8787   3.138   4.028   0.963
 2630SOL     OW 8788   2.611   2.380   2.095
 2630SOL    HW1 8789   2.709   2.359   2.088
 2630SOL    HW2 8790   2.567   2.362   2.007
 2631SOL     OW 8791   4.122   6.194   4.702
 2631SOL    HW1 8792   4.215   6.206   4.737
 2631SOL    HW2 8793   4.116   6.107   4.654
 2632SOL     OW 8794   5.164   1.060   0.907
 2632SOL    HW1 8795   5.130   1.073   1.001
 2632SOL    HW2 8796   5.089   1.070   0.843
 2633SOL     OW 8797   6.582   2.882   6.510
 2633SOL    HW1 8798   6.526   2.865   6.591
 2633SOL    HW2 8799   6.530   2.934   6.443
 2634SOL     OW 8800   3.156   5.313   1.626
 2634SOL    HW1 8801   3.161   5.342   1.530
 2634SOL    HW2 8802   3.060   5.297   1.651
 2635SOL     OW 8803   6.095   4.643   3.389
 2635SOL    HW1 8804   6.195   4.636   3.393
 2635SOL    HW2 8805   6.065   4.633   3.294
 2636SOL     OW 8806   6.030   6.673   4.931
 2636SOL    HW1 8807   5.960   6.605   4.911
 2636SOL    HW2 8808   6.006   6.722   5.015
 2637SOL     OW 8809   5.223   6.646   2.295
 2637SOL    HW1 8810   5.278   6.719   2.337
 2637SOL    HW2 8811   5.283   6.581   2.249
 2638SOL     OW 8812   5.319   5.614   0.613
 2638SOL    HW1 8813   5.321   5.550   0.536
 2638SOL    HW2 8814   5.235   5.601   0.665
 2639SOL     OW 8815   6.814   6.454   6.474
 2639SOL    HW1 8816   6.735   6.515   6.485
 2639SOL    HW2 8817   6.823   6.396   6.555
 2640SOL     OW 8818   6.131   6.846   6.681
 2640SOL    HW1 8819   6.204   6.903   6.718
 2640SOL    HW2 8820   6.061   6.905   6.640
 2641SOL     OW 8821   6.150   5.156   0.299
 2641SOL    HW1 8822   6.061   5.169   0.344
 2641SOL    HW2 8823   6.222   5.197   0.355
 2642SOL     OW 8824   6.722   0.542   4.172
 2642SOL    HW1 8825   6.655   0.522   4.243
 2642SOL    HW2 8826   6.802   0.586   4.212
 2643SOL     OW 8827   1.514   0.942   1.969
 2643SOL    HW1 8828   1.512   0.885   1.887
 2643SOL    HW2 8829   1.426   0.987   1.980
 2644SOL     OW 8830   7.000   5.678   5.922
 2644SOL    HW1 8831   0.012   5.730   6.000
 2644SOL    HW2 8832   0.005   5.582   5.931
 2645SOL     OW 8833   6.209   5.874   6.329
 2645SOL    HW1 8834   6.256   5.957   6.359
 2645SOL    HW2 8835   6.110   5.888   6.334
 2646SOL     OW 8836   6.317   6.231   0.068
 2646SOL    HW1 8837   6.240   6.284   0.034
 2646SOL    HW2 8838   6.323   6.144   0.018
 2647SOL     OW 8839   3.378   3.098   0.455
 2647SOL    HW1 8840   3.336   3.142   0.534
 2647SOL    HW2 8841   3.352   3.002   0.453
 2648SOL     OW 8842   4.102   0.816   3.855
 2648SOL    HW1 8843   4.113   0.916   3.851
 2648SOL    HW2 8844   4.103   0.779   3.762
 2649SOL     OW 8845   3.614   2.849   5.206
 2649SOL    HW1 8846   3.671   2.907   5.148
 2649SOL    HW2 8847   3.524   2.838   5.164
 2650SOL     OW 8848   6.700   6.593   2.407
 2650SOL    HW1 8849   6.687   6.670   2.345
 2650SOL    HW2 8850   6.793   6.594   2.444
 2651SOL     OW 8851   0.302   0.272   3.249
 2651SOL    HW1 8852   0.341   0.363   3.260
 2651SOL    HW2 8853   0.312   0.220   3.334
 2652SOL     OW 8854   3.452   2.963   2.960
 2652SOL    HW1 8855   3.441   3.061   2.944
 2652SOL    HW2 8856   3.436   2.943   3.057
 2653SOL     OW 8857   6.486   5.314   0.280
 2653SOL    HW1 8858   6.526   5.227   0.251
 2653SOL    HW2 8859   6.419   5.299   0.352
 2654SOL     OW 8860   6.007   1.525   6.045
 2654SOL    HW1 8861   6.069   1.473   5.987
 2654SOL    HW2 8862   5.927   1.469   6.068
 2655SOL     OW 8863   4.616   5.909   4.679
 2655SOL    HW1 8864   4.553   5.885   4.753
 2655SOL    HW2 8865   4.641   6.006   4.688
 2656SOL     OW 8866   5.549   3.500   4.205
 2656SOL    HW1 8867   5.485   3.563   4.249
 2656SOL    HW2 8868   5.595   3.445   4.276
 2657SOL     OW 8869   3.356   2.499   5.913
 2657SOL    HW1 8870   3.339   2.577   5.972
 2657SOL    HW2 8871   3.279   2.435   5.919
 2658SOL     OW 8872   6.162   4.463   5.395
 2658SOL    HW1 8873   6.082   4.520   5.415
 2658SOL    HW2 8874   6.230   4.516   5.345
 2659SOL     OW 8875   6.656   1.913   2.939
 2659SOL    HW1 8876   6.588   1.938   3.007
 2659SOL    HW2 8877   6.676   1.815   2.947
 2660SOL     OW 8878   6.656   2.113   2.540
 2660SOL    HW1 8879   6.697   2.043   2.600
 2660SOL    HW2 8880   6.725   2.145   2.475
 2661SOL     OW 8881   3.444   6.298   2.163
 2661SOL    HW1 8882   3.378   6.343   2.223
 2661SOL    HW2 8883   3.509   6.366   2.128
 2662SOL     OW 8884   3.595   0.523   3.387
 2662SOL    HW1 8885   3.514   0.480   3.426
 2662SOL    HW2 8886   3.606   0.494   3.292
 2663SOL     OW 8887   0.821   4.280   2.945
 2663SOL    HW1 8888   0.911   4.242   2.963
 2663SOL    HW2 8889   0.751   4.215   2.975
 2664SOL     OW 8890   4.177   4.045   1.797
 2664SOL    HW1 8891   4.117   4.087   1.728
 2664SOL    HW2 8892   4.264   4.093   1.799
 2665SOL     OW 8893   4.440   0.654   4.730
 2665SOL    HW1 8894   4.464   0.725   4.797
 2665SOL    HW2 8895   4.387   0.696   4.656
 2666SOL     OW 8896   4.654   6.204   1.787
 2666SOL    HW1 8897   4.672   6.110   1.757
 2666SOL    HW2 8898   4.603   6.202   1.872
 2667SOL     OW 8899   1.295   5.111   3.698
 2667SOL    HW1 8900   1.295   5.154   3.789
 2667SOL    HW2 8901   1.290   5.182   3.628
 2668SOL     OW 8902   6.354   2.674   5.839
 2668SOL    HW1 8903   6.352   2.667   5.740
 2668SOL    HW2 8904   6.437   2.630   5.874
 2669SOL     OW 8905   4.033   5.400   5.529
 2669SOL    HW1 8906   4.095   5.478   5.539
 2669SOL    HW2 8907   4.036   5.344   5.612
 2670SOL     OW 8908   2.094   6.911   5.482
 2670SOL    HW1 8909   2.151   6.957   5.414
 2670SOL    HW2 8910   2.004   6.954   5.485
 2671SOL     OW 8911   3.648   4.276   6.030
 2671SOL    HW1 8912   3.593   4.200   5.995
 2671SOL    HW2 8913   3.666   4.340   5.956
 2672SOL     OW 8914   1.219   4.198   0.404
 2672SOL    HW1 8915   1.267   4.243   0.479
 2672SOL    HW2 8916   1.173   4.266   0.347
 2673SOL     OW 8917   4.359   2.383   3.830
 2673SOL    HW1 8918   4.262   2.385   3.808
 2673SOL    HW2 8919   4.409   2.338   3.756
 2674SOL     OW 8920   6.052   5.311   5.468
 2674SOL    HW1 8921   5.984   5.322   5.394
 2674SOL    HW2 8922   6.066   5.399   5.512
 2675SOL     OW 8923   0.654   4.393   5.005
 2675SOL    HW1 8924   0.692   4.374   4.914
 2675SOL    HW2 8925   0.557   4.417   4.996
 2676SOL     OW 8926   4.680   0.649   2.276
 2676SOL    HW1 8927   4.780   0.636   2.275
 2676SOL    HW2 8928   4.653   0.703   2.197
 2677SOL     OW 8929   2.698   4.664   2.723
 2677SOL    HW1 8930   2.747   4.692   2.805
 2677SOL    HW2 8931   2.634   4.590   2.746
 2678SOL     OW 8932   0.058   6.450   6.428
 2678SOL    HW1 8933   6.982   6.468   6.431
 2678SOL    HW2 8934   0.076   6.359   6.466
 2679SOL     OW 8935   3.145   5.027   1.337
 2679SOL    HW1 8936   3.116   4.938   1.371
 2679SOL    HW2 8937   3.245   5.031   1.336
 2680SOL     OW 8938   1.339   2.144   1.460
 2680SOL    HW1 8939   1.285   2.082   1.518
 2680SOL    HW2 8940   1.433   2.112   1.456
 2681SOL     OW 8941   1.941   1.582   3.024
 2681SOL    HW1 8942   1.982   1.653   3.081
 2681SOL    HW2 8943   2.013   1.537   2.970
 2682SOL     OW 8944   6.166   2.358   3.766
 2682SOL    HW1 8945   6.233   2.289   3.792
 2682SOL    HW2 8946   6.075   2.316   3.759
 2683SOL     OW 8947   2.063   0.208   1.857
 2683SOL    HW1 8948   2.136   0.211   1.926
 2683SOL    HW2 8949   2.024   0.299   1.845
 2684SOL     OW 8950   2.588   5.426   2.920
 2684SOL    HW1 8951   2.669   5.460   2.968
 2684SOL    HW2 8952   2.567   5.333   2.951
 2685SOL     OW 8953   5.773   5.940   5.371
 2685SOL    HW1 8954   5.822   5.891   5.443
 2685SOL    HW2 8955   5.795   5.900   5.282
 2686SOL     OW 8956   0.855   2.901   4.618
 2686SOL    HW1 8957   0.808   2.840   4.554
 2686SOL    HW2 8958   0.878   2.851   4.701
 2687SOL     OW 8959   4.787   4.911   3.289
 2687SOL    HW1 8960   4.798   4.926   3.388
 2687SOL    HW2 8961   4.876   4.917   3.245
 2688SOL     OW 8962   4.142   5.036   5.703
 2688SOL    HW1 8963   4.064   5.067   5.648
 2688SOL    HW2 8964   4.221   5.095   5.684
 2689SOL     OW 8965   0.330   2.958   3.763
 2689SOL    HW1 8966   0.231   2.962   3.778
 2689SOL    HW2 8967   0.350   2.970   3.666
 2690SOL     OW 8968   3.539   2.867   3.199
 2690SOL    HW1 8969   3.638   2.859   3.188
 2690SOL    HW2 8970   3.496   2.778   3.188
 2691SOL     OW 8971   1.637   5.621   1.671
 2691SOL    HW1 8972   1.583   5.675   1.606
 2691SOL    HW2 8973   1.721   5.590   1.627
 2692SOL     OW 8974   0.171   5.522   3.005
 2692SOL    HW1 8975   0.203   5.580   3.080
 2692SOL    HW2 8976   0.214   5.432   3.011
 2693SOL     OW 8977   1.786   3.365   3.016
 2693SOL    HW1 8978   1.829   3.446   2.976
 2693SOL    HW2 8979   1.851   3.289   3.013
 2694SOL     OW 8980   2.382   0.985   3.013
 2694SOL    HW1 8981   2.428   1.035   2.939
 2694SOL    HW2 8982   2.307   1.041   3.049
 2695SOL     OW 8983   3.844   2.203   2.956
 2695SOL    HW1 8984   3.769   2.155   2.910
 2695SOL    HW2 8985   3.821   2.216   3.053
 2696SOL     OW 8986   4.202   3.645   5.057
 2696SOL    HW1 8987   4.121   3.660   5.114
 2696SOL    HW2 8988   4.178   3.656   4.961
 2697SOL     OW 8989   2.316   1.769   4.035
 2697SOL    HW1 8990   2.288   1.859   4.003
 2697SOL    HW2 8991   2.269   1.747   4.120
 2698SOL     OW 8992   2.338   3.249   6.713
 2698SOL    HW1 8993   2.359   3.155   6.739
 2698SOL    HW2 8994   2.312   3.252   6.617
 2699SOL     OW 8995   2.685   5.622   2.746
 2699SOL    HW1 8996   2.615   5.570   2.797
 2699SOL    HW2 8997   2.766   5.565   2.733
 2700SOL     OW 8998   1.483   4.331   3.064
 2700SOL    HW1 8999   1.519   4.402   3.002
 2700SOL    HW2 9000   1.522   4.243   3.039
 2701SOL     OW 9001   3.725   0.319   5.813
 2701SOL    HW1 9002   3.730   0.382   5.735
 2701SOL    HW2 9003   3.757   0.365   5.895
 2702SOL     OW 9004   0.033   6.521   2.921
 2702SOL    HW1 9005   7.021   6.566   3.004
 2702SOL    HW2 9006   0.113   6.570   2.888
 2703SOL     OW 9007   1.631   1.666   3.736
 2703SOL    HW1 9008   1.552   1.716   3.772
 2703SOL    HW2 9009   1.602   1.577   3.701
 2704SOL     OW 9010   1.530   6.335   0.409
 2704SOL    HW1 9011   1.443   6.346   0.362
 2704SOL    HW2 9012   1.535   6.400   0.486
 2705SOL     OW 9013   0.247   4.355   2.327
 2705SOL    HW1 9014   0.302   4.439   2.332
 2705SOL    HW2 9015   0.257   4.303   2.412
 2706SOL     OW 9016   6.743   2.479   1.971
 2706SOL    HW1 9017   6.732   2.432   1.883
 2706SOL    HW2 9018   6.711   2.574   1.962
 2707SOL     OW 9019   2.368   1.445   6.001
 2707SOL    HW1 9020   2.307   1.520   5.977
 2707SOL    HW2 9021   2.390   1.449   6.099
 2708SOL     OW 9022   2.090   4.079   0.520
 2708SOL    HW1 9023   2.108   4.080   0.618
 2708SOL    HW2 9024   1.992   4.064   0.504
 2709SOL     OW 9025   3.985   6.985   1.407
 2709SOL    HW1 9026   4.065   6.950   1.456
 2709SOL    HW2 9027   3.913   7.008   1.471
 2710SOL     OW 9028   6.107   4.321   2.222
 2710SOL    HW1 9029   6.157   4.407   2.235
 2710SOL    HW2 9030   6.074   4.315   2.128
 2711SOL     OW 9031   1.088   6.544   1.916
 2711SOL    HW1 9032   1.019   6.473   1.904
 2711SOL    HW2 9033   1.076   6.614   1.845
 2712SOL     OW 9034   3.338   5.230   2.512
 2712SOL    HW1 9035   3.387   5.182   2.584
 2712SOL    HW2 9036   3.240   5.219   2.524
 2713SOL     OW 9037   2.221   2.368   4.693
 2713SOL    HW1 9038   2.223   2.365   4.594
 2713SOL    HW2 9039   2.278   2.294   4.730
 2714SOL     OW 9040   5.467   6.956   5.829
 2714SOL    HW1 9041   5.427   6.881   5.777
 2714SOL    HW2 9042   5.492   6.923   5.920
 2715SOL     OW 9043   6.628   0.131   0.668
 2715SOL    HW1 9044   6.595   0.090   0.582
 2715SOL    HW2 9045   6.726   0.148   0.661
 2716SOL     OW 9046   0.179   6.546   2.601
 2716SOL    HW1 9047   0.207   6.642   2.607
 2716SOL    HW2 9048   0.131   6.520   2.686
 2717SOL     OW 9049   1.179   0.523   2.727
 2717SOL    HW1 9050   1.190   0.618   2.697
 2717SOL    HW2 9051   1.255   0.468   2.692
 2718SOL     OW 9052   1.032   4.644   3.076
 2718SOL    HW1 9053   0.959   4.630   3.009
 2718SOL    HW2 9054   1.117   4.667   3.028
 2719SOL     OW 9055   4.275   4.881   3.011
 2719SOL    HW1 9056   4.264   4.852   3.106
 2719SOL    HW2 9057   4.199   4.846   2.957
 2720SOL     OW 9058   0.251   5.943   3.902
 2720SOL    HW1 9059   0.339   5.912   3.938
 2720SOL    HW2 9060   0.265   5.989   3.814
 2721SOL     OW 9061   4.888   6.701   5.058
 2721SOL    HW1 9062   4.978   6.668   5.031
 2721SOL    HW2 9063   4.830   6.709   4.977
 2722SOL     OW 9064   1.273   5.854   1.394
 2722SOL    HW1 9065   1.182   5.822   1.367
 2722SOL    HW2 9066   1.339   5.828   1.323
 2723SOL     OW 9067   1.697   1.597   5.000
 2723SOL    HW1 9068   1.682   1.552   5.089
 2723SOL    HW2 9069   1.683   1.530   4.927
 2724SOL     OW 9070   3.539   6.142   6.491
 2724SOL    HW1 9071   3.634   6.113   6.478
 2724SOL    HW2 9072   3.536   6.221   6.552
 2725SOL     OW 9073   2.766   4.834   3.514
 2725SOL    HW1 9074   2.852   4.866   3.474
 2725SOL    HW2 9075   2.704   4.912   3.523
 2726SOL     OW 9076   5.009   6.309   2.441
 2726SOL    HW1 9077   5.033   6.392   2.491
 2726SOL    HW2 9078   5.016   6.326   2.343
 2727SOL     OW 9079   2.009   5.458   2.987
 2727SOL    HW1 9080   2.098   5.423   2.959
 2727SOL    HW2 9081   1.980   5.414   3.072
 2728SOL     OW 9082   3.444   6.696   5.314
 2728SOL    HW1 9083   3.452   6.601   5.283
 2728SOL    HW2 9084   3.402   6.698   5.404
 2729SOL     OW 9085   6.529   5.017   2.627
 2729SOL    HW1 9086   6.516   4.978   2.718
 2729SOL    HW2 9087   6.627   5.026   2.609
 2730SOL     OW 9088   1.412   4.404   1.202
 2730SOL    HW1 9089   1.506   4.388   1.173
 2730SOL    HW2 9090   1.399   4.502   1.218
 2731SOL     OW 9091   2.698   3.875   1.418
 2731SOL    HW1 9092   2.710   3.938   1.341
 2731SOL    HW2 9093   2.740   3.915   1.500
 2732SOL     OW 9094   5.149   2.796   4.127
 2732SOL    HW1 9095   5.229   2.855   4.127
 2732SOL    HW2 9096   5.093   2.816   4.208
 2733SOL     OW 9097   2.234   0.569   5.828
 2733SOL    HW1 9098   2.231   0.476   5.865
 2733SOL    HW2 9099   2.328   0.591   5.801
 2734SOL     OW 9100   2.034   6.964   3.764
 2734SOL    HW1 9101   1.961   0.008   3.744
 2734SOL    HW2 9102   2.014   6.917   3.849
 2735SOL     OW 9103   2.061   4.930   1.197
 2735SOL    HW1 9104   2.086   4.855   1.258
 2735SOL    HW2 9105   2.139   4.992   1.187
 2736SOL     OW 9106   3.428   6.781   6.624
 2736SOL    HW1 9107   3.378   6.739   6.700
 2736SOL    HW2 9108   3.414   6.880   6.626
 2737SOL     OW 9109   4.350   3.411   5.353
 2737SOL    HW1 9110   4.407   3.386   5.431
 2737SOL    HW2 9111   4.372   3.503   5.323
 2738SOL     OW 9112   5.851   4.358   4.409
 2738SOL    HW1 9113   5.938   4.334   4.452
 2738SOL    HW2 9114   5.853   4.333   4.313
 2739SOL     OW 9115   5.366   3.534   0.699
 2739SOL    HW1 9116   5.377   3.594   0.778
 2739SOL    HW2 9117   5.375   3.438   0.727
 2740SOL     OW 9118   6.262   2.586   2.769
 2740SOL    HW1 9119   6.209   2.658   2.814
 2740SOL    HW2 9120   6.333   2.628   2.712
 2741SOL     OW 9121   1.350   2.632   5.104
 2741SOL    HW1 9122   1.448   2.636   5.084
 2741SOL    HW2 9123   1.323   2.536   5.117
 2742SOL     OW 9124   3.005   6.567   5.399
 2742SOL    HW1 9125   3.051   6.556   5.488
 2742SOL    HW2 9126   2.982   6.663   5.385
 2743SOL     OW 9127   6.236   4.339   0.512
 2743SOL    HW1 9128   6.182   4.311   0.432
 2743SOL    HW2 9129   6.180   4.330   0.595
 2744SOL     OW 9130   4.174   0.300   0.115
 2744SOL    HW1 9131   4.210   0.393   0.113
 2744SOL    HW2 9132   4.226   0.245   0.181
 2745SOL     OW 9133   2.096   5.634   1.179
 2745SOL    HW1 9134   2.147   5.562   1.227
 2745SOL    HW2 9135   2.140   5.722   1.197
 2746SOL     OW 9136   1.040   2.249   6.827
 2746SOL    HW1 9137   1.111   2.315   6.853
 2746SOL    HW2 9138   1.075   2.190   6.754
 2747SOL     OW 9139   5.368   5.753   3.946
 2747SOL    HW1 9140   5.386   5.811   3.868
 2747SOL    HW2 9141   5.284   5.701   3.931
 2748SOL     OW 9142   4.075   1.022   4.733
 2748SOL    HW1 9143   4.034   0.965   4.662
 2748SOL    HW2 9144   4.160   1.062   4.699
 2749SOL     OW 9145   5.360   4.189   3.878
 2749SOL    HW1 9146   5.406   4.106   3.846
 2749SOL    HW2 9147   5.319   4.171   3.968
 2750SOL     OW 9148   0.139   6.291   0.969
 2750SOL    HW1 9149   0.222   6.239   0.954
 2750SOL    HW2 9150   0.059   6.235   0.947
 2751SOL     OW 9151   1.757   6.991   0.003
 2751SOL    HW1 9152   1.658   7.003   0.005
 2751SOL    HW2 9153   1.802   0.056   0.020
 2752SOL     OW 9154   6.575   6.194   5.467
 2752SOL    HW1 9155   6.596   6.231   5.376
 2752SOL    HW2 9156   6.633   6.114   5.484
 2753SOL     OW 9157   3.057   5.097   5.325
 2753SOL    HW1 9158   3.044   4.998   5.330
 2753SOL    HW2 9159   3.154   5.118   5.312
 2754SOL     OW 9160   0.705   5.965   4.214
 2754SOL    HW1 9161   0.713   5.886   4.154
 2754SOL    HW2 9162   0.643   5.943   4.290
 2755SOL     OW 9163   3.824   5.977   2.255
 2755SOL    HW1 9164   3.743   6.031   2.230
 2755SOL    HW2 9165   3.836   5.903   2.189
 2756SOL     OW 9166   0.043   2.996   5.478
 2756SOL    HW1 9167   0.098   3.079   5.469
 2756SOL    HW2 9168   0.006   2.972   5.388
 2757SOL     OW 9169   4.457   3.753   6.837
 2757SOL    HW1 9170   4.487   3.820   6.904
 2757SOL    HW2 9171   4.527   3.682   6.828
 2758SOL     OW 9172   0.504   6.845   1.847
 2758SOL    HW1 9173   0.578   6.778   1.847
 2758SOL    HW2 9174   0.448   6.834   1.929
 2759SOL     OW 9175   3.428   3.266   5.272
 2759SOL    HW1 9176   3.501   3.258   5.204
 2759SOL    HW2 9177   3.427   3.184   5.330
 2760SOL     OW 9178   5.845   5.751   2.439
 2760SOL    HW1 9179   5.786   5.816   2.485
 2760SOL    HW2 9180   5.925   5.798   2.402
 2761SOL     OW 9181   1.441   3.050   3.121
 2761SOL    HW1 9182   1.406   3.121   3.182
 2761SOL    HW2 9183   1.541   3.044   3.131
 2762SOL     OW 9184   3.407   1.619   0.792
 2762SOL    HW1 9185   3.337   1.549   0.805
 2762SOL    HW2 9186   3.389   1.697   0.852
 2763SOL     OW 9187   6.214   1.612   3.920
 2763SOL    HW1 9188   6.259   1.611   4.010
 2763SOL    HW2 9189   6.118   1.635   3.932
 2764SOL     OW 9190   0.267   3.054   2.736
 2764SOL    HW1 9191   0.219   3.118   2.676
 2764SOL    HW2 9192   0.353   3.094   2.766
 2765SOL     OW 9193   5.690   6.412   5.851
 2765SOL    HW1 9194   5.781   6.371   5.851
 2765SOL    HW2 9195   5.699   6.510   5.866
 2766SOL     OW 9196   4.627   0.086   6.963
 2766SOL    HW1 9197   4.670   0.176   6.965
 2766SOL    HW2 9198   4.689   0.018   7.002
 2767SOL     OW 9199   0.905   5.674   6.614
 2767SOL    HW1 9200   0.891   5.692   6.516
 2767SOL    HW2 9201   0.905   5.576   6.631
 2768SOL     OW 9202   3.855   6.964   1.156
 2768SOL    HW1 9203   3.779   0.006   1.149
 2768SOL    HW2 9204   3.895   6.970   1.248
 2769SOL     OW 9205   1.204   4.774   5.726
 2769SOL    HW1 9206   1.169   4.831   5.651
 2769SOL    HW2 9207   1.231   4.833   5.802
 2770SOL     OW 9208   2.226   6.988   0.983
 2770SOL    HW1 9209   2.221   0.064   0.963
 2770SOL    HW2 9210   2.176   6.937   0.913
 2771SOL     OW 9211   4.280   0.227   5.399
 2771SOL    HW1 9212   4.271   0.171   5.317
 2771SOL    HW2 9213   4.270   0.323   5.376
 2772SOL     OW 9214   4.688   1.393   3.767
 2772SOL    HW1 9215   4.743   1.341   3.832
 2772SOL    HW2 9216   4.592   1.365   3.775
 2773SOL     OW 9217   6.491   2.706   5.166
 2773SOL    HW1 9218   6.408   2.681   5.216
 2773SOL    HW2 9219   6.466   2.745   5.077
 2774SOL     OW 9220   6.038   1.236   3.875
 2774SOL    HW1 9221   5.998   1.145   3.885
 2774SOL    HW2 9222   6.091   1.259   3.957
 2775SOL     OW 9223   6.982   3.463   4.070
 2775SOL    HW1 9224   0.009   3.548   4.085
 2775SOL    HW2 9225   6.940   3.433   4.155
 2776SOL     OW 9226   4.634   4.283   6.196
 2776SOL    HW1 9227   4.688   4.297   6.113
 2776SOL    HW2 9228   4.681   4.325   6.274
 2777SOL     OW 9229   2.298   2.020   6.595
 2777SOL    HW1 9230   2.382   2.023   6.541
 2777SOL    HW2 9231   2.220   2.038   6.536
 2778SOL     OW 9232   2.826   0.526   6.070
 2778SOL    HW1 9233   2.825   0.542   6.169
 2778SOL    HW2 9234   2.918   0.539   6.035
 2779SOL     OW 9235   5.034   0.958   1.896
 2779SOL    HW1 9236   5.017   0.957   1.798
 2779SOL    HW2 9237   4.982   1.031   1.939
 2780SOL     OW 9238   6.757   0.993   4.759
 2780SOL    HW1 9239   6.850   1.023   4.735
 2780SOL    HW2 9240   6.749   0.988   4.858
 2781SOL     OW 9241   6.191   0.967   3.319
 2781SOL    HW1 9242   6.276   0.964   3.268
 2781SOL    HW2 9243   6.114   0.972   3.255
 2782SOL     OW 9244   5.559   1.128   5.976
 2782SOL    HW1 9245   5.550   1.107   6.073
 2782SOL    HW2 9246   5.503   1.066   5.923
 2783SOL     OW 9247   5.824   3.256   1.718
 2783SOL    HW1 9248   5.738   3.292   1.754
 2783SOL    HW2 9249   5.835   3.161   1.749
 2784SOL     OW 9250   0.656   3.118   1.233
 2784SOL    HW1 9251   0.654   3.176   1.152
 2784SOL    HW2 9252   0.619   3.028   1.211
 2785SOL     OW 9253   5.537   3.558   2.631
 2785SOL    HW1 9254   5.468   3.511   2.686
 2785SOL    HW2 9255   5.609   3.493   2.606
 2786SOL     OW 9256   1.316   6.329   0.237
 2786SOL    HW1 9257   1.306   6.248   0.294
 2786SOL    HW2 9258   1.259   6.320   0.155
 2787SOL     OW 9259   0.607   5.840   6.660
 2787SOL    HW1 9260   0.639   5.849   6.755
 2787SOL    HW2 9261   0.672   5.884   6.599
 2788SOL     OW 9262   2.518   6.918   6.893
 2788SOL    HW1 9263   2.541   6.849   6.825
 2788SOL    HW2 9264   2.601   6.970   6.916
 2789SOL     OW 9265   1.444   2.308   4.544
 2789SOL    HW1 9266   1.461   2.320   4.641
 2789SOL    HW2 9267   1.355   2.346   4.519
 2790SOL     OW 9268   0.210   5.836   1.638
 2790SOL    HW1 9269   0.147   5.763   1.611
 2790SOL    HW2 9270   0.157   5.920   1.655
 2791SOL     OW 9271   1.041   3.277   4.369
 2791SOL    HW1 9272   1.113   3.320   4.314
 2791SOL    HW2 9273   1.070   3.272   4.464
 2792SOL     OW 9274   3.303   1.299   6.140
 2792SOL    HW1 9275   3.304   1.202   6.112
 2792SOL    HW2 9276   3.236   1.312   6.213
 2793SOL     OW 9277   3.577   3.855   0.440
 2793SOL    HW1 9278   3.527   3.801   0.372
 2793SOL    HW2 9279   3.562   3.952   0.422
 2794SOL     OW 9280   1.759   2.260   0.199
 2794SOL    HW1 9281   1.724   2.201   0.272
 2794SOL    HW2 9282   1.710   2.243   0.114
 2795SOL     OW 9283   1.509   6.352   1.168
 2795SOL    HW1 9284   1.582   6.318   1.227
 2795SOL    HW2 9285   1.457   6.423   1.216
 2796SOL     OW 9286   1.863   6.080   6.807
 2796SOL    HW1 9287   1.772   6.062   6.845
 2796SOL    HW2 9288   1.902   5.994   6.775
 2797SOL     OW 9289   4.672   4.218   3.772
 2797SOL    HW1 9290   4.689   4.127   3.809
 2797SOL    HW2 9291   4.669   4.284   3.847
 2798SOL     OW 9292   5.393   1.420   1.762
 2798SOL    HW1 9293   5.422   1.326   1.746
 2798SOL    HW2 9294   5.415   1.446   1.856
 2799SOL     OW 9295   3.667   6.393   4.764
 2799SOL    HW1 9296   3.607   6.315   4.749
 2799SOL    HW2 9297   3.670   6.415   4.861
 2800SOL     OW 9298   4.851   0.653   6.278
 2800SOL    HW1 9299   4.936   0.696   6.307
 2800SOL    HW2 9300   4.810   0.605   6.355
 2801SOL     OW 9301   6.991   4.675   3.733
 2801SOL    HW1 9302   6.911   4.620   3.761
 2801SOL    HW2 9303   7.008   4.660   3.636
 2802SOL     OW 9304   1.395   5.254   4.751
 2802SOL    HW1 9305   1.370   5.217   4.662
 2802SOL    HW2 9306   1.456   5.191   4.798
 2803SOL     OW 9307   3.232   2.610   6.977
 2803SOL    HW1 9308   3.172   2.669   0.009
 2803SOL    HW2 9309   3.177   2.559   6.911
 2804SOL     OW 9310   6.564   2.712   3.391
 2804SOL    HW1 9311   6.563   2.648   3.313
 2804SOL    HW2 9312   6.479   2.763   3.394
 2805SOL     OW 9313   4.144   4.825   0.580
 2805SOL    HW1 9314   4.053   4.831   0.539
 2805SOL    HW2 9315   4.138   4.778   0.668
 2806SOL     OW 9316   0.471   3.171   5.161
 2806SOL    HW1 9317   0.557   3.138   5.198
 2806SOL    HW2 9318   0.477   3.270   5.144
 2807SOL     OW 9319   4.343   1.005   4.065
 2807SOL    HW1 9320   4.418   0.980   4.126
 2807SOL    HW2 9321   4.259   1.016   4.118
 2808SOL     OW 9322   1.187   5.739   6.005
 2808SOL    HW1 9323   1.276   5.698   5.984
 2808SOL    HW2 9324   1.138   5.761   5.921
 2809SOL     OW 9325   0.321   6.288   1.996
 2809SOL    HW1 9326   0.322   6.336   1.908
 2809SOL    HW2 9327   0.358   6.196   1.983
 2810SOL     OW 9328   1.077   6.408   2.944
 2810SOL    HW1 9329   1.155   6.356   2.980
 2810SOL    HW2 9330   1.106   6.501   2.925
 2811SOL     OW 9331   1.050   1.224   0.826
 2811SOL    HW1 9332   0.984   1.289   0.789
 2811SOL    HW2 9333   1.062   1.148   0.762
 2812SOL     OW 9334   1.366   1.542   0.668
 2812SOL    HW1 9335   1.384   1.618   0.606
 2812SOL    HW2 9336   1.332   1.463   0.616
 2813SOL     OW 9337   0.837   3.312   1.325
 2813SOL    HW1 9338   0.843   3.397   1.274
 2813SOL    HW2 9339   0.792   3.242   1.269
 2814SOL     OW 9340   2.494   4.263   7.002
 2814SOL    HW1 9341   2.563   4.192   7.014
 2814SOL    HW2 9342   2.436   4.268   0.061
 2815SOL     OW 9343   6.751   5.678   4.533
 2815SOL    HW1 9344   6.750   5.737   4.452
 2815SOL    HW2 9345   6.846   5.656   4.556
 2816SOL     OW 9346   0.923   5.143   4.571
 2816SOL    HW1 9347   0.851   5.085   4.531
 2816SOL    HW2 9348   0.987   5.085   4.621
 2817SOL     OW 9349   3.047   0.970   2.370
 2817SOL    HW1 9350   3.049   1.034   2.293
 2817SOL    HW2 9351   3.081   1.016   2.452
 2818SOL     OW 9352   1.273   0.505   0.065
 2818SOL    HW1 9353   1.342   0.489   0.135
 2818SOL    HW2 9354   1.201   0.435   0.072
 2819SOL     OW 9355   0.777   0.407   6.578
 2819SOL    HW1 9356   0.703   0.362   6.529
 2819SOL    HW2 9357   0.749   0.499   6.604
 2820SOL     OW 9358   1.741   1.944   6.928
 2820SOL    HW1 9359   1.709   1.849   6.934
 2820SOL    HW2 9360   1.841   1.946   6.939
 2821SOL     OW 9361   3.160   2.903   6.431
 2821SOL    HW1 9362   3.172   2.967   6.355
 2821SOL    HW2 9363   3.204   2.940   6.513
 2822SOL     OW 9364   4.351   2.962   0.805
 2822SOL    HW1 9365   4.448   2.985   0.794
 2822SOL    HW2 9366   4.297   3.015   0.739
 2823SOL     OW 9367   4.893   3.688   1.804
 2823SOL    HW1 9368   4.936   3.704   1.715
 2823SOL    HW2 9369   4.904   3.769   1.861
 2824SOL     OW 9370   0.899   4.766   5.416
 2824SOL    HW1 9371   0.893   4.774   5.316
 2824SOL    HW2 9372   0.808   4.751   5.454
 2825SOL     OW 9373   5.100   1.552   5.764
 2825SOL    HW1 9374   5.131   1.635   5.719
 2825SOL    HW2 9375   5.124   1.555   5.861
 2826SOL     OW 9376   3.003   3.037   0.109
 2826SOL    HW1 9377   2.924   2.984   0.140
 2826SOL    HW2 9378   2.984   3.135   0.124
 2827SOL     OW 9379   5.779   1.806   6.674
 2827SOL    HW1 9380   5.737   1.892   6.644
 2827SOL    HW2 9381   5.855   1.826   6.736
 2828SOL     OW 9382   1.583   3.970   0.708
 2828SOL    HW1 9383   1.562   4.067   0.692
 2828SOL    HW2 9384   1.615   3.957   0.802
 2829SOL     OW 9385   3.465   3.565   1.851
 2829SOL    HW1 9386   3.534   3.604   1.911
 2829SOL    HW2 9387   3.457   3.467   1.869
 2830SOL     OW 9388   3.261   5.718   4.566
 2830SOL    HW1 9389   3.298   5.781   4.498
 2830SOL    HW2 9390   3.257   5.626   4.527
 2831SOL     OW 9391   0.082   1.618   1.772
 2831SOL    HW1 9392   0.166   1.618   1.825
 2831SOL    HW2 9393   0.043   1.525   1.771
 2832SOL     OW 9394   0.707   3.403   2.350
 2832SOL    HW1 9395   0.688   3.382   2.254
 2832SOL    HW2 9396   0.677   3.496   2.371
 2833SOL     OW 9397   0.019   2.557   2.251
 2833SOL    HW1 9398   0.050   2.509   2.169
 2833SOL    HW2 9399   0.097   2.600   2.296
 2834SOL     OW 9400   3.891   0.191   4.450
 2834SOL    HW1 9401   3.905   0.096   4.424
 2834SOL    HW2 9402   3.793   0.213   4.444
 2835SOL     OW 9403   6.626   0.795   6.874
 2835SOL    HW1 9404   6.710   0.761   6.916
 2835SOL    HW2 9405   6.644   0.820   6.778
 2836SOL     OW 9406   2.923   5.498   2.829
 2836SOL    HW1 9407   2.984   5.499   2.750
 2836SOL    HW2 9408   2.977   5.505   2.913
 2837SOL     OW 9409   5.149   4.345   1.921
 2837SOL    HW1 9410   5.201   4.292   1.989
 2837SOL    HW2 9411   5.053   4.320   1.926
 2838SOL     OW 9412   6.689   4.021   6.106
 2838SOL    HW1 9413   6.639   4.102   6.075
 2838SOL    HW2 9414   6.690   3.953   6.033
 2839SOL     OW 9415   5.791   2.738   5.557
 2839SOL    HW1 9416   5.740   2.658   5.525
 2839SOL    HW2 9417   5.876   2.708   5.599
 2840SOL     OW 9418   5.880   6.602   4.678
 2840SOL    HW1 9419   5.909   6.693   4.650
 2840SOL    HW2 9420   5.878   6.541   4.599
 2841SOL     OW 9421   5.296   4.292   2.211
 2841SOL    HW1 9422   5.370   4.349   2.176
 2841SOL    HW2 9423   5.326   4.197   2.216
 2842SOL     OW 9424   0.644   6.830   3.718
 2842SOL    HW1 9425   0.565   6.769   3.718
 2842SOL    HW2 9426   0.674   6.846   3.811
 2843SOL     OW 9427   2.309   2.748   3.729
 2843SOL    HW1 9428   2.226   2.705   3.764
 2843SOL    HW2 9429   2.389   2.697   3.761
 2844SOL     OW 9430   5.434   3.220   1.104
 2844SOL    HW1 9431   5.485   3.238   1.188
 2844SOL    HW2 9432   5.432   3.122   1.086
 2845SOL     OW 9433   3.106   1.943   1.721
 2845SOL    HW1 9434   3.174   2.016   1.733
 2845SOL    HW2 9435   3.047   1.939   1.802
 2846SOL     OW 9436   5.718   6.976   6.820
 2846SOL    HW1 9437   5.801   6.921   6.819
 2846SOL    HW2 9438   5.741   0.050   6.804
 2847SOL     OW 9439   4.884   5.091   0.953
 2847SOL    HW1 9440   4.825   5.013   0.976
 2847SOL    HW2 9441   4.839   5.176   0.980
 2848SOL     OW 9442   0.919   4.400   5.629
 2848SOL    HW1 9443   0.933   4.366   5.536
 2848SOL    HW2 9444   1.006   4.431   5.666
 2849SOL     OW 9445   4.964   0.917   1.630
 2849SOL    HW1 9446   4.931   0.823   1.639
 2849SOL    HW2 9447   5.023   0.924   1.549
 2850SOL     OW 9448   1.106   0.728   2.098
 2850SOL    HW1 9449   1.012   0.759   2.111
 2850SOL    HW2 9450   1.150   0.784   2.028
 2851SOL     OW 9451   3.207   2.874   1.485
 2851SOL    HW1 9452   3.190   2.941   1.556
 2851SOL    HW2 9453   3.184   2.913   1.396
 2852SOL     OW 9454   0.215   5.650   5.415
 2852SOL    HW1 9455   0.186   5.591   5.490
 2852SOL    HW2 9456   0.151   5.726   5.406
 2853SOL     OW 9457   0.215   4.676   5.250
 2853SOL    HW1 9458   0.290   4.675   5.185
 2853SOL    HW2 9459   0.160   4.593   5.239
 2854SOL     OW 9460   2.751   0.635   5.786
 2854SOL    HW1 9461   2.825   0.654   5.722
 2854SOL    HW2 9462   2.784   0.646   5.880
 2855SOL     OW 9463   2.299   1.476   4.727
 2855SOL    HW1 9464   2.300   1.535   4.646
 2855SOL    HW2 9465   2.209   1.481   4.772
 2856SOL     OW 9466   0.300   5.323   4.397
 2856SOL    HW1 9467   0.336   5.328   4.490
 2856SOL    HW2 9468   0.358   5.377   4.336
 2857SOL     OW 9469   6.641   4.163   1.227
 2857SOL    HW1 9470   6.692   4.094   1.278
 2857SOL    HW2 9471   6.647   4.251   1.275
 2858SOL     OW 9472   5.452   4.134   3.074
 2858SOL    HW1 9473   5.362   4.174   3.093
 2858SOL    HW2 9474   5.477   4.152   2.979
 2859SOL     OW 9475   6.181   5.009   1.796
 2859SOL    HW1 9476   6.136   5.098   1.808
 2859SOL    HW2 9477   6.193   4.990   1.699
 2860SOL     OW 9478   1.330   0.234   3.218
 2860SOL    HW1 9479   1.249   0.270   3.171
 2860SOL    HW2 9480   1.352   0.144   3.181
 2861SOL     OW 9481   5.088   4.387   5.951
 2861SOL    HW1 9482   5.088   4.484   5.977
 2861SOL    HW2 9483   5.179   4.349   5.962
 2862SOL     OW 9484   4.686   1.268   0.598
 2862SOL    HW1 9485   4.678   1.364   0.571
 2862SOL    HW2 9486   4.721   1.215   0.521
 2863SOL     OW 9487   6.168   2.262   5.452
 2863SOL    HW1 9488   6.132   2.191   5.391
 2863SOL    HW2 9489   6.204   2.338   5.398
 2864SOL     OW 9490   3.986   4.237   1.111
 2864SOL    HW1 9491   4.069   4.290   1.100
 2864SOL    HW2 9492   3.977   4.171   1.036
 2865SOL     OW 9493   5.639   5.139   5.615
 2865SOL    HW1 9494   5.723   5.163   5.663
 2865SOL    HW2 9495   5.567   5.204   5.639
 2866SOL     OW 9496   3.709   4.896   0.803
 2866SOL    HW1 9497   3.753   4.855   0.724
 2866SOL    HW2 9498   3.749   4.860   0.887
 2867SOL     OW 9499   6.236   6.243   3.074
 2867SOL    HW1 9500   6.269   6.267   3.165
 2867SOL    HW2 9501   6.237   6.325   3.016
 2868SOL     OW 9502   0.272   0.201   5.707
 2868SOL    HW1 9503   0.239   0.173   5.617
 2868SOL    HW2 9504   0.282   0.120   5.765
 2869SOL     OW 9505   6.206   4.544   4.313
 2869SOL    HW1 9506   6.234   4.567   4.407
 2869SOL    HW2 9507   6.208   4.627   4.257
 2870SOL     OW 9508   0.612   1.060   1.991
 2870SOL    HW1 9509   0.529   1.007   1.977
 2870SOL    HW2 9510   0.692   1.000   1.979
 2871SOL     OW 9511   4.723   1.245   3.243
 2871SOL    HW1 9512   4.732   1.184   3.321
 2871SOL    HW2 9513   4.813   1.259   3.201
 2872SOL     OW 9514   2.835   2.004   2.510
 2872SOL    HW1 9515   2.893   2.086   2.500
 2872SOL    HW2 9516   2.742   2.032   2.531
 2873SOL     OW 9517   1.634   0.065   1.764
 2873SOL    HW1 9518   1.656   0.036   1.858
 2873SOL    HW2 9519   1.538   0.090   1.758
 2874SOL     OW 9520   2.332   0.940   3.645
 2874SOL    HW1 9521   2.367   0.969   3.556
 2874SOL    HW2 9522   2.243   0.981   3.661
 2875SOL     OW 9523   2.270   0.188   3.274
 2875SOL    HW1 9524   2.366   0.198   3.246
 2875SOL    HW2 9525   2.234   0.277   3.301
 2876SOL     OW 9526   1.274   6.139   1.169
 2876SOL    HW1 9527   1.198   6.147   1.233
 2876SOL    HW2 9528   1.305   6.230   1.142
 2877SOL     OW 9529   2.102   2.643   5.352
 2877SOL    HW1 9530   2.138   2.690   5.270
 2877SOL    HW2 9531   2.178   2.618   5.412
 2878SOL     OW 9532   4.071   3.237   4.641
 2878SOL    HW1 9533   4.091   3.258   4.545
 2878SOL    HW2 9534   4.127   3.296   4.700
 2879SOL     OW 9535   5.364   5.035   6.887
 2879SOL    HW1 9536   5.330   4.991   6.970
 2879SOL    HW2 9537   5.457   5.004   6.869
 2880SOL     OW 9538   1.779   1.861   3.875
 2880SOL    HW1 9539   1.843   1.807   3.930
 2880SOL    HW2 9540   1.726   1.799   3.816
 2881SOL     OW 9541   5.408   4.967   0.845
 2881SOL    HW1 9542   5.436   4.910   0.923
 2881SOL    HW2 9543   5.308   4.973   0.841
 2882SOL     OW 9544   4.510   6.226   0.249
 2882SOL    HW1 9545   4.505   6.273   0.161
 2882SOL    HW2 9546   4.605   6.202   0.269
 2883SOL     OW 9547   5.490   6.601   3.812
 2883SOL    HW1 9548   5.453   6.633   3.725
 2883SOL    HW2 9549   5.475   6.671   3.882
 2884SOL     OW 9550   6.445   5.629   3.732
 2884SOL    HW1 9551   6.372   5.667   3.789
 2884SOL    HW2 9552   6.430   5.531   3.719
 2885SOL     OW 9553   0.821   3.022   3.725
 2885SOL    HW1 9554   0.850   3.049   3.817
 2885SOL    HW2 9555   0.807   2.923   3.722
 2886SOL     OW 9556   2.148   4.473   5.451
 2886SOL    HW1 9557   2.075   4.447   5.514
 2886SOL    HW2 9558   2.174   4.393   5.395
 2887SOL     OW 9559   6.712   5.871   2.582
 2887SOL    HW1 9560   6.734   5.889   2.487
 2887SOL    HW2 9561   6.698   5.957   2.631
 2888SOL     OW 9562   5.224   6.746   6.696
 2888SOL    HW1 9563   5.219   6.720   6.599
 2888SOL    HW2 9564   5.160   6.689   6.748
 2889SOL     OW 9565   4.158   6.313   4.418
 2889SOL    HW1 9566   4.185   6.320   4.514
 2889SOL    HW2 9567   4.197   6.230   4.378
 2890SOL     OW 9568   1.265   2.642   0.589
 2890SOL    HW1 9569   1.200   2.718   0.595
 2890SOL    HW2 9570   1.219   2.557   0.614
 2891SOL     OW 9571   0.602   1.927   5.449
 2891SOL    HW1 9572   0.640   1.988   5.380
 2891SOL    HW2 9573   0.509   1.958   5.473
 2892SOL     OW 9574   5.192   4.591   1.840
 2892SOL    HW1 9575   5.171   4.495   1.859
 2892SOL    HW2 9576   5.162   4.614   1.747
 2893SOL     OW 9577   6.811   5.566   5.157
 2893SOL    HW1 9578   6.779   5.596   5.247
 2893SOL    HW2 9579   6.809   5.466   5.153
 2894SOL     OW 9580   1.948   5.348   1.092
 2894SOL    HW1 9581   2.023   5.336   1.158
 2894SOL    HW2 9582   1.976   5.416   1.024
 2895SOL     OW 9583   4.378   0.047   5.899
 2895SOL    HW1 9584   4.390   6.973   5.877
 2895SOL    HW2 9585   4.457   0.099   5.867
 2896SOL     OW 9586   6.215   0.423   4.973
 2896SOL    HW1 9587   6.229   0.413   5.072
 2896SOL    HW2 9588   6.244   0.340   4.926
 2897SOL     OW 9589   3.250   4.968   3.241
 2897SOL    HW1 9590   3.259   5.002   3.335
 2897SOL    HW2 9591   3.177   4.899   3.237
 2898SOL     OW 9592   5.151   2.023   3.160
 2898SOL    HW1 9593   5.234   1.988   3.118
 2898SOL    HW2 9594   5.173   2.062   3.250
 2899SOL     OW 9595   6.737   3.228   0.448
 2899SOL    HW1 9596   6.763   3.151   0.389
 2899SOL    HW2 9597   6.799   3.232   0.527
 2900SOL     OW 9598   2.540   2.345   6.234
 2900SOL    HW1 9599   2.580   2.334   6.143
 2900SOL    HW2 9600   2.470   2.416   6.232
 2901SOL     OW 9601   0.974   3.941   2.324
 2901SOL    HW1 9602   0.926   3.853   2.329
 2901SOL    HW2 9603   1.024   3.956   2.408
 2902SOL     OW 9604   5.957   5.330   3.557
 2902SOL    HW1 9605   5.946   5.428   3.572
 2902SOL    HW2 9606   6.016   5.291   3.627
 2903SOL     OW 9607   6.518   4.497   0.340
 2903SOL    HW1 9608   6.529   4.397   0.344
 2903SOL    HW2 9609   6.435   4.519   0.288
 2904SOL     OW 9610   2.823   4.782   4.732
 2904SOL    HW1 9611   2.907   4.805   4.781
 2904SOL    HW2 9612   2.785   4.865   4.692
 2905SOL     OW 9613   1.783   5.379   1.296
 2905SOL    HW1 9614   1.761   5.291   1.337
 2905SOL    HW2 9615   1.826   5.365   1.206
 2906SOL     OW 9616   6.434   6.239   5.695
 2906SOL    HW1 9617   6.497   6.231   5.618
 2906SOL    HW2 9618   6.390   6.150   5.712
 2907SOL     OW 9619   0.457   1.265   5.150
 2907SOL    HW1 9620   0.368   1.220   5.138
 2907SOL    HW2 9621   0.514   1.208   5.209
 2908SOL     OW 9622   3.887   0.249   3.301
 2908SOL    HW1 9623   3.984   0.227   3.294
 2908SOL    HW2 9624   3.873   0.317   3.373
 2909SOL     OW 9625   0.122   0.134   1.530
 2909SOL    HW1 9626   0.121   0.172   1.622
 2909SOL    HW2 9627   0.216   0.129   1.497
 2910SOL     OW 9628   0.801   0.994   4.222
 2910SOL    HW1 9629   0.719   1.048   4.201
 2910SOL    HW2 9630   0.820   0.931   4.148
 2911SOL     OW 9631   0.656   4.324   5.612
 2911SOL    HW1 9632   0.746   4.366   5.602
 2911SOL    HW2 9633   0.630   4.280   5.526
 2912SOL     OW 9634   0.837   1.305   2.178
 2912SOL    HW1 9635   0.896   1.253   2.117
 2912SOL    HW2 9636   0.745   1.265   2.177
 2913SOL     OW 9637   1.529   6.905   2.945
 2913SOL    HW1 9638   1.586   6.830   2.979
 2913SOL    HW2 9639   1.573   6.946   2.866
 2914SOL     OW 9640   3.868   4.846   1.325
 2914SOL    HW1 9641   3.815   4.763   1.340
 2914SOL    HW2 9642   3.853   4.909   1.401
 2915SOL     OW 9643   2.739   0.505   4.045
 2915SOL    HW1 9644   2.659   0.444   4.042
 2915SOL    HW2 9645   2.725   0.581   3.982
 2916SOL     OW 9646   1.079   5.424   0.230
 2916SOL    HW1 9647   0.992   5.379   0.249
 2916SOL    HW2 9648   1.075   5.468   0.140
 2917SOL     OW 9649   2.556   0.154   2.543
 2917SOL    HW1 9650   2.627   0.119   2.604
 2917SOL    HW2 9651   2.491   0.209   2.595
 2918SOL     OW 9652   5.290   2.810   1.579
 2918SOL    HW1 9653   5.210   2.804   1.519
 2918SOL    HW2 9654   5.359   2.743   1.550
 2919SOL     OW 9655   0.108   6.287   4.678
 2919SOL    HW1 9656   0.063   6.214   4.729
 2919SOL    HW2 9657   0.178   6.330   4.736
 2920SOL     OW 9658   2.805   2.196   1.655
 2920SOL    HW1 9659   2.886   2.224   1.605
 2920SOL    HW2 9660   2.785   2.262   1.727
 2921SOL     OW 9661   0.904   6.325   3.566
 2921SOL    HW1 9662   0.886   6.305   3.469
 2921SOL    HW2 9663   0.915   6.424   3.578
 2922SOL     OW 9664   3.732   4.876   3.762
 2922SOL    HW1 9665   3.800   4.851   3.693
 2922SOL    HW2 9666   3.764   4.955   3.813
 2923SOL     OW 9667   0.787   5.355   4.666
 2923SOL    HW1 9668   0.855   5.428   4.671
 2923SOL    HW2 9669   0.830   5.271   4.635
 2924SOL     OW 9670   5.169   2.103   6.227
 2924SOL    HW1 9671   5.152   2.167   6.152
 2924SOL    HW2 9672   5.088   2.048   6.243
 2925SOL     OW 9673   5.523   6.667   5.051
 2925SOL    HW1 9674   5.469   6.649   5.133
 2925SOL    HW2 9675   5.536   6.765   5.040
 2926SOL     OW 9676   6.768   2.359   4.543
 2926SOL    HW1 9677   6.693   2.309   4.586
 2926SOL    HW2 9678   6.763   2.456   4.570
 2927SOL     OW 9679   1.224   2.329   2.403
 2927SOL    HW1 9680   1.249   2.418   2.367
 2927SOL    HW2 9681   1.299   2.264   2.387
 2928SOL     OW 9682   5.736   2.926   6.889
 2928SOL    HW1 9683   5.740   2.829   6.909
 2928SOL    HW2 9684   5.780   2.944   6.801
 2929SOL     OW 9685   2.272   1.997   3.902
 2929SOL    HW1 9686   2.228   2.071   3.954
 2929SOL    HW2 9687   2.215   1.973   3.824
 2930SOL     OW 9688   0.270   3.756   4.297
 2930SOL    HW1 9689   0.204   3.736   4.370
 2930SOL    HW2 9690   0.328   3.833   4.325
 2931SOL     OW 9691   5.824   4.788   5.597
 2931SOL    HW1 9692   5.727   4.790   5.572
 2931SOL    HW2 9693   5.833   4.809   5.694
 2932SOL     OW 9694   6.315   5.006   1.132
 2932SOL    HW1 9695   6.388   4.949   1.170
 2932SOL    HW2 9696   6.281   5.069   1.203
 2933SOL     OW 9697   1.292   7.016   0.412
 2933SOL    HW1 9698   1.287   6.940   0.347
 2933SOL    HW2 9699   1.303   6.980   0.505
 2934SOL     OW 9700   4.761   4.966   2.073
 2934SOL    HW1 9701   4.767   5.012   1.985
 2934SOL    HW2 9702   4.733   4.871   2.059
 2935SOL     OW 9703   0.731   2.729   5.921
 2935SOL    HW1 9704   0.756   2.811   5.869
 2935SOL    HW2 9705   0.812   2.672   5.936
 2936SOL     OW 9706   4.931   6.942   2.503
 2936SOL    HW1 9707   5.010   6.973   2.450
 2936SOL    HW2 9708   4.885   6.868   2.454
 2937SOL     OW 9709   5.869   3.637   3.129
 2937SOL    HW1 9710   5.772   3.644   3.105
 2937SOL    HW2 9711   5.920   3.709   3.082
 2938SOL     OW 9712   0.607   5.175   6.979
 2938SOL    HW1 9713   0.598   5.198   6.882
 2938SOL    HW2 9714   0.556   5.092   6.999
 2939SOL     OW 9715   6.953   5.962   1.483
 2939SOL    HW1 9716   6.913   6.049   1.454
 2939SOL    HW2 9717   6.930   5.944   1.579
 2940SOL     OW 9718   4.717   6.368   4.041
 2940SOL    HW1 9719   4.708   6.403   3.947
 2940SOL    HW2 9720   4.696   6.270   4.042
 2941SOL     OW 9721   2.493   4.938   2.942
 2941SOL    HW1 9722   2.395   4.915   2.935
 2941SOL    HW2 9723   2.532   4.893   3.023
 2942SOL     OW 9724   3.559   2.097   1.765
 2942SOL    HW1 9725   3.596   2.188   1.784
 2942SOL    HW2 9726   3.584   2.071   1.672
 2943SOL     OW 9727   6.023   3.444   3.517
 2943SOL    HW1 9728   5.997   3.351   3.543
 2943SOL    HW2 9729   6.049   3.496   3.598
 2944SOL     OW 9730   1.569   5.561   2.408
 2944SOL    HW1 9731   1.589   5.529   2.315
 2944SOL    HW2 9732   1.510   5.642   2.404
 2945SOL     OW 9733   5.489   3.748   1.611
 2945SOL    HW1 9734   5.448   3.819   1.553
 2945SOL    HW2 9735   5.419   3.681   1.635
 2946SOL     OW 9736   3.740   2.937   4.357
 2946SOL    HW1 9737   3.748   3.035   4.336
 2946SOL    HW2 9738   3.796   2.916   4.438
 2947SOL     OW 9739   6.363   4.990   0.610
 2947SOL    HW1 9740   6.390   4.932   0.687
 2947SOL    HW2 9741   6.274   4.960   0.576
 2948SOL     OW 9742   0.151   3.835   1.727
 2948SOL    HW1 9743   0.134   3.825   1.825
 2948SOL    HW2 9744   0.213   3.911   1.712
 2949SOL     OW 9745   1.721   6.253   0.763
 2949SOL    HW1 9746   1.753   6.328   0.820
 2949SOL    HW2 9747   1.772   6.253   0.677
 2950SOL     OW 9748   6.095   5.879   2.370
 2950SOL    HW1 9749   6.163   5.905   2.438
 2950SOL    HW2 9750   6.111   5.929   2.285
 2951SOL     OW 9751   1.126   1.893   1.365
 2951SOL    HW1 9752   1.157   1.798   1.373
 2951SOL    HW2 9753   1.067   1.915   1.443
 2952SOL     OW 9754   0.244   2.073   5.055
 2952SOL    HW1 9755   0.163   2.025   5.023
 2952SOL    HW2 9756   0.301   2.099   4.977
 2953SOL     OW 9757   1.619   5.382   3.279
 2953SOL    HW1 9758   1.566   5.434   3.212
 2953SOL    HW2 9759   1.715   5.380   3.250
 2954SOL     OW 9760   0.464   4.549   6.084
 2954SOL    HW1 9761   0.471   4.469   6.024
 2954SOL    HW2 9762   0.496   4.524   6.176
 2955SOL     OW 9763   1.569   4.799   6.266
 2955SOL    HW1 9764   1.521   4.720   6.230
 2955SOL    HW2 9765   1.505   4.874   6.280
 2956SOL     OW 9766   5.529   4.363   4.418
 2956SOL    HW1 9767   5.468   4.380   4.496
 2956SOL    HW2 9768   5.618   4.404   4.436
 2957SOL     OW 9769   2.385   5.677   1.748
 2957SOL    HW1 9770   2.426   5.694   1.837
 2957SOL    HW2 9771   2.319   5.603   1.755
 2958SOL     OW 9772   1.505   4.042   2.068
 2958SOL    HW1 9773   1.437   3.994   2.014
 2958SOL    HW2 9774   1.471   4.132   2.094
 2959SOL     OW 9775   0.267   3.519   3.871
 2959SOL    HW1 9776   0.183   3.574   3.877
 2959SOL    HW2 9777   0.318   3.528   3.956
 2960SOL     OW 9778   4.853   6.283   0.812
 2960SOL    HW1 9779   4.776   6.330   0.853
 2960SOL    HW2 9780   4.878   6.204   0.868
 2961SOL     OW 9781   5.599   2.315   1.739
 2961SOL    HW1 9782   5.535   2.286   1.810
 2961SOL    HW2 9783   5.674   2.366   1.780
 2962SOL     OW 9784   0.172   0.249   3.668
 2962SOL    HW1 9785   0.200   0.332   3.717
 2962SOL    HW2 9786   0.239   0.228   3.597
 2963SOL     OW 9787   1.474   0.234   5.190
 2963SOL    HW1 9788   1.375   0.241   5.201
 2963SOL    HW2 9789   1.512   0.323   5.162
 2964SOL     OW 9790   1.630   0.678   6.512
 2964SOL    HW1 9791   1.579   0.663   6.596
 2964SOL    HW2 9792   1.720   0.717   6.534
 2965SOL     OW 9793   5.710   0.147   6.186
 2965SOL    HW1 9794   5.702   0.221   6.118
 2965SOL    HW2 9795   5.802   0.108   6.180
 2966SOL     OW 9796   3.244   5.161   2.816
 2966SOL    HW1 9797   3.310   5.092   2.785
 2966SOL    HW2 9798   3.187   5.189   2.740
 2967SOL     OW 9799   6.028   6.779   5.205
 2967SOL    HW1 9800   5.949   6.723   5.228
 2967SOL    HW2 9801   6.022   6.867   5.252
 2968SOL     OW 9802   0.895   3.774   1.171
 2968SOL    HW1 9803   0.960   3.788   1.246
 2968SOL    HW2 9804   0.934   3.709   1.106
 2969SOL     OW 9805   4.509   2.465   4.717
 2969SOL    HW1 9806   4.597   2.431   4.683
 2969SOL    HW2 9807   4.459   2.391   4.762
 2970SOL     OW 9808   2.848   2.688   6.035
 2970SOL    HW1 9809   2.801   2.740   6.107
 2970SOL    HW2 9810   2.919   2.745   5.993
 2971SOL     OW 9811   4.970   3.262   6.829
 2971SOL    HW1 9812   5.068   3.246   6.815
 2971SOL    HW2 9813   4.952   3.278   6.926
 2972SOL     OW 9814   0.116   5.756   6.191
 2972SOL    HW1 9815   0.192   5.704   6.232
 2972SOL    HW2 9816   0.029   5.714   6.216
 2973SOL     OW 9817   5.662   1.057   4.495
 2973SOL    HW1 9818   5.737   1.120   4.518
 2973SOL    HW2 9819   5.685   0.966   4.530
 2974SOL     OW 9820   4.954   6.670   2.226
 2974SOL    HW1 9821   4.939   6.572   2.211
 2974SOL    HW2 9822   5.046   6.684   2.263
 2975SOL     OW 9823   6.719   3.617   4.807
 2975SOL    HW1 9824   6.759   3.697   4.762
 2975SOL    HW2 9825   6.625   3.636   4.832
 2976SOL     OW 9826   3.445   0.940   1.448
 2976SOL    HW1 9827   3.376   0.963   1.517
 2976SOL    HW2 9828   3.403   0.887   1.375
 2977SOL     OW 9829   1.182   0.853   1.855
 2977SOL    HW1 9830   1.265   0.833   1.802
 2977SOL    HW2 9831   1.103   0.852   1.794
 2978SOL     OW 9832   3.367   5.339   6.760
 2978SOL    HW1 9833   3.425   5.270   6.717
 2978SOL    HW2 9834   3.295   5.366   6.696
 2979SOL     OW 9835   2.906   1.122   4.940
 2979SOL    HW1 9836   2.920   1.207   4.990
 2979SOL    HW2 9837   2.848   1.139   4.860
 2980SOL     OW 9838   3.477   3.385   4.069
 2980SOL    HW1 9839   3.439   3.473   4.041
 2980SOL    HW2 9840   3.430   3.353   4.151
 2981SOL     OW 9841   2.753   1.627   1.390
 2981SOL    HW1 9842   2.761   1.535   1.427
 2981SOL    HW2 9843   2.804   1.691   1.448
 2982SOL     OW 9844   1.720   0.988   1.196
 2982SOL    HW1 9845   1.764   1.065   1.242
 2982SOL    HW2 9846   1.626   1.012   1.173
 2983SOL     OW 9847   6.414   3.533   5.874
 2983SOL    HW1 9848   6.396   3.617   5.925
 2983SOL    HW2 9849   6.510   3.531   5.846
 2984SOL     OW 9850   0.231   6.364   1.218
 2984SOL    HW1 9851   0.201   6.322   1.132
 2984SOL    HW2 9852   0.180   6.323   1.294
 2985SOL     OW 9853   6.234   0.361   6.476
 2985SOL    HW1 9854   6.249   0.459   6.492
 2985SOL    HW2 9855   6.194   0.348   6.386
 2986SOL     OW 9856   3.690   3.160   1.857
 2986SOL    HW1 9857   3.734   3.166   1.947
 2986SOL    HW2 9858   3.634   3.241   1.842
 2987SOL     OW 9859   2.230   5.555   4.471
 2987SOL    HW1 9860   2.307   5.583   4.414
 2987SOL    HW2 9861   2.149   5.609   4.447
 2988SOL     OW 9862   6.715   2.025   5.825
 2988SOL    HW1 9863   6.779   2.102   5.822
 2988SOL    HW2 9864   6.763   1.944   5.858
 2989SOL     OW 9865   5.822   3.500   4.768
 2989SOL    HW1 9866   5.872   3.414   4.762
 2989SOL    HW2 9867   5.864   3.559   4.837
 2990SOL     OW 9868   5.780   1.959   5.561
 2990SOL    HW1 9869   5.878   1.977   5.576
 2990SOL    HW2 9870   5.727   2.037   5.594
 2991SOL     OW 9871   0.144   3.334   0.050
 2991SOL    HW1 9872   0.171   3.242   0.022
 2991SOL    HW2 9873   0.061   3.329   0.104
 2992SOL     OW 9874   0.948   3.983   4.937
 2992SOL    HW1 9875   0.863   3.988   4.884
 2992SOL    HW2 9876   1.015   3.927   4.887
 2993SOL     OW 9877   3.460   4.894   1.087
 2993SOL    HW1 9878   3.399   4.940   1.023
 2993SOL    HW2 9879   3.411   4.875   1.173
 2994SOL     OW 9880   3.146   5.260   4.487
 2994SOL    HW1 9881   3.062   5.266   4.433
 2994SOL    HW2 9882   3.187   5.169   4.477
 2995SOL     OW 9883   4.546   0.640   1.822
 2995SOL    HW1 9884   4.635   0.595   1.808
 2995SOL    HW2 9885   4.485   0.616   1.748
 2996SOL     OW 9886   6.775   1.084   4.053
 2996SOL    HW1 9887   6.813   1.150   4.117
 2996SOL    HW2 9888   6.740   1.005   4.103
 2997SOL     OW 9889   4.886   6.075   4.100
 2997SOL    HW1 9890   4.928   6.144   4.160
 2997SOL    HW2 9891   4.788   6.069   4.121
 2998SOL     OW 9892   2.430   0.811   1.499
 2998SOL    HW1 9893   2.433   0.746   1.423
 2998SOL    HW2 9894   2.336   0.822   1.530
 2999SOL     OW 9895   2.068   4.477   0.884
 2999SOL    HW1 9896   2.161   4.450   0.859
 2999SOL    HW2 9897   2.065   4.499   0.982
 3000SOL     OW 9898   2.121   4.064   5.202
 3000SOL    HW1 9899   2.139   4.120   5.283
 3000SOL    HW2 9900   2.200   4.065   5.141
 3001SOL     OW 9901   4.062   0.743   6.435
 3001SOL    HW1 9902   4.134   0.754   6.367
 3001SOL    HW2 9903   4.043   0.832   6.478
 3002SOL     OW 9904   1.416   1.961   2.084
 3002SOL    HW1 9905   1.427   1.874   2.133
 3002SOL    HW2 9906   1.327   2.001   2.107
 3003SOL     OW 9907   1.512   6.013   1.259
 3003SOL    HW1 9908   1.512   6.071   1.178
 3003SOL    HW2 9909   1.426   6.027   1.310
 3004SOL     OW 9910   2.992   6.606   3.743
 3004SOL    HW1 9911   2.982   6.682   3.679
 3004SOL    HW2 9912   3.032   6.528   3.696
 3005SOL     OW 9913   2.804   1.770   0.765
 3005SOL    HW1 9914   2.829   1.850   0.820
 3005SOL    HW2 9915   2.717   1.734   0.796
 3006SOL     OW 9916   5.530   1.601   5.727
 3006SOL    HW1 9917   5.598   1.542   5.682
 3006SOL    HW2 9918   5.489   1.552   5.804
 3007SOL     OW 9919   6.047   5.401   6.231
 3007SOL    HW1 9920   6.056   5.303   6.214
 3007SOL    HW2 9921   6.138   5.443   6.234
 3008SOL     OW 9922   4.791   4.264   5.704
 3008SOL    HW1 9923   4.745   4.310   5.628
 3008SOL    HW2 9924   4.890   4.266   5.689
 3009SOL     OW 9925   5.542   3.094   2.108
 3009SOL    HW1 9926   5.455   3.128   2.074
 3009SOL    HW2 9927   5.584   3.163   2.168
 3010SOL     OW 9928   4.856   5.016   1.817
 3010SOL    HW1 9929   4.948   4.989   1.846
 3010SOL    HW2 9930   4.853   5.115   1.802
 3011SOL     OW 9931   6.047   0.137   0.414
 3011SOL    HW1 9932   6.076   0.232   0.422
 3011SOL    HW2 9933   6.123   0.076   0.437
 3012SOL     OW 9934   2.031   1.740   4.836
 3012SOL    HW1 9935   2.068   1.811   4.775
 3012SOL    HW2 9936   1.963   1.781   4.897
 3013SOL     OW 9937   0.854   4.992   5.760
 3013SOL    HW1 9938   0.843   4.905   5.808
 3013SOL    HW2 9939   0.804   5.064   5.808
 3014SOL     OW 9940   4.550   0.208   6.662
 3014SOL    HW1 9941   4.581   0.190   6.756
 3014SOL    HW2 9942   4.506   0.298   6.659
 3015SOL     OW 9943   2.361   0.399   6.003
 3015SOL    HW1 9944   2.412   0.353   5.930
 3015SOL    HW2 9945   2.413   0.393   6.088
 3016SOL     OW 9946   2.487   0.648   4.331
 3016SOL    HW1 9947   2.583   0.662   4.354
 3016SOL    HW2 9948   2.451   0.728   4.283
 3017SOL     OW 9949   1.383   5.817   0.583
 3017SOL    HW1 9950   1.332   5.843   0.502
 3017SOL    HW2 9951   1.331   5.842   0.665
 3018SOL     OW 9952   3.252   1.890   2.034
 3018SOL    HW1 9953   3.183   1.963   2.031
 3018SOL    HW2 9954   3.339   1.928   2.067
 3019SOL     OW 9955   1.724   6.896   5.822
 3019SOL    HW1 9956   1.704   6.918   5.917
 3019SOL    HW2 9957   1.807   6.942   5.793
 3020SOL     OW 9958   5.074   4.593   6.797
 3020SOL    HW1 9959   5.022   4.522   6.844
 3020SOL    HW2 9960   5.094   4.668   6.860
 3021SOL     OW 9961   4.968   0.256   4.549
 3021SOL    HW1 9962   4.893   0.191   4.564
 3021SOL    HW2 9963   5.055   0.208   4.559
 3022SOL     OW 9964   4.104   6.369   4.145
 3022SOL    HW1 9965   4.103   6.469   4.134
 3022SOL    HW2 9966   4.113   6.347   4.242
 3023SOL     OW 9967   5.616   4.437   5.027
 3023SOL    HW1 9968   5.624   4.422   4.929
 3023SOL    HW2 9969   5.630   4.351   5.076
 3024SOL     OW 9970   0.149   0.799   0.072
 3024SOL    HW1 9971   0.114   0.712   0.037
 3024SOL    HW2 9972   0.212   0.839   0.006
 3025SOL     OW 9973   4.084   4.976   0.818
 3025SOL    HW1 9974   4.166   4.954   0.764
 3025SOL    HW2 9975   4.023   5.033   0.762
 3026SOL     OW 9976   0.571   0.486   2.401
 3026SOL    HW1 9977   0.574   0.584   2.418
 3026SOL    HW2 9978   0.628   0.464   2.322
 3027SOL     OW 9979   4.189   0.006   0.623
 3027SOL    HW1 9980   4.210   7.001   0.529
 3027SOL    HW2 9981   4.203   6.950   0.684
 3028SOL     OW 9982   3.714   3.510   4.321
 3028SOL    HW1 9983   3.643   3.485   4.386
 3028SOL    HW2 9984   3.694   3.600   4.283
 3029SOL     OW 9985   6.807   3.293   5.031
 3029SOL    HW1 9986   6.777   3.233   5.105
 3029SOL    HW2 9987   6.769   3.260   4.944
 3030SOL     OW 9988   1.334   2.826   6.506
 3030SOL    HW1 9989   1.350   2.925   6.510
 3030SOL    HW2 9990   1.420   2.778   6.526
 3031SOL     OW 9991   0.830   5.420   1.170
 3031SOL    HW1 9992   0.801   5.337   1.122
 3031SOL    HW2 9993   0.917   5.452   1.133
 3032SOL     OW 9994   2.161   6.771   3.511
 3032SOL    HW1 9995   2.073   6.762   3.557
 3032SOL    HW2 9996   2.189   6.868   3.510
 3033SOL     OW 9997   1.487   1.439   6.322
 3033SOL    HW1 9998   1.430   1.488   6.388
 3033SOL    HW2 9999   1.577   1.481   6.318
 3034SOL     OW10000   5.189   3.245   3.583
 3034SOL    HW110001   5.231   3.166   3.627
 3034SOL    HW210002   5.233   3.261   3.494
 3035SOL     OW10003   0.132   3.480   6.836
 3035SOL    HW110004   0.167   3.450   6.925
 3035SOL    HW210005   0.146   3.579   6.827
 3036SOL     OW10006   3.544   2.566   5.722
 3036SOL    HW110007   3.525   2.660   5.693
 3036SOL    HW210008   3.485   2.542   5.799
 3037SOL     OW10009   0.923   5.410   6.654
 3037SOL    HW110010   0.894   5.328   6.605
 3037SOL    HW210011   1.022   5.420   6.646
 3038SOL     OW10012   5.904   5.089   6.038
 3038SOL    HW110013   5.976   5.057   6.100
 3038SOL    HW210014   5.817   5.091   6.087
 3039SOL     OW10015   5.730   3.806   5.913
 3039SOL    HW110016   5.691   3.841   5.998
 3039SOL    HW210017   5.706   3.868   5.838
 3040SOL     OW10018   3.999   5.999   5.882
 3040SOL    HW110019   3.999   5.908   5.923
 3040SOL    HW210020   4.070   6.055   5.925
 3041SOL     OW10021   1.625   5.156   6.105
 3041SOL    HW110022   1.555   5.209   6.153
 3041SOL    HW210023   1.589   5.123   6.018
 3042SOL     OW10024   0.185   4.784   3.867
 3042SOL    HW110025   0.116   4.739   3.810
 3042SOL    HW210026   0.141   4.852   3.926
 3043SOL     OW10027   3.030   4.562   1.650
 3043SOL    HW110028   2.984   4.535   1.734
 3043SOL    HW210029   3.120   4.519   1.646
 3044SOL     OW10030   3.891   3.465   4.574
 3044SOL    HW110031   3.878   3.371   4.605
 3044SOL    HW210032   3.814   3.492   4.516
 3045SOL     OW10033   5.401   1.303   2.194
 3045SOL    HW110034   5.412   1.204   2.200
 3045SOL    HW210035   5.401   1.342   2.286
 3046SOL     OW10036   5.878   6.182   1.644
 3046SOL    HW110037   5.836   6.245   1.578
 3046SOL    HW210038   5.960   6.224   1.683
 3047SOL     OW10039   6.218   1.243   4.108
 3047SOL    HW110040   6.222   1.173   4.037
 3047SOL    HW210041   6.305   1.243   4.159
 3048SOL     OW10042   4.323   4.974   1.980
 3048SOL    HW110043   4.313   4.894   2.040
 3048SOL    HW210044   4.404   4.962   1.923
 3049SOL     OW10045   0.994   2.287   2.255
 3049SOL    HW110046   0.914   2.337   2.286
 3049SOL    HW210047   1.063   2.284   2.328
 3050SOL     OW10048   3.178   2.243   6.151
 3050SOL    HW110049   3.128   2.290   6.224
 3050SOL    HW210050   3.215   2.157   6.187
 3051SOL     OW10051   2.265   4.962   5.870
 3051SOL    HW110052   2.270   5.013   5.784
 3051SOL    HW210053   2.169   4.951   5.897
 3052SOL     OW10054   6.738   6.837   3.753
 3052SOL    HW110055   6.791   6.916   3.722
 3052SOL    HW210056   6.651   6.868   3.791
 3053SOL     OW10057   0.818   4.200   0.044
 3053SOL    HW110058   0.723   4.180   0.021
 3053SOL    HW210059   0.868   4.114   0.060
 3054SOL     OW10060   5.486   0.012   2.648
 3054SOL    HW110061   5.531   0.019   2.737
 3054SOL    HW210062   5.555   7.020   2.577
 3055SOL     OW10063   5.379   6.302   0.469
 3055SOL    HW110064   5.361   6.209   0.438
 3055SOL    HW210065   5.349   6.367   0.399
 3056SOL     OW10066   4.355   1.776   0.235
 3056SOL    HW110067   4.449   1.789   0.265
 3056SOL    HW210068   4.301   1.736   0.310
 3057SOL     OW10069   5.933   3.996   3.320
 3057SOL    HW110070   5.980   4.011   3.407
 3057SOL    HW210071   5.873   3.917   3.327
 3058SOL     OW10072   0.316   5.634   6.306
 3058SOL    HW110073   0.347   5.599   6.394
 3058SOL    HW210074   0.380   5.606   6.234
 3059SOL     OW10075   1.290   2.434   2.146
 3059SOL    HW110076   1.389   2.429   2.129
 3059SOL    HW210077   1.244   2.364   2.091
 3060SOL     OW10078   5.759   4.074   3.754
 3060SOL    HW110079   5.668   4.033   3.754
 3060SOL    HW210080   5.752   4.172   3.774
 3061SOL     OW10081   5.467   6.955   3.303
 3061SOL    HW110082   5.514   6.876   3.264
 3061SOL    HW210083   5.528   7.001   3.368
 3062SOL     OW10084   4.115   5.058   1.334
 3062SOL    HW110085   4.048   5.083   1.264
 3062SOL    HW210086   4.071   5.000   1.403
 3063SOL     OW10087   6.897   4.652   1.370
 3063SOL    HW110088   6.912   4.563   1.326
 3063SOL    HW210089   6.806   4.654   1.411
 3064SOL     OW10090   4.544   1.969   6.335
 3064SOL    HW110091   4.503   1.886   6.298
 3064SOL    HW210092   4.574   1.952   6.429
 3065SOL     OW10093   5.759   1.529   6.337
 3065SOL    HW110094   5.802   1.467   6.271
 3065SOL    HW210095   5.765   1.489   6.429
 3066SOL     OW10096   5.335   0.062   5.422
 3066SOL    HW110097   5.373   6.995   5.443
 3066SOL    HW210098   5.345   0.122   5.502
 3067SOL     OW10099   1.334   1.829   4.687
 3067SOL    HW110100   1.393   1.857   4.611
 3067SOL    HW210101   1.390   1.809   4.767
 3068SOL     OW10102   6.112   6.966   0.682
 3068SOL    HW110103   6.138   0.030   0.724
 3068SOL    HW210104   6.190   6.903   0.686
 3069SOL     OW10105   5.434   6.410   4.221
 3069SOL    HW110106   5.430   6.373   4.314
 3069SOL    HW210107   5.345   6.451   4.198
 3070SOL     OW10108   2.579   1.320   1.204
 3070SOL    HW110109   2.650   1.308   1.134
 3070SOL    HW210110   2.595   1.407   1.252
 3071SOL     OW10111   5.971   4.490   5.085
 3071SOL    HW110112   5.950   4.395   5.109
 3071SOL    HW210113   5.898   4.550   5.117
 3072SOL     OW10114   2.007   6.638   5.898
 3072SOL    HW110115   2.098   6.663   5.929
 3072SOL    HW210116   1.984   6.692   5.817
 3073SOL     OW10117   0.001   5.753   2.187
 3073SOL    HW110118   7.001   5.655   2.187
 3073SOL    HW210119   0.066   5.772   2.114
 3074SOL     OW10120   3.299   2.772   1.882
 3074SOL    HW110121   3.337   2.733   1.798
 3074SOL    HW210122   3.200   2.786   1.870
 3075SOL     OW10123   3.925   5.204   1.907
 3075SOL    HW110124   3.910   5.270   1.834
 3075SOL    HW210125   3.847   5.141   1.912
 3076SOL     OW10126   1.226   1.125   4.197
 3076SOL    HW110127   1.148   1.186   4.183
 3076SOL    HW210128   1.219   1.082   4.287
 3077SOL     OW10129   6.917   3.438   1.566
 3077SOL    HW110130   6.904   3.399   1.475
 3077SOL    HW210131   6.829   3.471   1.600
 3078SOL     OW10132   0.053   3.611   2.361
 3078SOL    HW110133   0.032   3.589   2.266
 3078SOL    HW210134   7.020   3.552   2.421
 3079SOL     OW10135   1.638   4.493   4.365
 3079SOL    HW110136   1.729   4.502   4.324
 3079SOL    HW210137   1.644   4.439   4.449
 3080SOL     OW10138   4.139   4.991   1.709
 3080SOL    HW110139   4.048   4.992   1.669
 3080SOL    HW210140   4.189   4.910   1.676
 3081SOL     OW10141   2.397   3.482   5.897
 3081SOL    HW110142   2.372   3.566   5.850
 3081SOL    HW210143   2.321   3.454   5.957
 3082SOL     OW10144   5.181   4.261   5.082
 3082SOL    HW110145   5.179   4.295   4.988
 3082SOL    HW210146   5.108   4.194   5.095
 3083SOL     OW10147   3.499   5.933   1.959
 3083SOL    HW110148   3.502   5.835   1.978
 3083SOL    HW210149   3.406   5.967   1.973
 3084SOL     OW10150   6.923   5.305   3.411
 3084SOL    HW110151   7.012   5.307   3.366
 3084SOL    HW210152   6.934   5.266   3.503
 3085SOL     OW10153   5.868   5.507   0.093
 3085SOL    HW110154   5.890   5.604   0.100
 3085SOL    HW210155   5.951   5.453   0.108
 3086SOL     OW10156   6.009   6.139   6.426
 3086SOL    HW110157   6.055   6.212   6.375
 3086SOL    HW210158   6.051   6.130   6.516
 3087SOL     OW10159   3.259   7.020   2.373
 3087SOL    HW110160   3.275   0.081   2.426
 3087SOL    HW210161   3.333   6.955   2.390
 3088SOL     OW10162   2.248   3.799   5.254
 3088SOL    HW110163   2.175   3.861   5.225
 3088SOL    HW210164   2.336   3.842   5.238
 3089SOL     OW10165   4.271   5.681   6.195
 3089SOL    HW110166   4.232   5.684   6.103
 3089SOL    HW210167   4.338   5.754   6.205
 3090SOL     OW10168   0.432   2.681   2.109
 3090SOL    HW110169   0.451   2.685   2.207
 3090SOL    HW210170   0.343   2.722   2.090
 3091SOL     OW10171   1.147   2.726   0.177
 3091SOL    HW110172   1.088   2.683   0.109
 3091SOL    HW210173   1.093   2.748   0.258
 3092SOL     OW10174   6.094   1.488   2.240
 3092SOL    HW110175   6.183   1.525   2.268
 3092SOL    HW210176   6.084   1.395   2.275
 3093SOL     OW10177   6.267   5.300   6.421
 3093SOL    HW110178   6.220   5.243   6.353
 3093SOL    HW210179   6.280   5.247   6.505
 3094SOL     OW10180   2.112   1.278   6.163
 3094SOL    HW110181   2.064   1.272   6.076
 3094SOL    HW210182   2.197   1.225   6.158
 3095SOL     OW10183   1.515   3.862   4.900
 3095SOL    HW110184   1.472   3.772   4.889
 3095SOL    HW210185   1.545   3.895   4.810
 3096SOL     OW10186   1.648   3.928   4.247
 3096SOL    HW110187   1.693   3.858   4.192
 3096SOL    HW210188   1.561   3.953   4.204
 3097SOL     OW10189   5.624   3.112   5.130
 3097SOL    HW110190   5.644   3.091   5.225
 3097SOL    HW210191   5.617   3.211   5.118
 3098SOL     OW10192   2.115   3.136   2.298
 3098SOL    HW110193   2.155   3.212   2.247
 3098SOL    HW210194   2.019   3.155   2.319
 3099SOL     OW10195   0.602   0.030   5.270
 3099SOL    HW110196   0.509   7.021   5.289
 3099SOL    HW210197   0.652   0.040   5.355
 3100SOL     OW10198   5.454   4.774   1.707
 3100SOL    HW110199   5.529   4.839   1.691
 3100SOL    HW210200   5.374   4.824   1.739
 3101SOL     OW10201   5.259   6.888   4.918
 3101SOL    HW110202   5.351   6.856   4.941
 3101SOL    HW210203   5.192   6.832   4.968
 3102SOL     OW10204   5.853   4.895   1.626
 3102SOL    HW110205   5.833   4.976   1.681
 3102SOL    HW210206   5.835   4.813   1.680
 3103SOL     OW10207   2.166   2.321   1.741
 3103SOL    HW110208   2.233   2.396   1.747
 3103SOL    HW210209   2.085   2.353   1.693
 3104SOL     OW10210   5.596   2.638   5.050
 3104SOL    HW110211   5.558   2.584   4.975
 3104SOL    HW210212   5.612   2.579   5.129
 3105SOL     OW10213   5.243   3.895   0.687
 3105SOL    HW110214   5.330   3.926   0.725
 3105SOL    HW210215   5.216   3.809   0.729
 3106SOL     OW10216   5.435   1.669   5.427
 3106SOL    HW110217   5.393   1.602   5.487
 3106SOL    HW210218   5.415   1.646   5.332
 3107SOL     OW10219   3.638   2.079   5.066
 3107SOL    HW110220   3.629   2.133   5.149
 3107SOL    HW210221   3.735   2.060   5.049
 3108SOL     OW10222   2.160   3.712   3.355
 3108SOL    HW110223   2.100   3.640   3.319
 3108SOL    HW210224   2.229   3.734   3.287
 3109SOL     OW10225   6.888   6.329   3.213
 3109SOL    HW110226   6.811   6.270   3.238
 3109SOL    HW210227   6.973   6.276   3.214
 3110SOL     OW10228   0.989   5.537   3.571
 3110SOL    HW110229   0.902   5.501   3.538
 3110SOL    HW210230   1.055   5.542   3.496
 3111SOL     OW10231   6.391   4.068   4.127
 3111SOL    HW110232   6.393   4.109   4.036
 3111SOL    HW210233   6.328   4.119   4.185
 3112SOL     OW10234   4.083   0.993   0.220
 3112SOL    HW110235   3.987   1.019   0.222
 3112SOL    HW210236   4.141   1.072   0.239
 3113SOL     OW10237   1.600   6.953   3.565
 3113SOL    HW110238   1.580   0.017   3.609
 3113SOL    HW210239   1.683   6.961   3.510
 3114SOL     OW10240   4.583   6.505   5.961
 3114SOL    HW110241   4.501   6.481   5.908
 3114SOL    HW210242   4.664   6.468   5.916
 3115SOL     OW10243   4.910   5.421   4.930
 3115SOL    HW110244   4.987   5.455   4.876
 3115SOL    HW210245   4.944   5.363   5.004
 3116SOL     OW10246   0.767   1.497   6.098
 3116SOL    HW110247   0.847   1.527   6.047
 3116SOL    HW210248   0.700   1.572   6.101
 3117SOL     OW10249   4.109   0.129   1.213
 3117SOL    HW110250   4.039   0.171   1.156
 3117SOL    HW210251   4.067   0.059   1.271
 3118SOL     OW10252   1.385   1.849   3.505
 3118SOL    HW110253   1.381   1.851   3.605
 3118SOL    HW210254   1.458   1.910   3.473
 3119SOL     OW10255   5.178   5.761   4.369
 3119SOL    HW110256   5.247   5.705   4.323
 3119SOL    HW210257   5.197   5.858   4.351
 3120SOL     OW10258   2.407   5.469   6.679
 3120SOL    HW110259   2.457   5.457   6.765
 3120SOL    HW210260   2.311   5.486   6.699
 3121SOL     OW10261   4.412   2.372   4.129
 3121SOL    HW110262   4.367   2.303   4.187
 3121SOL    HW210263   4.388   2.356   4.033
 3122SOL     OW10264   5.557   4.854   5.926
 3122SOL    HW110265   5.550   4.952   5.941
 3122SOL    HW210266   5.493   4.827   5.853
 3123SOL     OW10267   1.811   1.986   3.170
 3123SOL    HW110268   1.749   2.051   3.126
 3123SOL    HW210269   1.772   1.894   3.164
 3124SOL     OW10270   4.613   0.075   5.301
 3124SOL    HW110271   4.700   0.095   5.256
 3124SOL    HW210272   4.538   0.112   5.246
 3125SOL     OW10273   1.750   1.316   6.127
 3125SOL    HW110274   1.750   1.370   6.043
 3125SOL    HW210275   1.752   1.377   6.206
 3126SOL     OW10276   5.033   4.656   5.705
 3126SOL    HW110277   5.066   4.660   5.799
 3126SOL    HW210278   5.110   4.646   5.642
 3127SOL     OW10279   6.899   1.745   5.055
 3127SOL    HW110280   6.923   1.673   5.120
 3127SOL    HW210281   6.800   1.753   5.049
 3128SOL     OW10282   3.341   0.192   0.512
 3128SOL    HW110283   3.425   0.140   0.529
 3128SOL    HW210284   3.269   0.160   0.573
 3129SOL     OW10285   4.551   4.206   0.111
 3129SOL    HW110286   4.578   4.291   0.066
 3129SOL    HW210287   4.455   4.212   0.139
 3130SOL     OW10288   0.450   5.899   2.229
 3130SOL    HW110289   0.512   5.971   2.260
 3130SOL    HW210290   0.392   5.870   2.305
 3131SOL     OW10291   6.601   3.923   3.057
 3131SOL    HW110292   6.681   3.934   3.115
 3131SOL    HW210293   6.615   3.846   2.995
 3132SOL     OW10294   4.984   3.948   0.263
 3132SOL    HW110295   4.887   3.947   0.236
 3132SOL    HW210296   5.032   3.874   0.216
 3133SOL     OW10297   5.370   6.968   4.283
 3133SOL    HW110298   5.347   6.876   4.253
 3133SOL    HW210299   5.294   0.008   4.263
 3134SOL     OW10300   5.579   4.921   2.670
 3134SOL    HW110301   5.635   4.897   2.749
 3134SOL    HW210302   5.638   4.941   2.592
 3135SOL     OW10303   3.394   6.140   6.893
 3135SOL    HW110304   3.433   6.083   6.965
 3135SOL    HW210305   3.298   6.116   6.880
 3136SOL     OW10306   6.155   0.296   3.050
 3136SOL    HW110307   6.224   0.283   2.980
 3136SOL    HW210308   6.064   0.275   3.013
 3137SOL     OW10309   4.179   5.904   6.897
 3137SOL    HW110310   4.173   5.821   6.841
 3137SOL    HW210311   4.221   5.883   6.985
 3138SOL     OW10312   6.381   6.213   5.028
 3138SOL    HW110313   6.358   6.248   4.937
 3138SOL    HW210314   6.316   6.248   5.094
 3139SOL     OW10315   2.117   5.130   1.442
 3139SOL    HW110316   2.169   5.140   1.357
 3139SOL    HW210317   2.120   5.035   1.472
 3140SOL     OW10318   6.327   5.752   6.947
 3140SOL    HW110319   6.272   5.744   0.007
 3140SOL    HW210320   6.394   5.678   6.943
 3141SOL     OW10321   5.948   1.590   6.759
 3141SOL    HW110322   5.863   1.631   6.726
 3141SOL    HW210323   6.023   1.655   6.748
 3142SOL     OW10324   4.581   0.832   3.711
 3142SOL    HW110325   4.545   0.804   3.621
 3142SOL    HW210326   4.520   0.900   3.751
 3143SOL     OW10327   6.767   1.719   1.322
 3143SOL    HW110328   6.731   1.669   1.401
 3143SOL    HW210329   6.788   1.655   1.248
 3144SOL     OW10330   3.519   4.451   0.338
 3144SOL    HW110331   3.476   4.398   0.411
 3144SOL    HW210332   3.454   4.518   0.303
 3145SOL     OW10333   0.516   5.586   0.129
 3145SOL    HW110334   0.542   5.641   0.049
 3145SOL    HW210335   0.417   5.590   0.141
 3146SOL     OW10336   6.506   1.952   4.797
 3146SOL    HW110337   6.574   2.025   4.801
 3146SOL    HW210338   6.432   1.970   4.862
 3147SOL     OW10339   3.970   0.084   0.211
 3147SOL    HW110340   3.987   0.156   0.143
 3147SOL    HW210341   4.056   0.056   0.253
 3148SOL     OW10342   6.957   4.620   1.716
 3148SOL    HW110343   6.887   4.652   1.780
 3148SOL    HW210344   6.922   4.542   1.664
 3149SOL     OW10345   3.446   2.925   0.205
 3149SOL    HW110346   3.528   2.948   0.152
 3149SOL    HW210347   3.366   2.965   0.160
 3150SOL     OW10348   0.096   6.981   5.966
 3150SOL    HW110349   0.047   6.981   6.053
 3150SOL    HW210350   0.036   7.013   5.894
 3151SOL     OW10351   6.837   0.975   5.760
 3151SOL    HW110352   6.900   1.050   5.775
 3151SOL    HW210353   6.883   0.902   5.709
 3152SOL     OW10354   2.123   2.419   5.787
 3152SOL    HW110355   2.174   2.428   5.873
 3152SOL    HW210356   2.036   2.467   5.795
 3153SOL     OW10357   5.329   5.642   2.136
 3153SOL    HW110358   5.376   5.700   2.202
 3153SOL    HW210359   5.341   5.546   2.161
 3154SOL     OW10360   3.957   1.673   0.727
 3154SOL    HW110361   3.995   1.693   0.637
 3154SOL    HW210362   3.996   1.587   0.761
 3155SOL     OW10363   0.902   5.077   6.754
 3155SOL    HW110364   0.808   5.094   6.725
 3155SOL    HW210365   0.908   5.078   6.853
 3156SOL     OW10366   4.623   4.450   1.077
 3156SOL    HW110367   4.693   4.511   1.038
 3156SOL    HW210368   4.624   4.363   1.028
 3157SOL     OW10369   1.078   0.782   4.877
 3157SOL    HW110370   1.074   0.877   4.907
 3157SOL    HW210371   1.080   0.722   4.957
 3158SOL     OW10372   2.287   0.859   5.565
 3158SOL    HW110373   2.259   0.955   5.573
 3158SOL    HW210374   2.367   0.842   5.622
 3159SOL     OW10375   4.839   6.995   1.320
 3159SOL    HW110376   4.851   6.913   1.376
 3159SOL    HW210377   4.925   0.022   1.315
 3160SOL     OW10378   1.766   0.735   5.514
 3160SOL    HW110379   1.780   0.833   5.498
 3160SOL    HW210380   1.680   0.706   5.473
 3161SOL     OW10381   1.599   2.852   2.274
 3161SOL    HW110382   1.646   2.866   2.361
 3161SOL    HW210383   1.648   2.784   2.220
 3162SOL     OW10384   1.183   5.537   1.669
 3162SOL    HW110385   1.144   5.603   1.733
 3162SOL    HW210386   1.109   5.484   1.627
 3163SOL     OW10387   4.672   4.515   0.263
 3163SOL    HW110388   4.601   4.478   0.203
 3163SOL    HW210389   4.714   4.440   0.315
 3164SOL     OW10390   2.488   6.813   4.737
 3164SOL    HW110391   2.506   6.717   4.760
 3164SOL    HW210392   2.544   6.839   4.658
 3165SOL     OW10393   1.191   5.934   6.198
 3165SOL    HW110394   1.196   5.850   6.144
 3165SOL    HW210395   1.135   6.001   6.151
 3166SOL     OW10396   4.331   1.300   4.882
 3166SOL    HW110397   4.354   1.202   4.881
 3166SOL    HW210398   4.254   1.316   4.819
 3167SOL     OW10399   5.745   3.036   1.229
 3167SOL    HW110400   5.827   3.035   1.286
 3167SOL    HW210401   5.752   3.110   1.162
 3168SOL     OW10402   4.831   1.126   0.427
 3168SOL    HW110403   4.891   1.205   0.432
 3168SOL    HW210404   4.841   1.081   0.338
 3169SOL     OW10405   1.380   3.899   1.845
 3169SOL    HW110406   1.357   3.803   1.857
 3169SOL    HW210407   1.298   3.951   1.825
 3170SOL     OW10408   2.164   3.874   3.600
 3170SOL    HW110409   2.238   3.829   3.650
 3170SOL    HW210410   2.149   3.827   3.513
 3171SOL     OW10411   5.392   1.699   4.615
 3171SOL    HW110412   5.450   1.684   4.535
 3171SOL    HW210413   5.307   1.742   4.586
 3172SOL     OW10414   5.630   4.602   1.424
 3172SOL    HW110415   5.605   4.556   1.509
 3172SOL    HW210416   5.593   4.695   1.424
 3173SOL     OW10417   5.247   2.315   0.358
 3173SOL    HW110418   5.161   2.354   0.392
 3173SOL    HW210419   5.251   2.218   0.382
 3174SOL     OW10420   3.458   2.464   6.668
 3174SOL    HW110421   3.459   2.433   6.763
 3174SOL    HW210422   3.385   2.416   6.619
 3175SOL     OW10423   5.505   6.875   5.497
 3175SOL    HW110424   5.573   6.919   5.555
 3175SOL    HW210425   5.517   6.776   5.499
 3176SOL     OW10426   7.013   5.224   3.740
 3176SOL    HW110427   6.972   5.136   3.763
 3176SOL    HW210428   6.948   5.297   3.763
 3177SOL     OW10429   5.330   2.923   3.872
 3177SOL    HW110430   5.246   2.875   3.849
 3177SOL    HW210431   5.391   2.923   3.793
 3178SOL     OW10432   0.596   0.775   2.453
 3178SOL    HW110433   0.496   0.777   2.461
 3178SOL    HW210434   0.626   0.844   2.388
 3179SOL     OW10435   0.803   2.466   2.372
 3179SOL    HW110436   0.822   2.528   2.296
 3179SOL    HW210437   0.847   2.500   2.455
 3180SOL     OW10438   0.133   6.278   6.904
 3180SOL    HW110439   0.094   6.346   6.966
 3180SOL    HW210440   0.062   6.215   6.873
 3181SOL     OW10441   0.845   6.234   5.834
 3181SOL    HW110442   0.752   6.202   5.817
 3181SOL    HW210443   0.893   6.245   5.747
 3182SOL     OW10444   1.932   0.368   0.961
 3182SOL    HW110445   1.862   0.426   0.921
 3182SOL    HW210446   1.901   0.335   1.050
 3183SOL     OW10447   4.019   3.448   1.077
 3183SOL    HW110448   3.981   3.440   1.170
 3183SOL    HW210449   4.082   3.373   1.060
 3184SOL     OW10450   6.288   1.560   4.219
 3184SOL    HW110451   6.239   1.473   4.215
 3184SOL    HW210452   6.374   1.547   4.269
 3185SOL     OW10453   0.828   6.157   6.965
 3185SOL    HW110454   0.772   6.141   6.884
 3185SOL    HW210455   0.918   6.115   6.952
 3186SOL     OW10456   0.058   2.716   6.600
 3186SOL    HW110457   7.012   2.750   6.665
 3186SOL    HW210458   0.131   2.784   6.590
 3187SOL     OW10459   5.312   6.801   2.577
 3187SOL    HW110460   5.337   6.898   2.583
 3187SOL    HW210461   5.395   6.746   2.576
 3188SOL     OW10462   1.930   6.580   0.704
 3188SOL    HW110463   1.892   6.590   0.612
 3188SOL    HW210464   1.857   6.549   0.766
 3189SOL     OW10465   3.260   1.644   5.770
 3189SOL    HW110466   3.289   1.740   5.765
 3189SOL    HW210467   3.160   1.640   5.760
 3190SOL     OW10468   6.125   6.420   4.087
 3190SOL    HW110469   6.153   6.515   4.080
 3190SOL    HW210470   6.030   6.410   4.058
 3191SOL     OW10471   3.459   5.667   1.965
 3191SOL    HW110472   3.420   5.643   2.053
 3191SOL    HW210473   3.505   5.587   1.926
 3192SOL     OW10474   5.443   0.853   2.940
 3192SOL    HW110475   5.365   0.801   2.905
 3192SOL    HW210476   5.409   0.929   2.996
 3193SOL     OW10477   3.313   6.267   4.633
 3193SOL    HW110478   3.280   6.356   4.603
 3193SOL    HW210479   3.319   6.205   4.554
 3194SOL     OW10480   1.567   0.033   6.386
 3194SOL    HW110481   1.617   0.005   6.468
 3194SOL    HW210482   1.521   6.976   6.347
 3195SOL     OW10483   1.046   0.636   1.021
 3195SOL    HW110484   0.961   0.656   0.972
 3195SOL    HW210485   1.029   0.639   1.120
 3196SOL     OW10486   5.899   6.890   2.598
 3196SOL    HW110487   5.892   6.908   2.696
 3196SOL    HW210488   5.982   6.934   2.562
 3197SOL     OW10489   2.649   0.761   6.052
 3197SOL    HW110490   2.701   0.835   6.095
 3197SOL    HW210491   2.687   0.673   6.078
 3198SOL     OW10492   5.674   2.527   3.836
 3198SOL    HW110493   5.654   2.625   3.842
 3198SOL    HW210494   5.752   2.504   3.894
 3199SOL     OW10495   5.088   3.671   3.126
 3199SOL    HW110496   5.094   3.631   3.217
 3199SOL    HW210497   5.178   3.668   3.082
 3200SOL     OW10498   5.684   3.334   4.406
 3200SOL    HW110499   5.628   3.366   4.483
 3200SOL    HW210500   5.780   3.359   4.422
 3201SOL     OW10501   6.358   4.196   2.108
 3201SOL    HW110502   6.307   4.216   2.192
 3201SOL    HW210503   6.356   4.098   2.090
 3202SOL     OW10504   2.743   3.506   6.777
 3202SOL    HW110505   2.670   3.479   6.714
 3202SOL    HW210506   2.786   3.590   6.744
 3203SOL     OW10507   3.130   6.557   1.915
 3203SOL    HW110508   3.094   6.640   1.959
 3203SOL    HW210509   3.229   6.564   1.908
 3204SOL     OW10510   3.642   0.731   3.981
 3204SOL    HW110511   3.581   0.809   3.966
 3204SOL    HW210512   3.671   0.693   3.893
 3205SOL     OW10513   5.192   3.240   5.896
 3205SOL    HW110514   5.124   3.202   5.833
 3205SOL    HW210515   5.151   3.314   5.949
 3206SOL     OW10516   2.516   4.110   1.339
 3206SOL    HW110517   2.565   4.089   1.254
 3206SOL    HW210518   2.488   4.024   1.383
 3207SOL     OW10519   2.191   5.285   4.420
 3207SOL    HW110520   2.224   5.374   4.451
 3207SOL    HW210521   2.169   5.290   4.322
 3208SOL     OW10522   6.379   4.871   6.321
 3208SOL    HW110523   6.473   4.843   6.341
 3208SOL    HW210524   6.370   4.884   6.222
 3209SOL     OW10525   4.987   6.536   6.594
 3209SOL    HW110526   5.031   6.449   6.570
 3209SOL    HW210527   5.026   6.570   6.680
 3210SOL     OW10528   5.000   5.750   1.710
 3210SOL    HW110529   5.073   5.753   1.779
 3210SOL    HW210530   4.920   5.705   1.748
 3211SOL     OW10531   1.980   6.447   6.258
 3211SOL    HW110532   1.899   6.499   6.233
 3211SOL    HW210533   1.986   6.364   6.201
 3212SOL     OW10534   2.800   6.703   3.114
 3212SOL    HW110535   2.730   6.640   3.082
 3212SOL    HW210536   2.767   6.752   3.195
 3213SOL     OW10537   1.341   6.762   6.086
 3213SOL    HW110538   1.321   6.860   6.086
 3213SOL    HW210539   1.363   6.733   6.179
 3214SOL     OW10540   4.192   0.512   2.570
 3214SOL    HW110541   4.185   0.559   2.482
 3214SOL    HW210542   4.183   0.578   2.645
 3215SOL     OW10543   2.155   3.141   1.728
 3215SOL    HW110544   2.125   3.211   1.792
 3215SOL    HW210545   2.177   3.057   1.778
 3216SOL     OW10546   5.843   4.769   1.014
 3216SOL    HW110547   5.875   4.852   0.968
 3216SOL    HW210548   5.898   4.754   1.096
 3217SOL     OW10549   0.057   5.823   2.478
 3217SOL    HW110550   0.023   5.746   2.532
 3217SOL    HW210551   0.041   5.806   2.381
 3218SOL     OW10552   5.858   1.475   2.544
 3218SOL    HW110553   5.935   1.483   2.607
 3218SOL    HW210554   5.869   1.393   2.487
 3219SOL     OW10555   6.080   1.796   4.844
 3219SOL    HW110556   6.102   1.836   4.754
 3219SOL    HW210557   6.005   1.846   4.885
 3220SOL     OW10558   6.979   4.231   5.613
 3220SOL    HW110559   7.000   4.326   5.636
 3220SOL    HW210560   6.881   4.216   5.617
 3221SOL     OW10561   3.611   1.762   2.217
 3221SOL    HW110562   3.570   1.687   2.166
 3221SOL    HW210563   3.708   1.770   2.195
 3222SOL     OW10564   3.163   1.112   3.059
 3222SOL    HW110565   3.249   1.062   3.060
 3222SOL    HW210566   3.132   1.123   2.965
 3223SOL     OW10567   1.366   5.124   0.516
 3223SOL    HW110568   1.316   5.161   0.437
 3223SOL    HW210569   1.414   5.041   0.489
 3224SOL     OW10570   4.446   1.993   4.101
 3224SOL    HW110571   4.433   1.950   4.011
 3224SOL    HW210572   4.359   2.027   4.134
 3225SOL     OW10573   4.610   1.183   4.763
 3225SOL    HW110574   4.638   1.228   4.847
 3225SOL    HW210575   4.684   1.125   4.729
 3226SOL     OW10576   6.025   0.853   0.461
 3226SOL    HW110577   5.945   0.900   0.498
 3226SOL    HW210578   6.021   0.855   0.361
 3227SOL     OW10579   5.575   4.457   5.405
 3227SOL    HW110580   5.507   4.405   5.353
 3227SOL    HW210581   5.666   4.422   5.387
 3228SOL     OW10582   2.946   4.568   0.631
 3228SOL    HW110583   2.852   4.541   0.652
 3228SOL    HW210584   2.969   4.650   0.682
 3229SOL     OW10585   1.679   2.118   0.478
 3229SOL    HW110586   1.768   2.165   0.479
 3229SOL    HW210587   1.672   2.057   0.557
 3230SOL     OW10588   3.149   6.074   5.319
 3230SOL    HW110589   3.155   6.164   5.274
 3230SOL    HW210590   3.097   6.083   5.404
 3231SOL     OW10591   1.951   2.171   2.997
 3231SOL    HW110592   1.975   2.125   3.082
 3231SOL    HW210593   1.944   2.270   3.013
 3232SOL     OW10594   3.490   4.989   3.809
 3232SOL    HW110595   3.556   4.926   3.769
 3232SOL    HW210596   3.524   5.020   3.898
 3233SOL     OW10597   1.500   0.151   0.034
 3233SOL    HW110598   1.478   0.230   6.999
 3233SOL    HW210599   1.429   0.139   0.103
 3234SOL     OW10600   3.069   3.600   0.862
 3234SOL    HW110601   3.161   3.637   0.877
 3234SOL    HW210602   3.051   3.596   0.763
 3235SOL     OW10603   0.725   0.855   3.244
 3235SOL    HW110604   0.688   0.886   3.156
 3235SOL    HW210605   0.651   0.820   3.301
 3236SOL     OW10606   4.859   0.919   0.216
 3236SOL    HW110607   4.936   0.854   0.217
 3236SOL    HW210608   4.776   0.874   0.248
 3237SOL     OW10609   5.882   1.552   5.476
 3237SOL    HW110610   5.838   1.533   5.564
 3237SOL    HW210611   5.829   1.622   5.427
 3238SOL     OW10612   6.411   4.611   1.649
 3238SOL    HW110613   6.335   4.627   1.712
 3238SOL    HW210614   6.378   4.617   1.555
 3239SOL     OW10615   6.942   0.466   5.077
 3239SOL    HW110616   6.878   0.543   5.074
 3239SOL    HW210617   6.949   0.433   5.171
 3240SOL     OW10618   6.744   0.813   0.317
 3240SOL    HW110619   6.713   0.785   0.408
 3240SOL    HW210620   6.670   0.862   0.270
 3241SOL     OW10621   6.731   3.160   5.282
 3241SOL    HW110622   6.697   3.100   5.356
 3241SOL    HW210623   6.706   3.254   5.302
 3242SOL     OW10624   6.804   3.843   4.676
 3242SOL    HW110625   6.796   3.861   4.578
 3242SOL    HW210626   6.896   3.870   4.707
 3243SOL     OW10627   5.799   4.503   3.982
 3243SOL    HW110628   5.790   4.421   4.039
 3243SOL    HW210629   5.895   4.520   3.961
 3244SOL     OW10630   4.772   6.670   0.200
 3244SOL    HW110631   4.782   6.665   0.100
 3244SOL    HW210632   4.863   6.668   0.242
 3245SOL     OW10633   3.714   6.852   4.914
 3245SOL    HW110634   3.763   6.784   4.860
 3245SOL    HW210635   3.615   6.835   4.907
 3246SOL     OW10636   6.826   0.256   2.709
 3246SOL    HW110637   6.857   0.346   2.680
 3246SOL    HW210638   6.856   0.187   2.642
 3247SOL     OW10639   1.501   4.220   3.753
 3247SOL    HW110640   1.467   4.185   3.841
 3247SOL    HW210641   1.499   4.146   3.686
 3248SOL     OW10642   5.390   2.173   3.476
 3248SOL    HW110643   5.401   2.106   3.549
 3248SOL    HW210644   5.457   2.245   3.487
 3249SOL     OW10645   3.263   2.991   3.517
 3249SOL    HW110646   3.269   2.987   3.418
 3249SOL    HW210647   3.346   2.953   3.558
 3250SOL     OW10648   4.647   5.635   2.884
 3250SOL    HW110649   4.589   5.555   2.901
 3250SOL    HW210650   4.591   5.708   2.845
 3251SOL     OW10651   3.135   2.180   2.482
 3251SOL    HW110652   3.182   2.117   2.420
 3251SOL    HW210653   3.062   2.228   2.433
 3252SOL     OW10654   1.953   1.384   3.414
 3252SOL    HW110655   1.890   1.411   3.341
 3252SOL    HW210656   2.023   1.455   3.424
 3253SOL     OW10657   6.430   2.978   6.937
 3253SOL    HW110658   6.375   3.061   6.925
 3253SOL    HW210659   6.435   2.928   6.850
 3254SOL     OW10660   6.577   6.524   1.529
 3254SOL    HW110661   6.500   6.461   1.525
 3254SOL    HW210662   6.596   6.548   1.624
 3255SOL     OW10663   3.918   5.991   1.609
 3255SOL    HW110664   3.983   6.067   1.604
 3255SOL    HW210665   3.859   6.003   1.689
 3256SOL     OW10666   5.216   2.486   1.120
 3256SOL    HW110667   5.162   2.513   1.200
 3256SOL    HW210668   5.155   2.469   1.043
 3257SOL     OW10669   3.131   1.405   2.637
 3257SOL    HW110670   3.107   1.445   2.725
 3257SOL    HW210671   3.189   1.469   2.586
 3258SOL     OW10672   1.313   5.591   4.441
 3258SOL    HW110673   1.350   5.590   4.348
 3258SOL    HW210674   1.253   5.512   4.454
 3259SOL     OW10675   5.434   3.866   4.102
 3259SOL    HW110676   5.425   3.808   4.021
 3259SOL    HW210677   5.415   3.812   4.184
 3260SOL     OW10678   1.503   4.952   3.364
 3260SOL    HW110679   1.575   4.908   3.311
 3260SOL    HW210680   1.516   4.933   3.461
 3261SOL     OW10681   5.577   0.391   4.485
 3261SOL    HW110682   5.665   0.367   4.445
 3261SOL    HW210683   5.519   0.310   4.490
 3262SOL     OW10684   3.098   1.640   3.461
 3262SOL    HW110685   3.120   1.614   3.555
 3262SOL    HW210686   3.081   1.557   3.407
 3263SOL     OW10687   6.807   0.740   1.964
 3263SOL    HW110688   6.868   0.666   1.935
 3263SOL    HW210689   6.854   0.827   1.953
 3264SOL     OW10690   1.796   4.843   0.071
 3264SOL    HW110691   1.752   4.916   0.124
 3264SOL    HW210692   1.885   4.875   0.039
 3265SOL     OW10693   0.121   5.548   6.573
 3265SOL    HW110694   0.118   5.461   6.622
 3265SOL    HW210695   0.215   5.585   6.575
 3266SOL     OW10696   3.704   4.879   5.955
 3266SOL    HW110697   3.720   4.915   5.863
 3266SOL    HW210698   3.698   4.955   6.020
 3267SOL     OW10699   3.750   6.750   0.802
 3267SOL    HW110700   3.844   6.763   0.773
 3267SOL    HW210701   3.745   6.752   0.902
 3268SOL     OW10702   5.700   4.984   2.034
 3268SOL    HW110703   5.728   4.903   1.983
 3268SOL    HW210704   5.676   4.958   2.128
 3269SOL     OW10705   1.582   5.061   1.911
 3269SOL    HW110706   1.641   5.102   1.981
 3269SOL    HW210707   1.563   5.128   1.840
 3270SOL     OW10708   0.985   3.085   5.658
 3270SOL    HW110709   1.009   3.071   5.562
 3270SOL    HW210710   1.069   3.089   5.713
 3271SOL     OW10711   0.970   3.812   1.437
 3271SOL    HW110712   0.981   3.715   1.457
 3271SOL    HW210713   1.043   3.864   1.482
 3272SOL     OW10714   4.557   5.586   0.404
 3272SOL    HW110715   4.657   5.591   0.394
 3272SOL    HW210716   4.524   5.500   0.366
 3273SOL     OW10717   3.935   3.904   6.508
 3273SOL    HW110718   3.928   3.873   6.603
 3273SOL    HW210719   3.869   3.854   6.452
 3274SOL     OW10720   5.432   0.034   1.851
 3274SOL    HW110721   5.413   0.127   1.882
 3274SOL    HW210722   5.466   7.002   1.928
 3275SOL     OW10723   4.857   0.682   1.572
 3275SOL    HW110724   4.826   0.619   1.644
 3275SOL    HW210725   4.893   0.630   1.495
 3276SOL     OW10726   5.754   6.006   6.846
 3276SOL    HW110727   5.715   6.003   6.938
 3276SOL    HW210728   5.804   6.092   6.834
 3277SOL     OW10729   3.075   1.762   2.279
 3277SOL    HW110730   3.034   1.779   2.368
 3277SOL    HW210731   3.101   1.848   2.237
 3278SOL     OW10732   5.543   0.863   6.202
 3278SOL    HW110733   5.604   0.793   6.239
 3278SOL    HW210734   5.448   0.834   6.214
 3279SOL     OW10735   3.808   0.256   1.810
 3279SOL    HW110736   3.850   0.346   1.803
 3279SOL    HW210737   3.851   0.205   1.885
 3280SOL     OW10738   6.599   3.449   4.301
 3280SOL    HW110739   6.516   3.429   4.353
 3280SOL    HW210740   6.595   3.542   4.265
 3281SOL     OW10741   6.443   2.646   1.709
 3281SOL    HW110742   6.369   2.683   1.653
 3281SOL    HW210743   6.425   2.550   1.730
 3282SOL     OW10744   0.184   5.042   5.037
 3282SOL    HW110745   0.180   5.100   5.119
 3282SOL    HW210746   0.208   5.098   4.958
 3283SOL     OW10747   3.169   2.048   0.132
 3283SOL    HW110748   3.176   2.142   0.098
 3283SOL    HW210749   3.233   2.035   0.208
 3284SOL     OW10750   2.149   6.767   4.750
 3284SOL    HW110751   2.108   6.840   4.694
 3284SOL    HW210752   2.219   6.720   4.697
 3285SOL     OW10753   3.676   2.140   4.371
 3285SOL    HW110754   3.667   2.112   4.467
 3285SOL    HW210755   3.598   2.107   4.319
 3286SOL     OW10756   1.660   2.563   2.679
 3286SOL    HW110757   1.747   2.612   2.671
 3286SOL    HW210758   1.594   2.601   2.613
 3287SOL     OW10759   2.246   0.547   0.854
 3287SOL    HW110760   2.264   0.520   0.949
 3287SOL    HW210761   2.207   0.639   0.853
 3288SOL     OW10762   2.259   5.695   2.176
 3288SOL    HW110763   2.230   5.725   2.085
 3288SOL    HW210764   2.313   5.768   2.219
 3289SOL     OW10765   4.388   0.616   6.693
 3289SOL    HW110766   4.387   0.713   6.670
 3289SOL    HW210767   4.350   0.563   6.617
 3290SOL     OW10768   0.576   5.636   0.783
 3290SOL    HW110769   0.564   5.579   0.702
 3290SOL    HW210770   0.673   5.645   0.804
 3291SOL     OW10771   5.144   6.658   5.017
 3291SOL    HW110772   5.186   6.590   4.957
 3291SOL    HW210773   5.208   6.682   5.090
 3292SOL     OW10774   0.247   1.886   0.582
 3292SOL    HW110775   0.152   1.860   0.564
 3292SOL    HW210776   0.307   1.807   0.572
 3293SOL     OW10777   6.259   4.884   3.110
 3293SOL    HW110778   6.289   4.970   3.069
 3293SOL    HW210779   6.211   4.829   3.042
 3294SOL     OW10780   5.126   2.600   5.134
 3294SOL    HW110781   5.032   2.632   5.121
 3294SOL    HW210782   5.186   2.646   5.068
 3295SOL     OW10783   0.884   2.415   2.686
 3295SOL    HW110784   0.886   2.513   2.664
 3295SOL    HW210785   0.976   2.377   2.677
 3296SOL     OW10786   2.104   0.797   5.803
 3296SOL    HW110787   2.174   0.725   5.802
 3296SOL    HW210788   2.133   0.871   5.864
 3297SOL     OW10789   4.137   1.095   5.420
 3297SOL    HW110790   4.050   1.093   5.371
 3297SOL    HW210791   4.121   1.116   5.517
 3298SOL     OW10792   4.010   3.694   5.470
 3298SOL    HW110793   3.962   3.611   5.499
 3298SOL    HW210794   4.106   3.688   5.496
 3299SOL     OW10795   2.578   5.905   3.907
 3299SOL    HW110796   2.501   5.844   3.930
 3299SOL    HW210797   2.550   6.000   3.921
 3300SOL     OW10798   2.145   0.611   4.130
 3300SOL    HW110799   2.065   0.654   4.171
 3300SOL    HW210800   2.225   0.669   4.145
 3301SOL     OW10801   0.981   1.303   3.137
 3301SOL    HW110802   1.055   1.242   3.167
 3301SOL    HW210803   0.989   1.391   3.184
 3302SOL     OW10804   1.369   5.200   5.180
 3302SOL    HW110805   1.391   5.104   5.167
 3302SOL    HW210806   1.316   5.233   5.103
 3303SOL     OW10807   3.510   3.418   6.822
 3303SOL    HW110808   3.485   3.478   6.898
 3303SOL    HW210809   3.489   3.323   6.846
 3304SOL     OW10810   1.825   4.244   0.305
 3304SOL    HW110811   1.828   4.178   0.230
 3304SOL    HW210812   1.798   4.199   0.389
 3305SOL     OW10813   3.203   2.606   0.592
 3305SOL    HW110814   3.240   2.676   0.530
 3305SOL    HW210815   3.129   2.557   0.546
 3306SOL     OW10816   2.261   0.652   0.084
 3306SOL    HW110817   2.310   0.687   0.164
 3306SOL    HW210818   2.324   0.647   0.006
 3307SOL     OW10819   1.806   6.040   4.811
 3307SOL    HW110820   1.771   6.084   4.728
 3307SOL    HW210821   1.747   5.963   4.835
 3308SOL     OW10822   4.266   4.419   1.383
 3308SOL    HW110823   4.357   4.387   1.356
 3308SOL    HW210824   4.218   4.455   1.303
 3309SOL     OW10825   5.256   3.279   3.294
 3309SOL    HW110826   5.168   3.237   3.273
 3309SOL    HW210827   5.246   3.378   3.298
 3310SOL     OW10828   6.105   4.773   5.960
 3310SOL    HW110829   6.008   4.787   5.981
 3310SOL    HW210830   6.136   4.686   5.999
 3311SOL     OW10831   2.505   3.782   0.170
 3311SOL    HW110832   2.540   3.843   0.241
 3311SOL    HW210833   2.410   3.803   0.150
 3312SOL     OW10834   4.758   2.995   6.403
 3312SOL    HW110835   4.727   3.085   6.373
 3312SOL    HW210836   4.681   2.931   6.402
 3313SOL     OW10837   6.984   0.420   4.239
 3313SOL    HW110838   6.986   0.380   4.147
 3313SOL    HW210839   7.006   0.349   4.306
 3314SOL     OW10840   3.857   5.662   2.429
 3314SOL    HW110841   3.943   5.703   2.458
 3314SOL    HW210842   3.827   5.704   2.343
 3315SOL     OW10843   0.650   5.554   4.559
 3315SOL    HW110844   0.696   5.577   4.474
 3315SOL    HW210845   0.706   5.489   4.611
 3316SOL     OW10846   4.281   2.376   6.958
 3316SOL    HW110847   4.351   2.311   6.989
 3316SOL    HW210848   4.305   2.468   6.988
 3317SOL     OW10849   5.188   2.909   1.815
 3317SOL    HW110850   5.204   2.859   1.730
 3317SOL    HW210851   5.092   2.898   1.842
 3318SOL     OW10852   3.102   2.937   0.556
 3318SOL    HW110853   3.161   2.976   0.627
 3318SOL    HW210854   3.156   2.877   0.497
 3319SOL     OW10855   6.742   5.886   3.965
 3319SOL    HW110856   6.763   5.804   3.911
 3319SOL    HW210857   6.758   5.968   3.910
 3320SOL     OW10858   5.923   6.138   2.031
 3320SOL    HW110859   5.936   6.146   1.932
 3320SOL    HW210860   5.965   6.054   2.064
 3321SOL     OW10861   4.926   2.284   0.200
 3321SOL    HW110862   4.998   2.215   0.189
 3321SOL    HW210863   4.924   2.343   0.119
 3322SOL     OW10864   5.987   3.088   0.581
 3322SOL    HW110865   6.072   3.071   0.531
 3322SOL    HW210866   5.964   3.007   0.635
 3323SOL     OW10867   1.681   1.753   1.405
 3323SOL    HW110868   1.623   1.805   1.468
 3323SOL    HW210869   1.677   1.656   1.430
 3324SOL     OW10870   5.182   5.660   5.360
 3324SOL    HW110871   5.127   5.725   5.307
 3324SOL    HW210872   5.203   5.700   5.449
 3325SOL     OW10873   2.615   4.636   5.247
 3325SOL    HW110874   2.678   4.608   5.175
 3325SOL    HW210875   2.664   4.689   5.316
 3326SOL     OW10876   3.586   2.080   2.416
 3326SOL    HW110877   3.532   2.062   2.333
 3326SOL    HW210878   3.563   2.170   2.452
 3327SOL     OW10879   0.753   5.601   6.022
 3327SOL    HW110880   0.829   5.559   6.071
 3327SOL    HW210881   0.769   5.699   6.014
 3328SOL     OW10882   4.725   2.604   5.375
 3328SOL    HW110883   4.654   2.668   5.404
 3328SOL    HW210884   4.686   2.513   5.362
 3329SOL     OW10885   6.293   6.022   5.739
 3329SOL    HW110886   6.350   5.947   5.705
 3329SOL    HW210887   6.296   6.022   5.839
 3330SOL     OW10888   6.819   3.957   3.203
 3330SOL    HW110889   6.818   3.940   3.302
 3330SOL    HW210890   6.905   4.001   3.178
 3331SOL     OW10891   2.192   3.456   0.283
 3331SOL    HW110892   2.127   3.532   0.278
 3331SOL    HW210893   2.150   3.374   0.244
 3332SOL     OW10894   6.718   4.088   1.543
 3332SOL    HW110895   6.787   4.160   1.543
 3332SOL    HW210896   6.628   4.128   1.561
 3333SOL     OW10897   3.429   5.414   6.432
 3333SOL    HW110898   3.442   5.345   6.504
 3333SOL    HW210899   3.352   5.474   6.457
 3334SOL     OW10900   1.776   3.772   1.731
 3334SOL    HW110901   1.794   3.708   1.656
 3334SOL    HW210902   1.847   3.763   1.801
 3335SOL     OW10903   6.062   4.072   4.645
 3335SOL    HW110904   6.029   4.020   4.565
 3335SOL    HW210905   6.055   4.170   4.625
 3336SOL     OW10906   2.957   5.652   6.048
 3336SOL    HW110907   3.005   5.731   6.087
 3336SOL    HW210908   2.948   5.664   5.949
 3337SOL     OW10909   3.662   1.942   0.822
 3337SOL    HW110910   3.637   1.912   0.914
 3337SOL    HW210911   3.665   1.863   0.761
 3338SOL     OW10912   6.809   4.473   0.431
 3338SOL    HW110913   6.822   4.378   0.401
 3338SOL    HW210914   6.711   4.492   0.439
 3339SOL     OW10915   0.812   5.986   6.535
 3339SOL    HW110916   0.902   6.013   6.569
 3339SOL    HW210917   0.759   6.068   6.513
 3340SOL     OW10918   3.926   0.135   2.016
 3340SOL    HW110919   3.923   0.082   2.101
 3340SOL    HW210920   4.020   0.167   2.001
 3341SOL     OW10921   0.535   6.972   1.526
 3341SOL    HW110922   0.599   0.025   1.516
 3341SOL    HW210923   0.500   6.970   1.620
 3342SOL     OW10924   2.722   0.520   4.944
 3342SOL    HW110925   2.656   0.594   4.960
 3342SOL    HW210926   2.765   0.534   4.855
 3343SOL     OW10927   6.790   2.469   1.311
 3343SOL    HW110928   6.786   2.475   1.211
 3343SOL    HW210929   6.800   2.561   1.350
 3344SOL     OW10930   6.934   3.451   5.985
 3344SOL    HW110931   7.003   3.519   5.959
 3344SOL    HW210932   6.875   3.431   5.906
 3345SOL     OW10933   2.801   3.354   5.977
 3345SOL    HW110934   2.752   3.386   5.896
 3345SOL    HW210935   2.827   3.433   6.034
 3346SOL     OW10936   1.561   5.482   2.664
 3346SOL    HW110937   1.645   5.441   2.701
 3346SOL    HW210938   1.582   5.531   2.580
 3347SOL     OW10939   6.391   4.003   4.458
 3347SOL    HW110940   6.370   3.940   4.383
 3347SOL    HW210941   6.307   4.030   4.504
 3348SOL     OW10942   3.707   4.034   2.872
 3348SOL    HW110943   3.649   4.074   2.802
 3348SOL    HW210944   3.784   3.987   2.828
 3349SOL     OW10945   5.892   3.963   6.104
 3349SOL    HW110946   5.844   3.876   6.102
 3349SOL    HW210947   5.931   3.982   6.014
 3350SOL     OW10948   1.498   2.247   0.672
 3350SOL    HW110949   1.492   2.226   0.770
 3350SOL    HW210950   1.590   2.227   0.639
 3351SOL     OW10951   5.513   2.099   0.597
 3351SOL    HW110952   5.597   2.075   0.645
 3351SOL    HW210953   5.525   2.185   0.548
 3352SOL     OW10954   0.647   3.419   0.165
 3352SOL    HW110955   0.556   3.422   0.123
 3352SOL    HW210956   0.656   3.494   0.230
 3353SOL     OW10957   1.839   6.625   6.105
 3353SOL    HW110958   1.902   6.648   6.031
 3353SOL    HW210959   1.759   6.578   6.067
 3354SOL     OW10960   1.451   1.127   2.236
 3354SOL    HW110961   1.369   1.091   2.192
 3354SOL    HW210962   1.487   1.059   2.300
 3355SOL     OW10963   6.936   1.668   2.938
 3355SOL    HW110964   6.983   1.644   3.022
 3355SOL    HW210965   6.838   1.650   2.948
 3356SOL     OW10966   2.228   3.686   5.779
 3356SOL    HW110967   2.146   3.632   5.798
 3356SOL    HW210968   2.231   3.708   5.681
 3357SOL     OW10969   2.205   5.321   2.407
 3357SOL    HW110970   2.234   5.382   2.334
 3357SOL    HW210971   2.252   5.345   2.492
 3358SOL     OW10972   6.787   4.375   3.096
 3358SOL    HW110973   6.868   4.421   3.134
 3358SOL    HW210974   6.708   4.436   3.102
 3359SOL     OW10975   1.506   1.266   1.693
 3359SOL    HW110976   1.496   1.324   1.773
 3359SOL    HW210977   1.434   1.287   1.627
 3360SOL     OW10978   1.761   0.462   6.110
 3360SOL    HW110979   1.686   0.522   6.140
 3360SOL    HW210980   1.846   0.490   6.154
 3361SOL     OW10981   4.858   0.692   2.908
 3361SOL    HW110982   4.839   0.631   2.830
 3361SOL    HW210983   4.870   0.637   2.991
 3362SOL     OW10984   2.212   1.109   5.447
 3362SOL    HW110985   2.296   1.163   5.449
 3362SOL    HW210986   2.190   1.086   5.353
 3363SOL     OW10987   0.298   1.312   6.182
 3363SOL    HW110988   0.396   1.298   6.175
 3363SOL    HW210989   0.275   1.336   6.276
 3364SOL     OW10990   2.066   4.478   6.201
 3364SOL    HW110991   2.162   4.458   6.184
 3364SOL    HW210992   2.058   4.561   6.257
 3365SOL     OW10993   6.093   2.049   5.312
 3365SOL    HW110994   6.003   2.005   5.314
 3365SOL    HW210995   6.151   2.010   5.384
 3366SOL     OW10996   5.250   1.310   6.405
 3366SOL    HW110997   5.236   1.402   6.440
 3366SOL    HW210998   5.330   1.309   6.344
 3367SOL     OW10999   1.689   0.389   2.287
 3367SOL    HW111000   1.694   0.483   2.321
 3367SOL    HW211001   1.603   0.348   2.317
 3368SOL     OW11002   6.292   0.821   6.034
 3368SOL    HW111003   6.207   0.873   6.046
 3368SOL    HW211004   6.370   0.879   6.058
 3369SOL     OW11005   3.583   6.340   5.881
 3369SOL    HW111006   3.622   6.249   5.875
 3369SOL    HW211007   3.651   6.403   5.920
 3370SOL     OW11008   5.105   0.103   5.003
 3370SOL    HW111009   5.169   0.046   4.952
 3370SOL    HW211010   5.152   0.187   5.032
 3371SOL     OW11011   6.942   4.943   1.363
 3371SOL    HW111012   6.895   4.855   1.349
 3371SOL    HW211013   6.942   4.965   1.460
 3372SOL     OW11014   0.492   2.067   2.713
 3372SOL    HW111015   0.575   2.116   2.687
 3372SOL    HW211016   0.511   1.969   2.720
 3373SOL     OW11017   0.728   2.043   6.114
 3373SOL    HW111018   0.668   2.054   6.193
 3373SOL    HW211019   0.674   2.038   6.030
 3374SOL     OW11020   3.544   5.505   5.322
 3374SOL    HW111021   3.492   5.454   5.391
 3374SOL    HW211022   3.642   5.495   5.338
 3375SOL     OW11023   3.958   4.005   4.905
 3375SOL    HW111024   3.917   3.925   4.861
 3375SOL    HW211025   4.018   4.051   4.840
 3376SOL     OW11026   2.838   3.148   1.848
 3376SOL    HW111027   2.806   3.188   1.935
 3376SOL    HW211028   2.934   3.121   1.858
 3377SOL     OW11029   2.962   5.521   5.549
 3377SOL    HW111030   3.044   5.503   5.494
 3377SOL    HW211031   2.923   5.434   5.579
 3378SOL     OW11032   0.599   0.953   1.151
 3378SOL    HW111033   0.553   0.866   1.170
 3378SOL    HW211034   0.682   0.937   1.098
 3379SOL     OW11035   0.888   4.881   6.468
 3379SOL    HW111036   0.856   4.798   6.422
 3379SOL    HW211037   0.895   4.864   6.567
 3380SOL     OW11038   0.855   3.688   5.806
 3380SOL    HW111039   0.779   3.638   5.848
 3380SOL    HW211040   0.823   3.778   5.775
 3381SOL     OW11041   3.342   3.077   0.881
 3381SOL    HW111042   3.242   3.069   0.874
 3381SOL    HW211043   3.380   2.988   0.908
 3382SOL     OW11044   6.804   6.940   6.622
 3382SOL    HW111045   6.890   6.938   6.571
 3382SOL    HW211046   6.824   6.939   6.720
 3383SOL     OW11047   0.230   4.157   2.788
 3383SOL    HW111048   0.227   4.254   2.768
 3383SOL    HW211049   0.301   4.139   2.856
 3384SOL     OW11050   3.369   2.981   4.564
 3384SOL    HW111051   3.274   3.010   4.549
 3384SOL    HW211052   3.401   2.929   4.485
 3385SOL     OW11053   6.492   3.961   3.666
 3385SOL    HW111054   6.567   3.985   3.727
 3385SOL    HW211055   6.518   3.881   3.611
 3386SOL     OW11056   6.274   3.804   5.071
 3386SOL    HW111057   6.190   3.839   5.029
 3386SOL    HW211058   6.277   3.833   5.167
 3387SOL     OW11059   3.085   2.049   3.220
 3387SOL    HW111060   3.184   2.053   3.237
 3387SOL    HW211061   3.040   2.125   3.267
 3388SOL     OW11062   5.241   2.824   2.079
 3388SOL    HW111063   5.257   2.900   2.141
 3388SOL    HW211064   5.242   2.856   1.984
 3389SOL     OW11065   5.105   4.441   3.045
 3389SOL    HW111066   5.095   4.342   3.057
 3389SOL    HW211067   5.027   4.487   3.087
 3390SOL     OW11068   5.024   2.782   5.831
 3390SOL    HW111069   5.051   2.701   5.883
 3390SOL    HW211070   4.946   2.826   5.875
 3391SOL     OW11071   3.767   2.180   4.108
 3391SOL    HW111072   3.754   2.163   4.205
 3391SOL    HW211073   3.678   2.182   4.062
 3392SOL     OW11074   4.949   6.296   3.600
 3392SOL    HW111075   5.046   6.277   3.587
 3392SOL    HW211076   4.913   6.236   3.673
 3393SOL     OW11077   6.491   0.565   0.315
 3393SOL    HW111078   6.452   0.551   0.406
 3393SOL    HW211079   6.500   0.663   0.297
 3394SOL     OW11080   5.608   1.320   1.452
 3394SOL    HW111081   5.521   1.283   1.420
 3394SOL    HW211082   5.614   1.309   1.551
 3395SOL     OW11083   1.387   3.560   4.828
 3395SOL    HW111084   1.402   3.465   4.803
 3395SOL    HW211085   1.392   3.570   4.927
 3396SOL     OW11086   0.110   4.003   4.418
 3396SOL    HW111087   0.165   4.019   4.500
 3396SOL    HW211088   0.152   4.050   4.340
 3397SOL     OW11089   3.020   6.327   5.648
 3397SOL    HW111090   2.994   6.232   5.628
 3397SOL    HW211091   3.070   6.331   5.734
 3398SOL     OW11092   0.245   0.206   4.237
 3398SOL    HW111093   0.213   0.244   4.151
 3398SOL    HW211094   0.167   0.182   4.296
 3399SOL     OW11095   4.490   5.168   4.497
 3399SOL    HW111096   4.450   5.243   4.551
 3399SOL    HW211097   4.499   5.197   4.402
 3400SOL     OW11098   4.551   2.596   6.336
 3400SOL    HW111099   4.565   2.538   6.417
 3400SOL    HW211100   4.457   2.583   6.302
 3401SOL     OW11101   6.292   4.764   6.773
 3401SOL    HW111102   6.356   4.688   6.781
 3401SOL    HW211103   6.278   4.787   6.677
 3402SOL     OW11104   4.834   5.698   2.411
 3402SOL    HW111105   4.891   5.730   2.336
 3402SOL    HW211106   4.741   5.683   2.378
 3403SOL     OW11107   3.123   1.916   5.079
 3403SOL    HW111108   3.089   1.955   4.993
 3403SOL    HW211109   3.171   1.987   5.131
 3404SOL     OW11110   4.597   0.938   0.914
 3404SOL    HW111111   4.576   0.878   0.836
 3404SOL    HW211112   4.644   0.885   0.984
 3405SOL     OW11113   5.940   3.786   0.978
 3405SOL    HW111114   5.936   3.711   0.912
 3405SOL    HW211115   5.964   3.750   1.068
 3406SOL     OW11116   1.503   4.623   1.787
 3406SOL    HW111117   1.503   4.654   1.883
 3406SOL    HW211118   1.411   4.592   1.763
 3407SOL     OW11119   1.356   5.239   2.461
 3407SOL    HW111120   1.440   5.192   2.437
 3407SOL    HW211121   1.356   5.260   2.559
 3408SOL     OW11122   5.343   3.694   2.997
 3408SOL    HW111123   5.303   3.750   2.924
 3408SOL    HW211124   5.443   3.700   2.992
 3409SOL     OW11125   2.956   0.618   5.611
 3409SOL    HW111126   3.042   0.568   5.604
 3409SOL    HW211127   2.968   0.711   5.576
 3410SOL     OW11128   6.802   0.460   6.891
 3410SOL    HW111129   6.716   0.413   6.873
 3410SOL    HW211130   6.789   0.525   6.966
 3411SOL     OW11131   4.855   2.570   1.977
 3411SOL    HW111132   4.923   2.592   2.048
 3411SOL    HW211133   4.814   2.481   1.998
 3412SOL     OW11134   3.917   4.588   6.675
 3412SOL    HW111135   3.827   4.548   6.659
 3412SOL    HW211136   3.988   4.521   6.655
 3413SOL     OW11137   4.199   2.265   2.470
 3413SOL    HW111138   4.126   2.293   2.533
 3413SOL    HW211139   4.159   2.224   2.388
 3414SOL     OW11140   3.913   1.669   5.942
 3414SOL    HW111141   3.824   1.709   5.965
 3414SOL    HW211142   3.943   1.704   5.854
 3415SOL     OW11143   6.973   5.349   4.378
 3415SOL    HW111144   0.018   5.423   4.379
 3415SOL    HW211145   6.884   5.385   4.404
 3416SOL     OW11146   2.130   4.726   5.330
 3416SOL    HW111147   2.089   4.777   5.405
 3416SOL    HW211148   2.146   4.631   5.358
 3417SOL     OW11149   5.960   0.430   1.766
 3417SOL    HW111150   6.028   0.371   1.810
 3417SOL    HW211151   5.873   0.382   1.759
 3418SOL     OW11152   3.027   1.236   6.566
 3418SOL    HW111153   3.055   1.146   6.534
 3418SOL    HW211154   3.080   1.261   6.647
 3419SOL     OW11155   4.616   3.763   0.203
 3419SOL    HW111156   4.660   3.732   0.287
 3419SOL    HW211157   4.601   3.685   0.142
 3420SOL     OW11158   4.213   2.131   4.161
 3420SOL    HW111159   4.171   2.162   4.246
 3420SOL    HW211160   4.156   2.158   4.083
 3421SOL     OW11161   0.384   6.167   4.191
 3421SOL    HW111162   0.482   6.167   4.171
 3421SOL    HW211163   0.356   6.259   4.219
 3422SOL     OW11164   3.379   1.630   2.077
 3422SOL    HW111165   3.334   1.719   2.065
 3422SOL    HW211166   3.406   1.594   1.987
 3423SOL     OW11167   2.823   0.974   1.479
 3423SOL    HW111168   2.854   0.888   1.438
 3423SOL    HW211169   2.725   0.985   1.465
 3424SOL     OW11170   3.828   1.175   2.637
 3424SOL    HW111171   3.867   1.197   2.726
 3424SOL    HW211172   3.888   1.110   2.589
 3425SOL     OW11173   4.510   4.516   1.827
 3425SOL    HW111174   4.494   4.484   1.734
 3425SOL    HW211175   4.553   4.444   1.881
 3426SOL     OW11176   4.308   3.613   0.352
 3426SOL    HW111177   4.216   3.577   0.371
 3426SOL    HW211178   4.347   3.647   0.438
 3427SOL     OW11179   0.691   1.690   0.250
 3427SOL    HW111180   0.686   1.784   0.284
 3427SOL    HW211181   0.751   1.637   0.310
 3428SOL     OW11182   4.548   4.589   3.159
 3428SOL    HW111183   4.588   4.500   3.136
 3428SOL    HW211184   4.544   4.599   3.258
 3429SOL     OW11185   0.246   3.211   6.491
 3429SOL    HW111186   0.228   3.131   6.549
 3429SOL    HW211187   0.265   3.290   6.549
 3430SOL     OW11188   1.165   6.337   7.014
 3430SOL    HW111189   1.153   6.341   6.915
 3430SOL    HW211190   1.079   6.307   0.034
 3431SOL     OW11191   1.009   6.151   0.388
 3431SOL    HW111192   0.926   6.206   0.396
 3431SOL    HW211193   0.984   6.055   0.382
 3432SOL     OW11194   3.174   2.085   6.687
 3432SOL    HW111195   3.131   1.999   6.660
 3432SOL    HW211196   3.244   2.067   6.757
 3433SOL     OW11197   4.024   0.784   5.022
 3433SOL    HW111198   4.087   0.723   4.975
 3433SOL    HW211199   3.952   0.814   4.959
 3434SOL     OW11200   4.378   2.051   2.928
 3434SOL    HW111201   4.335   2.026   2.841
 3434SOL    HW211202   4.317   2.112   2.979
 3435SOL     OW11203   0.377   1.240   0.018
 3435SOL    HW111204   0.420   1.150   0.004
 3435SOL    HW211205   0.289   1.228   0.063
 3436SOL     OW11206   4.123   6.840   3.433
 3436SOL    HW111207   4.169   6.767   3.483
 3436SOL    HW211208   4.095   6.806   3.343
 3437SOL     OW11209   3.917   0.194   6.145
 3437SOL    HW111210   3.914   0.292   6.164
 3437SOL    HW211211   3.985   0.176   6.074
 3438SOL     OW11212   1.504   3.812   6.634
 3438SOL    HW111213   1.489   3.740   6.566
 3438SOL    HW211214   1.483   3.901   6.593
 3439SOL     OW11215   2.756   6.318   3.587
 3439SOL    HW111216   2.676   6.377   3.594
 3439SOL    HW211217   2.753   6.248   3.658
 3440SOL     OW11218   4.691   1.882   0.864
 3440SOL    HW111219   4.766   1.860   0.802
 3440SOL    HW211220   4.681   1.808   0.931
 3441SOL     OW11221   3.185   0.430   4.142
 3441SOL    HW111222   3.231   0.342   4.153
 3441SOL    HW211223   3.089   0.422   4.167
 3442SOL     OW11224   1.811   4.841   3.286
 3442SOL    HW111225   1.847   4.835   3.193
 3442SOL    HW211226   1.748   4.764   3.302
 3443SOL     OW11227   5.900   0.789   4.191
 3443SOL    HW111228   5.851   0.718   4.241
 3443SOL    HW211229   5.998   0.782   4.210
 3444SOL     OW11230   4.038   5.513   0.434
 3444SOL    HW111231   4.101   5.442   0.468
 3444SOL    HW211232   4.088   5.576   0.374
 3445SOL     OW11233   6.271   4.539   4.617
 3445SOL    HW111234   6.226   4.569   4.702
 3445SOL    HW211235   6.367   4.520   4.635
 3446SOL     OW11236   3.288   6.463   2.759
 3446SOL    HW111237   3.319   6.491   2.668
 3446SOL    HW211238   3.288   6.542   2.820
 3447SOL     OW11239   5.714   5.041   6.248
 3447SOL    HW111240   5.643   5.109   6.266
 3447SOL    HW211241   5.673   4.950   6.249
 3448SOL     OW11242   3.605   2.386   0.999
 3448SOL    HW111243   3.573   2.301   0.957
 3448SOL    HW211244   3.649   2.443   0.929
 3449SOL     OW11245   5.953   6.416   3.681
 3449SOL    HW111246   5.868   6.431   3.733
 3449SOL    HW211247   5.934   6.424   3.583
 3450SOL     OW11248   1.271   1.626   1.333
 3450SOL    HW111249   1.326   1.564   1.388
 3450SOL    HW211250   1.317   1.644   1.246
 3451SOL     OW11251   0.954   5.312   4.306
 3451SOL    HW111252   0.954   5.260   4.391
 3451SOL    HW211253   0.896   5.393   4.316
 3452SOL     OW11254   6.227   1.877   0.035
 3452SOL    HW111255   6.204   1.873   0.132
 3452SOL    HW211256   6.323   1.849   0.022
 3453SOL     OW11257   5.958   5.556   5.570
 3453SOL    HW111258   5.880   5.506   5.532
 3453SOL    HW211259   5.929   5.647   5.599
 3454SOL     OW11260   0.235   0.947   0.333
 3454SOL    HW111261   0.323   0.929   0.377
 3454SOL    HW211262   0.234   0.903   0.243
 3455SOL     OW11263   1.899   2.643   4.717
 3455SOL    HW111264   1.852   2.561   4.748
 3455SOL    HW211265   1.988   2.650   4.762
 3456SOL     OW11266   6.398   0.257   1.586
 3456SOL    HW111267   6.474   0.194   1.600
 3456SOL    HW211268   6.422   0.347   1.624
 3457SOL     OW11269   2.232   5.200   3.601
 3457SOL    HW111270   2.279   5.151   3.674
 3457SOL    HW211271   2.144   5.234   3.635
 3458SOL     OW11272   5.248   5.507   1.231
 3458SOL    HW111273   5.280   5.475   1.321
 3458SOL    HW211274   5.256   5.433   1.165
 3459SOL     OW11275   6.476   6.889   3.350
 3459SOL    HW111276   6.434   6.826   3.416
 3459SOL    HW211277   6.557   6.846   3.310
 3460SOL     OW11278   4.265   3.379   6.434
 3460SOL    HW111279   4.312   3.362   6.521
 3460SOL    HW211280   4.287   3.471   6.401
 3461SOL     OW11281   3.249   5.595   2.590
 3461SOL    HW111282   3.261   5.678   2.536
 3461SOL    HW211283   3.335   5.572   2.635
 3462SOL     OW11284   5.013   3.167   3.161
 3462SOL    HW111285   4.973   3.094   3.216
 3462SOL    HW211286   5.030   3.133   3.069
 3463SOL     OW11287   2.140   2.858   1.186
 3463SOL    HW111288   2.198   2.787   1.147
 3463SOL    HW211289   2.187   2.903   1.262
 3464SOL     OW11290   4.526   2.615   6.788
 3464SOL    HW111291   4.483   2.663   6.712
 3464SOL    HW211292   4.469   2.624   6.870
 3465SOL     OW11293   1.756   3.532   1.929
 3465SOL    HW111294   1.849   3.537   1.966
 3465SOL    HW211295   1.760   3.516   1.831
 3466SOL     OW11296   6.068   4.645   3.988
 3466SOL    HW111297   6.108   4.687   4.069
 3466SOL    HW211298   6.130   4.657   3.910
 3467SOL     OW11299   2.865   2.660   1.331
 3467SOL    HW111300   2.963   2.644   1.332
 3467SOL    HW211301   2.836   2.688   1.239
 3468SOL     OW11302   3.702   1.607   0.971
 3468SOL    HW111303   3.699   1.705   0.988
 3468SOL    HW211304   3.786   1.569   1.009
 3469SOL     OW11305   4.243   5.823   5.664
 3469SOL    HW111306   4.311   5.892   5.687
 3469SOL    HW211307   4.163   5.866   5.623
 3470SOL     OW11308   1.012   3.082   1.730
 3470SOL    HW111309   1.076   3.153   1.756
 3470SOL    HW211310   1.034   3.049   1.638
 3471SOL     OW11311   5.115   3.180   4.503
 3471SOL    HW111312   5.172   3.173   4.422
 3471SOL    HW211313   5.074   3.091   4.523
 3472SOL     OW11314   4.268   1.616   3.141
 3472SOL    HW111315   4.182   1.628   3.190
 3472SOL    HW211316   4.268   1.528   3.095
 3473SOL     OW11317   0.084   4.244   1.751
 3473SOL    HW111318   0.177   4.277   1.739
 3473SOL    HW211319   0.041   4.291   1.829
 3474SOL     OW11320   5.888   4.847   3.843
 3474SOL    HW111321   5.811   4.817   3.900
 3474SOL    HW211322   5.973   4.811   3.881
 3475SOL     OW11323   6.941   4.286   4.256
 3475SOL    HW111324   6.880   4.260   4.330
 3475SOL    HW211325   6.932   4.222   4.180
 3476SOL     OW11326   1.428   1.114   3.648
 3476SOL    HW111327   1.344   1.142   3.693
 3476SOL    HW211328   1.502   1.109   3.715
 3477SOL     OW11329   0.561   4.164   2.284
 3477SOL    HW111330   0.557   4.067   2.309
 3477SOL    HW211331   0.511   4.218   2.352
 3478SOL     OW11332   2.258   1.086   1.018
 3478SOL    HW111333   2.279   1.150   1.092
 3478SOL    HW211334   2.198   1.013   1.053
 3479SOL     OW11335   1.463   4.483   4.646
 3479SOL    HW111336   1.502   4.532   4.724
 3479SOL    HW211337   1.521   4.405   4.624
 3480SOL     OW11338   1.391   4.814   0.032
 3480SOL    HW111339   1.341   4.813   6.968
 3480SOL    HW211340   1.469   4.751   0.026
 3481SOL     OW11341   6.222   0.898   5.082
 3481SOL    HW111342   6.142   0.864   5.132
 3481SOL    HW211343   6.203   0.895   4.983
 3482SOL     OW11344   6.012   3.999   5.293
 3482SOL    HW111345   5.964   3.919   5.258
 3482SOL    HW211346   6.110   3.991   5.276
 3483SOL     OW11347   5.366   2.826   4.554
 3483SOL    HW111348   5.288   2.850   4.496
 3483SOL    HW211349   5.332   2.793   4.642
 3484SOL     OW11350   2.079   3.431   5.527
 3484SOL    HW111351   2.069   3.486   5.610
 3484SOL    HW211352   2.170   3.446   5.488
 3485SOL     OW11353   6.795   2.746   6.335
 3485SOL    HW111354   6.744   2.771   6.418
 3485SOL    HW211355   6.887   2.786   6.340
 3486SOL     OW11356   2.060   6.635   4.981
 3486SOL    HW111357   2.085   6.682   4.896
 3486SOL    HW211358   2.049   6.703   5.054
 3487SOL     OW11359   4.890   1.453   6.532
 3487SOL    HW111360   4.984   1.487   6.533
 3487SOL    HW211361   4.870   1.408   6.619
 3488SOL     OW11362   5.585   0.573   4.910
 3488SOL    HW111363   5.546   0.485   4.938
 3488SOL    HW211364   5.585   0.580   4.810
 3489SOL     OW11365   2.933   6.562   0.422
 3489SOL    HW111366   2.885   6.565   0.510
 3489SOL    HW211367   3.028   6.591   0.435
 3490SOL     OW11368   3.484   6.416   7.016
 3490SOL    HW111369   3.485   6.319   6.996
 3490SOL    HW211370   3.542   6.465   6.950
 3491SOL     OW11371   4.642   4.683   6.053
 3491SOL    HW111372   4.548   4.651   6.041
 3491SOL    HW211373   4.705   4.605   6.050
 3492SOL     OW11374   5.820   4.615   2.391
 3492SOL    HW111375   5.848   4.664   2.473
 3492SOL    HW211376   5.750   4.668   2.342
 3493SOL     OW11377   6.380   3.304   5.307
 3493SOL    HW111378   6.282   3.295   5.326
 3493SOL    HW211379   6.408   3.235   5.240
 3494SOL     OW11380   4.158   1.695   1.908
 3494SOL    HW111381   4.170   1.792   1.928
 3494SOL    HW211382   4.121   1.683   1.816
 3495SOL     OW11383   0.932   2.668   2.607
 3495SOL    HW111384   0.908   2.716   2.691
 3495SOL    HW211385   0.961   2.734   2.538
 3496SOL     OW11386   5.697   5.085   1.176
 3496SOL    HW111387   5.625   5.137   1.222
 3496SOL    HW211388   5.778   5.080   1.234
 3497SOL     OW11389   3.430   6.743   2.418
 3497SOL    HW111390   3.446   6.649   2.449
 3497SOL    HW211391   3.363   6.742   2.343
 3498SOL     OW11392   2.052   2.568   1.507
 3498SOL    HW111393   2.034   2.470   1.508
 3498SOL    HW211394   2.017   2.609   1.592
 3499SOL     OW11395   6.451   5.494   5.563
 3499SOL    HW111396   6.477   5.548   5.643
 3499SOL    HW211397   6.407   5.409   5.593
 3500SOL     OW11398   1.644   1.985   4.285
 3500SOL    HW111399   1.619   2.081   4.290
 3500SOL    HW211400   1.741   1.974   4.309
 3501SOL     OW11401   1.644   0.227   5.441
 3501SOL    HW111402   1.609   0.278   5.362
 3501SOL    HW211403   1.576   0.228   5.514
 3502SOL     OW11404   4.749   2.834   2.255
 3502SOL    HW111405   4.686   2.904   2.222
 3502SOL    HW211406   4.840   2.851   2.217
 3503SOL     OW11407   6.145   5.950   6.822
 3503SOL    HW111408   6.075   5.884   6.792
 3503SOL    HW211409   6.196   5.912   6.899
 3504SOL     OW11410   1.088   0.977   0.680
 3504SOL    HW111411   1.030   0.898   0.663
 3504SOL    HW211412   1.176   0.946   0.718
 3505SOL     OW11413   5.128   4.670   6.510
 3505SOL    HW111414   5.219   4.636   6.487
 3505SOL    HW211415   5.126   4.698   6.606
 3506SOL     OW11416   5.308   4.722   4.776
 3506SOL    HW111417   5.274   4.635   4.810
 3506SOL    HW211418   5.232   4.775   4.737
 3507SOL     OW11419   3.090   0.064   0.371
 3507SOL    HW111420   3.107   0.053   0.469
 3507SOL    HW211421   3.035   0.147   0.356
 3508SOL     OW11422   2.972   2.193   5.500
 3508SOL    HW111423   2.973   2.218   5.403
 3508SOL    HW211424   2.902   2.123   5.515
 3509SOL     OW11425   3.924   5.596   6.671
 3509SOL    HW111426   3.911   5.510   6.720
 3509SOL    HW211427   3.890   5.672   6.727
 3510SOL     OW11428   2.989   1.272   0.671
 3510SOL    HW111429   2.945   1.203   0.727
 3510SOL    HW211430   2.961   1.363   0.702
 3511SOL     OW11431   2.707   4.508   1.618
 3511SOL    HW111432   2.776   4.537   1.684
 3511SOL    HW211433   2.713   4.409   1.605
 3512SOL     OW11434   0.328   5.147   6.490
 3512SOL    HW111435   0.325   5.218   6.560
 3512SOL    HW211436   0.395   5.173   6.420
 3513SOL     OW11437   5.827   1.977   0.476
 3513SOL    HW111438   5.806   2.075   0.468
 3513SOL    HW211439   5.827   1.936   0.385
 3514SOL     OW11440   4.077   1.641   2.463
 3514SOL    HW111441   3.986   1.665   2.430
 3514SOL    HW211442   4.145   1.699   2.418
 3515SOL     OW11443   6.328   5.765   4.168
 3515SOL    HW111444   6.319   5.862   4.192
 3515SOL    HW211445   6.423   5.744   4.149
 3516SOL     OW11446   4.468   0.416   1.403
 3516SOL    HW111447   4.526   0.492   1.372
 3516SOL    HW211448   4.526   0.344   1.441
 3517SOL     OW11449   5.899   0.548   1.104
 3517SOL    HW111450   5.891   0.457   1.063
 3517SOL    HW211451   5.809   0.592   1.106
 3518SOL     OW11452   5.099   1.131   5.181
 3518SOL    HW111453   5.014   1.143   5.233
 3518SOL    HW211454   5.177   1.132   5.244
 3519SOL     OW11455   3.425   0.662   0.786
 3519SOL    HW111456   3.357   0.592   0.763
 3519SOL    HW211457   3.391   0.752   0.759
 3520SOL     OW11458   2.687   6.117   4.894
 3520SOL    HW111459   2.758   6.170   4.849
 3520SOL    HW211460   2.728   6.063   4.968
 3521SOL     OW11461   2.310   3.233   0.837
 3521SOL    HW111462   2.356   3.306   0.787
 3521SOL    HW211463   2.351   3.145   0.812
 3522SOL     OW11464   0.117   5.951   6.652
 3522SOL    HW111465   0.198   5.905   6.617
 3522SOL    HW211466   0.035   5.902   6.623
 3523SOL     OW11467   2.003   5.171   6.752
 3523SOL    HW111468   1.963   5.255   6.716
 3523SOL    HW211469   1.958   5.092   6.710
 3524SOL     OW11470   5.060   1.298   3.292
 3524SOL    HW111471   5.160   1.288   3.296
 3524SOL    HW211472   5.023   1.238   3.221
 3525SOL     OW11473   6.322   4.230   3.399
 3525SOL    HW111474   6.318   4.315   3.347
 3525SOL    HW211475   6.407   4.182   3.377
 3526SOL     OW11476   0.688   6.701   3.293
 3526SOL    HW111477   0.600   6.734   3.327
 3526SOL    HW211478   0.676   6.611   3.252
 3527SOL     OW11479   0.246   2.490   5.644
 3527SOL    HW111480   0.240   2.570   5.585
 3527SOL    HW211481   0.155   2.450   5.656
 3528SOL     OW11482   2.380   5.973   4.788
 3528SOL    HW111483   2.350   5.929   4.703
 3528SOL    HW211484   2.339   6.064   4.795
 3529SOL     OW11485   4.444   5.120   1.291
 3529SOL    HW111486   4.379   5.159   1.356
 3529SOL    HW211487   4.394   5.086   1.211
 3530SOL     OW11488   0.043   0.319   2.050
 3530SOL    HW111489   7.014   0.357   2.127
 3530SOL    HW211490   0.138   0.302   2.078
 3531SOL     OW11491   5.376   2.139   7.002
 3531SOL    HW111492   5.318   2.213   0.013
 3531SOL    HW211493   5.465   2.144   0.025
 3532SOL     OW11494   2.151   1.630   1.578
 3532SOL    HW111495   2.147   1.532   1.560
 3532SOL    HW211496   2.088   1.678   1.517
 3533SOL     OW11497   0.920   1.322   2.850
 3533SOL    HW111498   0.834   1.371   2.864
 3533SOL    HW211499   0.963   1.302   2.938
 3534SOL     OW11500   7.012   1.167   1.221
 3534SOL    HW111501   0.080   1.137   1.251
 3534SOL    HW211502   7.010   1.170   1.121
 3535SOL     OW11503   2.921   5.900   4.539
 3535SOL    HW111504   2.981   5.973   4.572
 3535SOL    HW211505   2.826   5.929   4.546
 3536SOL     OW11506   3.662   2.052   2.809
 3536SOL    HW111507   3.634   1.994   2.732
 3536SOL    HW211508   3.682   1.994   2.888
 3537SOL     OW11509   1.773   5.877   2.942
 3537SOL    HW111510   1.700   5.809   2.936
 3537SOL    HW211511   1.861   5.830   2.954
 3538SOL     OW11512   3.216   5.580   3.636
 3538SOL    HW111513   3.168   5.576   3.724
 3538SOL    HW211514   3.293   5.516   3.638
 3539SOL     OW11515   3.343   3.757   4.551
 3539SOL    HW111516   3.334   3.738   4.453
 3539SOL    HW211517   3.435   3.789   4.571
 3540SOL     OW11518   1.904   2.112   3.793
 3540SOL    HW111519   1.877   2.021   3.824
 3540SOL    HW211520   1.946   2.162   3.868
 3541SOL     OW11521   3.222   4.111   5.209
 3541SOL    HW111522   3.285   4.033   5.208
 3541SOL    HW211523   3.165   4.108   5.128
 3542SOL     OW11524   0.331   5.493   1.852
 3542SOL    HW111525   0.370   5.576   1.813
 3542SOL    HW211526   0.260   5.458   1.791
 3543SOL     OW11527   6.338   2.523   4.814
 3543SOL    HW111528   6.267   2.586   4.843
 3543SOL    HW211529   6.301   2.430   4.809
 3544SOL     OW11530   2.143   5.459   6.454
 3544SOL    HW111531   2.068   5.520   6.429
 3544SOL    HW211532   2.215   5.512   6.498
 3545SOL     OW11533   3.557   5.501   6.914
 3545SOL    HW111534   3.485   5.451   6.866
 3545SOL    HW211535   3.638   5.443   6.924
 3546SOL     OW11536   6.045   4.714   2.878
 3546SOL    HW111537   5.974   4.674   2.820
 3546SOL    HW211538   6.112   4.760   2.820
 3547SOL     OW11539   5.246   4.736   4.127
 3547SOL    HW111540   5.288   4.756   4.039
 3547SOL    HW211541   5.182   4.809   4.151
 3548SOL     OW11542   4.710   3.054   5.302
 3548SOL    HW111543   4.750   3.037   5.211
 3548SOL    HW211544   4.626   3.001   5.313
 3549SOL     OW11545   5.820   4.074   2.581
 3549SOL    HW111546   5.904   4.105   2.536
 3549SOL    HW211547   5.837   4.066   2.680
 3550SOL     OW11548   5.840   2.535   2.426
 3550SOL    HW111549   5.853   2.571   2.334
 3550SOL    HW211550   5.775   2.593   2.476
 3551SOL     OW11551   2.409   6.650   3.066
 3551SOL    HW111552   2.319   6.686   3.044
 3551SOL    HW211553   2.458   6.714   3.124
 3552SOL     OW11554   6.472   4.618   2.846
 3552SOL    HW111555   6.530   4.587   2.770
 3552SOL    HW211556   6.428   4.704   2.820
 3553SOL     OW11557   5.920   2.112   2.973
 3553SOL    HW111558   5.897   2.180   2.903
 3553SOL    HW211559   6.013   2.127   3.004
 3554SOL     OW11560   3.952   5.321   6.727
 3554SOL    HW111561   4.021   5.343   6.795
 3554SOL    HW211562   3.905   5.237   6.753
 3555SOL     OW11563   0.871   2.993   3.435
 3555SOL    HW111564   0.793   2.949   3.479
 3555SOL    HW211565   0.938   3.020   3.505
 3556SOL     OW11566   3.740   0.311   6.414
 3556SOL    HW111567   3.826   0.342   6.455
 3556SOL    HW211568   3.705   0.233   6.464
 3557SOL     OW11569   0.765   0.591   5.007
 3557SOL    HW111570   0.756   0.511   4.948
 3557SOL    HW211571   0.860   0.603   5.033
 3558SOL     OW11572   0.022   5.486   1.363
 3558SOL    HW111573   0.081   5.413   1.331
 3558SOL    HW211574   6.973   5.504   1.295
 3559SOL     OW11575   0.772   1.423   5.503
 3559SOL    HW111576   0.851   1.480   5.478
 3559SOL    HW211577   0.692   1.451   5.449
 3560SOL     OW11578   6.968   6.296   1.658
 3560SOL    HW111579   6.875   6.300   1.620
 3560SOL    HW211580   0.007   6.351   1.602
 3561SOL     OW11581   4.506   4.898   4.429
 3561SOL    HW111582   4.552   4.841   4.497
 3561SOL    HW211583   4.503   4.993   4.462
 3562SOL     OW11584   4.510   1.856   3.061
 3562SOL    HW111585   4.443   1.921   3.024
 3562SOL    HW211586   4.520   1.780   2.997
 3563SOL     OW11587   4.622   0.609   1.270
 3563SOL    HW111588   4.661   0.694   1.305
 3563SOL    HW211589   4.531   0.627   1.232
 3564SOL     OW11590   0.048   4.405   3.225
 3564SOL    HW111591   0.020   4.316   3.190
 3564SOL    HW211592   0.106   4.450   3.157
 3565SOL     OW11593   2.071   0.155   5.198
 3565SOL    HW111594   1.993   0.098   5.170
 3565SOL    HW211595   2.054   0.250   5.172
 3566SOL     OW11596   0.414   3.910   5.515
 3566SOL    HW111597   0.360   3.888   5.434
 3566SOL    HW211598   0.450   3.825   5.555
 3567SOL     OW11599   0.176   2.871   0.819
 3567SOL    HW111600   0.152   2.893   0.913
 3567SOL    HW211601   0.100   2.897   0.758
 3568SOL     OW11602   5.237   3.553   3.661
 3568SOL    HW111603   5.196   3.465   3.634
 3568SOL    HW211604   5.224   3.567   3.759
 3569SOL     OW11605   3.638   3.225   3.751
 3569SOL    HW111606   3.699   3.285   3.802
 3569SOL    HW211607   3.624   3.262   3.659
 3570SOL     OW11608   0.569   2.530   5.670
 3570SOL    HW111609   0.534   2.480   5.749
 3570SOL    HW211610   0.494   2.549   5.607
 3571SOL     OW11611   2.329   6.574   5.054
 3571SOL    HW111612   2.249   6.617   5.010
 3571SOL    HW211613   2.401   6.561   4.986
 3572SOL     OW11614   4.966   4.792   2.208
 3572SOL    HW111615   4.957   4.749   2.118
 3572SOL    HW211616   4.911   4.875   2.211
 3573SOL     OW11617   0.377   3.961   2.999
 3573SOL    HW111618   0.326   3.893   2.946
 3573SOL    HW211619   0.343   3.963   3.093
 3574SOL     OW11620   2.383   1.796   5.332
 3574SOL    HW111621   2.394   1.894   5.322
 3574SOL    HW211622   2.399   1.751   5.244
 3575SOL     OW11623   5.305   6.908   0.109
 3575SOL    HW111624   5.404   6.910   0.099
 3575SOL    HW211625   5.279   6.959   0.191
 3576SOL     OW11626   1.271   2.493   1.159
 3576SOL    HW111627   1.273   2.401   1.199
 3576SOL    HW211628   1.213   2.552   1.215
 3577SOL     OW11629   2.276   3.045   5.631
 3577SOL    HW111630   2.227   2.963   5.658
 3577SOL    HW211631   2.269   3.057   5.532
 3578SOL     OW11632   3.522   2.775   6.343
 3578SOL    HW111633   3.602   2.789   6.402
 3578SOL    HW211634   3.439   2.792   6.395
 3579SOL     OW11635   0.678   3.349   1.795
 3579SOL    HW111636   0.733   3.344   1.712
 3579SOL    HW211637   0.624   3.265   1.804
 3580SOL     OW11638   0.735   4.262   1.829
 3580SOL    HW111639   0.667   4.233   1.763
 3580SOL    HW211640   0.731   4.362   1.840
 3581SOL     OW11641   1.510   0.295   2.858
 3581SOL    HW111642   1.504   0.338   2.947
 3581SOL    HW211643   1.434   0.232   2.846
 3582SOL     OW11644   3.832   4.999   6.529
 3582SOL    HW111645   3.767   4.925   6.515
 3582SOL    HW211646   3.851   5.044   6.441
 3583SOL     OW11647   1.057   4.743   0.917
 3583SOL    HW111648   0.968   4.779   0.891
 3583SOL    HW211649   1.050   4.644   0.934
 3584SOL     OW11650   6.325   4.844   4.954
 3584SOL    HW111651   6.413   4.796   4.943
 3584SOL    HW211652   6.299   4.886   4.868
 3585SOL     OW11653   3.285   1.360   3.080
 3585SOL    HW111654   3.218   1.291   3.108
 3585SOL    HW211655   3.293   1.361   2.981
 3586SOL     OW11656   0.061   2.360   5.347
 3586SOL    HW111657   0.002   2.327   5.274
 3586SOL    HW211658   0.035   2.453   5.373
 3587SOL     OW11659   2.857   6.845   6.385
 3587SOL    HW111660   2.943   6.877   6.345
 3587SOL    HW211661   2.829   6.907   6.458
 3588SOL     OW11662   6.397   4.969   4.697
 3588SOL    HW111663   6.415   4.912   4.617
 3588SOL    HW211664   6.401   5.065   4.671
 3589SOL     OW11665   0.182   0.695   5.813
 3589SOL    HW111666   0.279   0.714   5.796
 3589SOL    HW211667   0.166   0.597   5.813
 3590SOL     OW11668   6.923   5.437   0.107
 3590SOL    HW111669   6.931   5.495   0.189
 3590SOL    HW211670   6.941   5.492   0.026
 3591SOL     OW11671   6.225   1.172   6.757
 3591SOL    HW111672   6.165   1.221   6.820
 3591SOL    HW211673   6.175   1.095   6.717
 3592SOL     OW11674   1.672   5.958   1.688
 3592SOL    HW111675   1.687   6.029   1.620
 3592SOL    HW211676   1.746   5.891   1.683
 3593SOL     OW11677   4.175   2.987   5.425
 3593SOL    HW111678   4.213   2.896   5.409
 3593SOL    HW211679   4.096   2.979   5.486
 3594SOL     OW11680   4.383   4.782   4.952
 3594SOL    HW111681   4.399   4.686   4.933
 3594SOL    HW211682   4.413   4.837   4.874
 3595SOL     OW11683   5.107   6.184   4.567
 3595SOL    HW111684   5.067   6.254   4.626
 3595SOL    HW211685   5.036   6.119   4.541
 3596SOL     OW11686   4.254   1.939   3.543
 3596SOL    HW111687   4.319   2.013   3.558
 3596SOL    HW211688   4.274   1.894   3.456
 3597SOL     OW11689   3.124   3.344   5.712
 3597SOL    HW111690   3.107   3.424   5.770
 3597SOL    HW211691   3.107   3.367   5.617
 3598SOL     OW11692   1.069   6.030   5.072
 3598SOL    HW111693   1.094   6.097   5.003
 3598SOL    HW211694   1.080   5.938   5.034
 3599SOL     OW11695   3.319   1.228   5.067
 3599SOL    HW111696   3.334   1.186   5.157
 3599SOL    HW211697   3.407   1.242   5.023
 3600SOL     OW11698   3.406   3.569   7.022
 3600SOL    HW111699   3.405   3.652   0.055
 3600SOL    HW211700   3.313   3.533   7.013
 3601SOL     OW11701   4.382   0.963   5.051
 3601SOL    HW111702   4.296   0.974   5.002
 3601SOL    HW211703   4.389   0.870   5.087
 3602SOL     OW11704   2.112   1.785   1.189
 3602SOL    HW111705   2.067   1.698   1.167
 3602SOL    HW211706   2.109   1.800   1.288
 3603SOL     OW11707   2.733   0.623   5.395
 3603SOL    HW111708   2.651   0.588   5.439
 3603SOL    HW211709   2.802   0.645   5.465
 3604SOL     OW11710   0.180   0.676   3.415
 3604SOL    HW111711   0.104   0.614   3.392
 3604SOL    HW211712   0.144   0.762   3.450
 3605SOL     OW11713   1.389   6.596   3.971
 3605SOL    HW111714   1.298   6.638   3.972
 3605SOL    HW211715   1.414   6.573   3.877
 3606SOL     OW11716   2.584   0.337   2.338
 3606SOL    HW111717   2.526   0.417   2.342
 3606SOL    HW211718   2.565   0.277   2.416
 3607SOL     OW11719   5.900   1.930   3.211
 3607SOL    HW111720   5.894   1.996   3.136
 3607SOL    HW211721   5.831   1.859   3.197
 3608SOL     OW11722   2.634   1.920   5.749
 3608SOL    HW111723   2.710   1.894   5.689
 3608SOL    HW211724   2.547   1.904   5.701
 3609SOL     OW11725   3.277   0.790   4.731
 3609SOL    HW111726   3.364   0.751   4.701
 3609SOL    HW211727   3.291   0.842   4.816
 3610SOL     OW11728   1.535   0.671   5.401
 3610SOL    HW111729   1.554   0.723   5.318
 3610SOL    HW211730   1.531   0.574   5.379
 3611SOL     OW11731   5.437   4.748   2.873
 3611SOL    HW111732   5.412   4.842   2.850
 3611SOL    HW211733   5.354   4.695   2.889
 3612SOL     OW11734   6.111   1.149   0.032
 3612SOL    HW111735   6.106   1.176   0.128
 3612SOL    HW211736   6.065   1.218   6.998
 3613SOL     OW11737   4.370   6.351   2.206
 3613SOL    HW111738   4.307   6.386   2.276
 3613SOL    HW211739   4.338   6.380   2.115
 3614SOL     OW11740   3.802   5.684   6.905
 3614SOL    HW111741   3.720   5.630   6.885
 3614SOL    HW211742   3.788   5.779   6.876
 3615SOL     OW11743   5.970   2.167   5.690
 3615SOL    HW111744   6.050   2.186   5.634
 3615SOL    HW211745   5.932   2.253   5.724
 3616SOL     OW11746   1.179   2.257   0.161
 3616SOL    HW111747   1.086   2.256   0.197
 3616SOL    HW211748   1.241   2.219   0.230
 3617SOL     OW11749   3.797   5.761   5.557
 3617SOL    HW111750   3.791   5.788   5.461
 3617SOL    HW211751   3.738   5.683   5.573
 3618SOL     OW11752   0.943   5.104   3.993
 3618SOL    HW111753   0.908   5.034   4.055
 3618SOL    HW211754   1.000   5.061   3.923
 3619SOL     OW11755   6.008   3.272   2.035
 3619SOL    HW111756   5.952   3.190   2.050
 3619SOL    HW211757   6.013   3.325   2.120
 3620SOL     OW11758   5.673   5.837   4.850
 3620SOL    HW111759   5.583   5.876   4.871
 3620SOL    HW211760   5.663   5.741   4.827
 3621SOL     OW11761   4.041   3.380   3.402
 3621SOL    HW111762   4.034   3.290   3.360
 3621SOL    HW211763   3.954   3.428   3.394
 3622SOL     OW11764   1.623   5.985   6.051
 3622SOL    HW111765   1.535   6.032   6.061
 3622SOL    HW211766   1.652   5.989   5.956
 3623SOL     OW11767   1.033   5.605   6.178
 3623SOL    HW111768   1.088   5.656   6.111
 3623SOL    HW211769   0.972   5.669   6.225
 3624SOL     OW11770   2.665   2.525   1.500
 3624SOL    HW111771   2.744   2.578   1.469
 3624SOL    HW211772   2.630   2.470   1.425
 3625SOL     OW11773   6.738   2.647   0.734
 3625SOL    HW111774   6.731   2.547   0.734
 3625SOL    HW211775   6.764   2.679   0.826
 3626SOL     OW11776   2.051   3.173   5.367
 3626SOL    HW111777   2.048   3.265   5.407
 3626SOL    HW211778   2.107   3.175   5.285
 3627SOL     OW11779   3.506   2.017   2.144
 3627SOL    HW111780   3.585   2.067   2.110
 3627SOL    HW211781   3.535   1.928   2.179
 3628SOL     OW11782   6.534   1.957   1.468
 3628SOL    HW111783   6.447   1.934   1.425
 3628SOL    HW211784   6.580   2.028   1.415
 3629SOL     OW11785   1.171   1.463   4.723
 3629SOL    HW111786   1.099   1.531   4.710
 3629SOL    HW211787   1.187   1.415   4.636
 3630SOL     OW11788   6.760   1.984   1.241
 3630SOL    HW111789   6.781   1.890   1.265
 3630SOL    HW211790   6.816   2.046   1.295
 3631SOL     OW11791   2.060   6.768   1.991
 3631SOL    HW111792   2.123   6.794   2.064
 3631SOL    HW211793   2.035   6.848   1.937
 3632SOL     OW11794   4.674   3.838   1.773
 3632SOL    HW111795   4.744   3.770   1.793
 3632SOL    HW211796   4.588   3.792   1.750
 3633SOL     OW11797   3.800   4.478   0.254
 3633SOL    HW111798   3.790   4.569   0.215
 3633SOL    HW211799   3.804   4.485   0.354
 3634SOL     OW11800   3.161   5.395   6.565
 3634SOL    HW111801   3.079   5.438   6.529
 3634SOL    HW211802   3.172   5.304   6.524
 3635SOL     OW11803   1.444   5.805   2.353
 3635SOL    HW111804   1.436   5.888   2.407
 3635SOL    HW211805   1.498   5.824   2.271
 3636SOL     OW11806   0.553   5.232   6.298
 3636SOL    HW111807   0.501   5.218   6.214
 3636SOL    HW211808   0.632   5.170   6.298
 3637SOL     OW11809   6.074   3.208   0.108
 3637SOL    HW111810   6.156   3.165   0.146
 3637SOL    HW211811   5.996   3.191   0.168
 3638SOL     OW11812   6.890   3.154   3.398
 3638SOL    HW111813   6.898   3.063   3.439
 3638SOL    HW211814   6.973   3.176   3.347
 3639SOL     OW11815   4.034   3.461   3.707
 3639SOL    HW111816   3.956   3.456   3.769
 3639SOL    HW211817   4.005   3.439   3.614
 3640SOL     OW11818   4.475   2.000   1.789
 3640SOL    HW111819   4.540   1.984   1.864
 3640SOL    HW211820   4.404   2.064   1.820
 3641SOL     OW11821   6.098   4.139   2.459
 3641SOL    HW111822   6.185   4.149   2.508
 3641SOL    HW211823   6.102   4.192   2.374
 3642SOL     OW11824   5.409   3.065   5.888
 3642SOL    HW111825   5.469   3.072   5.968
 3642SOL    HW211826   5.331   3.127   5.899
 3643SOL     OW11827   4.117   5.510   4.529
 3643SOL    HW111828   4.065   5.532   4.612
 3643SOL    HW211829   4.061   5.453   4.469
 3644SOL     OW11830   2.849   0.487   1.703
 3644SOL    HW111831   2.827   0.584   1.701
 3644SOL    HW211832   2.932   0.471   1.649
 3645SOL     OW11833   1.517   4.066   3.535
 3645SOL    HW111834   1.428   4.023   3.520
 3645SOL    HW211835   1.589   3.996   3.531
 3646SOL     OW11836   1.516   4.768   5.769
 3646SOL    HW111837   1.561   4.804   5.687
 3646SOL    HW211838   1.448   4.700   5.742
 3647SOL     OW11839   2.270   0.033   6.825
 3647SOL    HW111840   2.342   7.006   6.875
 3647SOL    HW211841   2.298   0.127   6.809
 3648SOL     OW11842   4.737   5.568   3.365
 3648SOL    HW111843   4.702   5.616   3.284
 3648SOL    HW211844   4.666   5.566   3.436
 3649SOL     OW11845   5.956   2.393   0.410
 3649SOL    HW111846   5.916   2.455   0.343
 3649SOL    HW211847   6.052   2.417   0.424
 3650SOL     OW11848   5.463   5.881   6.214
 3650SOL    HW111849   5.391   5.830   6.261
 3650SOL    HW211850   5.441   5.888   6.117
 3651SOL     OW11851   1.033   2.138   5.837
 3651SOL    HW111852   0.990   2.146   5.927
 3651SOL    HW211853   1.081   2.051   5.831
 3652SOL     OW11854   4.508   1.752   1.699
 3652SOL    HW111855   4.473   1.844   1.716
 3652SOL    HW211856   4.432   1.687   1.703
 3653SOL     OW11857   1.858   1.842   0.855
 3653SOL    HW111858   1.899   1.754   0.834
 3653SOL    HW211859   1.805   1.835   0.940
 3654SOL     OW11860   4.450   6.560   1.730
 3654SOL    HW111861   4.526   6.621   1.710
 3654SOL    HW211862   4.454   6.480   1.669
 3655SOL     OW11863   1.046   0.997   3.880
 3655SOL    HW111864   0.983   0.934   3.926
 3655SOL    HW211865   1.137   0.956   3.878
 3656SOL     OW11866   0.318   0.113   1.325
 3656SOL    HW111867   0.287   0.196   1.278
 3656SOL    HW211868   0.305   0.034   1.265
 3657SOL     OW11869   5.833   5.522   6.405
 3657SOL    HW111870   5.760   5.547   6.342
 3657SOL    HW211871   5.911   5.487   6.353
 3658SOL     OW11872   2.005   4.393   5.688
 3658SOL    HW111873   2.076   4.353   5.746
 3658SOL    HW211874   1.976   4.480   5.728
 3659SOL     OW11875   0.501   2.681   6.401
 3659SOL    HW111876   0.514   2.777   6.376
 3659SOL    HW211877   0.501   2.672   6.501
 3660SOL     OW11878   4.939   5.631   5.671
 3660SOL    HW111879   4.942   5.626   5.771
 3660SOL    HW211880   4.949   5.540   5.632
 3661SOL     OW11881   0.206   1.501   4.608
 3661SOL    HW111882   0.301   1.471   4.615
 3661SOL    HW211883   0.202   1.600   4.621
 3662SOL     OW11884   3.290   1.898   5.725
 3662SOL    HW111885   3.249   1.965   5.663
 3662SOL    HW211886   3.342   1.945   5.795
 3663SOL     OW11887   2.353   2.548   6.564
 3663SOL    HW111888   2.328   2.530   6.659
 3663SOL    HW211889   2.275   2.527   6.504
 3664SOL     OW11890   3.379   2.070   1.107
 3664SOL    HW111891   3.279   2.074   1.109
 3664SOL    HW211892   3.412   2.099   1.017
 3665SOL     OW11893   0.488   5.636   6.044
 3665SOL    HW111894   0.445   5.557   6.000
 3665SOL    HW211895   0.586   5.636   6.022
 3666SOL     OW11896   2.129   3.151   4.486
 3666SOL    HW111897   2.152   3.180   4.579
 3666SOL    HW211898   2.138   3.051   4.480
 3667SOL     OW11899   1.608   6.724   1.114
 3667SOL    HW111900   1.694   6.754   1.156
 3667SOL    HW211901   1.531   6.762   1.163
 3668SOL     OW11902   6.379   1.043   0.700
 3668SOL    HW111903   6.456   1.001   0.749
 3668SOL    HW211904   6.379   1.142   0.716
 3669SOL     OW11905   0.910   0.928   3.417
 3669SOL    HW111906   0.964   0.963   3.341
 3669SOL    HW211907   0.816   0.910   3.386
 3670SOL     OW11908   2.799   0.302   1.509
 3670SOL    HW111909   2.891   0.265   1.504
 3670SOL    HW211910   2.792   0.367   1.585
 3671SOL     OW11911   6.948   0.711   4.629
 3671SOL    HW111912   6.994   0.766   4.699
 3671SOL    HW211913   6.849   0.722   4.637
 3672SOL     OW11914   3.405   0.187   3.929
 3672SOL    HW111915   3.405   0.257   3.858
 3672SOL    HW211916   3.434   0.228   4.016
 3673SOL     OW11917   3.465   0.005   1.312
 3673SOL    HW111918   3.393   0.073   1.315
 3673SOL    HW211919   3.468   6.986   1.221
 3674SOL     OW11920   0.336   4.565   0.028
 3674SOL    HW111921   0.294   4.624   0.097
 3674SOL    HW211922   0.268   4.543   6.981
 3675SOL     OW11923   0.596   0.844   3.892
 3675SOL    HW111924   0.577   0.750   3.918
 3675SOL    HW211925   0.522   0.880   3.835
 3676SOL     OW11926   3.552   1.265   4.933
 3676SOL    HW111927   3.644   1.303   4.947
 3676SOL    HW211928   3.542   1.239   4.837
 3677SOL     OW11929   1.180   1.020   4.524
 3677SOL    HW111930   1.111   0.986   4.460
 3677SOL    HW211931   1.241   0.944   4.550
 3678SOL     OW11932   1.506   0.859   3.566
 3678SOL    HW111933   1.496   0.811   3.653
 3678SOL    HW211934   1.500   0.957   3.581
 3679SOL     OW11935   3.815   0.455   2.117
 3679SOL    HW111936   3.896   0.431   2.063
 3679SOL    HW211937   3.837   0.451   2.214
 3680SOL     OW11938   3.177   1.989   4.632
 3680SOL    HW111939   3.202   1.916   4.694
 3680SOL    HW211940   3.213   1.969   4.541
 3681SOL     OW11941   0.947   6.477   4.103
 3681SOL    HW111942   0.917   6.431   4.019
 3681SOL    HW211943   0.881   6.547   4.128
 3682SOL     OW11944   5.336   1.939   0.756
 3682SOL    HW111945   5.268   1.997   0.801
 3682SOL    HW211946   5.381   1.990   0.683
 3683SOL     OW11947   6.656   1.621   0.500
 3683SOL    HW111948   6.709   1.706   0.504
 3683SOL    HW211949   6.640   1.587   0.593
 3684SOL     OW11950   2.794   6.330   5.454
 3684SOL    HW111951   2.794   6.261   5.381
 3684SOL    HW211952   2.875   6.388   5.445
 3685SOL     OW11953   1.732   6.204   4.581
 3685SOL    HW111954   1.668   6.130   4.600
 3685SOL    HW211955   1.730   6.226   4.483
 3686SOL     OW11956   0.169   3.708   0.908
 3686SOL    HW111957   0.172   3.643   0.833
 3686SOL    HW211958   0.194   3.662   0.993
 3687SOL     OW11959   6.083   4.311   4.521
 3687SOL    HW111960   6.139   4.276   4.446
 3687SOL    HW211961   6.115   4.402   4.546
 3688SOL     OW11962   6.448   2.393   1.506
 3688SOL    HW111963   6.511   2.360   1.436
 3688SOL    HW211964   6.494   2.394   1.595
 3689SOL     OW11965   0.826   0.565   6.311
 3689SOL    HW111966   0.876   0.509   6.244
 3689SOL    HW211967   0.734   0.583   6.277
 3690SOL     OW11968   5.633   5.303   1.687
 3690SOL    HW111969   5.579   5.347   1.759
 3690SOL    HW211970   5.703   5.244   1.730
 3691SOL     OW11971   1.782   2.922   0.613
 3691SOL    HW111972   1.754   2.842   0.560
 3691SOL    HW211973   1.746   2.915   0.706
 3692SOL     OW11974   0.967   2.868   5.091
 3692SOL    HW111975   0.898   2.797   5.094
 3692SOL    HW211976   0.986   2.900   5.184
 3693SOL     OW11977   0.570   1.505   2.654
 3693SOL    HW111978   0.537   1.599   2.670
 3693SOL    HW211979   0.493   1.447   2.627
 3694SOL     OW11980   6.456   0.351   2.898
 3694SOL    HW111981   6.543   0.303   2.889
 3694SOL    HW211982   6.387   0.304   2.843
 3695SOL     OW11983   5.827   3.717   3.496
 3695SOL    HW111984   5.854   3.735   3.591
 3695SOL    HW211985   5.742   3.764   3.476
 3696SOL     OW11986   4.040   0.864   4.504
 3696SOL    HW111987   4.000   0.781   4.464
 3696SOL    HW211988   4.006   0.944   4.454
 3697SOL     OW11989   6.859   6.035   2.964
 3697SOL    HW111990   6.917   6.095   2.909
 3697SOL    HW211991   6.883   6.046   3.061
 3698SOL     OW11992   1.805   0.470   3.264
 3698SOL    HW111993   1.876   0.410   3.302
 3698SOL    HW211994   1.844   0.531   3.196
 3699SOL     OW11995   2.715   2.347   3.253
 3699SOL    HW111996   2.813   2.348   3.233
 3699SOL    HW211997   2.665   2.380   3.173
 3700SOL     OW11998   1.051   5.026   5.004
 3700SOL    HW111999   1.085   5.120   5.003
 3700SOL    HW212000   1.029   4.997   4.911
 3701SOL     OW12001   0.383   1.008   2.467
 3701SOL    HW112002   0.369   0.910   2.454
 3701SOL    HW212003   0.479   1.026   2.485
 3702SOL     OW12004   6.293   3.775   3.883
 3702SOL    HW112005   6.281   3.849   3.816
 3702SOL    HW212006   6.217   3.776   3.948
 3703SOL     OW12007   1.562   1.425   3.645
 3703SOL    HW112008   1.582   1.359   3.718
 3703SOL    HW212009   1.504   1.381   3.576
 3704SOL     OW12010   6.148   0.915   0.917
 3704SOL    HW112011   6.218   0.983   0.897
 3704SOL    HW212012   6.169   0.830   0.869
 3705SOL     OW12013   5.602   4.314   3.761
 3705SOL    HW112014   5.579   4.384   3.693
 3705SOL    HW212015   5.555   4.334   3.847
 3706SOL     OW12016   1.317   4.916   6.388
 3706SOL    HW112017   1.291   4.937   6.293
 3706SOL    HW212018   1.320   5.000   6.441
 3707SOL     OW12019   1.067   4.706   3.326
 3707SOL    HW112020   1.052   4.661   3.238
 3707SOL    HW212021   1.118   4.644   3.386
 3708SOL     OW12022   1.995   6.303   1.146
 3708SOL    HW112023   2.006   6.302   1.246
 3708SOL    HW212024   1.946   6.221   1.117
 3709SOL     OW12025   1.021   1.254   1.970
 3709SOL    HW112026   1.108   1.304   1.969
 3709SOL    HW212027   0.997   1.229   1.876
 3710SOL     OW12028   1.250   3.799   5.075
 3710SOL    HW112029   1.260   3.850   5.161
 3710SOL    HW212030   1.304   3.715   5.081
 3711SOL     OW12031   1.270   5.655   4.701
 3711SOL    HW112032   1.270   5.644   4.602
 3711SOL    HW212033   1.348   5.606   4.740
 3712SOL     OW12034   2.763   5.564   4.545
 3712SOL    HW112035   2.707   5.643   4.568
 3712SOL    HW212036   2.758   5.497   4.619
 3713SOL     OW12037   5.946   0.811   5.053
 3713SOL    HW112038   5.978   0.724   5.015
 3713SOL    HW212039   5.848   0.807   5.069
 3714SOL     OW12040   0.399   4.060   0.339
 3714SOL    HW112041   0.324   3.994   0.334
 3714SOL    HW212042   0.370   4.148   0.301
 3715SOL     OW12043   6.060   4.569   3.648
 3715SOL    HW112044   6.090   4.639   3.712
 3715SOL    HW212045   6.084   4.596   3.555
 3716SOL     OW12046   5.233   5.795   5.001
 3716SOL    HW112047   5.277   5.706   5.008
 3716SOL    HW212048   5.267   5.855   5.074
 3717SOL     OW12049   4.457   0.803   0.532
 3717SOL    HW112050   4.417   0.809   0.440
 3717SOL    HW212051   4.478   0.895   0.566
 3718SOL     OW12052   6.146   6.457   6.522
 3718SOL    HW112053   6.192   6.533   6.568
 3718SOL    HW212054   6.186   6.442   6.432
 3719SOL     OW12055   3.192   4.157   0.418
 3719SOL    HW112056   3.215   4.255   0.412
 3719SOL    HW212057   3.215   4.123   0.509
 3720SOL     OW12058   0.257   2.982   1.297
 3720SOL    HW112059   0.190   2.959   1.226
 3720SOL    HW212060   0.215   3.040   1.365
 3721SOL     OW12061   6.456   0.461   5.753
 3721SOL    HW112062   6.465   0.374   5.801
 3721SOL    HW212063   6.396   0.522   5.804
 3722SOL     OW12064   5.516   6.245   2.149
 3722SOL    HW112065   5.472   6.192   2.222
 3722SOL    HW212066   5.532   6.185   2.070
 3723SOL     OW12067   4.817   3.757   6.515
 3723SOL    HW112068   4.773   3.844   6.534
 3723SOL    HW212069   4.883   3.768   6.440
 3724SOL     OW12070   0.437   3.984   4.412
 3724SOL    HW112071   0.446   3.976   4.313
 3724SOL    HW212072   0.486   4.065   4.444
 3725SOL     OW12073   1.287   6.250   0.688
 3725SOL    HW112074   1.327   6.180   0.628
 3725SOL    HW212075   1.357   6.288   0.747
 3726SOL     OW12076   6.031   4.023   5.859
 3726SOL    HW112077   6.029   4.003   5.761
 3726SOL    HW212078   6.066   4.115   5.874
 3727SOL     OW12079   6.668   2.529   4.191
 3727SOL    HW112080   6.708   2.477   4.115
 3727SOL    HW212081   6.695   2.625   4.182
 3728SOL     OW12082   2.703   4.388   0.681
 3728SOL    HW112083   2.723   4.356   0.589
 3728SOL    HW212084   2.648   4.320   0.729
 3729SOL     OW12085   0.124   0.421   5.799
 3729SOL    HW112086   0.177   0.357   5.744
 3729SOL    HW212087   0.035   0.382   5.819
 3730SOL     OW12088   4.905   5.216   5.126
 3730SOL    HW112089   4.952   5.180   5.206
 3730SOL    HW212090   4.834   5.151   5.097
 3731SOL     OW12091   0.340   1.963   0.834
 3731SOL    HW112092   0.398   1.906   0.892
 3731SOL    HW212093   0.325   1.919   0.747
 3732SOL     OW12094   3.629   3.031   0.007
 3732SOL    HW112095   3.676   2.943   0.010
 3732SOL    HW212096   3.696   3.103   7.012
 3733SOL     OW12097   1.176   0.246   3.897
 3733SOL    HW112098   1.160   0.232   3.995
 3733SOL    HW212099   1.091   0.279   3.854
 3734SOL     OW12100   3.799   0.237   1.515
 3734SOL    HW112101   3.755   0.222   1.427
 3734SOL    HW212102   3.747   0.192   1.587
 3735SOL     OW12103   4.840   6.998   2.777
 3735SOL    HW112104   4.865   6.972   2.684
 3735SOL    HW212105   4.769   6.937   2.811
 3736SOL     OW12106   0.095   1.258   0.067
 3736SOL    HW112107   0.039   1.219   7.017
 3736SOL    HW212108   0.038   1.314   0.127
 3737SOL     OW12109   5.992   2.061   2.658
 3737SOL    HW112110   5.936   2.117   2.596
 3737SOL    HW212111   5.969   1.964   2.644
 3738SOL     OW12112   0.439   0.724   1.266
 3738SOL    HW112113   0.353   0.721   1.216
 3738SOL    HW212114   0.424   0.695   1.360
 3739SOL     OW12115   3.298   3.976   6.532
 3739SOL    HW112116   3.226   3.971   6.601
 3739SOL    HW212117   3.277   3.914   6.457
 3740SOL     OW12118   5.050   5.681   6.749
 3740SOL    HW112119   5.005   5.734   6.822
 3740SOL    HW212120   5.055   5.585   6.776
 3741SOL     OW12121   5.363   3.404   0.158
 3741SOL    HW112122   5.398   3.400   0.064
 3741SOL    HW212123   5.265   3.382   0.158
 3742SOL     OW12124   4.323   5.514   1.027
 3742SOL    HW112125   4.271   5.594   1.000
 3742SOL    HW212126   4.375   5.479   0.948
 3743SOL     OW12127   3.772   4.263   0.829
 3743SOL    HW112128   3.841   4.193   0.813
 3743SOL    HW212129   3.717   4.238   0.909
 3744SOL     OW12130   6.575   6.675   2.626
 3744SOL    HW112131   6.610   6.624   2.547
 3744SOL    HW212132   6.633   6.659   2.705
 3745SOL     OW12133   4.796   2.885   2.512
 3745SOL    HW112134   4.727   2.832   2.561
 3745SOL    HW212135   4.779   2.879   2.414
 3746SOL     OW12136   6.447   0.622   4.732
 3746SOL    HW112137   6.383   0.574   4.671
 3746SOL    HW212138   6.537   0.579   4.727
 3747SOL     OW12139   3.336   5.920   5.204
 3747SOL    HW112140   3.267   5.962   5.261
 3747SOL    HW212141   3.402   5.872   5.262
 3748SOL     OW12142   5.185   2.110   3.915
 3748SOL    HW112143   5.118   2.184   3.909
 3748SOL    HW212144   5.152   2.040   3.978
 3749SOL     OW12145   6.504   6.097   2.376
 3749SOL    HW112146   6.530   6.001   2.365
 3749SOL    HW212147   6.490   6.117   2.473
 3750SOL     OW12148   5.376   3.967   1.239
 3750SOL    HW112149   5.296   3.908   1.245
 3750SOL    HW212150   5.395   4.006   1.330
 3751SOL     OW12151   0.928   4.189   1.659
 3751SOL    HW112152   0.889   4.105   1.620
 3751SOL    HW212153   0.875   4.216   1.740
 3752SOL     OW12154   0.481   6.320   6.261
 3752SOL    HW112155   0.453   6.246   6.200
 3752SOL    HW212156   0.409   6.390   6.264
 3753SOL     OW12157   6.729   1.009   5.033
 3753SOL    HW112158   6.632   1.033   5.042
 3753SOL    HW212159   6.782   1.092   5.016
 3754SOL     OW12160   6.583   6.033   1.669
 3754SOL    HW112161   6.527   6.112   1.690
 3754SOL    HW212162   6.561   5.999   1.578
 3755SOL     OW12163   5.035   2.730   2.547
 3755SOL    HW112164   5.104   2.742   2.477
 3755SOL    HW212165   4.961   2.796   2.533
 3756SOL     OW12166   3.235   0.395   6.650
 3756SOL    HW112167   3.298   0.437   6.715
 3756SOL    HW212168   3.235   0.296   6.663
 3757SOL     OW12169   3.780   4.760   6.838
 3757SOL    HW112170   3.751   4.682   6.894
 3757SOL    HW212171   3.830   4.726   6.758
 3758SOL     OW12172   0.243   0.372   2.857
 3758SOL    HW112173   0.319   0.319   2.821
 3758SOL    HW212174   0.276   0.463   2.883
 3759SOL     OW12175   5.066   5.137   0.725
 3759SOL    HW112176   5.013   5.204   0.673
 3759SOL    HW212177   5.031   5.132   0.818
 3760SOL     OW12178   2.201   2.007   5.712
 3760SOL    HW112179   2.234   1.914   5.694
 3760SOL    HW212180   2.278   2.070   5.712
 3761SOL     OW12181   0.333   6.428   4.241
 3761SOL    HW112182   0.378   6.483   4.171
 3761SOL    HW212183   0.245   6.470   4.265
 3762SOL     OW12184   0.569   3.856   6.632
 3762SOL    HW112185   0.615   3.941   6.606
 3762SOL    HW212186   0.471   3.864   6.610
 3763SOL     OW12187   6.410   3.992   5.807
 3763SOL    HW112188   6.325   4.003   5.858
 3763SOL    HW212189   6.481   3.955   5.867
 3764SOL     OW12190   2.557   6.929   4.302
 3764SOL    HW112191   2.614   7.010   4.290
 3764SOL    HW212192   2.574   6.865   4.227
 3765SOL     OW12193   6.275   1.539   3.654
 3765SOL    HW112194   6.280   1.442   3.632
 3765SOL    HW212195   6.263   1.550   3.753
 3766SOL     OW12196   1.397   0.285   4.895
 3766SOL    HW112197   1.472   0.316   4.836
 3766SOL    HW212198   1.410   0.323   4.987
 3767SOL     OW12199   1.369   4.349   0.607
 3767SOL    HW112200   1.457   4.352   0.560
 3767SOL    HW212201   1.342   4.441   0.634
 3768SOL     OW12202   4.221   6.735   1.004
 3768SOL    HW112203   4.314   6.737   1.041
 3768SOL    HW212204   4.156   6.722   1.078
 3769SOL     OW12205   4.566   6.610   4.936
 3769SOL    HW112206   4.592   6.642   5.028
 3769SOL    HW212207   4.634   6.641   4.870
 3770SOL     OW12208   2.062   1.785   0.415
 3770SOL    HW112209   1.977   1.777   0.467
 3770SOL    HW212210   2.117   1.859   0.452
 3771SOL     OW12211   4.445   1.711   5.268
 3771SOL    HW112212   4.450   1.641   5.339
 3771SOL    HW212213   4.364   1.696   5.211
 3772SOL     OW12214   4.625   0.840   2.665
 3772SOL    HW112215   4.713   0.795   2.646
 3772SOL    HW212216   4.641   0.938   2.676
 3773SOL     OW12217   6.724   2.130   0.202
 3773SOL    HW112218   6.788   2.204   0.183
 3773SOL    HW212219   6.638   2.146   0.153
 3774SOL     OW12220   1.125   2.265   2.019
 3774SOL    HW112221   1.167   2.175   2.006
 3774SOL    HW212222   1.077   2.267   2.107
 3775SOL     OW12223   5.700   3.159   3.622
 3775SOL    HW112224   5.793   3.121   3.618
 3775SOL    HW212225   5.683   3.212   3.539
 3776SOL     OW12226   2.965   3.016   6.845
 3776SOL    HW112227   2.976   2.978   6.937
 3776SOL    HW212228   2.872   3.052   6.835
 3777SOL     OW12229   1.683   3.838   3.481
 3777SOL    HW112230   1.761   3.854   3.541
 3777SOL    HW212231   1.702   3.876   3.390
 3778SOL     OW12232   2.527   6.852   1.870
 3778SOL    HW112233   2.450   6.898   1.913
 3778SOL    HW212234   2.562   6.780   1.930
 3779SOL     OW12235   2.705   5.158   6.887
 3779SOL    HW112236   2.724   5.085   6.822
 3779SOL    HW212237   2.791   5.190   6.928
 3780SOL     OW12238   2.680   0.049   4.818
 3780SOL    HW112239   2.732   7.003   4.767
 3780SOL    HW212240   2.730   0.136   4.817
 3781SOL     OW12241   2.609   5.222   4.552
 3781SOL    HW112242   2.597   5.292   4.623
 3781SOL    HW212243   2.590   5.263   4.463
 3782SOL     OW12244   2.197   1.526   2.943
 3782SOL    HW112245   2.271   1.532   2.876
 3782SOL    HW212246   2.232   1.552   3.033
 3783SOL     OW12247   5.027   6.003   5.687
 3783SOL    HW112248   5.000   6.099   5.692
 3783SOL    HW212249   4.972   5.949   5.750
 3784SOL     OW12250   5.092   1.866   3.991
 3784SOL    HW112251   5.009   1.830   4.035
 3784SOL    HW212252   5.089   1.845   3.894
 3785SOL     OW12253   1.667   1.937   1.921
 3785SOL    HW112254   1.644   1.964   1.828
 3785SOL    HW212255   1.595   1.967   1.983
 3786SOL     OW12256   3.427   5.766   2.929
 3786SOL    HW112257   3.412   5.757   3.027
 3786SOL    HW212258   3.449   5.861   2.907
 3787SOL     OW12259   3.903   1.243   4.611
 3787SOL    HW112260   3.866   1.173   4.672
 3787SOL    HW212261   3.917   1.205   4.520
 3788SOL     OW12262   5.981   3.659   2.183
 3788SOL    HW112263   5.959   3.736   2.243
 3788SOL    HW212264   6.077   3.665   2.155
 3789SOL     OW12265   1.088   5.207   2.681
 3789SOL    HW112266   1.169   5.266   2.678
 3789SOL    HW212267   1.050   5.207   2.773
 3790SOL     OW12268   2.100   2.931   3.622
 3790SOL    HW112269   2.167   2.909   3.692
 3790SOL    HW212270   2.100   3.030   3.606
 3791SOL     OW12271   6.011   0.262   2.379
 3791SOL    HW112272   5.925   0.312   2.386
 3791SOL    HW212273   6.080   0.320   2.335
 3792SOL     OW12274   0.075   7.020   6.436
 3792SOL    HW112275   0.160   6.987   6.476
 3792SOL    HW212276   0.033   6.947   6.381
 3793SOL     OW12277   1.888   6.757   2.933
 3793SOL    HW112278   1.817   6.690   2.951
 3793SOL    HW212279   1.935   6.780   3.019
 3794SOL     OW12280   4.145   6.227   2.539
 3794SOL    HW112281   4.092   6.308   2.566
 3794SOL    HW212282   4.241   6.242   2.560
 3795SOL     OW12283   4.754   0.305   0.900
 3795SOL    HW112284   4.731   0.271   0.808
 3795SOL    HW212285   4.849   0.284   0.921
 3796SOL     OW12286   1.576   2.977   1.085
 3796SOL    HW112287   1.576   2.918   1.004
 3796SOL    HW212288   1.653   3.041   1.079
 3797SOL     OW12289   0.462   5.563   2.366
 3797SOL    HW112290   0.415   5.507   2.434
 3797SOL    HW212291   0.560   5.542   2.367
 3798SOL     OW12292   1.118   4.194   1.329
 3798SOL    HW112293   1.120   4.216   1.232
 3798SOL    HW212294   1.036   4.141   1.350
 3799SOL     OW12295   1.215   0.191   5.257
 3799SOL    HW112296   1.222   0.225   5.351
 3799SOL    HW212297   1.173   0.101   5.258
 3800SOL     OW12298   5.277   2.366   4.976
 3800SOL    HW112299   5.246   2.355   5.070
 3800SOL    HW212300   5.230   2.300   4.917
 3801SOL     OW12301   0.270   0.166   6.789
 3801SOL    HW112302   0.316   0.147   6.876
 3801SOL    HW212303   0.180   0.207   6.807
 3802SOL     OW12304   1.337   2.380   5.963
 3802SOL    HW112305   1.394   2.373   6.045
 3802SOL    HW212306   1.351   2.299   5.906
 3803SOL     OW12307   3.688   1.174   1.193
 3803SOL    HW112308   3.616   1.121   1.239
 3803SOL    HW212309   3.716   1.250   1.252
 3804SOL     OW12310   4.508   2.797   5.325
 3804SOL    HW112311   4.514   2.749   5.237
 3804SOL    HW212312   4.418   2.779   5.366
 3805SOL     OW12313   2.147   3.812   1.353
 3805SOL    HW112314   2.145   3.853   1.445
 3805SOL    HW212315   2.128   3.883   1.285
 3806SOL     OW12316   3.246   1.368   0.729
 3806SOL    HW112317   3.313   1.376   0.655
 3806SOL    HW212318   3.171   1.309   0.699
 3807SOL     OW12319   1.705   0.102   3.032
 3807SOL    HW112320   1.659   0.191   3.019
 3807SOL    HW212321   1.637   0.035   3.062
 3808SOL     OW12322   3.278   0.353   0.304
 3808SOL    HW112323   3.310   0.287   0.371
 3808SOL    HW212324   3.179   0.361   0.308
 3809SOL     OW12325   4.553   0.144   6.375
 3809SOL    HW112326   4.456   0.132   6.350
 3809SOL    HW212327   4.560   0.166   6.472
 3810SOL     OW12328   2.743   2.905   5.830
 3810SOL    HW112329   2.716   2.960   5.910
 3810SOL    HW212330   2.802   2.960   5.771
 3811SOL     OW12331   0.231   0.690   6.507
 3811SOL    HW112332   0.325   0.717   6.485
 3811SOL    HW212333   0.218   0.594   6.486
 3812SOL     OW12334   5.279   1.429   5.549
 3812SOL    HW112335   5.284   1.443   5.647
 3812SOL    HW212336   5.193   1.466   5.514
 3813SOL     OW12337   3.914   4.871   1.861
 3813SOL    HW112338   3.868   4.814   1.793
 3813SOL    HW212339   3.850   4.938   1.898
 3814SOL     OW12340   1.752   6.821   2.438
 3814SOL    HW112341   1.775   6.912   2.404
 3814SOL    HW212342   1.812   6.798   2.514
 3815SOL     OW12343   5.419   2.004   1.475
 3815SOL    HW112344   5.490   1.972   1.537
 3815SOL    HW212345   5.430   1.961   1.386
 3816SOL     OW12346   0.409   6.592   0.912
 3816SOL    HW112347   0.407   6.492   0.920
 3816SOL    HW212348   0.363   6.632   0.991
 3817SOL     OW12349   4.699   1.359   5.542
 3817SOL    HW112350   4.757   1.295   5.491
 3817SOL    HW212351   4.716   1.348   5.640
 3818SOL     OW12352   4.827   5.422   2.903
 3818SOL    HW112353   4.785   5.505   2.866
 3818SOL    HW212354   4.827   5.426   3.003
 3819SOL     OW12355   5.720   4.531   6.212
 3819SOL    HW112356   5.675   4.465   6.152
 3819SOL    HW212357   5.768   4.481   6.284
 3820SOL     OW12358   5.199   6.037   4.297
 3820SOL    HW112359   5.133   6.112   4.307
 3820SOL    HW212360   5.283   6.072   4.255
 3821SOL     OW12361   0.753   4.036   1.201
 3821SOL    HW112362   0.815   3.959   1.184
 3821SOL    HW212363   0.788   4.117   1.155
 3822SOL     OW12364   1.317   4.871   1.801
 3822SOL    HW112365   1.375   4.882   1.720
 3822SOL    HW212366   1.301   4.774   1.817
 3823SOL     OW12367   2.480   2.789   5.611
 3823SOL    HW112368   2.391   2.830   5.588
 3823SOL    HW212369   2.479   2.759   5.707
 3824SOL     OW12370   6.689   2.258   6.492
 3824SOL    HW112371   6.621   2.252   6.565
 3824SOL    HW212372   6.670   2.188   6.424
 3825SOL     OW12373   6.163   6.626   6.043
 3825SOL    HW112374   6.243   6.615   6.102
 3825SOL    HW212375   6.106   6.543   6.048
 3826SOL     OW12376   6.712   2.339   0.699
 3826SOL    HW112377   6.787   2.287   0.657
 3826SOL    HW212378   6.628   2.324   0.647
 3827SOL     OW12379   5.480   2.451   1.129
 3827SOL    HW112380   5.383   2.472   1.117
 3827SOL    HW212381   5.504   2.370   1.074
 3828SOL     OW12382   3.885   1.185   1.530
 3828SOL    HW112383   3.907   1.179   1.627
 3828SOL    HW212384   3.963   1.220   1.479
 3829SOL     OW12385   0.549   5.343   3.664
 3829SOL    HW112386   0.598   5.300   3.739
 3829SOL    HW212387   0.613   5.367   3.591
 3830SOL     OW12388   3.160   0.748   5.339
 3830SOL    HW112389   3.114   0.823   5.386
 3830SOL    HW212390   3.098   0.711   5.269
 3831SOL     OW12391   4.559   2.105   2.286
 3831SOL    HW112392   4.524   2.199   2.280
 3831SOL    HW212393   4.626   2.100   2.360
 3832SOL     OW12394   5.109   7.021   2.281
 3832SOL    HW112395   5.049   0.052   2.221
 3832SOL    HW212396   5.171   6.966   2.226
 3833SOL     OW12397   1.676   6.000   0.871
 3833SOL    HW112398   1.695   6.079   0.814
 3833SOL    HW212399   1.646   5.924   0.814
 3834SOL     OW12400   2.667   2.273   0.675
 3834SOL    HW112401   2.595   2.341   0.657
 3834SOL    HW212402   2.736   2.314   0.734
 3835SOL     OW12403   3.581   5.892   3.892
 3835SOL    HW112404   3.677   5.918   3.887
 3835SOL    HW212405   3.571   5.796   3.866
 3836SOL     OW12406   1.596   3.291   5.123
 3836SOL    HW112407   1.641   3.358   5.065
 3836SOL    HW212408   1.625   3.303   5.218
 3837SOL     OW12409   3.148   3.790   0.037
 3837SOL    HW112410   3.112   3.770   6.968
 3837SOL    HW212411   3.072   3.803   0.100
 3838SOL     OW12412   5.972   3.132   5.199
 3838SOL    HW112413   6.030   3.168   5.272
 3838SOL    HW212414   5.900   3.199   5.178
 3839SOL     OW12415   6.962   6.212   6.040
 3839SOL    HW112416   6.875   6.223   5.991
 3839SOL    HW212417   7.002   6.302   6.057
 3840SOL     OW12418   2.617   0.830   3.556
 3840SOL    HW112419   2.605   0.739   3.515
 3840SOL    HW212420   2.539   0.850   3.615
 3841SOL     OW12421   1.185   3.743   4.820
 3841SOL    HW112422   1.250   3.676   4.785
 3841SOL    HW212423   1.208   3.766   4.915
 3842SOL     OW12424   1.755   4.760   6.461
 3842SOL    HW112425   1.690   4.710   6.519
 3842SOL    HW212426   1.712   4.781   6.373
 3843SOL     OW12427   5.503   3.959   0.514
 3843SOL    HW112428   5.587   3.925   0.556
 3843SOL    HW212429   5.461   4.028   0.572
 3844SOL     OW12430   2.643   3.804   6.029
 3844SOL    HW112431   2.664   3.873   6.098
 3844SOL    HW212432   2.550   3.818   5.995
 3845SOL     OW12433   3.008   3.135   3.518
 3845SOL    HW112434   3.104   3.119   3.500
 3845SOL    HW212435   2.974   3.066   3.583
 3846SOL     OW12436   0.213   4.102   4.190
 3846SOL    HW112437   0.126   4.059   4.168
 3846SOL    HW212438   0.287   4.036   4.180
 3847SOL     OW12439   0.861   7.017   0.650
 3847SOL    HW112440   0.859   6.971   0.561
 3847SOL    HW212441   0.792   0.067   0.652
 3848SOL     OW12442   2.751   5.313   1.355
 3848SOL    HW112443   2.795   5.230   1.389
 3848SOL    HW212444   2.808   5.354   1.283
 3849SOL     OW12445   2.235   1.658   5.917
 3849SOL    HW112446   2.288   1.639   5.835
 3849SOL    HW212447   2.137   1.656   5.896
 3850SOL     OW12448   2.234   4.149   1.087
 3850SOL    HW112449   2.246   4.228   1.148
 3850SOL    HW212450   2.323   4.106   1.071
 3851SOL     OW12451   2.237   2.928   1.424
 3851SOL    HW112452   2.297   2.903   1.500
 3851SOL    HW212453   2.268   3.016   1.387
 3852SOL     OW12454   4.880   0.618   5.282
 3852SOL    HW112455   4.895   0.556   5.205
 3852SOL    HW212456   4.966   0.662   5.306
 3853SOL     OW12457   1.377   2.963   2.162
 3853SOL    HW112458   1.461   2.924   2.199
 3853SOL    HW212459   1.363   2.929   2.069
 3854SOL     OW12460   1.933   3.280   4.912
 3854SOL    HW112461   1.863   3.347   4.938
 3854SOL    HW212462   2.009   3.327   4.867
 3855SOL     OW12463   6.782   2.103   5.058
 3855SOL    HW112464   6.720   2.048   5.114
 3855SOL    HW212465   6.748   2.105   4.964
 3856SOL     OW12466   0.483   6.526   5.562
 3856SOL    HW112467   0.541   6.571   5.630
 3856SOL    HW212468   0.407   6.480   5.608
 3857SOL     OW12469   0.968   6.917   6.663
 3857SOL    HW112470   0.981   6.889   6.758
 3857SOL    HW212471   1.010   7.006   6.648
 3858SOL     OW12472   2.453   5.109   6.942
 3858SOL    HW112473   2.539   5.158   6.956
 3858SOL    HW212474   2.383   5.173   6.908
 3859SOL     OW12475   6.375   2.888   1.259
 3859SOL    HW112476   6.418   2.800   1.238
 3859SOL    HW212477   6.408   2.958   1.196
 3860SOL     OW12478   1.986   6.397   5.142
 3860SOL    HW112479   2.024   6.323   5.086
 3860SOL    HW212480   2.012   6.485   5.103
 3861SOL     OW12481   4.303   4.336   6.941
 3861SOL    HW112482   4.318   4.350   0.017
 3861SOL    HW212483   4.299   4.425   6.896
 3862SOL     OW12484   0.644   5.467   5.802
 3862SOL    HW112485   0.579   5.527   5.756
 3862SOL    HW212486   0.680   5.513   5.884
 3863SOL     OW12487   2.841   3.507   0.450
 3863SOL    HW112488   2.782   3.427   0.435
 3863SOL    HW212489   2.919   3.503   0.388
 3864SOL     OW12490   3.073   1.361   0.163
 3864SOL    HW112491   3.051   1.416   0.082
 3864SOL    HW212492   3.073   1.420   0.244
 3865SOL     OW12493   4.117   0.720   2.405
 3865SOL    HW112494   4.062   0.804   2.408
 3865SOL    HW212495   4.205   0.740   2.362
 3866SOL     OW12496   3.249   6.452   6.322
 3866SOL    HW112497   3.267   6.354   6.329
 3866SOL    HW212498   3.216   6.473   6.230
 3867SOL     OW12499   1.907   4.158   3.213
 3867SOL    HW112500   1.846   4.237   3.229
 3867SOL    HW212501   2.000   4.182   3.241
 3868SOL     OW12502   2.793   5.200   2.781
 3868SOL    HW112503   2.837   5.263   2.844
 3868SOL    HW212504   2.759   5.251   2.701
 3869SOL     OW12505   0.587   1.428   3.864
 3869SOL    HW112506   0.519   1.380   3.809
 3869SOL    HW212507   0.666   1.451   3.808
 3870SOL     OW12508   4.381   4.153   0.529
 3870SOL    HW112509   4.339   4.241   0.554
 3870SOL    HW212510   4.376   4.091   0.607
 3871SOL     OW12511   3.302   1.388   4.697
 3871SOL    HW112512   3.287   1.289   4.692
 3871SOL    HW212513   3.307   1.416   4.793
 3872SOL     OW12514   4.281   4.195   0.277
 3872SOL    HW112515   4.331   4.179   0.363
 3872SOL    HW212516   4.209   4.127   0.268
 3873SOL     OW12517   4.958   4.711   1.945
 3873SOL    HW112518   4.901   4.724   1.863
 3873SOL    HW212519   5.042   4.662   1.919
 3874SOL     OW12520   4.728   5.802   6.082
 3874SOL    HW112521   4.629   5.814   6.079
 3874SOL    HW212522   4.773   5.887   6.054
 3875SOL     OW12523   2.342   4.265   0.207
 3875SOL    HW112524   2.252   4.291   0.241
 3875SOL    HW212525   2.409   4.270   0.281
 3876SOL     OW12526   5.540   3.895   2.172
 3876SOL    HW112527   5.608   3.967   2.191
 3876SOL    HW212528   5.544   3.826   2.244
 3877SOL     OW12529   4.907   1.713   2.115
 3877SOL    HW112530   4.935   1.802   2.077
 3877SOL    HW212531   4.988   1.658   2.135
 3878SOL     OW12532   4.567   5.891   4.407
 3878SOL    HW112533   4.518   5.804   4.403
 3878SOL    HW212534   4.588   5.913   4.502
 3879SOL     OW12535   2.496   5.668   1.215
 3879SOL    HW112536   2.591   5.659   1.187
 3879SOL    HW212537   2.437   5.648   1.137
 3880SOL     OW12538   5.659   1.764   4.137
 3880SOL    HW112539   5.702   1.763   4.047
 3880SOL    HW212540   5.560   1.754   4.127
 3881SOL     OW12541   0.971   5.398   0.944
 3881SOL    HW112542   1.003   5.303   0.940
 3881SOL    HW212543   1.045   5.459   0.917
 3882SOL     OW12544   0.318   5.853   6.952
 3882SOL    HW112545   0.368   5.930   6.912
 3882SOL    HW212546   0.227   5.883   6.978
 3883SOL     OW12547   3.072   2.442   6.783
 3883SOL    HW112548   3.141   2.420   6.714
 3883SOL    HW212549   2.998   2.494   6.740
 3884SOL     OW12550   2.035   4.937   5.479
 3884SOL    HW112551   2.012   5.027   5.443
 3884SOL    HW212552   1.970   4.913   5.552
 3885SOL     OW12553   6.873   1.605   4.803
 3885SOL    HW112554   6.790   1.660   4.793
 3885SOL    HW212555   6.941   1.656   4.856
 3886SOL     OW12556   0.132   6.526   5.394
 3886SOL    HW112557   0.174   6.448   5.440
 3886SOL    HW212558   0.064   6.569   5.454
 3887SOL     OW12559   5.879   2.998   4.669
 3887SOL    HW112560   5.889   2.899   4.654
 3887SOL    HW212561   5.784   3.019   4.692
 3888SOL     OW12562   5.934   2.023   2.169
 3888SOL    HW112563   5.895   1.962   2.239
 3888SOL    HW212564   6.026   2.049   2.195
 3889SOL     OW12565   6.541   5.839   6.583
 3889SOL    HW112566   6.555   5.817   6.486
 3889SOL    HW212567   6.444   5.830   6.605
 3890SOL     OW12568   6.874   3.302   2.797
 3890SOL    HW112569   6.839   3.208   2.794
 3890SOL    HW212570   6.801   3.364   2.825
 3891SOL     OW12571   5.120   5.242   5.833
 3891SOL    HW112572   5.061   5.290   5.768
 3891SOL    HW212573   5.064   5.204   5.907
 3892SOL     OW12574   5.714   5.522   4.197
 3892SOL    HW112575   5.731   5.609   4.244
 3892SOL    HW212576   5.801   5.473   4.187
 3893SOL     OW12577   2.687   6.522   4.267
 3893SOL    HW112578   2.755   6.568   4.324
 3893SOL    HW212579   2.733   6.461   4.203
 3894SOL     OW12580   5.244   5.376   6.623
 3894SOL    HW112581   5.324   5.429   6.594
 3894SOL    HW212582   5.263   5.334   6.712
 3895SOL     OW12583   1.990   2.126   5.845
 3895SOL    HW112584   2.056   2.072   5.793
 3895SOL    HW212585   1.994   2.098   5.941
 3896SOL     OW12586   6.129   3.488   7.021
 3896SOL    HW112587   6.061   3.549   0.038
 3896SOL    HW212588   6.119   3.397   0.040
 3897SOL     OW12589   3.254   6.547   3.203
 3897SOL    HW112590   3.314   6.627   3.206
 3897SOL    HW212591   3.286   6.484   3.133
 3898SOL     OW12592   2.944   3.346   4.295
 3898SOL    HW112593   2.922   3.249   4.283
 3898SOL    HW212594   3.019   3.355   4.361
 3899SOL     OW12595   4.288   2.014   6.091
 3899SOL    HW112596   4.280   2.113   6.105
 3899SOL    HW212597   4.246   1.967   6.169
 3900SOL     OW12598   0.357   2.776   3.995
 3900SOL    HW112599   0.297   2.806   4.068
 3900SOL    HW212600   0.432   2.841   3.984
 3901SOL     OW12601   2.839   5.033   5.501
 3901SOL    HW112602   2.910   5.043   5.432
 3901SOL    HW212603   2.848   5.106   5.569
 3902SOL     OW12604   4.530   5.032   3.275
 3902SOL    HW112605   4.515   5.067   3.368
 3902SOL    HW212606   4.617   4.983   3.270
 3903SOL     OW12607   4.009   3.810   6.065
 3903SOL    HW112608   4.015   3.711   6.080
 3903SOL    HW212609   3.921   3.843   6.098
 3904SOL     OW12610   2.250   6.942   0.296
 3904SOL    HW112611   2.226   6.897   0.382
 3904SOL    HW212612   2.172   6.994   0.263
 3905SOL     OW12613   5.084   6.959   6.126
 3905SOL    HW112614   5.129   0.017   6.162
 3905SOL    HW212615   4.985   6.969   6.135
 3906SOL     OW12616   6.734   6.338   4.530
 3906SOL    HW112617   6.684   6.406   4.583
 3906SOL    HW212618   6.802   6.384   4.473
 3907SOL     OW12619   0.559   1.768   4.771
 3907SOL    HW112620   0.460   1.776   4.771
 3907SOL    HW212621   0.599   1.844   4.822
 3908SOL     OW12622   1.948   1.166   4.466
 3908SOL    HW112623   1.948   1.165   4.566
 3908SOL    HW212624   1.906   1.082   4.432
 3909SOL     OW12625   5.262   3.632   1.798
 3909SOL    HW112626   5.303   3.546   1.829
 3909SOL    HW212627   5.172   3.614   1.758
 3910SOL     OW12628   2.466   2.798   1.163
 3910SOL    HW112629   2.452   2.753   1.251
 3910SOL    HW212630   2.540   2.865   1.171
 3911SOL     OW12631   0.195   1.079   1.642
 3911SOL    HW112632   0.211   1.164   1.592
 3911SOL    HW212633   0.149   1.014   1.583
 3912SOL     OW12634   4.697   4.018   0.271
 3912SOL    HW112635   4.676   3.920   0.279
 3912SOL    HW212636   4.650   4.055   0.191
 3913SOL     OW12637   3.804   5.374   1.696
 3913SOL    HW112638   3.866   5.450   1.676
 3913SOL    HW212639   3.755   5.348   1.612
 3914SOL     OW12640   6.955   1.294   0.534
 3914SOL    HW112641   6.975   1.391   0.552
 3914SOL    HW212642   6.955   1.278   0.435
 3915SOL     OW12643   5.678   0.593   5.480
 3915SOL    HW112644   5.645   0.665   5.418
 3915SOL    HW212645   5.615   0.516   5.478
 3916SOL     OW12646   1.611   2.269   2.663
 3916SOL    HW112647   1.654   2.349   2.705
 3916SOL    HW212648   1.596   2.287   2.566
 3917SOL     OW12649   4.052   4.862   2.430
 3917SOL    HW112650   4.096   4.773   2.439
 3917SOL    HW212651   4.052   4.909   2.518
 3918SOL     OW12652   4.993   0.306   0.631
 3918SOL    HW112653   4.903   0.269   0.607
 3918SOL    HW212654   5.004   0.306   0.730
 3919SOL     OW12655   5.192   5.769   3.573
 3919SOL    HW112656   5.154   5.766   3.666
 3919SOL    HW212657   5.125   5.732   3.509
 3920SOL     OW12658   3.431   1.532   5.507
 3920SOL    HW112659   3.499   1.547   5.435
 3920SOL    HW212660   3.456   1.586   5.588
 3921SOL     OW12661   1.452   3.564   6.063
 3921SOL    HW112662   1.428   3.474   6.100
 3921SOL    HW212663   1.405   3.578   5.976
 3922SOL     OW12664   5.133   2.398   4.166
 3922SOL    HW112665   5.217   2.435   4.206
 3922SOL    HW212666   5.054   2.444   4.208
 3923SOL     OW12667   5.754   1.322   1.722
 3923SOL    HW112668   5.734   1.409   1.767
 3923SOL    HW212669   5.694   1.251   1.761
 3924SOL     OW12670   4.979   4.633   4.428
 3924SOL    HW112671   5.070   4.672   4.440
 3924SOL    HW212672   4.912   4.707   4.420
 3925SOL     OW12673   3.754   5.716   1.615
 3925SOL    HW112674   3.671   5.761   1.647
 3925SOL    HW212675   3.827   5.726   1.683
 3926SOL     OW12676   0.837   5.986   5.219
 3926SOL    HW112677   0.912   5.997   5.153
 3926SOL    HW212678   0.841   5.894   5.258
 3927SOL     OW12679   5.965   0.265   5.272
 3927SOL    HW112680   5.904   0.330   5.318
 3927SOL    HW212681   6.054   0.308   5.257
 3928SOL     OW12682   4.620   5.876   2.136
 3928SOL    HW112683   4.704   5.834   2.103
 3928SOL    HW212684   4.598   5.840   2.227
 3929SOL     OW12685   1.085   1.331   5.742
 3929SOL    HW112686   1.009   1.266   5.737
 3929SOL    HW212687   1.141   1.311   5.822
 3930SOL     OW12688   1.821   5.840   4.312
 3930SOL    HW112689   1.852   5.910   4.248
 3930SOL    HW212690   1.729   5.810   4.287
 3931SOL     OW12691   0.469   2.133   0.075
 3931SOL    HW112692   0.551   2.082   0.052
 3931SOL    HW212693   0.491   2.205   0.141
 3932SOL     OW12694   2.311   4.235   2.470
 3932SOL    HW112695   2.259   4.184   2.538
 3932SOL    HW212696   2.281   4.208   2.378
 3933SOL     OW12697   2.029   5.888   0.981
 3933SOL    HW112698   1.974   5.838   1.048
 3933SOL    HW212699   2.022   5.986   1.000
 3934SOL     OW12700   2.328   6.573   1.564
 3934SOL    HW112701   2.364   6.532   1.648
 3934SOL    HW212702   2.231   6.550   1.555
 3935SOL     OW12703   0.148   2.777   4.723
 3935SOL    HW112704   0.125   2.855   4.781
 3935SOL    HW212705   0.247   2.763   4.725
 3936SOL     OW12706   0.263   4.486   3.898
 3936SOL    HW112707   0.308   4.445   3.819
 3936SOL    HW212708   0.244   4.582   3.879
 3937SOL     OW12709   1.002   6.408   0.305
 3937SOL    HW112710   1.041   6.316   0.314
 3937SOL    HW212711   0.929   6.406   0.237
 3938SOL     OW12712   0.735   3.725   0.272
 3938SOL    HW112713   0.700   3.818   0.286
 3938SOL    HW212714   0.835   3.727   0.278
 3939SOL     OW12715   1.707   6.608   3.920
 3939SOL    HW112716   1.674   6.514   3.934
 3939SOL    HW212717   1.661   6.647   3.840
 3940SOL     OW12718   2.444   6.110   6.253
 3940SOL    HW112719   2.408   6.174   6.321
 3940SOL    HW212720   2.430   6.016   6.286
 3941SOL     OW12721   5.529   5.518   2.366
 3941SOL    HW112722   5.447   5.478   2.324
 3941SOL    HW212723   5.606   5.510   2.303
 3942SOL     OW12724   6.320   6.406   6.787
 3942SOL    HW112725   6.334   6.501   6.760
 3942SOL    HW212726   6.271   6.402   6.874
 3943SOL     OW12727   1.736   3.773   6.779
 3943SOL    HW112728   1.657   3.827   6.749
 3943SOL    HW212729   1.716   3.676   6.770
 3944SOL     OW12730   4.658   3.479   6.482
 3944SOL    HW112731   4.612   3.566   6.498
 3944SOL    HW212732   4.754   3.487   6.510
 3945SOL     OW12733   6.204   0.626   3.139
 3945SOL    HW112734   6.124   0.571   3.115
 3945SOL    HW212735   6.275   0.615   3.070
 3946SOL     OW12736   6.571   3.071   0.746
 3946SOL    HW112737   6.579   3.144   0.814
 3946SOL    HW212738   6.477   3.068   0.712
 3947SOL     OW12739   5.436   6.058   2.459
 3947SOL    HW112740   5.470   6.027   2.548
 3947SOL    HW212741   5.348   6.104   2.471
 3948SOL     OW12742   2.133   0.986   5.206
 3948SOL    HW112743   2.173   1.017   5.120
 3948SOL    HW212744   2.167   0.894   5.228
 3949SOL     OW12745   5.964   0.102   2.152
 3949SOL    HW112746   6.016   0.106   2.237
 3949SOL    HW212747   5.878   0.152   2.163
 3950SOL     OW12748   3.065   4.782   1.883
 3950SOL    HW112749   3.025   4.695   1.854
 3950SOL    HW212750   2.992   4.848   1.901
 3951SOL     OW12751   6.999   2.670   3.558
 3951SOL    HW112752   6.984   2.635   3.465
 3951SOL    HW212753   0.053   2.621   3.600
 3952SOL     OW12754   5.515   4.241   6.957
 3952SOL    HW112755   5.533   4.143   6.970
 3952SOL    HW212756   5.429   4.252   6.907
 3953SOL     OW12757   3.503   3.708   5.606
 3953SOL    HW112758   3.420   3.711   5.662
 3953SOL    HW212759   3.582   3.697   5.666
 3954SOL     OW12760   0.781   3.161   4.947
 3954SOL    HW112761   0.785   3.195   5.041
 3954SOL    HW212762   0.833   3.075   4.941
 3955SOL     OW12763   6.240   3.530   0.457
 3955SOL    HW112764   6.317   3.510   0.397
 3955SOL    HW212765   6.157   3.543   0.403
 3956SOL     OW12766   6.876   2.700   5.551
 3956SOL    HW112767   6.879   2.676   5.454
 3956SOL    HW212768   6.866   2.799   5.561
 3957SOL     OW12769   0.970   1.999   1.588
 3957SOL    HW112770   1.063   2.027   1.611
 3957SOL    HW212771   0.905   2.061   1.631
 3958SOL     OW12772   5.620   5.929   1.297
 3958SOL    HW112773   5.684   5.966   1.363
 3958SOL    HW212774   5.639   5.831   1.283
 3959SOL     OW12775   2.457   4.783   1.933
 3959SOL    HW112776   2.534   4.749   1.879
 3959SOL    HW212777   2.492   4.839   2.008
 3960SOL     OW12778   5.657   2.982   0.639
 3960SOL    HW112779   5.638   3.080   0.634
 3960SOL    HW212780   5.580   2.932   0.598
 3961SOL     OW12781   6.545   1.091   1.581
 3961SOL    HW112782   6.466   1.069   1.524
 3961SOL    HW212783   6.596   1.008   1.602
 3962SOL     OW12784   0.099   0.545   6.200
 3962SOL    HW112785   0.090   0.456   6.155
 3962SOL    HW212786   0.177   0.543   6.263
 3963SOL     OW12787   5.029   4.215   4.263
 3963SOL    HW112788   4.964   4.141   4.242
 3963SOL    HW212789   5.116   4.196   4.217
 3964SOL     OW12790   5.774   4.842   0.244
 3964SOL    HW112791   5.829   4.764   0.213
 3964SOL    HW212792   5.744   4.895   0.165
 3965SOL     OW12793   3.568   3.966   1.203
 3965SOL    HW112794   3.620   3.929   1.281
 3965SOL    HW212795   3.471   3.968   1.226
 3966SOL     OW12796   6.659   3.850   5.902
 3966SOL    HW112797   6.734   3.871   5.839
 3966SOL    HW212798   6.673   3.758   5.939
 3967SOL     OW12799   2.287   6.690   0.021
 3967SOL    HW112800   2.282   6.608   6.986
 3967SOL    HW212801   2.225   6.759   7.009
 3968SOL     OW12802   4.878   2.143   1.052
 3968SOL    HW112803   4.891   2.213   1.123
 3968SOL    HW212804   4.783   2.111   1.054
 3969SOL     OW12805   0.009   6.510   0.818
 3969SOL    HW112806   0.077   6.457   0.869
 3969SOL    HW212807   6.942   6.500   0.862
 3970SOL     OW12808   5.327   4.430   3.753
 3970SOL    HW112809   5.344   4.337   3.784
 3970SOL    HW212810   5.370   4.495   3.816
 3971SOL     OW12811   6.995   6.060   3.870
 3971SOL    HW112812   0.040   6.019   3.932
 3971SOL    HW212813   6.997   6.013   3.782
 3972SOL     OW12814   1.255   0.119   6.247
 3972SOL    HW112815   1.186   0.144   6.179
 3972SOL    HW212816   1.328   0.187   6.246
 3973SOL     OW12817   4.156   3.338   2.716
 3973SOL    HW112818   4.112   3.337   2.626
 3973SOL    HW212819   4.255   3.338   2.705
 3974SOL     OW12820   4.855   1.076   6.618
 3974SOL    HW112821   4.952   1.054   6.633
 3974SOL    HW212822   4.838   1.081   6.520
 3975SOL     OW12823   0.213   6.831   4.934
 3975SOL    HW112824   0.175   6.924   4.930
 3975SOL    HW212825   0.301   6.830   4.887
 3976SOL     OW12826   0.890   3.309   5.877
 3976SOL    HW112827   0.947   3.383   5.913
 3976SOL    HW212828   0.930   3.221   5.904
 3977SOL     OW12829   3.377   5.344   5.154
 3977SOL    HW112830   3.438   5.394   5.216
 3977SOL    HW212831   3.429   5.311   5.075
 3978SOL     OW12832   6.004   3.345   6.425
 3978SOL    HW112833   5.989   3.250   6.399
 3978SOL    HW212834   5.967   3.406   6.355
 3979SOL     OW12835   0.851   6.239   3.317
 3979SOL    HW112836   0.928   6.210   3.261
 3979SOL    HW212837   0.778   6.275   3.259
 3980SOL     OW12838   5.112   3.810   3.876
 3980SOL    HW112839   5.182   3.740   3.891
 3980SOL    HW212840   5.032   3.768   3.834
 3981SOL     OW12841   6.833   1.290   6.335
 3981SOL    HW112842   6.867   1.368   6.387
 3981SOL    HW212843   6.821   1.316   6.239
 3982SOL     OW12844   2.346   2.742   4.398
 3982SOL    HW112845   2.276   2.794   4.447
 3982SOL    HW212846   2.417   2.714   4.462
 3983SOL     OW12847   2.986   0.312   3.503
 3983SOL    HW112848   2.898   0.359   3.510
 3983SOL    HW212849   3.055   0.376   3.468
 3984SOL     OW12850   1.659   5.534   2.160
 3984SOL    HW112851   1.643   5.437   2.141
 3984SOL    HW212852   1.750   5.546   2.198
 3985SOL     OW12853   2.015   2.305   1.478
 3985SOL    HW112854   2.021   2.324   1.380
 3985SOL    HW212855   2.039   2.210   1.496
 3986SOL     OW12856   0.780   2.155   2.079
 3986SOL    HW112857   0.822   2.243   2.059
 3986SOL    HW212858   0.837   2.082   2.042
 3987SOL     OW12859   1.688   4.233   4.840
 3987SOL    HW112860   1.746   4.204   4.915
 3987SOL    HW212861   1.599   4.188   4.847
 3988SOL     OW12862   5.100   0.155   1.550
 3988SOL    HW112863   5.068   0.247   1.571
 3988SOL    HW212864   5.047   0.088   1.602
 3989SOL     OW12865   4.140   0.741   5.526
 3989SOL    HW112866   4.092   0.701   5.604
 3989SOL    HW212867   4.075   0.786   5.465
 3990SOL     OW12868   6.709   1.638   3.817
 3990SOL    HW112869   6.685   1.707   3.886
 3990SOL    HW212870   6.681   1.548   3.849
 3991SOL     OW12871   0.167   1.969   3.577
 3991SOL    HW112872   0.068   1.980   3.566
 3991SOL    HW212873   0.214   2.019   3.504
 3992SOL     OW12874   5.177   3.409   6.432
 3992SOL    HW112875   5.185   3.493   6.378
 3992SOL    HW212876   5.223   3.334   6.384
 3993SOL     OW12877   1.670   0.735   4.013
 3993SOL    HW112878   1.694   0.817   4.064
 3993SOL    HW212879   1.749   0.674   4.007
 3994SOL     OW12880   3.337   2.078   3.539
 3994SOL    HW112881   3.435   2.099   3.545
 3994SOL    HW212882   3.325   1.983   3.511
 3995SOL     OW12883   1.356   3.532   2.312
 3995SOL    HW112884   1.334   3.461   2.379
 3995SOL    HW212885   1.451   3.524   2.284
 3996SOL     OW12886   6.348   6.461   5.405
 3996SOL    HW112887   6.265   6.514   5.388
 3996SOL    HW212888   6.426   6.505   5.361
 3997SOL     OW12889   5.312   3.609   3.955
 3997SOL    HW112890   5.265   3.568   4.033
 3997SOL    HW212891   5.409   3.585   3.958
 3998SOL     OW12892   4.934   2.075   3.467
 3998SOL    HW112893   4.906   2.081   3.563
 3998SOL    HW212894   5.020   2.123   3.454
 3999SOL     OW12895   4.871   3.423   0.982
 3999SOL    HW112896   4.962   3.383   0.978
 3999SOL    HW212897   4.809   3.360   1.028
 4000SOL     OW12898   2.119   5.073   3.207
 4000SOL    HW112899   2.180   5.045   3.281
 4000SOL    HW212900   2.173   5.113   3.132
 4001SOL     OW12901   0.078   5.895   4.605
 4001SOL    HW112902   7.022   5.931   4.556
 4001SOL    HW212903   0.159   5.949   4.582
 4002SOL     OW12904   4.106   3.620   4.466
 4002SOL    HW112905   4.164   3.649   4.541
 4002SOL    HW212906   4.031   3.563   4.501
 4003SOL     OW12907   1.879   1.253   4.737
 4003SOL    HW112908   1.793   1.304   4.728
 4003SOL    HW212909   1.942   1.303   4.797
 4004SOL     OW12910   1.902   4.608   4.801
 4004SOL    HW112911   1.983   4.645   4.846
 4004SOL    HW212912   1.845   4.562   4.870
 4005SOL     OW12913   4.925   3.058   0.337
 4005SOL    HW112914   4.899   3.045   0.433
 4005SOL    HW212915   4.913   3.154   0.312
 4006SOL     OW12916   6.671   5.393   2.102
 4006SOL    HW112917   6.641   5.342   2.182
 4006SOL    HW212918   6.751   5.347   2.062
 4007SOL     OW12919   0.419   0.849   1.566
 4007SOL    HW112920   0.321   0.838   1.578
 4007SOL    HW212921   0.438   0.891   1.477
 4008SOL     OW12922   2.955   1.153   1.312
 4008SOL    HW112923   2.921   1.075   1.364
 4008SOL    HW212924   3.055   1.159   1.324
 4009SOL     OW12925   4.354   2.169   0.336
 4009SOL    HW112926   4.295   2.189   0.258
 4009SOL    HW212927   4.446   2.205   0.319
 4010SOL     OW12928   1.762   4.230   1.100
 4010SOL    HW112929   1.793   4.273   1.185
 4010SOL    HW212930   1.807   4.141   1.089
 4011SOL     OW12931   6.037   6.396   6.091
 4011SOL    HW112932   6.010   6.325   6.027
 4011SOL    HW212933   5.970   6.403   6.164
 4012SOL     OW12934   6.108   6.053   2.741
 4012SOL    HW112935   6.150   6.062   2.831
 4012SOL    HW212936   6.145   5.973   2.695
 4013SOL     OW12937   6.998   1.544   0.035
 4013SOL    HW112938   6.929   1.597   0.085
 4013SOL    HW212939   0.066   1.586   0.050
 4014SOL     OW12940   3.902   5.451   2.265
 4014SOL    HW112941   3.845   5.472   2.186
 4014SOL    HW212942   3.887   5.519   2.337
 4015SOL     OW12943   4.266   5.356   6.043
 4015SOL    HW112944   4.338   5.421   6.064
 4015SOL    HW212945   4.244   5.303   6.125
 4016SOL     OW12946   5.100   4.928   4.693
 4016SOL    HW112947   5.142   4.982   4.766
 4016SOL    HW212948   5.121   4.971   4.604
 4017SOL     OW12949   1.650   5.694   5.111
 4017SOL    HW112950   1.736   5.645   5.099
 4017SOL    HW212951   1.668   5.787   5.142
 4018SOL     OW12952   3.968   5.470   1.363
 4018SOL    HW112953   3.999   5.558   1.326
 4018SOL    HW212954   3.907   5.425   1.298
 4019SOL     OW12955   6.663   3.682   2.362
 4019SOL    HW112956   6.689   3.773   2.327
 4019SOL    HW212957   6.735   3.617   2.342
 4020SOL     OW12958   6.898   6.054   4.510
 4020SOL    HW112959   6.811   6.095   4.539
 4020SOL    HW212960   6.942   6.114   4.442
 4021SOL     OW12961   4.191   5.171   6.248
 4021SOL    HW112962   4.192   5.094   6.184
 4021SOL    HW212963   4.104   5.174   6.297
 4022SOL     OW12964   2.593   6.094   1.139
 4022SOL    HW112965   2.578   6.006   1.184
 4022SOL    HW212966   2.623   6.161   1.207
 4023SOL     OW12967   0.486   1.691   4.384
 4023SOL    HW112968   0.527   1.736   4.305
 4023SOL    HW212969   0.388   1.711   4.386
 4024SOL     OW12970   0.287   6.417   4.826
 4024SOL    HW112971   0.374   6.455   4.794
 4024SOL    HW212972   0.291   6.402   4.925
 4025SOL     OW12973   6.930   4.927   3.722
 4025SOL    HW112974   6.971   4.835   3.725
 4025SOL    HW212975   6.842   4.925   3.769
 4026SOL     OW12976   0.465   6.585   4.052
 4026SOL    HW112977   0.441   6.666   4.105
 4026SOL    HW212978   0.447   6.602   3.955
 4027SOL     OW12979   3.446   4.860   5.181
 4027SOL    HW112980   3.523   4.913   5.218
 4027SOL    HW212981   3.463   4.763   5.196
 4028SOL     OW12982   5.209   1.215   3.894
 4028SOL    HW112983   5.259   1.145   3.944
 4028SOL    HW212984   5.199   1.187   3.799
 4029SOL     OW12985   1.460   6.333   0.898
 4029SOL    HW112986   1.545   6.349   0.848
 4029SOL    HW212987   1.477   6.345   0.996
 4030SOL     OW12988   0.662   1.656   2.147
 4030SOL    HW112989   0.603   1.588   2.191
 4030SOL    HW212990   0.654   1.743   2.196
 4031SOL     OW12991   5.826   6.404   0.438
 4031SOL    HW112992   5.785   6.482   0.486
 4031SOL    HW212993   5.883   6.352   0.502
 4032SOL     OW12994   4.905   1.036   2.711
 4032SOL    HW112995   4.977   1.069   2.772
 4032SOL    HW212996   4.907   0.936   2.708
 4033SOL     OW12997   2.458   2.086   2.946
 4033SOL    HW112998   2.543   2.129   2.916
 4033SOL    HW212999   2.421   2.029   2.872
 4034SOL     OW13000   1.541   2.675   4.685
 4034SOL    HW113001   1.564   2.668   4.588
 4034SOL    HW213002   1.508   2.768   4.705
 4035SOL     OW13003   4.697   2.350   1.997
 4035SOL    HW113004   4.693   2.255   1.966
 4035SOL    HW213005   4.629   2.404   1.946
 4036SOL     OW13006   3.112   5.967   3.394
 4036SOL    HW113007   3.016   5.973   3.422
 4036SOL    HW213008   3.117   5.937   3.299
 4037SOL     OW13009   2.183   1.729   6.298
 4037SOL    HW113010   2.172   1.822   6.332
 4037SOL    HW213011   2.280   1.709   6.285
 4038SOL     OW13012   3.576   4.662   5.790
 4038SOL    HW113013   3.653   4.653   5.852
 4038SOL    HW213014   3.493   4.682   5.842
 4039SOL     OW13015   5.623   4.875   1.451
 4039SOL    HW113016   5.711   4.863   1.497
 4039SOL    HW213017   5.589   4.967   1.468
 4040SOL     OW13018   3.197   0.487   5.039
 4040SOL    HW113019   3.143   0.429   5.100
 4040SOL    HW213020   3.225   0.570   5.087
 4041SOL     OW13021   1.685   5.705   1.934
 4041SOL    HW113022   1.665   5.628   1.994
 4041SOL    HW213023   1.665   5.679   1.839
 4042SOL     OW13024   0.353   1.733   2.643
 4042SOL    HW113025   0.326   1.778   2.728
 4042SOL    HW213026   0.271   1.703   2.594
 4043SOL     OW13027   5.112   2.892   6.118
 4043SOL    HW113028   5.096   2.975   6.172
 4043SOL    HW213029   5.068   2.900   6.029
 4044SOL     OW13030   4.882   4.287   3.246
 4044SOL    HW113031   4.893   4.192   3.217
 4044SOL    HW213032   4.936   4.303   3.329
 4045SOL     OW13033   4.567   1.072   5.217
 4045SOL    HW113034   4.506   1.123   5.278
 4045SOL    HW213035   4.516   1.042   5.136
 4046SOL     OW13036   5.259   1.715   3.465
 4046SOL    HW113037   5.277   1.667   3.551
 4046SOL    HW213038   5.275   1.652   3.389
 4047SOL     OW13039   3.241   3.089   6.617
 4047SOL    HW113040   3.328   3.041   6.613
 4047SOL    HW213041   3.254   3.176   6.665
 4048SOL     OW13042   5.031   1.802   2.509
 4048SOL    HW113043   5.001   1.881   2.455
 4048SOL    HW213044   5.030   1.825   2.606
 4049SOL     OW13045   4.093   3.822   0.665
 4049SOL    HW113046   4.091   3.725   0.642
 4049SOL    HW213047   4.017   3.869   0.620
 4050SOL     OW13048   0.455   5.166   2.530
 4050SOL    HW113049   0.519   5.198   2.600
 4050SOL    HW213050   0.502   5.156   2.443
 4051SOL     OW13051   5.335   0.897   5.348
 4051SOL    HW113052   5.339   0.876   5.446
 4051SOL    HW213053   5.326   0.995   5.336
 4052SOL     OW13054   5.446   1.890   3.340
 4052SOL    HW113055   5.375   1.820   3.349
 4052SOL    HW213056   5.425   1.968   3.399
 4053SOL     OW13057   0.792   4.780   4.002
 4053SOL    HW113058   0.845   4.817   4.078
 4053SOL    HW213059   0.705   4.830   3.994
 4054SOL     OW13060   4.207   3.823   0.929
 4054SOL    HW113061   4.220   3.758   1.004
 4054SOL    HW213062   4.153   3.780   0.856
 4055SOL     OW13063   0.195   4.191   0.498
 4055SOL    HW113064   0.222   4.096   0.487
 4055SOL    HW213065   0.104   4.196   0.539
 4056SOL     OW13066   4.842   3.268   0.059
 4056SOL    HW113067   4.789   3.265   0.144
 4056SOL    HW213068   4.796   3.213   7.012
 4057SOL     OW13069   0.090   3.492   0.471
 4057SOL    HW113070   0.164   3.535   0.418
 4057SOL    HW213071   0.038   3.430   0.411
 4058SOL     OW13072   2.210   0.747   4.968
 4058SOL    HW113073   2.226   0.689   5.048
 4058SOL    HW213074   2.273   0.721   4.895
 4059SOL     OW13075   0.355   1.325   3.368
 4059SOL    HW113076   0.401   1.254   3.313
 4059SOL    HW213077   0.369   1.306   3.465
 4060SOL     OW13078   7.016   6.459   4.496
 4060SOL    HW113079   0.042   6.391   4.550
 4060SOL    HW213080   6.964   6.519   4.557
 4061SOL     OW13081   1.179   4.698   1.324
 4061SOL    HW113082   1.232   4.705   1.408
 4061SOL    HW213083   1.086   4.668   1.345
 4062SOL     OW13084   1.929   3.793   0.797
 4062SOL    HW113085   1.978   3.767   0.880
 4062SOL    HW213086   1.847   3.738   0.787
 4063SOL     OW13087   4.613   0.399   0.393
 4063SOL    HW113088   4.643   0.491   0.419
 4063SOL    HW213089   4.529   0.406   0.340
 4064SOL     OW13090   1.923   1.095   6.019
 4064SOL    HW113091   1.873   1.008   6.014
 4064SOL    HW213092   1.861   1.166   6.054
 4065SOL     OW13093   2.579   0.174   0.957
 4065SOL    HW113094   2.531   0.147   0.874
 4065SOL    HW213095   2.527   0.146   1.037
 4066SOL     OW13096   0.659   3.892   3.659
 4066SOL    HW113097   0.659   3.793   3.645
 4066SOL    HW213098   0.740   3.919   3.712
 4067SOL     OW13099   5.457   4.952   0.572
 4067SOL    HW113100   5.426   5.025   0.512
 4067SOL    HW213101   5.424   4.968   0.665
 4068SOL     OW13102   2.227   2.785   5.146
 4068SOL    HW113103   2.261   2.866   5.098
 4068SOL    HW213104   2.291   2.709   5.132
 4069SOL     OW13105   4.667   6.560   6.588
 4069SOL    HW113106   4.730   6.557   6.510
 4069SOL    HW213107   4.602   6.484   6.581
 4070SOL     OW13108   1.697   3.699   3.753
 4070SOL    HW113109   1.685   3.717   3.656
 4070SOL    HW213110   1.758   3.768   3.792
 4071SOL     OW13111   1.478   0.705   4.948
 4071SOL    HW113112   1.404   0.653   4.908
 4071SOL    HW213113   1.486   0.794   4.902
 4072SOL     OW13114   2.551   6.002   3.377
 4072SOL    HW113115   2.631   6.023   3.321
 4072SOL    HW213116   2.560   5.910   3.416
 4073SOL     OW13117   4.474   4.896   6.893
 4073SOL    HW113118   4.487   4.823   6.959
 4073SOL    HW213119   4.482   4.985   6.939
 4074SOL     OW13120   1.542   5.677   2.867
 4074SOL    HW113121   1.469   5.739   2.838
 4074SOL    HW213122   1.552   5.604   2.799
 4075SOL     OW13123   6.469   0.603   0.847
 4075SOL    HW113124   6.496   0.508   0.861
 4075SOL    HW213125   6.454   0.647   0.935
 4076SOL     OW13126   2.320   4.643   4.511
 4076SOL    HW113127   2.376   4.584   4.569
 4076SOL    HW213128   2.368   4.661   4.425
 4077SOL     OW13129   2.787   0.715   2.050
 4077SOL    HW113130   2.744   0.631   2.017
 4077SOL    HW213131   2.826   0.699   2.141
 4078SOL     OW13132   3.343   4.868   2.435
 4078SOL    HW113133   3.380   4.949   2.390
 4078SOL    HW213134   3.362   4.787   2.380
 4079SOL     OW13135   0.567   1.794   3.768
 4079SOL    HW113136   0.512   1.876   3.747
 4079SOL    HW213137   0.510   1.726   3.814
 4080SOL     OW13138   6.855   2.355   5.172
 4080SOL    HW113139   6.770   2.405   5.183
 4080SOL    HW213140   6.840   2.274   5.115
 4081SOL     OW13141   1.796   3.143   3.620
 4081SOL    HW113142   1.718   3.203   3.599
 4081SOL    HW213143   1.781   3.098   3.708
 4082SOL     OW13144   0.526   3.618   1.035
 4082SOL    HW113145   0.537   3.661   0.946
 4082SOL    HW213146   0.512   3.688   1.105
 4083SOL     OW13147   6.128   2.930   4.804
 4083SOL    HW113148   6.046   2.986   4.790
 4083SOL    HW213149   6.180   2.967   4.881
 4084SOL     OW13150   6.826   1.690   4.255
 4084SOL    HW113151   6.751   1.703   4.320
 4084SOL    HW213152   6.823   1.762   4.186
 4085SOL     OW13153   2.388   6.040   0.243
 4085SOL    HW113154   2.354   6.112   0.303
 4085SOL    HW213155   2.459   6.078   0.183
 4086SOL     OW13156   1.005   4.328   0.696
 4086SOL    HW113157   1.011   4.377   0.609
 4086SOL    HW213158   1.035   4.234   0.684
 4087SOL     OW13159   2.607   1.713   2.866
 4087SOL    HW113160   2.597   1.811   2.849
 4087SOL    HW213161   2.650   1.699   2.955
 4088SOL     OW13162   6.426   2.107   0.666
 4088SOL    HW113163   6.444   2.029   0.725
 4088SOL    HW213164   6.341   2.152   0.695
 4089SOL     OW13165   1.283   1.581   5.832
 4089SOL    HW113166   1.254   1.487   5.815
 4089SOL    HW213167   1.326   1.618   5.749
 4090SOL     OW13168   1.956   4.593   5.867
 4090SOL    HW113169   2.033   4.626   5.922
 4090SOL    HW213170   1.880   4.570   5.927
 4091SOL     OW13171   3.972   6.725   0.604
 4091SOL    HW113172   3.985   6.694   0.509
 4091SOL    HW213173   4.061   6.748   0.643
 4092SOL     OW13174   0.011   1.966   4.969
 4092SOL    HW113175   6.987   1.885   5.005
 4092SOL    HW213176   6.967   2.027   4.927
 4093SOL     OW13177   5.543   0.052   4.767
 4093SOL    HW113178   5.532   7.018   4.849
 4093SOL    HW213179   5.533   0.149   4.791
 4094SOL     OW13180   2.801   4.318   5.311
 4094SOL    HW113181   2.844   4.389   5.254
 4094SOL    HW213182   2.853   4.308   5.396
 4095SOL     OW13183   1.542   3.974   5.835
 4095SOL    HW113184   1.510   3.901   5.895
 4095SOL    HW213185   1.578   4.049   5.891
 4096SOL     OW13186   4.288   4.694   2.097
 4096SOL    HW113187   4.252   4.691   2.004
 4096SOL    HW213188   4.352   4.619   2.111
 4097SOL     OW13189   2.880   3.539   4.107
 4097SOL    HW113190   2.900   3.467   4.173
 4097SOL    HW213191   2.781   3.549   4.098
 4098SOL     OW13192   0.526   2.401   2.389
 4098SOL    HW113193   0.620   2.390   2.355
 4098SOL    HW213194   0.495   2.494   2.371
 4099SOL     OW13195   3.219   6.330   1.796
 4099SOL    HW113196   3.161   6.403   1.832
 4099SOL    HW213197   3.167   6.275   1.730
 4100SOL     OW13198   3.362   6.346   3.041
 4100SOL    HW113199   3.309   6.342   2.956
 4100SOL    HW213200   3.456   6.318   3.023
 4101SOL     OW13201   4.482   1.142   6.665
 4101SOL    HW113202   4.393   1.158   6.708
 4101SOL    HW213203   4.546   1.108   6.734
 4102SOL     OW13204   5.485   1.269   0.292
 4102SOL    HW113205   5.449   1.178   0.272
 4102SOL    HW213206   5.444   1.335   0.229
 4103SOL     OW13207   0.390   0.260   2.452
 4103SOL    HW113208   0.298   0.290   2.476
 4103SOL    HW213209   0.455   0.298   2.518
 4104SOL     OW13210   1.749   4.792   2.405
 4104SOL    HW113211   1.736   4.787   2.504
 4104SOL    HW213212   1.847   4.787   2.384
 4105SOL     OW13213   5.593   5.321   0.370
 4105SOL    HW113214   5.592   5.240   0.311
 4105SOL    HW213215   5.628   5.296   0.460
 4106SOL     OW13216   0.151   3.658   5.079
 4106SOL    HW113217   0.209   3.729   5.040
 4106SOL    HW213218   0.063   3.658   5.032
 4107SOL     OW13219   6.875   1.398   1.374
 4107SOL    HW113220   6.940   1.335   1.332
 4107SOL    HW213221   6.908   1.492   1.365
 4108SOL     OW13222   6.821   2.942   5.109
 4108SOL    HW113223   6.917   2.926   5.130
 4108SOL    HW213224   6.784   3.010   5.171
 4109SOL     OW13225   3.115   6.539   3.462
 4109SOL    HW113226   3.181   6.536   3.387
 4109SOL    HW213227   3.076   6.631   3.469
 4110SOL     OW13228   4.752   3.289   5.420
 4110SOL    HW113229   4.741   3.192   5.400
 4110SOL    HW213230   4.831   3.325   5.370
 4111SOL     OW13231   4.613   3.329   6.809
 4111SOL    HW113232   4.650   3.400   6.750
 4111SOL    HW213233   4.684   3.261   6.828
 4112SOL     OW13234   3.418   0.558   4.410
 4112SOL    HW113235   3.348   0.513   4.466
 4112SOL    HW213236   3.377   0.638   4.364
 4113SOL     OW13237   3.904   5.438   4.382
 4113SOL    HW113238   3.838   5.367   4.359
 4113SOL    HW213239   3.858   5.527   4.382
 4114SOL     OW13240   2.989   1.779   2.538
 4114SOL    HW113241   2.957   1.720   2.612
 4114SOL    HW213242   2.932   1.862   2.534
 4115SOL     OW13243   5.189   5.008   2.211
 4115SOL    HW113244   5.152   5.088   2.257
 4115SOL    HW213245   5.142   4.995   2.124
 4116SOL     OW13246   3.045   1.102   2.120
 4116SOL    HW113247   3.104   1.182   2.103
 4116SOL    HW213248   2.950   1.133   2.132
 4117SOL     OW13249   0.936   5.198   2.145
 4117SOL    HW113250   0.959   5.279   2.091
 4117SOL    HW213251   1.011   5.177   2.208
 4118SOL     OW13252   2.445   6.498   0.481
 4118SOL    HW113253   2.504   6.437   0.535
 4118SOL    HW213254   2.499   6.575   0.448
 4119SOL     OW13255   4.494   0.872   3.281
 4119SOL    HW113256   4.464   0.798   3.342
 4119SOL    HW213257   4.458   0.959   3.314
 4120SOL     OW13258   3.335   0.997   2.014
 4120SOL    HW113259   3.402   1.006   1.939
 4120SOL    HW213260   3.317   1.087   2.053
 4121SOL     OW13261   6.488   3.283   4.657
 4121SOL    HW113262   6.516   3.196   4.697
 4121SOL    HW213263   6.427   3.331   4.720
 4122SOL     OW13264   1.869   5.414   6.676
 4122SOL    HW113265   1.785   5.461   6.705
 4122SOL    HW213266   1.878   5.423   6.576
 4123SOL     OW13267   4.804   3.941   6.099
 4123SOL    HW113268   4.756   4.012   6.047
 4123SOL    HW213269   4.737   3.887   6.150
 4124SOL     OW13270   4.802   6.662   3.564
 4124SOL    HW113271   4.729   6.672   3.631
 4124SOL    HW213272   4.765   6.674   3.472
 4125SOL     OW13273   5.013   1.230   0.738
 4125SOL    HW113274   5.110   1.236   0.761
 4125SOL    HW213275   4.960   1.290   0.799
 4126SOL     OW13276   1.916   5.029   4.277
 4126SOL    HW113277   1.982   4.990   4.213
 4126SOL    HW213278   1.831   4.978   4.271
 4127SOL     OW13279   6.290   3.960   5.282
 4127SOL    HW113280   6.286   4.058   5.302
 4127SOL    HW213281   6.367   3.919   5.330
 4128SOL     OW13282   1.135   2.328   2.655
 4128SOL    HW113283   1.145   2.228   2.655
 4128SOL    HW213284   1.177   2.366   2.573
 4129SOL     OW13285   5.680   2.016   6.037
 4129SOL    HW113286   5.660   1.944   6.104
 4129SOL    HW213287   5.700   1.974   5.948
 4130SOL     OW13288   6.058   3.578   1.168
 4130SOL    HW113289   5.975   3.532   1.201
 4130SOL    HW213290   6.085   3.538   1.081
 4131SOL     OW13291   6.792   4.017   3.514
 4131SOL    HW113292   6.874   4.067   3.487
 4131SOL    HW213293   6.778   4.027   3.613
 4132SOL     OW13294   5.120   2.116   4.239
 4132SOL    HW113295   5.137   2.203   4.193
 4132SOL    HW213296   5.025   2.088   4.224
 4133SOL     OW13297   2.854   2.193   1.089
 4133SOL    HW113298   2.798   2.192   1.172
 4133SOL    HW213299   2.868   2.287   1.060
 4134SOL     OW13300   1.120   1.488   0.011
 4134SOL    HW113301   1.055   1.485   6.957
 4134SOL    HW213302   1.105   1.409   0.070
 4135SOL     OW13303   1.241   0.752   0.848
 4135SOL    HW113304   1.337   0.735   0.873
 4135SOL    HW213305   1.181   0.719   0.921
 4136SOL     OW13306   0.991   1.611   2.995
 4136SOL    HW113307   0.895   1.590   2.980
 4136SOL    HW213308   1.034   1.637   2.908
 4137SOL     OW13309   3.744   3.863   5.321
 4137SOL    HW113310   3.809   3.818   5.259
 4137SOL    HW213311   3.793   3.903   5.398
 4138SOL     OW13312   4.154   5.317   2.917
 4138SOL    HW113313   4.160   5.322   3.017
 4138SOL    HW213314   4.059   5.299   2.891
 4139SOL     OW13315   2.090   0.990   0.213
 4139SOL    HW113316   2.181   1.029   0.222
 4139SOL    HW213317   2.082   0.945   0.123
 4140SOL     OW13318   4.495   1.531   5.451
 4140SOL    HW113319   4.420   1.467   5.469
 4140SOL    HW213320   4.582   1.481   5.453
 4141SOL     OW13321   5.531   5.691   0.756
 4141SOL    HW113322   5.494   5.696   0.849
 4141SOL    HW213323   5.459   5.661   0.693
 4142SOL     OW13324   6.206   3.199   1.841
 4142SOL    HW113325   6.113   3.227   1.868
 4142SOL    HW213326   6.235   3.252   1.762
 4143SOL     OW13327   0.309   2.198   1.421
 4143SOL    HW113328   0.347   2.138   1.350
 4143SOL    HW213329   0.222   2.160   1.452
 4144SOL     OW13330   4.495   0.930   2.416
 4144SOL    HW113331   4.541   0.866   2.477
 4144SOL    HW213332   4.549   1.015   2.409
 4145SOL     OW13333   3.005   0.073   2.779
 4145SOL    HW113334   3.001   0.099   2.682
 4145SOL    HW213335   2.995   6.997   2.787
 4146SOL     OW13336   5.036   5.404   0.467
 4146SOL    HW113337   5.008   5.308   0.474
 4146SOL    HW213338   5.026   5.448   0.556
 4147SOL     OW13339   3.159   2.504   5.574
 4147SOL    HW113340   3.214   2.446   5.634
 4147SOL    HW213341   3.117   2.577   5.628
 4148SOL     OW13342   5.886   6.969   2.850
 4148SOL    HW113343   5.808   6.946   2.907
 4148SOL    HW213344   5.970   6.960   2.903
 4149SOL     OW13345   5.302   4.386   1.535
 4149SOL    HW113346   5.359   4.320   1.485
 4149SOL    HW213347   5.275   4.460   1.474
 4150SOL     OW13348   5.100   0.411   5.734
 4150SOL    HW113349   5.162   0.487   5.717
 4150SOL    HW213350   5.153   0.329   5.756
 4151SOL     OW13351   7.019   5.131   0.598
 4151SOL    HW113352   6.920   5.142   0.611
 4151SOL    HW213353   0.025   5.042   0.632
 4152SOL     OW13354   3.827   4.545   1.121
 4152SOL    HW113355   3.803   4.562   1.216
 4152SOL    HW213356   3.752   4.498   1.075
 4153SOL     OW13357   6.242   5.584   6.146
 4153SOL    HW113358   6.286   5.586   6.236
 4153SOL    HW213359   6.181   5.663   6.138
 4154SOL     OW13360   4.622   2.832   5.614
 4154SOL    HW113361   4.588   2.843   5.520
 4154SOL    HW213362   4.709   2.783   5.612
 4155SOL     OW13363   1.365   3.089   1.587
 4155SOL    HW113364   1.277   3.058   1.550
 4155SOL    HW213365   1.410   3.012   1.633
 4156SOL     OW13366   6.293   0.056   5.763
 4156SOL    HW113367   6.244   0.124   5.708
 4156SOL    HW213368   6.327   7.006   5.703
 4157SOL     OW13369   3.338   0.397   4.798
 4157SOL    HW113370   3.313   0.446   4.882
 4157SOL    HW213371   3.275   0.422   4.725
 4158SOL     OW13372   1.110   7.003   4.651
 4158SOL    HW113373   1.088   6.971   4.559
 4158SOL    HW213374   1.208   6.994   4.667
 4159SOL     OW13375   0.778   3.237   5.204
 4159SOL    HW113376   0.803   3.170   5.274
 4159SOL    HW213377   0.804   3.329   5.233
 4160SOL     OW13378   1.454   1.031   0.853
 4160SOL    HW113379   1.424   1.125   0.836
 4160SOL    HW213380   1.497   0.994   0.771
 4161SOL     OW13381   6.129   1.900   0.536
 4161SOL    HW113382   6.088   1.989   0.515
 4161SOL    HW213383   6.066   1.848   0.594
 4162SOL     OW13384   6.786   0.112   5.371
 4162SOL    HW113385   6.718   0.075   5.435
 4162SOL    HW213386   6.876   0.075   5.393
 4163SOL     OW13387   6.253   1.046   3.918
 4163SOL    HW113388   6.255   0.994   4.003
 4163SOL    HW213389   6.195   0.998   3.851
 4164SOL     OW13390   2.278   0.138   6.443
 4164SOL    HW113391   2.369   0.128   6.485
 4164SOL    HW213392   2.246   0.049   6.411
 4165SOL     OW13393   2.985   5.980   2.749
 4165SOL    HW113394   2.994   6.070   2.792
 4165SOL    HW213395   2.918   5.926   2.800
 4166SOL     OW13396   6.163   2.756   1.003
 4166SOL    HW113397   6.206   2.835   1.046
 4166SOL    HW213398   6.133   2.692   1.073
 4167SOL     OW13399   2.285   3.206   1.332
 4167SOL    HW113400   2.227   3.245   1.404
 4167SOL    HW213401   2.232   3.200   1.247
 4168SOL     OW13402   1.651   4.639   1.105
 4168SOL    HW113403   1.557   4.667   1.090
 4168SOL    HW213404   1.675   4.565   1.042
 4169SOL     OW13405   6.393   3.674   4.713
 4169SOL    HW113406   6.406   3.647   4.808
 4169SOL    HW213407   6.298   3.699   4.697
 4170SOL     OW13408   4.298   2.392   5.336
 4170SOL    HW113409   4.260   2.460   5.274
 4170SOL    HW213410   4.307   2.304   5.288
 4171SOL     OW13411   5.641   3.411   1.533
 4171SOL    HW113412   5.649   3.313   1.515
 4171SOL    HW213413   5.677   3.431   1.625
 4172SOL     OW13414   2.500   1.455   0.017
 4172SOL    HW113415   2.418   1.498   7.000
 4172SOL    HW213416   2.485   1.436   0.114
 4173SOL     OW13417   5.644   3.468   5.366
 4173SOL    HW113418   5.713   3.451   5.436
 4173SOL    HW213419   5.569   3.402   5.376
 4174SOL     OW13420   4.996   0.641   4.253
 4174SOL    HW113421   4.951   0.568   4.305
 4174SOL    HW213422   5.080   0.669   4.300
 4175SOL     OW13423   3.567   1.575   3.523
 4175SOL    HW113424   3.483   1.626   3.503
 4175SOL    HW213425   3.592   1.589   3.619
 4176SOL     OW13426   6.324   5.564   2.736
 4176SOL    HW113427   6.376   5.608   2.663
 4176SOL    HW213428   6.283   5.634   2.795
 4177SOL     OW13429   6.905   5.319   2.582
 4177SOL    HW113430   6.973   5.391   2.568
 4177SOL    HW213431   6.932   5.262   2.660
 4178SOL     OW13432   4.007   2.520   6.174
 4178SOL    HW113433   3.922   2.524   6.121
 4178SOL    HW213434   4.076   2.470   6.123
 4179SOL     OW13435   6.254   2.909   6.077
 4179SOL    HW113436   6.206   2.996   6.093
 4179SOL    HW213437   6.304   2.883   6.160
 4180SOL     OW13438   4.234   3.625   1.091
 4180SOL    HW113439   4.143   3.583   1.096
 4180SOL    HW213440   4.304   3.555   1.086
 4181SOL     OW13441   7.014   1.055   0.260
 4181SOL    HW113442   0.028   1.120   0.194
 4181SOL    HW213443   0.067   0.998   0.294
 4182SOL     OW13444   5.808   1.217   3.705
 4182SOL    HW113445   5.774   1.283   3.772
 4182SOL    HW213446   5.906   1.233   3.690
 4183SOL     OW13447   1.790   1.823   1.119
 4183SOL    HW113448   1.766   1.763   1.196
 4183SOL    HW213449   1.838   1.904   1.154
 4184SOL     OW13450   3.941   5.235   0.410
 4184SOL    HW113451   3.974   5.325   0.384
 4184SOL    HW213452   3.850   5.243   0.452
 4185SOL     OW13453   0.086   6.797   4.256
 4185SOL    HW113454   0.039   6.806   4.169
 4185SOL    HW213455   0.108   6.700   4.272
 4186SOL     OW13456   3.720   4.222   1.795
 4186SOL    HW113457   3.714   4.122   1.803
 4186SOL    HW213458   3.760   4.259   1.878
 4187SOL     OW13459   4.238   4.751   6.317
 4187SOL    HW113460   4.287   4.822   6.265
 4187SOL    HW213461   4.256   4.662   6.277
 4188SOL     OW13462   4.916   6.308   4.847
 4188SOL    HW113463   4.997   6.251   4.859
 4188SOL    HW213464   4.918   6.349   4.755
 4189SOL     OW13465   1.717   3.057   3.109
 4189SOL    HW113466   1.807   3.063   3.067
 4189SOL    HW213467   1.719   2.989   3.182
 4190SOL     OW13468   3.477   6.950   1.568
 4190SOL    HW113469   3.396   6.891   1.569
 4190SOL    HW213470   3.480   7.002   1.483
 4191SOL     OW13471   0.175   2.804   2.058
 4191SOL    HW113472   0.107   2.804   2.131
 4191SOL    HW213473   0.161   2.885   2.000
 4192SOL     OW13474   5.783   1.252   2.931
 4192SOL    HW113475   5.711   1.188   2.907
 4192SOL    HW213476   5.765   1.290   3.022
 4193SOL     OW13477   2.238   6.681   2.437
 4193SOL    HW113478   2.224   6.744   2.361
 4193SOL    HW213479   2.217   6.588   2.407
 4194SOL     OW13480   0.215   1.126   3.587
 4194SOL    HW113481   0.148   1.108   3.515
 4194SOL    HW213482   0.200   1.064   3.664
 4195SOL     OW13483   5.189   0.759   2.851
 4195SOL    HW113484   5.144   0.673   2.875
 4195SOL    HW213485   5.159   0.831   2.914
 4196SOL     OW13486   4.581   2.283   2.938
 4196SOL    HW113487   4.558   2.187   2.957
 4196SOL    HW213488   4.499   2.339   2.946
 4197SOL     OW13489   4.809   4.010   4.249
 4197SOL    HW113490   4.856   3.937   4.200
 4197SOL    HW213491   4.710   3.996   4.243
 4198SOL     OW13492   5.383   4.054   5.921
 4198SOL    HW113493   5.332   4.074   5.837
 4198SOL    HW213494   5.358   3.963   5.954
 4199SOL     OW13495   3.306   3.854   5.172
 4199SOL    HW113496   3.220   3.832   5.126
 4199SOL    HW213497   3.351   3.769   5.199
 4200SOL     OW13498   2.256   7.016   5.816
 4200SOL    HW113499   2.252   0.091   5.795
 4200SOL    HW213500   2.307   7.001   5.900
 4201SOL     OW13501   6.254   6.935   4.796
 4201SOL    HW113502   6.234   6.902   4.703
 4201SOL    HW213503   6.186   6.897   4.859
 4202SOL     OW13504   5.686   3.710   4.975
 4202SOL    HW113505   5.633   3.722   5.059
 4202SOL    HW213506   5.628   3.728   4.896
 4203SOL     OW13507   4.885   5.286   3.878
 4203SOL    HW113508   4.870   5.323   3.786
 4203SOL    HW213509   4.872   5.359   3.945
 4204SOL     OW13510   2.384   4.338   0.897
 4204SOL    HW113511   2.342   4.268   0.955
 4204SOL    HW213512   2.385   4.425   0.946
 4205SOL     OW13513   2.565   5.566   3.367
 4205SOL    HW113514   2.648   5.535   3.321
 4205SOL    HW213515   2.590   5.615   3.451
 4206SOL     OW13516   5.866   0.059   4.632
 4206SOL    HW113517   5.794   0.061   4.701
 4206SOL    HW213518   5.860   6.995   4.581
 4207SOL     OW13519   0.753   0.705   0.918
 4207SOL    HW113520   0.711   0.648   0.847
 4207SOL    HW213521   0.707   0.688   1.005
 4208SOL     OW13522   0.963   2.762   0.383
 4208SOL    HW113523   0.936   2.713   0.465
 4208SOL    HW213524   0.973   2.860   0.404
 4209SOL     OW13525   2.533   0.737   4.941
 4209SOL    HW113526   2.493   0.690   4.862
 4209SOL    HW213527   2.516   0.835   4.933
 4210SOL     OW13528   5.251   2.365   0.096
 4210SOL    HW113529   5.251   2.349   0.194
 4210SOL    HW213530   5.236   2.463   0.078
 4211SOL     OW13531   4.878   3.399   3.860
 4211SOL    HW113532   4.857   3.301   3.853
 4211SOL    HW213533   4.884   3.425   3.956
 4212SOL     OW13534   6.391   6.613   3.033
 4212SOL    HW113535   6.390   6.550   3.110
 4212SOL    HW213536   6.467   6.677   3.044
 4213SOL     OW13537   0.767   0.073   1.693
 4213SOL    HW113538   0.799   7.001   1.701
 4213SOL    HW213539   0.826   0.123   1.631
 4214SOL     OW13540   2.129   4.697   4.984
 4214SOL    HW113541   2.100   4.611   5.027
 4214SOL    HW213542   2.227   4.711   5.000
 4215SOL     OW13543   0.729   5.556   5.470
 4215SOL    HW113544   0.631   5.574   5.473
 4215SOL    HW213545   0.745   5.461   5.443
 4216SOL     OW13546   2.691   3.247   5.310
 4216SOL    HW113547   2.643   3.197   5.239
 4216SOL    HW213548   2.776   3.200   5.333
 4217SOL     OW13549   0.174   0.836   2.986
 4217SOL    HW113550   0.137   0.924   3.013
 4217SOL    HW213551   0.250   0.850   2.923
 4218SOL     OW13552   2.996   6.256   2.439
 4218SOL    HW113553   2.902   6.237   2.413
 4218SOL    HW213554   3.000   6.339   2.493
 4219SOL     OW13555   5.085   6.894   3.097
 4219SOL    HW113556   5.103   6.924   3.190
 4219SOL    HW213557   5.039   6.968   3.047
 4220SOL     OW13558   0.844   4.064   3.423
 4220SOL    HW113559   0.907   4.129   3.467
 4220SOL    HW213560   0.784   4.024   3.492
 4221SOL     OW13561   5.415   5.889   5.945
 4221SOL    HW113562   5.348   5.815   5.955
 4221SOL    HW213563   5.371   5.968   5.902
 4222SOL     OW13564   3.399   2.587   0.176
 4222SOL    HW113565   3.387   2.651   0.252
 4222SOL    HW213566   3.329   2.604   0.107
 4223SOL     OW13567   2.875   3.485   2.460
 4223SOL    HW113568   2.874   3.583   2.479
 4223SOL    HW213569   2.881   3.434   2.546
 4224SOL     OW13570   4.091   2.064   5.904
 4224SOL    HW113571   3.998   2.028   5.909
 4224SOL    HW213572   4.146   2.023   5.977
 4225SOL     OW13573   5.281   0.483   4.767
 4225SOL    HW113574   5.223   0.427   4.825
 4225SOL    HW213575   5.345   0.425   4.717
 4226SOL     OW13576   2.182   1.148   3.112
 4226SOL    HW113577   2.125   1.153   3.194
 4226SOL    HW213578   2.143   1.205   3.040
 4227SOL     OW13579   5.976   3.911   6.889
 4227SOL    HW113580   5.925   3.853   6.825
 4227SOL    HW213581   5.911   3.958   6.949
 4228SOL     OW13582   5.831   5.285   3.280
 4228SOL    HW113583   5.735   5.291   3.306
 4228SOL    HW213584   5.888   5.304   3.360
 4229SOL     OW13585   4.510   4.790   5.406
 4229SOL    HW113586   4.460   4.750   5.329
 4229SOL    HW213587   4.496   4.733   5.487
 4230SOL     OW13588   2.906   0.430   4.737
 4230SOL    HW113589   2.911   0.361   4.810
 4230SOL    HW213590   2.975   0.501   4.753
 4231SOL     OW13591   4.178   6.124   5.448
 4231SOL    HW113592   4.212   6.191   5.515
 4231SOL    HW213593   4.118   6.058   5.494
 4232SOL     OW13594   2.293   4.186   1.568
 4232SOL    HW113595   2.215   4.174   1.505
 4232SOL    HW213596   2.327   4.280   1.562
 4233SOL     OW13597   5.414   6.724   0.807
 4233SOL    HW113598   5.461   6.781   0.739
 4233SOL    HW213599   5.446   6.630   0.799
 4234SOL     OW13600   3.088   3.676   5.484
 4234SOL    HW113601   3.057   3.768   5.460
 4234SOL    HW213602   3.137   3.635   5.407
 4235SOL     OW13603   0.336   3.678   5.277
 4235SOL    HW113604   0.269   3.661   5.204
 4235SOL    HW213605   0.381   3.766   5.261
 4236SOL     OW13606   1.003   3.863   4.636
 4236SOL    HW113607   1.077   3.818   4.686
 4236SOL    HW213608   0.919   3.810   4.645
 4237SOL     OW13609   5.341   4.567   5.161
 4237SOL    HW113610   5.429   4.597   5.123
 4237SOL    HW213611   5.354   4.483   5.213
 4238SOL     OW13612   4.558   4.378   4.550
 4238SOL    HW113613   4.466   4.341   4.562
 4238SOL    HW213614   4.624   4.303   4.551
 4239SOL     OW13615   5.477   5.526   5.943
 4239SOL    HW113616   5.420   5.606   5.921
 4239SOL    HW213617   5.419   5.446   5.956
 4240SOL     OW13618   2.590   5.037   6.376
 4240SOL    HW113619   2.509   5.080   6.337
 4240SOL    HW213620   2.561   4.965   6.440
 4241SOL     OW13621   4.152   1.556   0.073
 4241SOL    HW113622   4.071   1.595   0.116
 4241SOL    HW213623   4.233   1.610   0.098
 4242SOL     OW13624   1.405   0.476   2.562
 4242SOL    HW113625   1.471   0.410   2.599
 4242SOL    HW213626   1.365   0.440   2.478
 4243SOL     OW13627   1.406   2.839   2.981
 4243SOL    HW113628   1.398   2.912   3.050
 4243SOL    HW213629   1.463   2.871   2.906
 4244SOL     OW13630   2.864   0.041   0.771
 4244SOL    HW113631   2.851   7.022   0.681
 4244SOL    HW213632   2.830   0.135   0.769
 4245SOL     OW13633   6.624   2.393   0.959
 4245SOL    HW113634   6.715   2.426   0.985
 4245SOL    HW213635   6.632   2.330   0.882
 4246SOL     OW13636   4.811   2.487   3.607
 4246SOL    HW113637   4.765   2.450   3.525
 4246SOL    HW213638   4.748   2.483   3.684
 4247SOL     OW13639   1.511   4.432   6.778
 4247SOL    HW113640   1.438   4.390   6.725
 4247SOL    HW213641   1.529   4.378   6.861
 4248SOL     OW13642   2.079   0.679   3.418
 4248SOL    HW113643   2.160   0.736   3.400
 4248SOL    HW213644   2.016   0.686   3.341
 4249SOL     OW13645   5.967   0.371   5.915
 4249SOL    HW113646   5.927   0.455   5.878
 4249SOL    HW213647   6.040   0.394   5.979
 4250SOL     OW13648   6.789   6.289   4.808
 4250SOL    HW113649   6.707   6.232   4.799
 4250SOL    HW213650   6.841   6.287   4.723
 4251SOL     OW13651   4.929   2.367   5.690
 4251SOL    HW113652   4.895   2.287   5.738
 4251SOL    HW213653   4.855   2.432   5.676
 4252SOL     OW13654   6.847   6.957   6.891
 4252SOL    HW113655   6.940   6.988   6.873
 4252SOL    HW213656   6.849   6.883   6.958
 4253SOL     OW13657   4.607   6.301   2.818
 4253SOL    HW113658   4.597   6.379   2.881
 4253SOL    HW213659   4.689   6.249   2.843
 4254SOL     OW13660   1.583   2.227   6.092
 4254SOL    HW113661   1.532   2.269   6.166
 4254SOL    HW213662   1.619   2.297   6.031
 4255SOL     OW13663   0.608   2.830   3.140
 4255SOL    HW113664   0.688   2.860   3.089
 4255SOL    HW213665   0.592   2.733   3.123
 4256SOL     OW13666   6.985   6.091   0.916
 4256SOL    HW113667   6.988   6.049   0.825
 4256SOL    HW213668   6.921   6.040   0.974
 4257SOL     OW13669   6.316   1.022   3.550
 4257SOL    HW113670   6.308   0.938   3.604
 4257SOL    HW213671   6.278   1.007   3.458
 4258SOL     OW13672   2.820   5.656   0.883
 4258SOL    HW113673   2.790   5.742   0.843
 4258SOL    HW213674   2.900   5.622   0.835
 4259SOL     OW13675   1.188   0.331   0.710
 4259SOL    HW113676   1.259   0.280   0.759
 4259SOL    HW213677   1.156   0.277   0.632
 4260SOL     OW13678   6.022   0.608   4.895
 4260SOL    HW113679   5.964   0.594   4.815
 4260SOL    HW213680   6.076   0.525   4.912
 4261SOL     OW13681   2.336   6.135   4.485
 4261SOL    HW113682   2.436   6.138   4.476
 4261SOL    HW213683   2.304   6.222   4.522
 4262SOL     OW13684   2.216   5.090   5.050
 4262SOL    HW113685   2.271   5.049   4.977
 4262SOL    HW213686   2.243   5.052   5.138
 4263SOL     OW13687   2.501   1.541   3.571
 4263SOL    HW113688   2.408   1.567   3.596
 4263SOL    HW213689   2.565   1.574   3.640
 4264SOL     OW13690   4.477   2.173   5.898
 4264SOL    HW113691   4.450   2.091   5.948
 4264SOL    HW213692   4.411   2.192   5.826
 4265SOL     OW13693   2.308   6.530   6.255
 4265SOL    HW113694   2.251   6.612   6.248
 4265SOL    HW213695   2.249   6.450   6.268
 4266SOL     OW13696   1.291   5.231   1.813
 4266SOL    HW113697   1.340   5.316   1.794
 4266SOL    HW213698   1.256   5.193   1.727
 4267SOL     OW13699   1.163   3.974   4.187
 4267SOL    HW113700   1.065   3.991   4.195
 4267SOL    HW213701   1.179   3.875   4.187
 4268SOL     OW13702   1.012   4.754   5.917
 4268SOL    HW113703   1.081   4.742   5.846
 4268SOL    HW213704   0.938   4.689   5.903
 4269SOL     OW13705   3.013   1.311   4.332
 4269SOL    HW113706   3.040   1.386   4.393
 4269SOL    HW213707   3.086   1.293   4.267
 4270SOL     OW13708   4.010   3.637   0.168
 4270SOL    HW113709   4.079   3.705   0.142
 4270SOL    HW213710   3.952   3.674   0.241
 4271SOL     OW13711   0.148   0.312   1.225
 4271SOL    HW113712   0.069   0.253   1.239
 4271SOL    HW213713   0.176   0.310   1.129
 4272SOL     OW13714   7.000   1.540   5.732
 4272SOL    HW113715   0.075   1.565   5.735
 4272SOL    HW213716   6.960   1.573   5.647
 4273SOL     OW13717   2.793   6.073   3.789
 4273SOL    HW113718   2.783   5.982   3.830
 4273SOL    HW213719   2.850   6.130   3.849
 4274SOL     OW13720   0.816   1.311   1.764
 4274SOL    HW113721   0.884   1.364   1.815
 4274SOL    HW213722   0.839   1.313   1.667
 4275SOL     OW13723   0.107   2.431   3.964
 4275SOL    HW113724   0.196   2.394   3.991
 4275SOL    HW213725   0.052   2.448   4.046
 4276SOL     OW13726   1.588   6.590   2.979
 4276SOL    HW113727   1.534   6.590   2.895
 4276SOL    HW213728   1.639   6.504   2.985
 4277SOL     OW13729   6.862   5.634   2.623
 4277SOL    HW113730   6.815   5.721   2.607
 4277SOL    HW213731   6.813   5.582   2.693
 4278SOL     OW13732   1.027   6.780   1.255
 4278SOL    HW113733   1.092   6.745   1.323
 4278SOL    HW213734   1.053   6.873   1.229
 4279SOL     OW13735   0.893   2.549   3.427
 4279SOL    HW113736   0.906   2.644   3.457
 4279SOL    HW213737   0.796   2.534   3.407
 4280SOL     OW13738   2.000   6.188   6.161
 4280SOL    HW113739   2.085   6.164   6.114
 4280SOL    HW213740   1.947   6.106   6.180
 4281SOL     OW13741   6.056   5.883   3.750
 4281SOL    HW113742   6.073   5.981   3.761
 4281SOL    HW213743   5.982   5.854   3.811
 4282SOL     OW13744   5.300   5.400   2.290
 4282SOL    HW113745   5.208   5.436   2.308
 4282SOL    HW213746   5.311   5.312   2.337
 4283SOL     OW13747   5.721   0.987   4.825
 4283SOL    HW113748   5.624   0.996   4.848
 4283SOL    HW213749   5.768   1.072   4.846
 4284SOL     OW13750   4.644   5.835   6.751
 4284SOL    HW113751   4.737   5.803   6.767
 4284SOL    HW213752   4.591   5.763   6.707
 4285SOL     OW13753   3.130   1.667   6.265
 4285SOL    HW113754   3.201   1.622   6.211
 4285SOL    HW213755   3.174   1.726   6.334
 4286SOL     OW13756   5.115   0.405   6.885
 4286SOL    HW113757   5.108   0.309   6.913
 4286SOL    HW213758   5.201   0.419   6.837
 4287SOL     OW13759   3.281   0.753   1.283
 4287SOL    HW113760   3.330   0.691   1.220
 4287SOL    HW213761   3.217   0.808   1.231
 4288SOL     OW13762   6.867   6.047   2.027
 4288SOL    HW113763   6.960   6.013   2.044
 4288SOL    HW213764   6.802   5.971   2.035
 4289SOL     OW13765   0.056   4.448   5.261
 4289SOL    HW113766   0.070   4.350   5.277
 4289SOL    HW213767   7.007   4.460   5.193
 4290SOL     OW13768   0.017   1.589   3.181
 4290SOL    HW113769   6.969   1.655   3.208
 4290SOL    HW213770   0.106   1.620   3.213
 4291SOL     OW13771   4.132   4.909   6.529
 4291SOL    HW113772   4.141   4.837   6.461
 4291SOL    HW213773   4.036   4.932   6.542
 4292SOL     OW13774   6.371   1.188   1.787
 4292SOL    HW113775   6.280   1.159   1.758
 4292SOL    HW213776   6.436   1.176   1.712
 4293SOL     OW13777   3.948   2.795   0.160
 4293SOL    HW113778   3.929   2.881   0.208
 4293SOL    HW213779   3.921   2.803   0.064
 4294SOL     OW13780   2.755   1.552   6.606
 4294SOL    HW113781   2.823   1.554   6.679
 4294SOL    HW213782   2.798   1.578   6.519
 4295SOL     OW13783   4.524   6.419   3.247
 4295SOL    HW113784   4.604   6.374   3.287
 4295SOL    HW213785   4.463   6.349   3.209
 4296SOL     OW13786   2.208   6.552   1.939
 4296SOL    HW113787   2.206   6.509   2.029
 4296SOL    HW213788   2.150   6.634   1.939
 4297SOL     OW13789   4.868   5.151   0.447
 4297SOL    HW113790   4.928   5.073   0.428
 4297SOL    HW213791   4.821   5.179   0.364
 4298SOL     OW13792   1.601   0.292   0.802
 4298SOL    HW113793   1.511   0.260   0.830
 4298SOL    HW213794   1.670   0.222   0.822
 4299SOL     OW13795   1.115   3.262   6.833
 4299SOL    HW113796   1.112   3.162   6.832
 4299SOL    HW213797   1.040   3.298   6.776
 4300SOL     OW13798   3.048   0.950   1.888
 4300SOL    HW113799   2.960   0.980   1.850
 4300SOL    HW213800   3.062   0.992   1.977
 4301SOL     OW13801   2.430   5.884   5.796
 4301SOL    HW113802   2.469   5.882   5.887
 4301SOL    HW213803   2.440   5.976   5.757
 4302SOL     OW13804   3.397   5.060   6.327
 4302SOL    HW113805   3.490   5.082   6.356
 4302SOL    HW213806   3.380   4.962   6.340
 4303SOL     OW13807   3.955   5.631   3.425
 4303SOL    HW113808   3.912   5.716   3.455
 4303SOL    HW213809   4.045   5.621   3.468
 4304SOL     OW13810   3.104   4.106   1.876
 4304SOL    HW113811   3.027   4.168   1.892
 4304SOL    HW213812   3.128   4.061   1.962
 4305SOL     OW13813   0.659   6.214   6.498
 4305SOL    HW113814   0.574   6.229   6.448
 4305SOL    HW213815   0.720   6.292   6.485
 4306SOL     OW13816   5.811   3.361   5.138
 4306SOL    HW113817   5.739   3.395   5.077
 4306SOL    HW213818   5.841   3.435   5.199
 4307SOL     OW13819   6.943   1.332   5.457
 4307SOL    HW113820   6.864   1.321   5.517
 4307SOL    HW213821   7.017   1.377   5.506
 4308SOL     OW13822   4.184   5.927   6.366
 4308SOL    HW113823   4.224   5.955   6.454
 4308SOL    HW213824   4.167   5.829   6.367
 4309SOL     OW13825   1.887   1.513   0.369
 4309SOL    HW113826   1.804   1.462   0.349
 4309SOL    HW213827   1.864   1.609   0.386
 4310SOL     OW13828   6.216   2.194   2.754
 4310SOL    HW113829   6.292   2.201   2.689
 4310SOL    HW213830   6.141   2.143   2.713
 4311SOL     OW13831   0.964   0.292   1.632
 4311SOL    HW113832   1.035   0.299   1.701
 4311SOL    HW213833   0.981   0.359   1.559
 4312SOL     OW13834   6.940   3.622   1.831
 4312SOL    HW113835   6.923   3.706   1.883
 4312SOL    HW213836   6.872   3.613   1.758
 4313SOL     OW13837   0.964   3.891   6.495
 4313SOL    HW113838   0.990   3.802   6.533
 4313SOL    HW213839   1.015   3.907   6.411
 4314SOL     OW13840   1.322   1.015   5.557
 4314SOL    HW113841   1.417   0.986   5.571
 4314SOL    HW213842   1.312   1.111   5.582
 4315SOL     OW13843   2.665   2.201   5.610
 4315SOL    HW113844   2.664   2.300   5.620
 4315SOL    HW213845   2.748   2.164   5.652
 4316SOL     OW13846   4.027   5.548   1.935
 4316SOL    HW113847   4.105   5.504   1.979
 4316SOL    HW213848   4.030   5.532   1.837
 4317SOL     OW13849   5.029   0.710   4.935
 4317SOL    HW113850   5.009   0.654   4.855
 4317SOL    HW213851   4.984   0.799   4.925
 4318SOL     OW13852   1.477   6.451   4.542
 4318SOL    HW113853   1.517   6.398   4.617
 4318SOL    HW213854   1.400   6.399   4.502
 4319SOL     OW13855   1.335   4.273   2.415
 4319SOL    HW113856   1.309   4.248   2.322
 4319SOL    HW213857   1.419   4.225   2.440
 4320SOL     OW13858   3.136   0.157   0.688
 4320SOL    HW113859   3.061   0.101   0.724
 4320SOL    HW213860   3.122   0.252   0.715
 4321SOL     OW13861   6.659   6.445   3.096
 4321SOL    HW113862   6.652   6.520   3.030
 4321SOL    HW213863   6.755   6.423   3.112
 4322SOL     OW13864   1.909   1.666   4.355
 4322SOL    HW113865   1.812   1.642   4.352
 4322SOL    HW213866   1.963   1.584   4.370
 4323SOL     OW13867   4.577   4.948   0.184
 4323SOL    HW113868   4.516   4.919   0.259
 4323SOL    HW213869   4.662   4.897   0.189
 4324SOL     OW13870   0.575   4.682   5.726
 4324SOL    HW113871   0.502   4.618   5.750
 4324SOL    HW213872   0.571   4.702   5.628
 4325SOL     OW13873   2.002   6.574   1.575
 4325SOL    HW113874   1.908   6.585   1.544
 4325SOL    HW213875   2.055   6.655   1.548
 4326SOL     OW13876   4.633   2.634   2.574
 4326SOL    HW113877   4.667   2.579   2.650
 4326SOL    HW213878   4.568   2.580   2.521
 4327SOL     OW13879   2.358   5.752   3.631
 4327SOL    HW113880   2.301   5.765   3.549
 4327SOL    HW213881   2.304   5.775   3.712
 4328SOL     OW13882   6.141   0.548   3.621
 4328SOL    HW113883   6.148   0.615   3.547
 4328SOL    HW213884   6.162   0.457   3.585
 4329SOL     OW13885   6.467   3.519   6.666
 4329SOL    HW113886   6.373   3.528   6.699
 4329SOL    HW213887   6.484   3.424   6.640
 4330SOL     OW13888   2.666   4.763   4.393
 4330SOL    HW113889   2.691   4.681   4.443
 4330SOL    HW213890   2.632   4.833   4.456
 4331SOL     OW13891   5.820   1.866   2.342
 4331SOL    HW113892   5.747   1.923   2.379
 4331SOL    HW213893   5.883   1.841   2.415
 4332SOL     OW13894   0.015   5.639   1.570
 4332SOL    HW113895   6.939   5.630   1.583
 4332SOL    HW213896   0.039   5.608   1.478
 4333SOL     OW13897   4.009   2.960   6.054
 4333SOL    HW113898   4.018   3.001   5.963
 4333SOL    HW213899   3.926   2.904   6.058
 4334SOL     OW13900   0.080   3.054   3.786
 4334SOL    HW113901   0.097   3.139   3.736
 4334SOL    HW213902   7.020   3.063   3.842
 4335SOL     OW13903   2.350   4.089   1.932
 4335SOL    HW113904   2.433   4.067   1.881
 4335SOL    HW213905   2.281   4.019   1.916
 4336SOL     OW13906   2.602   5.329   5.513
 4336SOL    HW113907   2.530   5.279   5.465
 4336SOL    HW213908   2.690   5.283   5.499
 4337SOL     OW13909   6.821   4.683   3.461
 4337SOL    HW113910   6.735   4.640   3.490
 4337SOL    HW213911   6.801   4.773   3.421
 4338SOL     OW13912   2.893   2.430   6.041
 4338SOL    HW113913   2.875   2.528   6.045
 4338SOL    HW213914   2.952   2.403   6.117
 4339SOL     OW13915   4.062   4.958   4.799
 4339SOL    HW113916   4.130   4.925   4.865
 4339SOL    HW213917   3.982   4.991   4.848
 4340SOL     OW13918   0.286   4.417   1.034
 4340SOL    HW113919   0.206   4.472   1.009
 4340SOL    HW213920   0.257   4.340   1.091
 4341SOL     OW13921   6.106   5.965   1.429
 4341SOL    HW113922   6.181   5.900   1.443
 4341SOL    HW213923   6.025   5.934   1.479
 4342SOL     OW13924   5.506   3.047   2.666
 4342SOL    HW113925   5.548   3.052   2.576
 4342SOL    HW213926   5.489   2.952   2.690
 4343SOL     OW13927   3.454   0.371   6.367
 4343SOL    HW113928   3.553   0.359   6.359
 4343SOL    HW213929   3.410   0.347   6.281
 4344SOL     OW13930   0.607   4.131   3.056
 4344SOL    HW113931   0.522   4.110   3.104
 4344SOL    HW213932   0.587   4.159   2.963
 4345SOL     OW13933   3.851   3.589   2.673
 4345SOL    HW113934   3.865   3.495   2.641
 4345SOL    HW213935   3.776   3.591   2.740
 4346SOL     OW13936   0.756   3.076   2.728
 4346SOL    HW113937   0.827   3.141   2.702
 4346SOL    HW213938   0.667   3.121   2.726
 4347SOL     OW13939   6.322   5.235   0.493
 4347SOL    HW113940   6.240   5.270   0.538
 4347SOL    HW213941   6.357   5.155   0.543
 4348SOL     OW13942   5.914   5.018   5.458
 4348SOL    HW113943   5.860   4.949   5.506
 4348SOL    HW213944   5.980   5.058   5.522
 4349SOL     OW13945   0.767   3.586   3.972
 4349SOL    HW113946   0.764   3.538   4.060
 4349SOL    HW213947   0.838   3.657   3.975
 4350SOL     OW13948   4.091   1.017   4.166
 4350SOL    HW113949   4.053   0.934   4.128
 4350SOL    HW213950   4.051   1.097   4.121
 4351SOL     OW13951   0.373   5.515   0.975
 4351SOL    HW113952   0.318   5.597   0.991
 4351SOL    HW213953   0.446   5.536   0.910
 4352SOL     OW13954   3.697   5.026   1.926
 4352SOL    HW113955   3.660   4.950   1.979
 4352SOL    HW213956   3.622   5.077   1.884
 4353SOL     OW13957   3.077   3.221   0.858
 4353SOL    HW113958   3.065   3.295   0.924
 4353SOL    HW213959   3.132   3.253   0.781
 4354SOL     OW13960   5.731   6.000   2.532
 4354SOL    HW113961   5.813   6.046   2.498
 4354SOL    HW213962   5.650   6.034   2.482
 4355SOL     OW13963   2.234   4.828   2.882
 4355SOL    HW113964   2.222   4.736   2.844
 4355SOL    HW213965   2.224   4.895   2.808
 4356SOL     OW13966   6.041   2.695   5.623
 4356SOL    HW113967   6.077   2.775   5.671
 4356SOL    HW213968   6.109   2.622   5.623
 4357SOL     OW13969   5.733   6.743   1.786
 4357SOL    HW113970   5.696   6.683   1.857
 4357SOL    HW213971   5.800   6.805   1.826
 4358SOL     OW13972   2.894   1.163   0.264
 4358SOL    HW113973   2.949   1.230   0.213
 4358SOL    HW213974   2.926   1.071   0.242
 4359SOL     OW13975   2.408   2.158   1.059
 4359SOL    HW113976   2.453   2.127   0.975
 4359SOL    HW213977   2.476   2.192   1.123
 4360SOL     OW13978   2.197   5.670   4.179
 4360SOL    HW113979   2.102   5.639   4.188
 4360SOL    HW213980   2.258   5.591   4.177
 4361SOL     OW13981   0.673   1.960   0.397
 4361SOL    HW113982   0.599   2.027   0.387
 4361SOL    HW213983   0.747   1.983   0.333
 4362SOL     OW13984   0.821   5.127   3.167
 4362SOL    HW113985   0.902   5.166   3.211
 4362SOL    HW213986   0.822   5.028   3.179
 4363SOL     OW13987   3.732   0.933   2.056
 4363SOL    HW113988   3.792   0.902   1.982
 4363SOL    HW213989   3.787   0.969   2.131
 4364SOL     OW13990   2.991   3.919   2.771
 4364SOL    HW113991   3.038   3.945   2.856
 4364SOL    HW213992   2.916   3.983   2.754
 4365SOL     OW13993   2.043   0.926   1.087
 4365SOL    HW113994   2.007   0.989   1.156
 4365SOL    HW213995   2.060   0.837   1.130
 4366SOL     OW13996   5.046   6.670   4.560
 4366SOL    HW113997   5.037   6.762   4.597
 4366SOL    HW213998   5.138   6.636   4.579
 4367SOL     OW13999   2.282   6.098   2.525
 4367SOL    HW114000   2.238   6.014   2.492
 4367SOL    HW214001   2.227   6.176   2.497
 4368SOL     OW14002   4.803   3.973   3.876
 4368SOL    HW114003   4.821   3.907   3.949
 4368SOL    HW214004   4.799   3.926   3.788
 4369SOL     OW14005   5.490   3.992   3.736
 4369SOL    HW114006   5.459   3.898   3.731
 4369SOL    HW214007   5.476   4.037   3.647
 4370SOL     OW14008   4.108   4.705   0.815
 4370SOL    HW114009   4.061   4.618   0.811
 4370SOL    HW214010   4.046   4.776   0.848
 4371SOL     OW14011   3.220   0.664   2.489
 4371SOL    HW114012   3.151   0.714   2.436
 4371SOL    HW214013   3.174   0.596   2.547
 4372SOL     OW14014   2.008   4.300   4.120
 4372SOL    HW114015   1.926   4.244   4.106
 4372SOL    HW214016   1.981   4.393   4.144
 4373SOL     OW14017   4.425   0.807   0.241
 4373SOL    HW114018   4.346   0.801   0.181
 4373SOL    HW214019   4.489   0.733   0.221
 4374SOL     OW14020   2.476   6.669   0.222
 4374SOL    HW114021   2.423   6.680   0.138
 4374SOL    HW214022   2.438   6.728   0.293
 4375SOL     OW14023   4.145   1.335   5.987
 4375SOL    HW114024   4.191   1.368   5.904
 4375SOL    HW214025   4.117   1.240   5.973
 4376SOL     OW14026   2.196   5.352   0.186
 4376SOL    HW114027   2.219   5.261   0.222
 4376SOL    HW214028   2.250   5.421   0.233
 4377SOL     OW14029   5.037   6.069   0.159
 4377SOL    HW114030   5.069   6.018   0.079
 4377SOL    HW214031   5.009   6.161   0.130
 4378SOL     OW14032   2.830   4.888   2.870
 4378SOL    HW114033   2.803   4.853   2.960
 4378SOL    HW214034   2.776   4.969   2.848
 4379SOL     OW14035   0.642   6.742   1.400
 4379SOL    HW114036   0.580   6.813   1.434
 4379SOL    HW214037   0.607   6.706   1.314
 4380SOL     OW14038   1.939   5.567   4.262
 4380SOL    HW114039   1.940   5.472   4.233
 4380SOL    HW214040   1.850   5.589   4.302
 4381SOL     OW14041   4.927   5.514   5.245
 4381SOL    HW114042   4.991   5.573   5.196
 4381SOL    HW214043   4.861   5.476   5.180
 4382SOL     OW14044   5.362   3.819   3.241
 4382SOL    HW114045   5.282   3.859   3.285
 4382SOL    HW214046   5.336   3.781   3.152
 4383SOL     OW14047   0.936   1.542   0.308
 4383SOL    HW114048   0.967   1.637   0.312
 4383SOL    HW214049   0.943   1.500   0.398
 4384SOL     OW14050   3.945   6.667   1.231
 4384SOL    HW114051   3.922   6.721   1.150
 4384SOL    HW214052   3.957   6.571   1.205
 4385SOL     OW14053   6.181   2.394   2.291
 4385SOL    HW114054   6.225   2.433   2.372
 4385SOL    HW214055   6.176   2.295   2.301
 4386SOL     OW14056   1.549   4.070   0.036
 4386SOL    HW114057   1.555   3.971   0.050
 4386SOL    HW214058   1.474   4.107   0.090
 4387SOL     OW14059   6.695   2.710   1.826
 4387SOL    HW114060   6.609   2.692   1.777
 4387SOL    HW214061   6.765   2.647   1.794
 4388SOL     OW14062   3.644   1.696   5.681
 4388SOL    HW114063   3.680   1.746   5.602
 4388SOL    HW214064   3.640   1.756   5.760
 4389SOL     OW14065   5.872   2.248   2.438
 4389SOL    HW114066   5.898   2.345   2.439
 4389SOL    HW214067   5.855   2.218   2.345
 4390SOL     OW14068   4.305   2.437   1.616
 4390SOL    HW114069   4.233   2.454   1.549
 4390SOL    HW214070   4.348   2.524   1.643
 4391SOL     OW14071   0.319   6.553   0.642
 4391SOL    HW114072   0.352   6.574   0.734
 4391SOL    HW214073   0.397   6.531   0.583
 4392SOL     OW14074   5.734   4.169   4.568
 4392SOL    HW114075   5.710   4.227   4.646
 4392SOL    HW214076   5.760   4.228   4.490
 4393SOL     OW14077   5.497   6.344   3.644
 4393SOL    HW114078   5.553   6.424   3.666
 4393SOL    HW214079   5.511   6.274   3.714
 4394SOL     OW14080   4.263   1.108   2.585
 4394SOL    HW114081   4.279   1.061   2.498
 4394SOL    HW214082   4.299   1.052   2.660
 4395SOL     OW14083   5.159   1.635   1.407
 4395SOL    HW114084   5.113   1.714   1.366
 4395SOL    HW214085   5.190   1.573   1.335
 4396SOL     OW14086   1.428   1.292   4.080
 4396SOL    HW114087   1.520   1.331   4.080
 4396SOL    HW214088   1.379   1.322   4.162
 4397SOL     OW14089   5.493   0.269   6.298
 4397SOL    HW114090   5.560   0.212   6.251
 4397SOL    HW214091   5.403   0.225   6.293
 4398SOL     OW14092   0.142   5.559   4.374
 4398SOL    HW114093   0.215   5.492   4.390
 4398SOL    HW214094   0.102   5.585   4.462
 4399SOL     OW14095   2.764   1.151   2.159
 4399SOL    HW114096   2.795   1.209   2.084
 4399SOL    HW214097   2.687   1.095   2.129
 4400SOL     OW14098   3.691   6.182   3.458
 4400SOL    HW114099   3.657   6.200   3.550
 4400SOL    HW214100   3.622   6.209   3.391
 4401SOL     OW14101   5.840   6.114   4.779
 4401SOL    HW114102   5.924   6.099   4.726
 4401SOL    HW214103   5.810   6.027   4.818
 4402SOL     OW14104   6.681   6.960   2.872
 4402SOL    HW114105   6.742   0.009   2.908
 4402SOL    HW214106   6.651   6.985   2.780
 4403SOL     OW14107   0.094   0.546   3.125
 4403SOL    HW114108   0.168   0.500   3.175
 4403SOL    HW214109   0.132   0.589   3.043
 4404SOL     OW14110   2.253   4.464   3.117
 4404SOL    HW114111   2.344   4.472   3.157
 4404SOL    HW214112   2.185   4.497   3.183
 4405SOL     OW14113   2.945   3.582   6.119
 4405SOL    HW114114   2.991   3.670   6.110
 4405SOL    HW214115   2.887   3.582   6.200
 4406SOL     OW14116   5.749   3.531   1.737
 4406SOL    HW114117   5.712   3.573   1.819
 4406SOL    HW214118   5.817   3.592   1.696
 4407SOL     OW14119   6.757   0.609   0.099
 4407SOL    HW114120   6.689   0.607   0.172
 4407SOL    HW214121   6.802   0.699   0.097
 4408SOL     OW14122   4.249   6.238   0.534
 4408SOL    HW114123   4.224   6.146   0.505
 4408SOL    HW214124   4.239   6.245   0.633
 4409SOL     OW14125   2.539   1.782   3.218
 4409SOL    HW114126   2.528   1.872   3.175
 4409SOL    HW214127   2.503   1.785   3.311
 4410SOL     OW14128   2.130   5.690   1.508
 4410SOL    HW114129   2.182   5.753   1.451
 4410SOL    HW214130   2.194   5.638   1.566
 4411SOL     OW14131   3.904   3.356   2.559
 4411SOL    HW114132   3.865   3.269   2.587
 4411SOL    HW214133   3.941   3.348   2.466
 4412SOL     OW14134   3.364   1.898   6.050
 4412SOL    HW114135   3.311   1.924   6.131
 4412SOL    HW214136   3.392   1.980   6.001
 4413SOL     OW14137   4.805   5.313   3.602
 4413SOL    HW114138   4.865   5.234   3.617
 4413SOL    HW214139   4.795   5.328   3.504
 4414SOL     OW14140   3.027   5.634   1.459
 4414SOL    HW114141   2.991   5.727   1.452
 4414SOL    HW214142   3.126   5.636   1.452
 4415SOL     OW14143   4.190   1.602   1.174
 4415SOL    HW114144   4.100   1.563   1.192
 4415SOL    HW214145   4.226   1.643   1.258
 4416SOL     OW14146   2.741   2.082   4.726
 4416SOL    HW114147   2.730   1.990   4.765
 4416SOL    HW214148   2.743   2.149   4.801
 4417SOL     OW14149   6.699   0.459   1.213
 4417SOL    HW114150   6.647   0.535   1.174
 4417SOL    HW214151   6.789   0.455   1.170
 4418SOL     OW14152   4.862   1.101   4.311
 4418SOL    HW114153   4.911   1.159   4.377
 4418SOL    HW214154   4.926   1.037   4.269
 4419SOL     OW14155   6.994   5.623   6.882
 4419SOL    HW114156   7.003   5.708   6.934
 4419SOL    HW214157   6.912   5.628   6.824
 4420SOL     OW14158   4.509   0.887   6.911
 4420SOL    HW114159   4.422   0.906   6.867
 4420SOL    HW214160   4.582   0.936   6.864
 4421SOL     OW14161   0.805   1.900   3.365
 4421SOL    HW114162   0.875   1.833   3.391
 4421SOL    HW214163   0.803   1.909   3.265
 4422SOL     OW14164   1.678   4.262   5.917
 4422SOL    HW114165   1.769   4.260   5.958
 4422SOL    HW214166   1.610   4.239   5.986
 4423SOL     OW14167   0.026   1.668   6.289
 4423SOL    HW114168   0.011   1.763   6.317
 4423SOL    HW214169   0.123   1.647   6.290
 4424SOL     OW14170   0.341   6.373   3.651
 4424SOL    HW114171   0.334   6.351   3.749
 4424SOL    HW214172   0.309   6.466   3.635
 4425SOL     OW14173   5.260   4.255   0.145
 4425SOL    HW114174   5.280   4.275   0.049
 4425SOL    HW214175   5.335   4.288   0.202
 4426SOL     OW14176   0.437   0.520   6.006
 4426SOL    HW114177   0.353   0.574   6.007
 4426SOL    HW214178   0.459   0.493   5.913
 4427SOL     OW14179   0.680   5.950   3.795
 4427SOL    HW114180   0.683   5.878   3.725
 4427SOL    HW214181   0.760   6.009   3.785
 4428SOL     OW14182   2.129   6.563   3.329
 4428SOL    HW114183   2.193   6.489   3.347
 4428SOL    HW214184   2.144   6.637   3.395
 4429SOL     OW14185   3.829   0.006   2.829
 4429SOL    HW114186   3.778   6.944   2.846
 4429SOL    HW214187   3.766   0.083   2.825
 4430SOL     OW14188   1.241   0.606   1.536
 4430SOL    HW114189   1.241   0.705   1.523
 4430SOL    HW214190   1.194   0.584   1.621
 4431SOL     OW14191   2.155   1.893   3.658
 4431SOL    HW114192   2.231   1.855   3.606
 4431SOL    HW214193   2.073   1.895   3.602
 4432SOL     OW14194   3.148   2.997   3.774
 4432SOL    HW114195   3.217   3.054   3.819
 4432SOL    HW214196   3.169   2.990   3.677
 4433SOL     OW14197   6.358   0.500   3.366
 4433SOL    HW114198   6.302   0.436   3.418
 4433SOL    HW214199   6.299   0.552   3.303
 4434SOL     OW14200   4.950   2.067   4.942
 4434SOL    HW114201   4.952   2.065   5.042
 4434SOL    HW214202   4.920   1.978   4.907
 4435SOL     OW14203   4.162   3.343   2.112
 4435SOL    HW114204   4.198   3.333   2.019
 4435SOL    HW214205   4.166   3.440   2.138
 4436SOL     OW14206   5.095   0.727   0.720
 4436SOL    HW114207   5.063   0.650   0.776
 4436SOL    HW214208   5.053   0.721   0.629
 4437SOL     OW14209   3.362   0.189   5.175
 4437SOL    HW114210   3.404   0.272   5.139
 4437SOL    HW214211   3.270   0.179   5.137
 4438SOL     OW14212   3.715   3.611   6.845
 4438SOL    HW114213   3.712   3.562   6.932
 4438SOL    HW214214   3.734   3.547   6.771
 4439SOL     OW14215   2.300   4.954   2.606
 4439SOL    HW114216   2.338   4.986   2.519
 4439SOL    HW214217   2.373   4.923   2.666
 4440SOL     OW14218   6.471   1.093   0.231
 4440SOL    HW114219   6.453   1.032   0.308
 4440SOL    HW214220   6.568   1.118   0.231
 4441SOL     OW14221   6.565   1.675   3.158
 4441SOL    HW114222   6.530   1.769   3.162
 4441SOL    HW214223   6.606   1.651   3.246
 4442SOL     OW14224   1.856   6.157   2.068
 4442SOL    HW114225   1.793   6.081   2.086
 4442SOL    HW214226   1.805   6.243   2.072
 4443SOL     OW14227   3.082   1.333   6.316
 4443SOL    HW114228   3.054   1.426   6.291
 4443SOL    HW214229   3.072   1.321   6.414
 4444SOL     OW14230   4.846   1.290   2.965
 4444SOL    HW114231   4.816   1.198   2.937
 4444SOL    HW214232   4.766   1.348   2.981
 4445SOL     OW14233   1.077   0.860   6.441
 4445SOL    HW114234   1.093   0.956   6.465
 4445SOL    HW214235   1.164   0.814   6.426
 4446SOL     OW14236   5.051   4.500   3.736
 4446SOL    HW114237   4.996   4.427   3.777
 4446SOL    HW214238   5.144   4.495   3.771
 4447SOL     OW14239   5.177   3.002   4.759
 4447SOL    HW114240   5.244   3.065   4.719
 4447SOL    HW214241   5.146   3.037   4.847
 4448SOL     OW14242   2.033   2.875   6.584
 4448SOL    HW114243   2.010   2.878   6.487
 4448SOL    HW214244   2.018   2.783   6.620
 4449SOL     OW14245   0.217   1.646   5.233
 4449SOL    HW114246   0.296   1.690   5.192
 4449SOL    HW214247   0.234   1.630   5.330
 4450SOL     OW14248   2.919   3.750   2.535
 4450SOL    HW114249   2.985   3.809   2.487
 4450SOL    HW214250   2.917   3.774   2.632
 4451SOL     OW14251   6.991   4.108   1.060
 4451SOL    HW114252   6.962   4.074   1.150
 4451SOL    HW214253   0.054   4.159   1.070
 4452SOL     OW14254   6.518   4.030   6.391
 4452SOL    HW114255   6.572   4.032   6.306
 4452SOL    HW214256   6.482   3.938   6.405
 4453SOL     OW14257   5.069   1.529   1.121
 4453SOL    HW114258   5.067   1.598   1.049
 4453SOL    HW214259   5.162   1.494   1.132
 4454SOL     OW14260   5.073   2.821   1.428
 4454SOL    HW114261   5.091   2.874   1.345
 4454SOL    HW214262   5.032   2.881   1.497
 4455SOL     OW14263   4.158   1.971   2.008
 4455SOL    HW114264   4.108   2.054   1.984
 4455SOL    HW214265   4.218   1.990   2.086
 4456SOL     OW14266   0.779   5.683   2.539
 4456SOL    HW114267   0.735   5.643   2.620
 4456SOL    HW214268   0.788   5.614   2.468
 4457SOL     OW14269   4.572   1.870   6.625
 4457SOL    HW114270   4.663   1.900   6.653
 4457SOL    HW214271   4.562   1.773   6.642
 4458SOL     OW14272   3.988   1.636   0.461
 4458SOL    HW114273   3.956   1.542   0.457
 4458SOL    HW214274   4.081   1.642   0.424
 4459SOL     OW14275   5.086   6.621   5.314
 4459SOL    HW114276   5.050   6.715   5.309
 4459SOL    HW214277   5.014   6.557   5.290
 4460SOL     OW14278   1.224   1.312   6.536
 4460SOL    HW114279   1.142   1.256   6.530
 4460SOL    HW214280   1.198   1.408   6.542
 4461SOL     OW14281   1.790   0.071   2.410
 4461SOL    HW114282   1.728   0.148   2.396
 4461SOL    HW214283   1.882   0.097   2.384
 4462SOL     OW14284   0.076   4.862   0.643
 4462SOL    HW114285   0.039   4.815   0.563
 4462SOL    HW214286   0.158   4.814   0.675
 4463SOL     OW14287   1.832   3.752   5.849
 4463SOL    HW114288   1.739   3.751   5.887
 4463SOL    HW214289   1.838   3.820   5.776
 4464SOL     OW14290   5.946   2.896   0.086
 4464SOL    HW114291   5.883   2.912   0.010
 4464SOL    HW214292   5.923   2.957   0.162
 4465SOL     OW14293   0.964   6.289   1.101
 4465SOL    HW114294   1.046   6.346   1.105
 4465SOL    HW214295   0.953   6.239   1.187
 4466SOL     OW14296   0.091   3.067   3.270
 4466SOL    HW114297   0.159   3.084   3.199
 4466SOL    HW214298   0.104   2.976   3.308
 4467SOL     OW14299   1.545   0.406   3.115
 4467SOL    HW114300   1.487   0.359   3.180
 4467SOL    HW214301   1.636   0.421   3.155
 4468SOL     OW14302   2.136   2.245   0.649
 4468SOL    HW114303   2.069   2.241   0.724
 4468SOL    HW214304   2.219   2.290   0.682
 4469SOL     OW14305   4.906   7.003   0.438
 4469SOL    HW114306   4.890   0.063   0.384
 4469SOL    HW214307   4.935   0.006   0.530
 4470SOL     OW14308   4.357   5.183   1.783
 4470SOL    HW114309   4.361   5.160   1.881
 4470SOL    HW214310   4.311   5.109   1.734
 4471SOL     OW14311   6.387   2.803   0.522
 4471SOL    HW114312   6.420   2.820   0.615
 4471SOL    HW214313   6.463   2.774   0.464
 4472SOL     OW14314   2.303   4.679   1.713
 4472SOL    HW114315   2.352   4.691   1.799
 4472SOL    HW214316   2.334   4.749   1.648
 4473SOL     OW14317   0.488   0.783   6.395
 4473SOL    HW114318   0.495   0.867   6.448
 4473SOL    HW214319   0.518   0.800   6.301
 4474SOL     OW14320   6.201   0.514   4.628
 4474SOL    HW114321   6.156   0.430   4.599
 4474SOL    HW214322   6.182   0.529   4.725
 4475SOL     OW14323   2.049   3.595   0.496
 4475SOL    HW114324   2.090   3.521   0.549
 4475SOL    HW214325   1.950   3.596   0.511
 4476SOL     OW14326   4.843   6.896   1.971
 4476SOL    HW114327   4.864   6.974   1.912
 4476SOL    HW214328   4.888   6.908   2.060
 4477SOL     OW14329   0.845   1.231   0.633
 4477SOL    HW114330   0.786   1.220   0.713
 4477SOL    HW214331   0.840   1.148   0.576
 4478SOL     OW14332   1.887   4.893   1.996
 4478SOL    HW114333   1.965   4.948   1.967
 4478SOL    HW214334   1.831   4.868   1.917
 4479SOL     OW14335   0.660   0.429   6.108
 4479SOL    HW114336   0.568   0.467   6.092
 4479SOL    HW214337   0.725   0.474   6.046
 4480SOL     OW14338   0.279   4.295   3.629
 4480SOL    HW114339   0.340   4.374   3.635
 4480SOL    HW214340   0.206   4.304   3.697
 4481SOL     OW14341   0.875   0.620   3.771
 4481SOL    HW114342   0.897   0.613   3.673
 4481SOL    HW214343   0.777   0.604   3.784
 4482SOL     OW14344   1.107   4.163   3.689
 4482SOL    HW114345   1.066   4.232   3.629
 4482SOL    HW214346   1.121   4.203   3.780
 4483SOL     OW14347   5.417   2.980   1.001
 4483SOL    HW114348   5.513   2.962   0.980
 4483SOL    HW214349   5.368   2.893   1.010
 4484SOL     OW14350   3.749   3.299   6.700
 4484SOL    HW114351   3.805   3.289   6.783
 4484SOL    HW214352   3.657   3.327   6.726
 4485SOL     OW14353   4.788   0.447   6.742
 4485SOL    HW114354   4.869   0.391   6.730
 4485SOL    HW214355   4.768   0.495   6.656
 4486SOL     OW14356   5.956   2.803   3.755
 4486SOL    HW114357   5.996   2.733   3.814
 4486SOL    HW214358   6.001   2.891   3.773
 4487SOL     OW14359   2.904   3.137   5.711
 4487SOL    HW114360   3.001   3.159   5.719
 4487SOL    HW214361   2.867   3.177   5.627
 4488SOL     OW14362   0.301   1.615   6.295
 4488SOL    HW114363   0.316   1.536   6.355
 4488SOL    HW214364   0.369   1.686   6.315
 4489SOL     OW14365   6.577   1.049   2.764
 4489SOL    HW114366   6.566   0.984   2.839
 4489SOL    HW214367   6.673   1.078   2.758
 4490SOL     OW14368   7.000   2.261   3.776
 4490SOL    HW114369   0.020   2.311   3.851
 4490SOL    HW214370   6.941   2.322   3.724
 4491SOL     OW14371   1.247   3.509   3.105
 4491SOL    HW114372   1.152   3.498   3.132
 4491SOL    HW214373   1.257   3.488   3.008
 4492SOL     OW14374   4.632   4.826   6.303
 4492SOL    HW114375   4.660   4.770   6.226
 4492SOL    HW214376   4.670   4.919   6.293
 4493SOL     OW14377   5.907   4.859   3.354
 4493SOL    HW114378   5.811   4.831   3.352
 4493SOL    HW214379   5.965   4.778   3.361
 4494SOL     OW14380   6.036   2.416   3.070
 4494SOL    HW114381   5.954   2.448   3.118
 4494SOL    HW214382   6.092   2.362   3.133
 4495SOL     OW14383   4.022   6.220   1.758
 4495SOL    HW114384   4.012   6.163   1.839
 4495SOL    HW214385   4.096   6.286   1.773
 4496SOL     OW14386   5.548   4.524   5.992
 4496SOL    HW114387   5.545   4.624   5.994
 4496SOL    HW214388   5.608   4.494   5.918
 4497SOL     OW14389   6.438   5.149   0.940
 4497SOL    HW114390   6.364   5.122   1.001
 4497SOL    HW214391   6.407   5.225   0.883
 4498SOL     OW14392   0.699   4.107   6.632
 4498SOL    HW114393   0.658   4.143   6.716
 4498SOL    HW214394   0.799   4.105   6.643
 4499SOL     OW14395   5.328   3.350   6.193
 4499SOL    HW114396   5.290   3.319   6.106
 4499SOL    HW214397   5.371   3.440   6.180
 4500SOL     OW14398   3.003   3.543   3.358
 4500SOL    HW114399   2.936   3.580   3.422
 4500SOL    HW214400   3.093   3.542   3.401
 4501SOL     OW14401   1.618   5.052   4.524
 4501SOL    HW114402   1.681   5.072   4.599
 4501SOL    HW214403   1.566   4.970   4.546
 4502SOL     OW14404   6.450   2.799   6.734
 4502SOL    HW114405   6.510   2.719   6.722
 4502SOL    HW214406   6.356   2.768   6.749
 4503SOL     OW14407   1.954   3.065   2.736
 4503SOL    HW114408   2.003   3.101   2.656
 4503SOL    HW214409   1.865   3.110   2.743
 4504SOL     OW14410   4.489   2.466   4.371
 4504SOL    HW114411   4.457   2.453   4.277
 4504SOL    HW214412   4.414   2.446   4.435
 4505SOL     OW14413   2.136   4.842   6.789
 4505SOL    HW114414   2.152   4.925   6.735
 4505SOL    HW214415   2.067   4.785   6.743
 4506SOL     OW14416   4.295   6.701   4.565
 4506SOL    HW114417   4.205   6.659   4.561
 4506SOL    HW214418   4.366   6.630   4.559
 4507SOL     OW14419   6.293   3.591   1.748
 4507SOL    HW114420   6.268   3.649   1.670
 4507SOL    HW214421   6.217   3.530   1.770
 4508SOL     OW14422   1.814   4.192   6.527
 4508SOL    HW114423   1.801   4.223   6.621
 4508SOL    HW214424   1.907   4.156   6.516
 4509SOL     OW14425   0.378   2.052   3.260
 4509SOL    HW114426   0.460   2.093   3.301
 4509SOL    HW214427   0.381   2.064   3.161
 4510SOL     OW14428   3.942   6.297   5.244
 4510SOL    HW114429   3.993   6.335   5.321
 4510SOL    HW214430   3.846   6.283   5.270
 4511SOL     OW14431   6.467   2.398   6.164
 4511SOL    HW114432   6.562   2.421   6.189
 4511SOL    HW214433   6.415   2.483   6.154
 4512SOL     OW14434   2.748   4.798   6.926
 4512SOL    HW114435   2.760   4.896   6.909
 4512SOL    HW214436   2.723   4.752   6.841
 4513SOL     OW14437   5.703   1.215   2.188
 4513SOL    HW114438   5.623   1.214   2.128
 4513SOL    HW214439   5.743   1.124   2.193
 4514SOL     OW14440   3.569   0.882   5.360
 4514SOL    HW114441   3.577   0.940   5.441
 4514SOL    HW214442   3.567   0.786   5.388
 4515SOL     OW14443   6.653   4.732   1.083
 4515SOL    HW114444   6.634   4.796   1.157
 4515SOL    HW214445   6.601   4.647   1.098
 4516SOL     OW14446   0.623   0.107   4.284
 4516SOL    HW114447   0.608   0.119   4.382
 4516SOL    HW214448   0.582   0.184   4.234
 4517SOL     OW14449   3.648   6.929   6.336
 4517SOL    HW114450   3.632   6.835   6.366
 4517SOL    HW214451   3.710   6.928   6.257
 4518SOL     OW14452   1.534   0.688   3.773
 4518SOL    HW114453   1.577   0.606   3.736
 4518SOL    HW214454   1.589   0.724   3.848
 4519SOL     OW14455   6.105   2.660   4.870
 4519SOL    HW114456   6.048   2.609   4.934
 4519SOL    HW214457   6.078   2.756   4.870
 4520SOL     OW14458   0.226   3.943   2.263
 4520SOL    HW114459   0.220   3.847   2.290
 4520SOL    HW214460   0.323   3.970   2.257
 4521SOL     OW14461   4.835   1.842   6.331
 4521SOL    HW114462   4.752   1.788   6.342
 4521SOL    HW214463   4.876   1.822   6.242
 4522SOL     OW14464   5.476   0.384   2.752
 4522SOL    HW114465   5.391   0.427   2.724
 4522SOL    HW214466   5.457   0.293   2.789
 4523SOL     OW14467   4.587   3.231   6.371
 4523SOL    HW114468   4.584   3.321   6.414
 4523SOL    HW214469   4.553   3.162   6.434
 4524SOL     OW14470   6.510   0.430   5.142
 4524SOL    HW114471   6.562   0.352   5.109
 4524SOL    HW214472   6.571   0.492   5.192
 4525SOL     OW14473   6.530   2.092   5.615
 4525SOL    HW114474   6.579   2.171   5.578
 4525SOL    HW214475   6.571   2.065   5.702
 4526SOL     OW14476   3.649   1.064   0.618
 4526SOL    HW114477   3.656   0.988   0.683
 4526SOL    HW214478   3.553   1.077   0.593
 4527SOL     OW14479   3.900   0.192   4.014
 4527SOL    HW114480   3.880   0.267   3.950
 4527SOL    HW214481   3.933   0.230   4.100
 4528SOL     OW14482   5.019   6.893   5.660
 4528SOL    HW114483   4.934   6.884   5.711
 4528SOL    HW214484   5.007   6.956   5.583
 4529SOL     OW14485   3.823   0.366   3.803
 4529SOL    HW114486   3.728   0.387   3.781
 4529SOL    HW214487   3.859   0.436   3.864
 4530SOL     OW14488   0.422   2.773   4.657
 4530SOL    HW114489   0.453   2.867   4.649
 4530SOL    HW214490   0.499   2.713   4.676
 4531SOL     OW14491   0.233   3.996   3.838
 4531SOL    HW114492   0.301   4.066   3.858
 4531SOL    HW214493   0.274   3.923   3.785
 4532SOL     OW14494   6.331   1.681   0.819
 4532SOL    HW114495   6.286   1.602   0.778
 4532SOL    HW214496   6.262   1.746   0.851
 4533SOL     OW14497   3.591   6.080   2.185
 4533SOL    HW114498   3.555   6.026   2.109
 4533SOL    HW214499   3.548   6.171   2.184
 4534SOL     OW14500   0.178   4.095   5.516
 4534SOL    HW114501   0.099   4.144   5.551
 4534SOL    HW214502   0.173   3.999   5.543
 4535SOL     OW14503   5.023   2.142   2.915
 4535SOL    HW114504   5.075   2.224   2.940
 4535SOL    HW214505   5.014   2.084   2.996
 4536SOL     OW14506   0.203   0.805   4.053
 4536SOL    HW114507   0.201   0.888   4.108
 4536SOL    HW214508   0.184   0.725   4.110
 4537SOL     OW14509   4.143   3.149   6.423
 4537SOL    HW114510   4.088   3.129   6.342
 4537SOL    HW214511   4.198   3.232   6.407
 4538SOL     OW14512   3.455   1.394   1.908
 4538SOL    HW114513   3.546   1.361   1.932
 4538SOL    HW214514   3.447   1.400   1.809
 4539SOL     OW14515   2.285   2.078   2.572
 4539SOL    HW114516   2.195   2.070   2.528
 4539SOL    HW214517   2.282   2.149   2.642
 4540SOL     OW14518   3.363   2.849   5.101
 4540SOL    HW114519   3.382   2.827   5.005
 4540SOL    HW214520   3.276   2.897   5.107
 4541SOL     OW14521   6.444   1.491   1.751
 4541SOL    HW114522   6.360   1.463   1.797
 4541SOL    HW214523   6.435   1.474   1.653
 4542SOL     OW14524   5.110   0.095   3.535
 4542SOL    HW114525   5.017   0.058   3.542
 4542SOL    HW214526   5.105   0.195   3.526
 4543SOL     OW14527   5.663   2.140   1.540
 4543SOL    HW114528   5.584   2.142   1.478
 4543SOL    HW214529   5.658   2.219   1.602
 4544SOL     OW14530   4.044   4.874   6.898
 4544SOL    HW114531   3.961   4.849   6.848
 4544SOL    HW214532   4.067   4.970   6.878
 4545SOL     OW14533   4.573   3.693   5.950
 4545SOL    HW114534   4.601   3.604   5.915
 4545SOL    HW214535   4.547   3.752   5.873
 4546SOL     OW14536   0.297   6.515   6.992
 4546SOL    HW114537   0.248   6.582   0.025
 4546SOL    HW214538   0.271   6.423   7.021
 4547SOL     OW14539   4.266   1.587   1.625
 4547SOL    HW114540   4.170   1.602   1.649
 4547SOL    HW214541   4.288   1.490   1.640
 4548SOL     OW14542   1.647   3.419   3.733
 4548SOL    HW114543   1.660   3.519   3.736
 4548SOL    HW214544   1.601   3.390   3.817
 4549SOL     OW14545   4.281   1.719   2.291
 4549SOL    HW114546   4.350   1.665   2.243
 4549SOL    HW214547   4.267   1.806   2.244
 4550SOL     OW14548   1.482   6.114   4.675
 4550SOL    HW114549   1.479   6.177   4.752
 4550SOL    HW214550   1.499   6.021   4.708
 4551SOL     OW14551   0.288   2.820   6.897
 4551SOL    HW114552   0.356   2.851   6.831
 4551SOL    HW214553   0.202   2.869   6.881
 4552SOL     OW14554   6.492   3.060   3.889
 4552SOL    HW114555   6.470   3.110   3.973
 4552SOL    HW214556   6.541   2.976   3.913
 4553SOL     OW14557   5.110   4.754   7.019
 4553SOL    HW114558   5.189   4.692   7.016
 4553SOL    HW214559   5.092   4.781   0.091
 4554SOL     OW14560   5.809   0.274   3.308
 4554SOL    HW114561   5.885   0.210   3.291
 4554SOL    HW214562   5.746   0.273   3.231
 4555SOL     OW14563   4.428   2.092   6.679
 4555SOL    HW114564   4.475   2.177   6.703
 4555SOL    HW214565   4.495   2.018   6.672
 4556SOL     OW14566   5.160   0.999   4.937
 4556SOL    HW114567   5.187   1.084   4.893
 4556SOL    HW214568   5.165   1.010   5.036
 4557SOL     OW14569   5.109   0.379   5.316
 4557SOL    HW114570   5.030   0.374   5.376
 4557SOL    HW214571   5.189   0.342   5.363
 4558SOL     OW14572   5.920   3.405   6.034
 4558SOL    HW114573   5.878   3.324   6.076
 4558SOL    HW214574   6.016   3.410   6.060
 4559SOL     OW14575   0.334   6.328   1.700
 4559SOL    HW114576   0.338   6.428   1.706
 4559SOL    HW214577   0.368   6.299   1.611
 4560SOL     OW14578   5.200   2.636   2.869
 4560SOL    HW114579   5.110   2.676   2.884
 4560SOL    HW214580   5.237   2.603   2.956
 4561SOL     OW14581   2.706   0.656   6.761
 4561SOL    HW114582   2.760   0.717   6.701
 4561SOL    HW214583   2.760   0.575   6.782
 4562SOL     OW14584   3.052   4.855   5.587
 4562SOL    HW114585   3.045   4.759   5.562
 4562SOL    HW214586   2.961   4.892   5.605
 4563SOL     OW14587   5.646   2.287   6.231
 4563SOL    HW114588   5.738   2.291   6.192
 4563SOL    HW214589   5.591   2.221   6.181
 4564SOL     OW14590   1.007   5.544   7.011
 4564SOL    HW114591   1.058   5.570   6.929
 4564SOL    HW214592   0.913   5.521   6.986
 4565SOL     OW14593   2.901   0.597   3.715
 4565SOL    HW114594   2.812   0.612   3.757
 4565SOL    HW214595   2.901   0.633   3.622
 4566SOL     OW14596   0.997   1.449   0.564
 4566SOL    HW114597   1.093   1.437   0.538
 4566SOL    HW214598   0.960   1.360   0.591
 4567SOL     OW14599   6.339   1.224   1.002
 4567SOL    HW114600   6.317   1.251   0.909
 4567SOL    HW214601   6.355   1.305   1.058
 4568SOL     OW14602   3.497   5.160   4.496
 4568SOL    HW114603   3.492   5.074   4.546
 4568SOL    HW214604   3.454   5.149   4.406
 4569SOL     OW14605   0.311   2.333   3.177
 4569SOL    HW114606   0.351   2.287   3.256
 4569SOL    HW214607   0.282   2.425   3.204
 4570SOL     OW14608   6.415   5.278   3.977
 4570SOL    HW114609   6.339   5.238   4.029
 4570SOL    HW214610   6.475   5.329   4.038
 4571SOL     OW14611   3.685   3.213   4.054
 4571SOL    HW114612   3.695   3.224   4.152
 4571SOL    HW214613   3.605   3.264   4.022
 4572SOL     OW14614   2.312   5.417   2.183
 4572SOL    HW114615   2.272   5.508   2.190
 4572SOL    HW214616   2.291   5.378   2.094
 4573SOL     OW14617   5.006   6.741   0.308
 4573SOL    HW114618   4.978   6.836   0.320
 4573SOL    HW214619   5.074   6.717   0.377
 4574SOL     OW14620   0.188   4.364   1.423
 4574SOL    HW114621   0.195   4.370   1.522
 4574SOL    HW214622   0.241   4.437   1.381
 4575SOL     OW14623   6.716   6.475   2.132
 4575SOL    HW114624   6.683   6.528   2.211
 4575SOL    HW214625   6.711   6.377   2.153
 4576SOL     OW14626   3.009   6.164   4.274
 4576SOL    HW114627   3.003   6.065   4.283
 4576SOL    HW214628   3.009   6.189   4.178
 4577SOL     OW14629   1.554   2.074   3.888
 4577SOL    HW114630   1.553   2.135   3.809
 4577SOL    HW214631   1.635   2.015   3.885
 4578SOL     OW14632   6.852   5.414   3.892
 4578SOL    HW114633   6.804   5.331   3.919
 4578SOL    HW214634   6.913   5.442   3.967
 4579SOL     OW14635   5.165   2.061   4.503
 4579SOL    HW114636   5.078   2.075   4.551
 4579SOL    HW214637   5.153   2.081   4.405
 4580SOL     OW14638   0.102   5.803   0.443
 4580SOL    HW114639   0.043   5.883   0.443
 4580SOL    HW214640   0.160   5.804   0.524
 4581SOL     OW14641   3.288   6.316   3.718
 4581SOL    HW114642   3.196   6.287   3.692
 4581SOL    HW214643   3.352   6.293   3.644
 4582SOL     OW14644   4.843   0.053   3.570
 4582SOL    HW114645   4.826   0.117   3.644
 4582SOL    HW214646   4.767   7.011   3.562
 4583SOL     OW14647   4.101   1.162   5.688
 4583SOL    HW114648   4.014   1.197   5.654
 4583SOL    HW214649   4.084   1.088   5.753
 4584SOL     OW14650   1.366   5.228   5.770
 4584SOL    HW114651   1.414   5.287   5.706
 4584SOL    HW214652   1.335   5.282   5.849
 4585SOL     OW14653   3.038   6.450   2.665
 4585SOL    HW114654   3.003   6.381   2.728
 4585SOL    HW214655   3.138   6.453   2.671
 4586SOL     OW14656   2.616   6.753   2.140
 4586SOL    HW114657   2.585   6.849   2.141
 4586SOL    HW214658   2.707   6.747   2.180
 4587SOL     OW14659   3.058   5.330   1.016
 4587SOL    HW114660   2.990   5.259   0.998
 4587SOL    HW214661   3.115   5.302   1.094
 4588SOL     OW14662   3.980   3.738   5.205
 4588SOL    HW114663   3.953   3.714   5.298
 4588SOL    HW214664   3.965   3.836   5.190
 4589SOL     OW14665   1.195   2.002   3.354
 4589SOL    HW114666   1.105   1.959   3.340
 4589SOL    HW214667   1.246   1.948   3.421
 4590SOL     OW14668   4.357   6.158   2.899
 4590SOL    HW114669   4.423   6.220   2.857
 4590SOL    HW214670   4.322   6.094   2.830
 4591SOL     OW14671   6.067   6.509   5.434
 4591SOL    HW114672   6.019   6.466   5.358
 4591SOL    HW214673   6.028   6.599   5.451
 4592SOL     OW14674   3.378   1.400   5.819
 4592SOL    HW114675   3.349   1.491   5.789
 4592SOL    HW214676   3.302   1.356   5.867
 4593SOL     OW14677   3.932   6.393   1.580
 4593SOL    HW114678   3.925   6.320   1.648
 4593SOL    HW214679   3.856   6.458   1.594
 4594SOL     OW14680   3.109   2.057   2.735
 4594SOL    HW114681   3.179   1.992   2.705
 4594SOL    HW214682   3.091   2.122   2.662
 4595SOL     OW14683   5.032   3.408   6.028
 4595SOL    HW114684   4.995   3.481   5.971
 4595SOL    HW214685   4.970   3.391   6.105
 4596SOL     OW14686   5.741   6.760   2.162
 4596SOL    HW114687   5.713   6.701   2.237
 4596SOL    HW214688   5.832   6.733   2.130
 4597SOL     OW14689   6.350   4.829   5.847
 4597SOL    HW114690   6.343   4.791   5.755
 4597SOL    HW214691   6.259   4.831   5.889
 4598SOL     OW14692   3.261   4.516   0.720
 4598SOL    HW114693   3.172   4.528   0.763
 4598SOL    HW214694   3.316   4.452   0.774
 4599SOL     OW14695   2.436   5.113   0.731
 4599SOL    HW114696   2.532   5.136   0.745
 4599SOL    HW214697   2.406   5.151   0.643
 4600SOL     OW14698   3.626   5.059   1.506
 4600SOL    HW114699   3.598   5.152   1.529
 4600SOL    HW214700   3.588   4.995   1.573
 4601SOL     OW14701   1.726   5.917   4.557
 4601SOL    HW114702   1.776   5.892   4.474
 4601SOL    HW214703   1.664   5.843   4.581
 4602SOL     OW14704   1.475   1.102   1.392
 4602SOL    HW114705   1.463   1.078   1.295
 4602SOL    HW214706   1.460   1.200   1.404
 4603SOL     OW14707   3.233   1.578   1.718
 4603SOL    HW114708   3.263   1.672   1.701
 4603SOL    HW214709   3.300   1.514   1.682
 4604SOL     OW14710   1.397   0.877   2.364
 4604SOL    HW114711   1.376   0.830   2.450
 4604SOL    HW214712   1.420   0.809   2.295
 4605SOL     OW14713   4.836   6.546   5.856
 4605SOL    HW114714   4.884   6.559   5.943
 4605SOL    HW214715   4.825   6.634   5.810
 4606SOL     OW14716   6.715   6.232   5.236
 4606SOL    HW114717   6.806   6.269   5.219
 4606SOL    HW214718   6.660   6.240   5.154
 4607SOL     OW14719   2.980   2.419   0.948
 4607SOL    HW114720   2.991   2.362   0.867
 4607SOL    HW214721   3.069   2.433   0.991
 4608SOL     OW14722   1.732   3.554   5.221
 4608SOL    HW114723   1.824   3.520   5.241
 4608SOL    HW214724   1.703   3.614   5.296
 4609SOL     OW14725   3.293   6.834   0.004
 4609SOL    HW114726   3.384   6.875   0.011
 4609SOL    HW214727   3.285   6.787   6.938
 4610SOL     OW14728   6.967   3.230   6.914
 4610SOL    HW114729   0.001   3.311   6.899
 4610SOL    HW214730   6.871   3.253   6.896
 4611SOL     OW14731   0.782   3.612   6.387
 4611SOL    HW114732   0.792   3.631   6.484
 4611SOL    HW214733   0.772   3.697   6.336
 4612SOL     OW14734   2.610   0.513   6.454
 4612SOL    HW114735   2.593   0.606   6.486
 4612SOL    HW214736   2.538   0.486   6.391
 4613SOL     OW14737   3.333   5.395   1.792
 4613SOL    HW114738   3.268   5.366   1.722
 4613SOL    HW214739   3.285   5.408   1.879
 4614SOL     OW14740   2.496   4.921   0.276
 4614SOL    HW114741   2.443   4.845   0.312
 4614SOL    HW214742   2.590   4.892   0.259
 4615SOL     OW14743   6.992   3.300   0.280
 4615SOL    HW114744   6.902   3.312   0.322
 4615SOL    HW214745   0.018   3.225   0.326
 4616SOL     OW14746   6.133   0.403   0.354
 4616SOL    HW114747   6.222   0.361   0.336
 4616SOL    HW214748   6.140   0.464   0.433
 4617SOL     OW14749   0.124   3.851   2.018
 4617SOL    HW114750   0.100   3.755   2.033
 4617SOL    HW214751   0.122   3.900   2.105
 4618SOL     OW14752   1.078   2.213   6.509
 4618SOL    HW114753   1.175   2.236   6.517
 4618SOL    HW214754   1.066   2.145   6.437
 4619SOL     OW14755   2.843   0.181   3.776
 4619SOL    HW114756   2.915   0.243   3.745
 4619SOL    HW214757   2.860   0.156   3.872
 4620SOL     OW14758   2.733   5.011   6.649
 4620SOL    HW114759   2.637   4.993   6.670
 4620SOL    HW214760   2.741   5.101   6.606
 4621SOL     OW14761   0.133   6.725   6.843
 4621SOL    HW114762   0.204   6.656   6.831
 4621SOL    HW214763   0.069   6.695   6.914
 4622SOL     OW14764   2.499   3.344   1.245
 4622SOL    HW114765   2.456   3.423   1.200
 4622SOL    HW214766   2.432   3.297   1.301
 4623SOL     OW14767   5.717   4.912   2.404
 4623SOL    HW114768   5.632   4.941   2.360
 4623SOL    HW214769   5.790   4.907   2.336
 4624SOL     OW14770   4.978   0.289   5.525
 4624SOL    HW114771   5.012   0.302   5.618
 4624SOL    HW214772   4.998   0.195   5.495
 4625SOL     OW14773   1.928   3.598   6.223
 4625SOL    HW114774   2.017   3.632   6.255
 4625SOL    HW214775   1.859   3.669   6.234
 4626SOL     OW14776   5.779   5.602   2.213
 4626SOL    HW114777   5.816   5.511   2.195
 4626SOL    HW214778   5.826   5.642   2.292
 4627SOL     OW14779   1.933   0.034   5.762
 4627SOL    HW114780   2.029   0.016   5.783
 4627SOL    HW214781   1.904   0.118   5.809
 4628SOL     OW14782   0.267   3.358   1.836
 4628SOL    HW114783   0.278   3.457   1.834
 4628SOL    HW214784   0.169   3.335   1.837
 4629SOL     OW14785   3.744   4.942   4.174
 4629SOL    HW114786   3.721   4.974   4.082
 4629SOL    HW214787   3.833   4.895   4.172
 4630SOL     OW14788   1.912   6.753   2.667
 4630SOL    HW114789   1.900   6.764   2.765
 4630SOL    HW214790   1.998   6.795   2.639
 4631SOL     OW14791   1.342   1.000   2.643
 4631SOL    HW114792   1.334   0.905   2.612
 4631SOL    HW214793   1.326   1.062   2.566
 4632SOL     OW14794   5.970   5.398   4.204
 4632SOL    HW114795   5.954   5.489   4.243
 4632SOL    HW214796   6.066   5.374   4.215
 4633SOL     OW14797   5.589   2.545   5.540
 4633SOL    HW114798   5.494   2.575   5.552
 4633SOL    HW214799   5.621   2.503   5.625
 4634SOL     OW14800   3.666   5.141   0.910
 4634SOL    HW114801   3.664   5.072   0.838
 4634SOL    HW214802   3.643   5.098   0.998
 4635SOL     OW14803   5.123   3.827   1.245
 4635SOL    HW114804   5.032   3.795   1.215
 4635SOL    HW214805   5.113   3.908   1.302
 4636SOL     OW14806   1.121   5.497   1.280
 4636SOL    HW114807   1.084   5.581   1.318
 4636SOL    HW214808   1.152   5.513   1.186
 4637SOL     OW14809   1.666   0.616   4.756
 4637SOL    HW114810   1.749   0.669   4.773
 4637SOL    HW214811   1.596   0.641   4.823
 4638SOL     OW14812   4.492   4.093   6.318
 4638SOL    HW114813   4.529   4.007   6.283
 4638SOL    HW214814   4.523   4.169   6.260
 4639SOL     OW14815   0.210   2.669   5.110
 4639SOL    HW114816   0.201   2.578   5.069
 4639SOL    HW214817   0.302   2.679   5.148
 4640SOL     OW14818   6.405   4.415   2.597
 4640SOL    HW114819   6.323   4.466   2.570
 4640SOL    HW214820   6.481   4.479   2.605
 4641SOL     OW14821   2.751   4.179   5.935
 4641SOL    HW114822   2.734   4.254   5.871
 4641SOL    HW214823   2.743   4.091   5.887
 4642SOL     OW14824   6.529   6.187   3.823
 4642SOL    HW114825   6.554   6.189   3.726
 4642SOL    HW214826   6.440   6.142   3.833
 4643SOL     OW14827   4.214   2.675   0.789
 4643SOL    HW114828   4.116   2.668   0.809
 4643SOL    HW214829   4.239   2.772   0.783
 4644SOL     OW14830   2.722   4.804   5.449
 4644SOL    HW114831   2.788   4.731   5.465
 4644SOL    HW214832   2.767   4.892   5.458
 4645SOL     OW14833   1.969   6.332   4.586
 4645SOL    HW114834   1.884   6.280   4.575
 4645SOL    HW214835   1.970   6.375   4.677
 4646SOL     OW14836   3.858   0.871   1.821
 4646SOL    HW114837   3.924   0.796   1.815
 4646SOL    HW214838   3.792   0.863   1.747
 4647SOL     OW14839   0.066   0.876   4.792
 4647SOL    HW114840   0.016   0.860   4.876
 4647SOL    HW214841   0.160   0.840   4.801
 4648SOL     OW14842   1.678   4.531   2.354
 4648SOL    HW114843   1.729   4.498   2.275
 4648SOL    HW214844   1.679   4.631   2.355
 4649SOL     OW14845   5.479   6.569   6.363
 4649SOL    HW114846   5.483   6.473   6.391
 4649SOL    HW214847   5.402   6.614   6.409
 4650SOL     OW14848   0.186   4.681   1.764
 4650SOL    HW114849   0.197   4.723   1.854
 4650SOL    HW214850   0.090   4.689   1.736
 4651SOL     OW14851   6.485   1.811   2.239
 4651SOL    HW114852   6.518   1.786   2.329
 4651SOL    HW214853   6.385   1.806   2.237
 4652SOL     OW14854   6.991   6.024   5.590
 4652SOL    HW114855   6.893   6.010   5.605
 4652SOL    HW214856   7.013   6.121   5.602
 4653SOL     OW14857   0.708   5.707   6.978
 4653SOL    HW114858   0.743   5.731   0.046
 4653SOL    HW214859   0.770   5.642   6.934
 4654SOL     OW14860   0.912   1.720   6.388
 4654SOL    HW114861   0.886   1.731   6.292
 4654SOL    HW214862   0.855   1.650   6.431
 4655SOL     OW14863   0.405   5.437   3.313
 4655SOL    HW114864   0.447   5.365   3.368
 4655SOL    HW214865   0.462   5.519   3.317
 4656SOL     OW14866   2.193   0.137   3.021
 4656SOL    HW114867   2.215   0.198   2.945
 4656SOL    HW214868   2.253   0.156   3.098
 4657SOL     OW14869   5.632   0.245   6.548
 4657SOL    HW114870   5.608   0.293   6.464
 4657SOL    HW214871   5.585   0.157   6.551
 4658SOL     OW14872   4.854   0.773   3.776
 4658SOL    HW114873   4.763   0.812   3.788
 4658SOL    HW214874   4.923   0.844   3.786
 4659SOL     OW14875   2.683   2.406   4.723
 4659SOL    HW114876   2.739   2.359   4.791
 4659SOL    HW214877   2.634   2.482   4.766
 4660SOL     OW14878   6.948   1.364   5.945
 4660SOL    HW114879   6.965   1.388   5.849
 4660SOL    HW214880   6.950   1.447   6.000
 4661SOL     OW14881   4.063   3.748   3.338
 4661SOL    HW114882   4.147   3.780   3.381
 4661SOL    HW214883   4.085   3.681   3.267
 4662SOL     OW14884   5.665   0.479   3.574
 4662SOL    HW114885   5.651   0.572   3.608
 4662SOL    HW214886   5.760   0.452   3.587
 4663SOL     OW14887   1.235   1.417   1.967
 4663SOL    HW114888   1.278   1.436   2.055
 4663SOL    HW214889   1.246   1.496   1.906
 4664SOL     OW14890   3.362   3.255   0.200
 4664SOL    HW114891   3.446   3.309   0.193
 4664SOL    HW214892   3.362   3.205   0.287
 4665SOL     OW14893   5.125   0.942   6.602
 4665SOL    HW114894   5.179   0.886   6.664
 4665SOL    HW214895   5.161   1.036   6.602
 4666SOL     OW14896   2.474   1.627   0.584
 4666SOL    HW114897   2.549   1.593   0.528
 4666SOL    HW214898   2.388   1.618   0.535
 4667SOL     OW14899   0.346   5.797   5.062
 4667SOL    HW114900   0.254   5.770   5.090
 4667SOL    HW214901   0.341   5.850   4.977
 4668SOL     OW14902   5.426   1.431   5.129
 4668SOL    HW114903   5.428   1.332   5.142
 4668SOL    HW214904   5.364   1.453   5.053
 4669SOL     OW14905   2.408   0.592   1.293
 4669SOL    HW114906   2.500   0.562   1.316
 4669SOL    HW214907   2.368   0.531   1.224
 4670SOL     OW14908   1.704   1.261   5.001
 4670SOL    HW114909   1.793   1.260   5.047
 4670SOL    HW214910   1.710   1.319   4.919
 4671SOL     OW14911   5.724   2.889   1.001
 4671SOL    HW114912   5.701   2.792   1.010
 4671SOL    HW214913   5.727   2.930   1.092
 4672SOL     OW14914   2.875   2.846   5.392
 4672SOL    HW114915   2.843   2.751   5.391
 4672SOL    HW214916   2.800   2.906   5.418
 4673SOL     OW14917   4.223   0.286   2.696
 4673SOL    HW114918   4.217   0.360   2.629
 4673SOL    HW214919   4.146   0.295   2.761
 4674SOL     OW14920   4.616   6.613   5.497
 4674SOL    HW114921   4.626   6.699   5.548
 4674SOL    HW214922   4.520   6.598   5.476
 4675SOL     OW14923   1.154   4.184   6.097
 4675SOL    HW114924   1.055   4.176   6.083
 4675SOL    HW214925   1.202   4.141   6.021
 4676SOL     OW14926   0.416   5.096   3.830
 4676SOL    HW114927   0.418   5.196   3.838
 4676SOL    HW214928   0.327   5.062   3.858
 4677SOL     OW14929   1.565   3.342   0.527
 4677SOL    HW114930   1.474   3.384   0.535
 4677SOL    HW214931   1.583   3.320   0.432
 4678SOL     OW14932   1.298   4.252   2.113
 4678SOL    HW114933   1.226   4.315   2.141
 4678SOL    HW214934   1.310   4.259   2.014
 4679SOL     OW14935   4.117   0.021   1.760
 4679SOL    HW114936   4.138   6.969   1.696
 4679SOL    HW214937   4.096   0.104   1.708
 4680SOL     OW14938   1.912   0.761   6.825
 4680SOL    HW114939   1.921   0.800   6.734
 4680SOL    HW214940   1.974   0.683   6.834
 4681SOL     OW14941   4.763   5.480   2.209
 4681SOL    HW114942   4.676   5.481   2.257
 4681SOL    HW214943   4.834   5.519   2.268
 4682SOL     OW14944   3.566   4.021   6.532
 4682SOL    HW114945   3.570   3.994   6.436
 4682SOL    HW214946   3.479   3.991   6.571
 4683SOL     OW14947   5.909   4.331   3.704
 4683SOL    HW114948   5.983   4.394   3.681
 4683SOL    HW214949   5.849   4.319   3.626
 4684SOL     OW14950   5.502   6.160   0.058
 4684SOL    HW114951   5.572   6.222   0.024
 4684SOL    HW214952   5.474   6.188   0.150
 4685SOL     OW14953   3.155   4.047   4.217
 4685SOL    HW114954   3.213   4.089   4.148
 4685SOL    HW214955   3.195   4.063   4.308
 4686SOL     OW14956   1.953   6.450   0.082
 4686SOL    HW114957   2.022   6.481   0.147
 4686SOL    HW214958   1.928   6.355   0.102
 4687SOL     OW14959   2.311   0.574   2.731
 4687SOL    HW114960   2.319   0.673   2.719
 4687SOL    HW214961   2.330   0.528   2.645
 4688SOL     OW14962   5.709   2.599   6.268
 4688SOL    HW114963   5.738   2.503   6.261
 4688SOL    HW214964   5.609   2.602   6.274
 4689SOL     OW14965   6.472   0.632   2.238
 4689SOL    HW114966   6.496   0.538   2.217
 4689SOL    HW214967   6.508   0.693   2.167
 4690SOL     OW14968   2.565   2.082   0.852
 4690SOL    HW114969   2.541   2.007   0.791
 4690SOL    HW214970   2.629   2.143   0.805
 4691SOL     OW14971   6.618   3.959   2.157
 4691SOL    HW114972   6.683   4.023   2.198
 4691SOL    HW214973   6.524   3.989   2.177
 4692SOL     OW14974   5.113   3.047   2.420
 4692SOL    HW114975   5.058   3.024   2.340
 4692SOL    HW214976   5.206   3.072   2.390
 4693SOL     OW14977   1.273   0.758   3.124
 4693SOL    HW114978   1.236   0.842   3.084
 4693SOL    HW214979   1.364   0.740   3.087
 4694SOL     OW14980   1.911   0.532   6.502
 4694SOL    HW114981   1.906   0.612   6.443
 4694SOL    HW214982   1.998   0.485   6.488
 4695SOL     OW14983   1.981   5.145   2.330
 4695SOL    HW114984   1.976   5.089   2.412
 4695SOL    HW214985   2.074   5.182   2.320
 4696SOL     OW14986   1.468   5.904   6.364
 4696SOL    HW114987   1.513   5.954   6.290
 4696SOL    HW214988   1.371   5.896   6.345
 4697SOL     OW14989   4.213   5.405   1.711
 4697SOL    HW114990   4.251   5.440   1.625
 4697SOL    HW214991   4.270   5.330   1.745
 4698SOL     OW14992   5.238   1.236   4.825
 4698SOL    HW114993   5.226   1.271   4.732
 4698SOL    HW214994   5.271   1.310   4.884
 4699SOL     OW14995   1.619   0.274   2.606
 4699SOL    HW114996   1.706   0.321   2.594
 4699SOL    HW214997   1.591   0.279   2.702
 4700SOL     OW14998   6.231   1.820   2.432
 4700SOL    HW114999   6.207   1.841   2.337
 4700SOL    HW215000   6.165   1.755   2.470
 4701SOL     OW15001   3.121   2.535   1.698
 4701SOL    HW115002   3.051   2.494   1.757
 4701SOL    HW215003   3.170   2.606   1.747
 4702SOL     OW15004   5.708   5.079   6.592
 4702SOL    HW115005   5.723   5.174   6.620
 4702SOL    HW215006   5.748   5.065   6.501
 4703SOL     OW15007   0.744   5.416   3.452
 4703SOL    HW115008   0.709   5.334   3.406
 4703SOL    HW215009   0.750   5.491   3.386
 4704SOL     OW15010   1.345   5.050   4.254
 4704SOL    HW115011   1.305   4.959   4.248
 4704SOL    HW215012   1.323   5.101   4.171
 4705SOL     OW15013   3.609   1.745   1.861
 4705SOL    HW115014   3.607   1.741   1.761
 4705SOL    HW215015   3.665   1.823   1.890
 4706SOL     OW15016   2.624   0.438   1.327
 4706SOL    HW115017   2.589   0.352   1.291
 4706SOL    HW215018   2.688   0.420   1.401
 4707SOL     OW15019   1.561   5.295   2.195
 4707SOL    HW115020   1.480   5.293   2.254
 4707SOL    HW215021   1.611   5.209   2.205
 4708SOL     OW15022   1.958   2.910   5.393
 4708SOL    HW115023   1.987   2.999   5.427
 4708SOL    HW215024   2.013   2.886   5.313
 4709SOL     OW15025   4.794   4.388   5.971
 4709SOL    HW115026   4.766   4.372   5.877
 4709SOL    HW215027   4.892   4.368   5.981
 4710SOL     OW15028   5.781   6.044   5.069
 4710SOL    HW115029   5.764   5.947   5.085
 4710SOL    HW215030   5.879   6.059   5.057
 4711SOL     OW15031   5.112   4.268   2.655
 4711SOL    HW115032   5.039   4.336   2.650
 4711SOL    HW215033   5.072   4.177   2.656
 4712SOL     OW15034   4.450   4.257   5.991
 4712SOL    HW115035   4.516   4.281   6.062
 4712SOL    HW215036   4.414   4.165   6.007
 4713SOL     OW15037   5.588   4.453   0.806
 4713SOL    HW115038   5.649   4.423   0.732
 4713SOL    HW215039   5.493   4.448   0.774
 4714SOL     OW15040   3.968   2.039   6.643
 4714SOL    HW115041   3.907   1.997   6.576
 4714SOL    HW215042   4.050   2.073   6.597
 4715SOL     OW15043   6.854   1.596   2.016
 4715SOL    HW115044   6.813   1.594   1.925
 4715SOL    HW215045   6.817   1.673   2.067
 4716SOL     OW15046   4.101   4.712   5.372
 4716SOL    HW115047   4.193   4.718   5.331
 4716SOL    HW215048   4.039   4.775   5.325
 4717SOL     OW15049   2.519   4.342   5.601
 4717SOL    HW115050   2.605   4.348   5.652
 4717SOL    HW215051   2.537   4.340   5.503
 4718SOL     OW15052   4.603   4.634   0.626
 4718SOL    HW115053   4.524   4.660   0.681
 4718SOL    HW215054   4.677   4.700   0.641
 4719SOL     OW15055   0.024   4.383   3.736
 4719SOL    HW115056   7.008   4.404   3.826
 4719SOL    HW215057   7.009   4.447   3.668
 4720SOL     OW15058   2.413   3.009   6.795
 4720SOL    HW115059   2.400   2.926   6.741
 4720SOL    HW215060   2.387   2.992   6.890
 4721SOL     OW15061   0.164   2.790   2.658
 4721SOL    HW115062   0.190   2.881   2.691
 4721SOL    HW215063   0.156   2.728   2.736
 4722SOL     OW15064   1.185   6.035   0.138
 4722SOL    HW115065   1.179   6.059   0.041
 4722SOL    HW215066   1.095   6.004   0.170
 4723SOL     OW15067   3.566   4.581   6.701
 4723SOL    HW115068   3.577   4.498   6.647
 4723SOL    HW215069   3.603   4.567   6.793
 4724SOL     OW15070   0.829   0.390   4.843
 4724SOL    HW115071   0.888   0.454   4.794
 4724SOL    HW215072   0.867   0.298   4.838
 4725SOL     OW15073   5.575   5.616   1.251
 4725SOL    HW115074   5.618   5.535   1.291
 4725SOL    HW215075   5.476   5.612   1.268
 4726SOL     OW15076   1.858   2.696   5.537
 4726SOL    HW115077   1.885   2.732   5.447
 4726SOL    HW215078   1.823   2.770   5.594
 4727SOL     OW15079   6.678   4.410   1.349
 4727SOL    HW115080   6.651   4.411   1.446
 4727SOL    HW215081   6.776   4.430   1.342
 4728SOL     OW15082   6.024   1.425   4.292
 4728SOL    HW115083   6.049   1.329   4.280
 4728SOL    HW215084   6.006   1.466   4.203
 4729SOL     OW15085   6.191   1.482   1.922
 4729SOL    HW115086   6.112   1.429   1.891
 4729SOL    HW215087   6.159   1.561   1.975
 4730SOL     OW15088   3.101   0.208   4.463
 4730SOL    HW115089   3.023   0.148   4.446
 4730SOL    HW215090   3.164   0.203   4.386
 4731SOL     OW15091   3.045   6.360   0.899
 4731SOL    HW115092   3.022   6.429   0.968
 4731SOL    HW215093   3.010   6.271   0.929
 4732SOL     OW15094   0.606   5.331   4.943
 4732SOL    HW115095   0.615   5.371   4.852
 4732SOL    HW215096   0.632   5.399   5.012
 4733SOL     OW15097   2.120   3.975   2.356
 4733SOL    HW115098   2.066   3.911   2.301
 4733SOL    HW215099   2.173   4.034   2.296
 4734SOL     OW15100   4.823   4.135   6.729
 4734SOL    HW115101   4.903   4.098   6.683
 4734SOL    HW215102   4.845   4.154   6.825
 4735SOL     OW15103   0.507   0.679   5.068
 4735SOL    HW115104   0.449   0.671   4.986
 4735SOL    HW215105   0.597   0.642   5.048
 4736SOL     OW15106   6.426   1.938   3.428
 4736SOL    HW115107   6.350   1.880   3.457
 4736SOL    HW215108   6.512   1.895   3.454
 4737SOL     OW15109   2.419   4.825   6.854
 4737SOL    HW115110   2.441   4.918   6.886
 4737SOL    HW215111   2.321   4.817   6.840
 4738SOL     OW15112   0.987   5.676   3.799
 4738SOL    HW115113   1.037   5.638   3.877
 4738SOL    HW215114   0.983   5.608   3.726
 4739SOL     OW15115   5.666   3.292   3.101
 4739SOL    HW115116   5.573   3.328   3.110
 4739SOL    HW215117   5.686   3.272   3.005
 4740SOL     OW15118   0.998   0.294   0.925
 4740SOL    HW115119   1.040   0.232   0.991
 4740SOL    HW215120   1.061   0.310   0.849
 4741SOL     OW15121   5.050   4.729   1.151
 4741SOL    HW115122   5.074   4.691   1.240
 4741SOL    HW215123   5.112   4.804   1.128
 4742SOL     OW15124   2.061   5.512   2.654
 4742SOL    HW115125   1.967   5.523   2.685
 4742SOL    HW215126   2.113   5.459   2.721
 4743SOL     OW15127   2.640   3.335   0.385
 4743SOL    HW115128   2.577   3.395   0.336
 4743SOL    HW215129   2.589   3.272   0.443
 4744SOL     OW15130   2.202   2.188   5.245
 4744SOL    HW115131   2.108   2.154   5.242
 4744SOL    HW215132   2.216   2.238   5.331
 4745SOL     OW15133   3.552   5.283   4.916
 4745SOL    HW115134   3.590   5.192   4.902
 4745SOL    HW215135   3.467   5.292   4.864
 4746SOL     OW15136   6.163   0.792   1.716
 4746SOL    HW115137   6.257   0.805   1.749
 4746SOL    HW215138   6.144   0.695   1.705
 4747SOL     OW15139   6.886   2.616   1.638
 4747SOL    HW115140   6.947   2.538   1.645
 4747SOL    HW215141   6.826   2.604   1.559
 4748SOL     OW15142   1.845   0.764   1.311
 4748SOL    HW115143   1.782   0.717   1.250
 4748SOL    HW215144   1.809   0.855   1.332
 4749SOL     OW15145   2.623   0.148   6.286
 4749SOL    HW115146   2.709   0.149   6.234
 4749SOL    HW215147   2.625   0.074   6.353
 4750SOL     OW15148   0.840   1.904   4.621
 4750SOL    HW115149   0.807   1.812   4.600
 4750SOL    HW215150   0.886   1.943   4.541
 4751SOL     OW15151   1.095   3.626   5.685
 4751SOL    HW115152   1.088   3.541   5.632
 4751SOL    HW215153   1.015   3.634   5.745
 4752SOL     OW15154   1.646   5.918   2.155
 4752SOL    HW115155   1.636   5.847   2.085
 4752SOL    HW215156   1.719   5.892   2.218
 4753SOL     OW15157   0.407   6.962   5.441
 4753SOL    HW115158   0.365   6.899   5.506
 4753SOL    HW215159   0.379   0.033   5.463
 4754SOL     OW15160   0.720   0.257   6.913
 4754SOL    HW115161   0.650   0.236   6.845
 4754SOL    HW215162   0.806   0.280   6.867
 4755SOL     OW15163   2.773   0.576   1.154
 4755SOL    HW115164   2.824   0.646   1.204
 4755SOL    HW215165   2.718   0.523   1.218
 4756SOL     OW15166   4.797   2.903   1.177
 4756SOL    HW115167   4.710   2.904   1.129
 4756SOL    HW215168   4.792   2.838   1.253
 4757SOL     OW15169   2.659   1.214   1.635
 4757SOL    HW115170   2.602   1.284   1.592
 4757SOL    HW215171   2.613   1.126   1.629
 4758SOL     OW15172   5.615   3.901   5.625
 4758SOL    HW115173   5.542   3.853   5.576
 4758SOL    HW215174   5.651   3.975   5.568
 4759SOL     OW15175   6.001   4.286   6.117
 4759SOL    HW115176   5.999   4.379   6.081
 4759SOL    HW215177   5.907   4.250   6.120
 4760SOL     OW15178   1.970   2.558   0.942
 4760SOL    HW115179   2.062   2.596   0.934
 4760SOL    HW215180   1.927   2.593   1.025
 4761SOL     OW15181   1.506   5.731   5.954
 4761SOL    HW115182   1.537   5.812   6.006
 4761SOL    HW215183   1.509   5.752   5.856
 4762SOL     OW15184   3.961   6.764   2.332
 4762SOL    HW115185   3.904   6.722   2.261
 4762SOL    HW215186   3.982   6.696   2.403
 4763SOL     OW15187   5.660   5.502   4.638
 4763SOL    HW115188   5.566   5.504   4.672
 4763SOL    HW215189   5.676   5.417   4.587
 4764SOL     OW15190   3.904   3.858   4.624
 4764SOL    HW115191   3.939   3.849   4.531
 4764SOL    HW215192   3.849   3.777   4.647
 4765SOL     OW15193   6.624   4.731   5.500
 4765SOL    HW115194   6.618   4.792   5.421
 4765SOL    HW215195   6.686   4.770   5.567
 4766SOL     OW15196   3.142   0.463   3.359
 4766SOL    HW115197   3.114   0.427   3.271
 4766SOL    HW215198   3.182   0.554   3.347
 4767SOL     OW15199   4.133   6.673   6.890
 4767SOL    HW115200   4.112   6.716   6.977
 4767SOL    HW215201   4.199   6.599   6.904
 4768SOL     OW15202   0.814   0.996   4.869
 4768SOL    HW115203   0.781   0.955   4.954
 4768SOL    HW215204   0.908   1.027   4.880
 4769SOL     OW15205   3.648   0.820   1.672
 4769SOL    HW115206   3.651   0.817   1.572
 4769SOL    HW215207   3.624   0.730   1.708
 4770SOL     OW15208   2.391   0.378   3.746
 4770SOL    HW115209   2.394   0.399   3.844
 4770SOL    HW215210   2.328   0.441   3.701
 4771SOL     OW15211   4.150   4.141   5.352
 4771SOL    HW115212   4.237   4.095   5.366
 4771SOL    HW215213   4.161   4.239   5.368
 4772SOL     OW15214   2.096   2.782   0.221
 4772SOL    HW115215   2.081   2.796   0.123
 4772SOL    HW215216   2.194   2.793   0.240
 4773SOL     OW15217   0.240   5.434   4.048
 4773SOL    HW115218   0.269   5.444   3.953
 4773SOL    HW215219   0.149   5.473   4.060
 4774SOL     OW15220   0.904   4.394   6.914
 4774SOL    HW115221   0.996   4.379   6.877
 4774SOL    HW215222   0.859   4.305   6.926
 4775SOL     OW15223   2.330   1.610   2.305
 4775SOL    HW115224   2.397   1.680   2.330
 4775SOL    HW215225   2.266   1.648   2.238
 4776SOL     OW15226   3.768   4.884   2.201
 4776SOL    HW115227   3.741   4.816   2.133
 4776SOL    HW215228   3.724   4.863   2.288
 4777SOL     OW15229   2.854   4.246   1.411
 4777SOL    HW115230   2.942   4.292   1.426
 4777SOL    HW215231   2.854   4.157   1.456
 4778SOL     OW15232   5.230   3.810   2.774
 4778SOL    HW115233   5.152   3.785   2.717
 4778SOL    HW215234   5.231   3.909   2.787
 4779SOL     OW15235   4.834   0.950   3.023
 4779SOL    HW115236   4.841   0.864   2.973
 4779SOL    HW215237   4.751   0.999   2.993
 4780SOL     OW15238   1.879   0.328   5.556
 4780SOL    HW115239   1.840   0.373   5.636
 4780SOL    HW215240   1.806   0.287   5.502
 4781SOL     OW15241   1.988   5.687   2.879
 4781SOL    HW115242   1.999   5.606   2.937
 4781SOL    HW215243   2.067   5.747   2.889
 4782SOL     OW15244   5.742   5.919   0.508
 4782SOL    HW115245   5.665   5.896   0.448
 4782SOL    HW215246   5.818   5.953   0.453
 4783SOL     OW15247   6.519   3.798   2.596
 4783SOL    HW115248   6.540   3.890   2.562
 4783SOL    HW215249   6.572   3.731   2.545
 4784SOL     OW15250   6.029   4.174   4.888
 4784SOL    HW115251   5.993   4.142   4.801
 4784SOL    HW215252   6.129   4.163   4.889
 4785SOL     OW15253   6.358   6.894   0.881
 4785SOL    HW115254   6.308   6.819   0.838
 4785SOL    HW215255   6.452   6.895   0.846
 4786SOL     OW15256   1.848   3.058   2.405
 4786SOL    HW115257   1.895   2.975   2.435
 4786SOL    HW215258   1.762   3.067   2.455
 4787SOL     OW15259   4.469   2.350   2.622
 4787SOL    HW115260   4.416   2.363   2.706
 4787SOL    HW215261   4.517   2.262   2.626
 4788SOL     OW15262   1.329   6.100   5.661
 4788SOL    HW115263   1.364   6.031   5.598
 4788SOL    HW215264   1.266   6.057   5.726
 4789SOL     OW15265   6.253   6.672   0.705
 4789SOL    HW115266   6.332   6.715   0.662
 4789SOL    HW215267   6.180   6.659   0.636
 4790SOL     OW15268   5.283   0.827   6.846
 4790SOL    HW115269   5.368   0.875   6.824
 4790SOL    HW215270   5.285   0.736   6.804
 4791SOL     OW15271   4.379   1.447   3.310
 4791SOL    HW115272   4.478   1.452   3.318
 4791SOL    HW215273   4.345   1.529   3.263
 4792SOL     OW15274   3.051   2.306   1.526
 4792SOL    HW115275   3.126   2.258   1.479
 4792SOL    HW215276   3.089   2.382   1.579
 4793SOL     OW15277   0.543   0.286   6.429
 4793SOL    HW115278   0.454   0.249   6.456
 4793SOL    HW215279   0.589   0.220   6.370
 4794SOL     OW15280   4.183   0.823   1.905
 4794SOL    HW115281   4.236   0.903   1.933
 4794SOL    HW215282   4.148   0.777   1.987
 4795SOL     OW15283   5.678   2.647   4.307
 4795SOL    HW115284   5.765   2.625   4.263
 4795SOL    HW215285   5.603   2.626   4.244
 4796SOL     OW15286   6.216   3.914   0.945
 4796SOL    HW115287   6.122   3.901   0.975
 4796SOL    HW215288   6.236   3.852   0.869
 4797SOL     OW15289   0.398   4.788   5.000
 4797SOL    HW115290   0.408   4.852   5.076
 4797SOL    HW215291   0.310   4.804   4.955
 4798SOL     OW15292   6.463   4.140   5.424
 4798SOL    HW115293   6.527   4.153   5.348
 4798SOL    HW215294   6.373   4.177   5.399
 4799SOL     OW15295   3.808   1.352   4.938
 4799SOL    HW115296   3.826   1.407   4.857
 4799SOL    HW215297   3.870   1.379   5.011
 4800SOL     OW15298   2.091   1.670   3.829
 4800SOL    HW115299   2.045   1.664   3.918
 4800SOL    HW215300   2.108   1.766   3.807
 4801SOL     OW15301   1.115   2.851   0.654
 4801SOL    HW115302   1.016   2.847   0.668
 4801SOL    HW215303   1.150   2.937   0.691
 4802SOL     OW15304   1.822   0.399   2.040
 4802SOL    HW115305   1.792   0.370   1.949
 4802SOL    HW215306   1.757   0.367   2.109
 4803SOL     OW15307   0.759   6.946   1.132
 4803SOL    HW115308   0.832   6.891   1.172
 4803SOL    HW215309   0.677   6.890   1.121
 4804SOL     OW15310   3.655   5.607   0.199
 4804SOL    HW115311   3.602   5.522   0.206
 4804SOL    HW215312   3.751   5.586   0.180
 4805SOL     OW15313   0.523   1.216   1.102
 4805SOL    HW115314   0.508   1.121   1.127
 4805SOL    HW215315   0.621   1.233   1.093
 4806SOL     OW15316   0.335   2.894   3.105
 4806SOL    HW115317   0.298   2.802   3.118
 4806SOL    HW215318   0.434   2.890   3.098
 4807SOL     OW15319   0.733   6.439   2.254
 4807SOL    HW115320   0.635   6.452   2.235
 4807SOL    HW215321   0.761   6.348   2.223
 4808SOL     OW15322   5.507   2.976   1.382
 4808SOL    HW115323   5.581   2.995   1.317
 4808SOL    HW215324   5.500   2.877   1.396
 4809SOL     OW15325   4.049   6.548   6.218
 4809SOL    HW115326   3.976   6.586   6.161
 4809SOL    HW215327   4.010   6.511   6.302
 4810SOL     OW15328   1.141   0.265   1.229
 4810SOL    HW115329   1.194   0.328   1.173
 4810SOL    HW215330   1.092   0.317   1.299
 4811SOL     OW15331   5.707   5.799   2.820
 4811SOL    HW115332   5.659   5.789   2.733
 4811SOL    HW215333   5.761   5.883   2.819
 4812SOL     OW15334   6.746   4.959   4.082
 4812SOL    HW115335   6.823   4.896   4.083
 4812SOL    HW215336   6.665   4.914   4.118
 4813SOL     OW15337   5.763   2.972   2.976
 4813SOL    HW115338   5.751   3.062   2.935
 4813SOL    HW215339   5.778   2.904   2.904
 4814SOL     OW15340   6.509   3.409   1.846
 4814SOL    HW115341   6.463   3.344   1.906
 4814SOL    HW215342   6.444   3.477   1.814
 4815SOL     OW15343   4.205   6.738   2.983
 4815SOL    HW115344   4.250   6.652   3.006
 4815SOL    HW215345   4.206   6.799   3.062
 4816SOL     OW15346   5.329   5.081   3.222
 4816SOL    HW115347   5.296   5.175   3.215
 4816SOL    HW215348   5.354   5.061   3.317
 4817SOL     OW15349   0.260   1.584   0.179
 4817SOL    HW115350   0.332   1.536   0.230
 4817SOL    HW215351   0.241   1.671   0.224
 4818SOL     OW15352   6.903   5.994   3.206
 4818SOL    HW115353   6.846   6.009   3.286
 4818SOL    HW215354   6.989   5.951   3.234
 4819SOL     OW15355   1.910   3.432   1.339
 4819SOL    HW115356   1.842   3.360   1.327
 4819SOL    HW215357   1.981   3.400   1.403
 4820SOL     OW15358   0.548   3.164   2.443
 4820SOL    HW115359   0.632   3.218   2.455
 4820SOL    HW215360   0.478   3.221   2.400
 4821SOL     OW15361   0.092   5.733   3.957
 4821SOL    HW115362   0.087   5.766   4.051
 4821SOL    HW215363   0.151   5.793   3.903
 4822SOL     OW15364   2.062   4.640   4.128
 4822SOL    HW115365   2.104   4.650   4.218
 4822SOL    HW215366   2.133   4.620   4.060
 4823SOL     OW15367   1.437   2.918   1.303
 4823SOL    HW115368   1.393   2.998   1.343
 4823SOL    HW215369   1.482   2.943   1.218
 4824SOL     OW15370   6.573   1.710   6.908
 4824SOL    HW115371   6.580   1.618   6.869
 4824SOL    HW215372   6.606   1.709   7.002
 4825SOL     OW15373   0.775   6.883   3.966
 4825SOL    HW115374   0.873   6.904   3.955
 4825SOL    HW215375   0.765   6.808   4.031
 4826SOL     OW15376   3.697   0.215   1.215
 4826SOL    HW115377   3.713   0.251   1.123
 4826SOL    HW215378   3.608   0.246   1.248
 4827SOL     OW15379   6.882   1.606   0.974
 4827SOL    HW115380   6.817   1.555   1.031
 4827SOL    HW215381   6.975   1.587   1.005
 4828SOL     OW15382   5.686   1.748   5.408
 4828SOL    HW115383   5.593   1.716   5.426
 4828SOL    HW215384   5.710   1.821   5.473
 4829SOL     OW15385   4.339   6.483   5.005
 4829SOL    HW115386   4.418   6.529   4.965
 4829SOL    HW215387   4.265   6.549   5.019
 4830SOL     OW15388   1.882   6.743   3.612
 4830SOL    HW115389   1.867   6.644   3.605
 4830SOL    HW215390   1.857   6.773   3.704
 4831SOL     OW15391   3.130   4.513   5.290
 4831SOL    HW115392   3.053   4.539   5.231
 4831SOL    HW215393   3.122   4.417   5.316
 4832SOL     OW15394   3.936   3.556   4.133
 4832SOL    HW115395   3.869   3.545   4.206
 4832SOL    HW215396   3.964   3.652   4.128
 4833SOL     OW15397   6.587   2.929   4.973
 4833SOL    HW115398   6.669   2.931   5.031
 4833SOL    HW215399   6.525   3.003   5.001
 4834SOL     OW15400   1.180   5.176   1.549
 4834SOL    HW115401   1.238   5.099   1.519
 4834SOL    HW215402   1.120   5.203   1.473
 4835SOL     OW15403   0.154   3.083   5.980
 4835SOL    HW115404   0.193   3.079   6.072
 4835SOL    HW215405   0.217   3.040   5.915
 4836SOL     OW15406   4.248   2.189   5.721
 4836SOL    HW115407   4.169   2.169   5.780
 4836SOL    HW215408   4.247   2.286   5.697
 4837SOL     OW15409   0.993   3.732   3.959
 4837SOL    HW115410   1.047   3.749   3.877
 4837SOL    HW215411   1.029   3.653   4.008
 4838SOL     OW15412   2.233   3.963   6.184
 4838SOL    HW115413   2.255   4.055   6.154
 4838SOL    HW215414   2.153   3.930   6.134
 4839SOL     OW15415   2.471   1.052   0.828
 4839SOL    HW115416   2.389   1.076   0.879
 4839SOL    HW215417   2.446   1.022   0.736
 4840SOL     OW15418   5.333   3.099   5.012
 4840SOL    HW115419   5.410   3.153   4.977
 4840SOL    HW215420   5.366   3.012   5.048
 4841SOL     OW15421   2.507   6.379   3.110
 4841SOL    HW115422   2.493   6.478   3.104
 4841SOL    HW215423   2.593   6.361   3.158
 4842SOL     OW15424   3.561   6.087   3.223
 4842SOL    HW115425   3.558   6.149   3.144
 4842SOL    HW215426   3.471   6.084   3.266
 4843SOL     OW15427   6.924   1.352   0.249
 4843SOL    HW115428   6.835   1.309   0.229
 4843SOL    HW215429   6.910   1.448   0.269
 4844SOL     OW15430   1.400   5.364   6.135
 4844SOL    HW115431   1.370   5.394   6.044
 4844SOL    HW215432   1.322   5.358   6.196
 4845SOL     OW15433   5.021   3.861   4.902
 4845SOL    HW115434   4.987   3.953   4.883
 4845SOL    HW215435   4.945   3.802   4.930
 4846SOL     OW15436   6.127   3.445   4.830
 4846SOL    HW115437   6.076   3.360   4.814
 4846SOL    HW215438   6.122   3.468   4.927
 4847SOL     OW15439   2.572   6.827   6.584
 4847SOL    HW115440   2.473   6.820   6.597
 4847SOL    HW215441   2.601   6.759   6.517
 4848SOL     OW15442   4.582   1.155   3.935
 4848SOL    HW115443   4.563   1.229   4.000
 4848SOL    HW215444   4.498   1.133   3.885
 4849SOL     OW15445   2.122   6.521   1.065
 4849SOL    HW115446   2.140   6.485   0.973
 4849SOL    HW215447   2.076   6.451   1.119
 4850SOL     OW15448   3.510   6.556   1.355
 4850SOL    HW115449   3.586   6.617   1.378
 4850SOL    HW215450   3.448   6.548   1.434
 4851SOL     OW15451   3.687   4.732   0.160
 4851SOL    HW115452   3.610   4.726   0.097
 4851SOL    HW215453   3.735   4.819   0.147
 4852SOL     OW15454   4.951   5.099   5.994
 4852SOL    HW115455   4.871   5.040   5.988
 4852SOL    HW215456   5.031   5.044   6.021
 4853SOL     OW15457   4.768   0.331   2.270
 4853SOL    HW115458   4.713   0.377   2.340
 4853SOL    HW215459   4.727   0.242   2.249
 4854SOL     OW15460   4.259   6.656   2.083
 4854SOL    HW115461   4.232   6.745   2.120
 4854SOL    HW215462   4.346   6.628   2.122
 4855SOL     OW15463   4.815   4.991   5.644
 4855SOL    HW115464   4.826   4.899   5.605
 4855SOL    HW215465   4.757   5.046   5.584
 4856SOL     OW15466   0.491   3.233   2.718
 4856SOL    HW115467   0.499   3.202   2.623
 4856SOL    HW215468   0.440   3.319   2.720
 4857SOL     OW15469   2.416   2.601   5.149
 4857SOL    HW115470   2.466   2.602   5.236
 4857SOL    HW215471   2.396   2.507   5.123
 4858SOL     OW15472   1.701   6.367   4.984
 4858SOL    HW115473   1.762   6.288   4.980
 4858SOL    HW215474   1.733   6.431   5.054
 4859SOL     OW15475   6.726   5.797   2.931
 4859SOL    HW115476   6.721   5.820   2.834
 4859SOL    HW215477   6.759   5.877   2.983
 4860SOL     OW15478   3.994   5.208   2.376
 4860SOL    HW115479   4.048   5.149   2.316
 4860SOL    HW215480   3.980   5.296   2.332
 4861SOL     OW15481   0.341   4.781   5.465
 4861SOL    HW115482   0.289   4.744   5.389
 4861SOL    HW215483   0.350   4.711   5.536
 4862SOL     OW15484   2.248   6.339   4.680
 4862SOL    HW115485   2.269   6.368   4.774
 4862SOL    HW215486   2.180   6.266   4.683
 4863SOL     OW15487   5.740   1.558   1.868
 4863SOL    HW115488   5.782   1.514   1.948
 4863SOL    HW215489   5.723   1.654   1.888
 4864SOL     OW15490   2.259   1.856   0.947
 4864SOL    HW115491   2.235   1.848   1.043
 4864SOL    HW215492   2.358   1.870   0.938
 4865SOL     OW15493   3.907   6.216   4.934
 4865SOL    HW115494   3.991   6.228   4.882
 4865SOL    HW215495   3.909   6.274   5.015
 4866SOL     OW15496   0.927   5.439   1.701
 4866SOL    HW115497   0.883   5.522   1.734
 4866SOL    HW215498   0.860   5.383   1.653
 4867SOL     OW15499   5.363   4.465   4.614
 4867SOL    HW115500   5.348   4.564   4.616
 4867SOL    HW215501   5.274   4.418   4.609
 4868SOL     OW15502   2.166   5.502   1.729
 4868SOL    HW115503   2.067   5.508   1.747
 4868SOL    HW215504   2.200   5.415   1.764
 4869SOL     OW15505   6.099   1.840   1.378
 4869SOL    HW115506   6.147   1.767   1.426
 4869SOL    HW215507   6.034   1.884   1.440
 4870SOL     OW15508   6.489   0.672   1.125
 4870SOL    HW115509   6.451   0.595   1.176
 4870SOL    HW215510   6.470   0.757   1.174
 4871SOL     OW15511   1.528   3.797   4.529
 4871SOL    HW115512   1.608   3.855   4.516
 4871SOL    HW215513   1.445   3.849   4.507
 4872SOL     OW15514   1.259   0.844   3.805
 4872SOL    HW115515   1.228   0.843   3.709
 4872SOL    HW215516   1.290   0.752   3.830
 4873SOL     OW15517   1.256   6.340   5.591
 4873SOL    HW115518   1.163   6.361   5.621
 4873SOL    HW215519   1.282   6.250   5.624
 4874SOL     OW15520   6.078   2.764   3.257
 4874SOL    HW115521   6.091   2.760   3.158
 4874SOL    HW215522   6.013   2.693   3.284
 4875SOL     OW15523   7.012   3.000   6.291
 4875SOL    HW115524   0.069   3.047   6.253
 4875SOL    HW215525   6.988   2.923   6.232
 4876SOL     OW15526   0.441   1.700   6.965
 4876SOL    HW115527   0.480   1.610   6.985
 4876SOL    HW215528   0.511   1.770   6.973
 4877SOL     OW15529   5.860   1.462   2.086
 4877SOL    HW115530   5.816   1.378   2.118
 4877SOL    HW215531   5.935   1.485   2.148
 4878SOL     OW15532   0.395   2.844   1.809
 4878SOL    HW115533   0.340   2.771   1.850
 4878SOL    HW215534   0.492   2.824   1.820
 4879SOL     OW15535   4.675   5.721   3.151
 4879SOL    HW115536   4.690   5.818   3.165
 4879SOL    HW215537   4.680   5.700   3.054
 4880SOL     OW15538   6.289   1.961   5.501
 4880SOL    HW115539   6.363   2.020   5.534
 4880SOL    HW215540   6.321   1.906   5.424
 4881SOL     OW15541   2.785   5.520   6.227
 4881SOL    HW115542   2.722   5.578   6.279
 4881SOL    HW215543   2.814   5.567   6.144
 4882SOL     OW15544   5.038   6.323   0.032
 4882SOL    HW115545   5.123   6.300   7.006
 4882SOL    HW215546   5.000   6.407   7.015
 4883SOL     OW15547   6.194   5.684   0.158
 4883SOL    HW115548   6.173   5.624   0.235
 4883SOL    HW215549   6.115   5.690   0.097
 4884SOL     OW15550   4.432   6.702   1.382
 4884SOL    HW115551   4.345   6.656   1.402
 4884SOL    HW215552   4.438   6.719   1.283
 4885SOL     OW15553   2.187   0.048   2.584
 4885SOL    HW115554   2.203   6.990   2.641
 4885SOL    HW215555   2.119   0.107   2.628
 4886SOL     OW15556   5.956   1.022   5.678
 4886SOL    HW115557   5.860   1.011   5.650
 4886SOL    HW215558   5.987   1.114   5.654
 4887SOL     OW15559   0.625   2.214   5.584
 4887SOL    HW115560   0.566   2.294   5.569
 4887SOL    HW215561   0.569   2.131   5.581
 4888SOL     OW15562   3.085   6.006   2.076
 4888SOL    HW115563   3.051   5.953   1.999
 4888SOL    HW215564   3.170   6.051   2.051
 4889SOL     OW15565   1.424   2.980   6.046
 4889SOL    HW115566   1.503   3.041   6.044
 4889SOL    HW215567   1.453   2.887   6.023
 4890SOL     OW15568   0.205   0.580   4.188
 4890SOL    HW115569   0.122   0.527   4.171
 4890SOL    HW215570   0.245   0.552   4.275
 4891SOL     OW15571   1.376   4.004   0.303
 4891SOL    HW115572   1.319   4.067   0.356
 4891SOL    HW215573   1.394   3.922   0.358
 4892SOL     OW15574   1.847   5.349   2.488
 4892SOL    HW115575   1.796   5.322   2.570
 4892SOL    HW215576   1.926   5.287   2.476
 4893SOL     OW15577   0.858   3.708   7.002
 4893SOL    HW115578   0.814   3.703   0.069
 4893SOL    HW215579   0.787   3.711   6.931
 4894SOL     OW15580   1.882   0.735   3.205
 4894SOL    HW115581   1.806   0.776   3.256
 4894SOL    HW215582   1.878   0.764   3.110
 4895SOL     OW15583   5.829   4.019   0.078
 4895SOL    HW115584   5.815   4.027   0.177
 4895SOL    HW215585   5.831   4.111   0.037
 4896SOL     OW15586   3.824   6.628   3.511
 4896SOL    HW115587   3.785   6.711   3.471
 4896SOL    HW215588   3.750   6.572   3.550
 4897SOL     OW15589   2.742   5.665   6.628
 4897SOL    HW115590   2.750   5.757   6.668
 4897SOL    HW215591   2.729   5.598   6.702
 4898SOL     OW15592   6.168   2.134   4.294
 4898SOL    HW115593   6.224   2.194   4.237
 4898SOL    HW215594   6.135   2.058   4.240
 4899SOL     OW15595   4.826   4.930   4.808
 4899SOL    HW115596   4.902   4.938   4.744
 4899SOL    HW215597   4.860   4.902   4.898
 4900SOL     OW15598   0.477   6.671   5.095
 4900SOL    HW115599   0.521   6.696   5.181
 4900SOL    HW215600   0.435   6.581   5.106
 4901SOL     OW15601   0.072   6.949   3.105
 4901SOL    HW115602   0.014   7.011   3.158
 4901SOL    HW215603   0.117   7.000   3.031
 4902SOL     OW15604   3.502   4.864   1.672
 4902SOL    HW115605   3.409   4.876   1.705
 4902SOL    HW215606   3.554   4.808   1.737
 4903SOL     OW15607   5.652   5.364   6.057
 4903SOL    HW115608   5.739   5.412   6.064
 4903SOL    HW215609   5.588   5.417   6.002
 4904SOL     OW15610   2.968   6.794   3.558
 4904SOL    HW115611   3.048   6.845   3.528
 4904SOL    HW215612   2.889   6.856   3.564
 4905SOL     OW15613   6.472   3.425   3.458
 4905SOL    HW115614   6.570   3.404   3.460
 4905SOL    HW215615   6.433   3.391   3.372
 4906SOL     OW15616   4.791   0.854   1.089
 4906SOL    HW115617   4.798   0.944   1.047
 4906SOL    HW215618   4.786   0.863   1.188
 4907SOL     OW15619   2.510   1.780   1.891
 4907SOL    HW115620   2.412   1.761   1.897
 4907SOL    HW215621   2.545   1.800   1.982
 4908SOL     OW15622   4.177   5.291   0.575
 4908SOL    HW115623   4.223   5.300   0.664
 4908SOL    HW215624   4.093   5.238   0.587
 4909SOL     OW15625   6.247   0.403   5.237
 4909SOL    HW115626   6.247   0.444   5.328
 4909SOL    HW215627   6.341   0.397   5.204
 4910SOL     OW15628   5.744   6.663   6.415
 4910SOL    HW115629   5.801   6.582   6.399
 4910SOL    HW215630   5.657   6.635   6.453
 4911SOL     OW15631   1.077   3.844   6.246
 4911SOL    HW115632   1.171   3.876   6.253
 4911SOL    HW215633   1.052   3.834   6.149
 4912SOL     OW15634   2.502   2.623   1.878
 4912SOL    HW115635   2.577   2.651   1.818
 4912SOL    HW215636   2.526   2.536   1.922
 4913SOL     OW15637   2.565   3.085   1.723
 4913SOL    HW115638   2.645   3.113   1.777
 4913SOL    HW215639   2.500   3.161   1.719
 4914SOL     OW15640   1.436   6.606   2.749
 4914SOL    HW115641   1.474   6.682   2.696
 4914SOL    HW215642   1.365   6.641   2.811
 4915SOL     OW15643   2.272   6.351   3.297
 4915SOL    HW115644   2.338   6.400   3.240
 4915SOL    HW215645   2.316   6.273   3.341
 4916SOL     OW15646   1.953   1.994   2.753
 4916SOL    HW115647   1.984   2.029   2.841
 4916SOL    HW215648   1.937   2.070   2.690
 4917SOL     OW15649   1.906   4.151   6.064
 4917SOL    HW115650   1.935   4.056   6.070
 4917SOL    HW215651   1.891   4.188   6.156
 4918SOL     OW15652   2.287   0.702   3.790
 4918SOL    HW115653   2.300   0.786   3.737
 4918SOL    HW215654   2.345   0.704   3.871
 4919SOL     OW15655   2.363   3.279   1.645
 4919SOL    HW115656   2.282   3.224   1.666
 4919SOL    HW215657   2.366   3.358   1.706
 4920SOL     OW15658   4.134   0.576   0.341
 4920SOL    HW115659   4.138   0.662   0.391
 4920SOL    HW215660   4.214   0.567   0.282
 4921SOL     OW15661   0.494   4.810   1.754
 4921SOL    HW115662   0.525   4.758   1.834
 4921SOL    HW215663   0.401   4.784   1.731
 4922SOL     OW15664   1.031   3.098   6.036
 4922SOL    HW115665   0.999   3.022   6.093
 4922SOL    HW215666   1.075   3.061   5.954
 4923SOL     OW15667   2.975   1.948   0.388
 4923SOL    HW115668   2.910   1.887   0.434
 4923SOL    HW215669   2.947   1.960   0.293
 4924SOL     OW15670   0.041   3.715   4.132
 4924SOL    HW115671   0.125   3.732   4.184
 4924SOL    HW215672   6.984   3.739   4.188
 4925SOL     OW15673   4.815   5.957   6.314
 4925SOL    HW115674   4.785   5.907   6.232
 4925SOL    HW215675   4.735   5.979   6.370
 4926SOL     OW15676   4.421   3.047   0.444
 4926SOL    HW115677   4.463   3.136   0.465
 4926SOL    HW215678   4.326   3.047   0.477
 4927SOL     OW15679   3.079   3.559   2.039
 4927SOL    HW115680   3.137   3.610   2.102
 4927SOL    HW215681   3.005   3.515   2.091
 4928SOL     OW15682   0.854   6.851   0.357
 4928SOL    HW115683   0.859   6.758   0.396
 4928SOL    HW215684   0.913   6.857   0.277
 4929SOL     OW15685   1.076   4.717   4.480
 4929SOL    HW115686   1.143   4.680   4.543
 4929SOL    HW215687   1.070   4.658   4.399
 4930SOL     OW15688   0.384   3.010   0.675
 4930SOL    HW115689   0.442   2.958   0.612
 4930SOL    HW215690   0.328   2.947   0.729
 4931SOL     OW15691   6.619   6.575   0.993
 4931SOL    HW115692   6.570   6.570   1.080
 4931SOL    HW215693   6.558   6.546   0.920
 4932SOL     OW15694   3.351   1.795   1.015
 4932SOL    HW115695   3.389   1.884   1.041
 4932SOL    HW215696   3.365   1.730   1.089
 4933SOL     OW15697   2.568   0.270   4.981
 4933SOL    HW115698   2.632   0.341   4.953
 4933SOL    HW215699   2.536   0.289   5.074
 4934SOL     OW15700   1.885   6.164   5.013
 4934SOL    HW115701   1.984   6.156   5.016
 4934SOL    HW215702   1.849   6.109   4.938
 4935SOL     OW15703   1.996   1.592   0.800
 4935SOL    HW115704   2.070   1.656   0.781
 4935SOL    HW215705   1.987   1.527   0.724
 4936SOL     OW15706   5.189   6.144   1.469
 4936SOL    HW115707   5.284   6.117   1.454
 4936SOL    HW215708   5.136   6.130   1.385
 4937SOL     OW15709   1.137   3.008   4.697
 4937SOL    HW115710   1.137   2.991   4.796
 4937SOL    HW215711   1.048   2.984   4.659
 4938SOL     OW15712   3.400   4.922   1.997
 4938SOL    HW115713   3.426   5.003   1.944
 4938SOL    HW215714   3.477   4.858   1.999
 4939SOL     OW15715   1.347   1.269   0.795
 4939SOL    HW115716   1.255   1.261   0.836
 4939SOL    HW215717   1.367   1.365   0.778
 4940SOL     OW15718   1.149   1.907   5.774
 4940SOL    HW115719   1.112   1.881   5.685
 4940SOL    HW215720   1.249   1.905   5.770
 4941SOL     OW15721   3.982   2.497   5.370
 4941SOL    HW115722   4.054   2.510   5.303
 4941SOL    HW215723   3.991   2.406   5.412
 4942SOL     OW15724   0.219   1.833   3.219
 4942SOL    HW115725   0.257   1.919   3.254
 4942SOL    HW215726   0.260   1.756   3.268
 4943SOL     OW15727   5.296   2.681   6.914
 4943SOL    HW115728   5.270   2.659   7.008
 4943SOL    HW215729   5.240   2.628   6.850
 4944SOL     OW15730   0.828   4.761   0.473
 4944SOL    HW115731   0.763   4.696   0.513
 4944SOL    HW215732   0.868   4.722   0.390
 4945SOL     OW15733   2.567   0.135   5.923
 4945SOL    HW115734   2.663   0.143   5.951
 4945SOL    HW215735   2.520   0.072   5.984
 4946SOL     OW15736   2.705   5.420   6.799
 4946SOL    HW115737   2.650   5.447   6.879
 4946SOL    HW215738   2.704   5.320   6.791
 4947SOL     OW15739   0.724   0.241   0.858
 4947SOL    HW115740   0.690   0.275   0.770
 4947SOL    HW215741   0.813   0.284   0.878
 4948SOL     OW15742   1.920   2.199   2.525
 4948SOL    HW115743   2.008   2.216   2.480
 4948SOL    HW215744   1.846   2.227   2.464
 4949SOL     OW15745   0.122   4.447   6.081
 4949SOL    HW115746   0.147   4.362   6.035
 4949SOL    HW215747   0.037   4.483   6.041
 4950SOL     OW15748   4.183   4.365   5.615
 4950SOL    HW115749   4.175   4.272   5.650
 4950SOL    HW215750   4.133   4.373   5.529
 4951SOL     OW15751   5.030   5.820   2.811
 4951SOL    HW115752   5.078   5.735   2.792
 4951SOL    HW215753   4.973   5.845   2.733
 4952SOL     OW15754   0.647   0.581   6.829
 4952SOL    HW115755   0.560   0.593   6.876
 4952SOL    HW215756   0.710   0.531   6.887
 4953SOL     OW15757   1.287   2.140   4.991
 4953SOL    HW115758   1.248   2.152   4.900
 4953SOL    HW215759   1.268   2.047   5.024
 4954SOL     OW15760   2.865   3.853   4.929
 4954SOL    HW115761   2.778   3.902   4.940
 4954SOL    HW215762   2.862   3.768   4.981
 4955SOL     OW15763   3.488   6.016   6.116
 4955SOL    HW115764   3.437   6.081   6.172
 4955SOL    HW215765   3.560   6.064   6.066
 4956SOL     OW15766   3.014   0.215   4.961
 4956SOL    HW115767   3.038   0.281   5.032
 4956SOL    HW215768   3.014   0.123   5.001
 4957SOL     OW15769   5.606   4.360   0.183
 4957SOL    HW115770   5.568   4.339   0.092
 4957SOL    HW215771   5.701   4.390   0.173
 4958SOL     OW15772   3.764   5.405   1.095
 4958SOL    HW115773   3.723   5.317   1.075
 4958SOL    HW215774   3.811   5.440   1.014
 4959SOL     OW15775   0.073   2.874   2.971
 4959SOL    HW115776   0.127   2.790   2.978
 4959SOL    HW215777   0.133   2.953   2.961
 4960SOL     OW15778   4.936   4.307   3.895
 4960SOL    HW115779   4.876   4.352   3.962
 4960SOL    HW215780   4.914   4.210   3.890
 4961SOL     OW15781   3.449   2.385   1.695
 4961SOL    HW115782   3.443   2.484   1.686
 4961SOL    HW215783   3.530   2.360   1.747
 4962SOL     OW15784   1.374   3.109   0.325
 4962SOL    HW115785   1.355   3.082   0.420
 4962SOL    HW215786   1.472   3.105   0.309
 4963SOL     OW15787   0.561   3.697   5.632
 4963SOL    HW115788   0.605   3.689   5.721
 4963SOL    HW215789   0.588   3.621   5.573
 4964SOL     OW15790   2.293   5.582   4.741
 4964SOL    HW115791   2.246   5.560   4.655
 4964SOL    HW215792   2.296   5.500   4.798
 4965SOL     OW15793   1.272   6.458   3.297
 4965SOL    HW115794   1.317   6.372   3.272
 4965SOL    HW215795   1.312   6.533   3.246
 4966SOL     OW15796   3.694   6.755   4.399
 4966SOL    HW115797   3.635   6.813   4.342
 4966SOL    HW215798   3.642   6.675   4.429
 4967SOL     OW15799   4.206   4.888   4.365
 4967SOL    HW115800   4.165   4.879   4.456
 4967SOL    HW215801   4.306   4.894   4.375
 4968SOL     OW15802   0.220   2.615   3.211
 4968SOL    HW115803   0.124   2.589   3.215
 4968SOL    HW215804   0.258   2.616   3.304
 4969SOL     OW15805   0.065   5.778   4.215
 4969SOL    HW115806   0.129   5.852   4.232
 4969SOL    HW215807   0.074   5.707   4.285
 4970SOL     OW15808   1.994   1.799   1.433
 4970SOL    HW115809   1.895   1.787   1.442
 4970SOL    HW215810   2.022   1.877   1.489
 4971SOL     OW15811   0.116   6.073   2.118
 4971SOL    HW115812   0.101   6.151   2.179
 4971SOL    HW215813   0.213   6.068   2.093
 4972SOL     OW15814   0.901   4.097   0.365
 4972SOL    HW115815   0.896   4.172   0.299
 4972SOL    HW215816   0.997   4.071   0.379
 4973SOL     OW15817   6.168   1.238   0.289
 4973SOL    HW115818   6.177   1.180   0.370
 4973SOL    HW215819   6.255   1.285   0.273
 4974SOL     OW15820   3.060   6.878   4.459
 4974SOL    HW115821   2.994   6.949   4.483
 4974SOL    HW215822   3.153   6.911   4.474
 4975SOL     OW15823   5.226   4.950   1.117
 4975SOL    HW115824   5.178   5.002   1.188
 4975SOL    HW215825   5.322   4.978   1.115
 4976SOL     OW15826   1.020   0.033   3.250
 4976SOL    HW115827   1.029   0.086   3.335
 4976SOL    HW215828   1.069   0.080   3.176
 4977SOL     OW15829   1.520   4.123   6.107
 4977SOL    HW115830   1.460   4.058   6.156
 4977SOL    HW215831   1.574   4.174   6.173
 4978SOL     OW15832   6.526   4.222   4.407
 4978SOL    HW115833   6.502   4.284   4.482
 4978SOL    HW215834   6.473   4.137   4.416
 4979SOL     OW15835   2.301   6.885   6.348
 4979SOL    HW115836   2.234   6.821   6.310
 4979SOL    HW215837   2.330   6.852   6.438
 4980SOL     OW15838   5.486   2.579   4.116
 4980SOL    HW115839   5.408   2.550   4.172
 4980SOL    HW215840   5.472   2.547   4.022
 4981SOL     OW15841   3.601   5.339   2.882
 4981SOL    HW115842   3.537   5.268   2.913
 4981SOL    HW215843   3.549   5.419   2.851
 4982SOL     OW15844   3.730   2.330   5.329
 4982SOL    HW115845   3.688   2.408   5.375
 4982SOL    HW215846   3.820   2.356   5.294
 4983SOL     OW15847   5.839   4.607   2.734
 4983SOL    HW115848   5.867   4.520   2.694
 4983SOL    HW215849   5.741   4.607   2.751
 4984SOL     OW15850   4.929   3.795   4.087
 4984SOL    HW115851   5.007   3.787   4.149
 4984SOL    HW215852   4.947   3.742   4.004
 4985SOL     OW15853   5.742   0.662   2.394
 4985SOL    HW115854   5.754   0.564   2.412
 4985SOL    HW215855   5.760   0.714   2.477
 4986SOL     OW15856   1.067   5.143   0.990
 4986SOL    HW115857   1.114   5.116   0.906
 4986SOL    HW215858   1.093   5.080   1.064
 4987SOL     OW15859   1.969   1.595   2.643
 4987SOL    HW115860   1.966   1.499   2.615
 4987SOL    HW215861   1.878   1.624   2.672
 4988SOL     OW15862   6.224   5.707   3.889
 4988SOL    HW115863   6.175   5.782   3.844
 4988SOL    HW215864   6.251   5.735   3.981
 4989SOL     OW15865   5.497   0.152   3.677
 4989SOL    HW115866   5.569   0.163   3.746
 4989SOL    HW215867   5.419   0.105   3.718
 4990SOL     OW15868   4.219   1.856   6.289
 4990SOL    HW115869   4.134   1.805   6.279
 4990SOL    HW215870   4.289   1.796   6.327
 4991SOL     OW15871   1.919   5.177   5.655
 4991SOL    HW115872   2.008   5.217   5.631
 4991SOL    HW215873   1.924   5.134   5.745
 4992SOL     OW15874   1.449   3.599   3.967
 4992SOL    HW115875   1.387   3.559   3.900
 4992SOL    HW215876   1.522   3.535   3.989
 4993SOL     OW15877   2.186   6.214   3.817
 4993SOL    HW115878   2.092   6.247   3.814
 4993SOL    HW215879   2.204   6.154   3.739
 4994SOL     OW15880   3.979   4.907   5.212
 4994SOL    HW115881   3.896   4.962   5.200
 4994SOL    HW215882   4.039   4.920   5.133
 4995SOL     OW15883   0.233   0.780   6.116
 4995SOL    HW115884   0.169   0.811   6.045
 4995SOL    HW215885   0.198   0.695   6.157
 4996SOL     OW15886   0.438   1.282   3.635
 4996SOL    HW115887   0.362   1.218   3.622
 4996SOL    HW215888   0.520   1.246   3.591
 4997SOL     OW15889   4.047   1.423   0.727
 4997SOL    HW115890   4.118   1.366   0.686
 4997SOL    HW215891   3.961   1.409   0.678
 4998SOL     OW15892   0.538   3.798   3.343
 4998SOL    HW115893   0.507   3.885   3.382
 4998SOL    HW215894   0.624   3.812   3.294
 4999SOL     OW15895   0.528   2.924   3.407
 4999SOL    HW115896   0.544   2.903   3.311
 4999SOL    HW215897   0.592   2.872   3.464
 5000SOL     OW15898   2.236   6.162   2.811
 5000SOL    HW115899   2.276   6.157   2.719
 5000SOL    HW215900   2.141   6.192   2.804
 5001SOL     OW15901   0.600   6.136   2.550
 5001SOL    HW115902   0.577   6.192   2.630
 5001SOL    HW215903   0.681   6.081   2.570
 5002SOL     OW15904   1.399   4.702   3.790
 5002SOL    HW115905   1.390   4.613   3.744
 5002SOL    HW215906   1.308   4.732   3.820
 5003SOL     OW15907   4.048   0.362   3.069
 5003SOL    HW115908   4.054   0.382   2.971
 5003SOL    HW215909   3.977   0.419   3.109
 5004SOL     OW15910   3.934   6.310   6.996
 5004SOL    HW115911   3.942   6.227   6.940
 5004SOL    HW215912   3.920   6.285   0.069
 5005SOL     OW15913   2.600   2.976   0.281
 5005SOL    HW115914   2.655   2.958   0.200
 5005SOL    HW215915   2.659   3.014   0.353
 5006SOL     OW15916   4.734   1.431   2.366
 5006SOL    HW115917   4.832   1.419   2.383
 5006SOL    HW215918   4.693   1.480   2.442
 5007SOL     OW15919   5.611   5.741   2.046
 5007SOL    HW115920   5.655   5.682   2.113
 5007SOL    HW215921   5.511   5.737   2.059
 5008SOL     OW15922   5.604   0.551   3.267
 5008SOL    HW115923   5.590   0.481   3.337
 5008SOL    HW215924   5.660   0.625   3.305
 5009SOL     OW15925   7.009   2.395   0.680
 5009SOL    HW115926   0.052   2.335   0.727
 5009SOL    HW215927   6.919   2.352   0.680
 5010SOL     OW15928   3.928   3.648   0.901
 5010SOL    HW115929   3.973   3.568   0.942
 5010SOL    HW215930   3.930   3.639   0.801
 5011SOL     OW15931   1.340   2.986   6.839
 5011SOL    HW115932   1.260   2.991   6.779
 5011SOL    HW215933   1.310   2.981   6.934
 5012SOL     OW15934   6.301   1.628   6.231
 5012SOL    HW115935   6.275   1.662   6.140
 5012SOL    HW215936   6.255   1.541   6.249
 5013SOL     OW15937   5.704   0.348   5.996
 5013SOL    HW115938   5.657   0.435   5.984
 5013SOL    HW215939   5.797   0.356   5.961
 5014SOL     OW15940   5.647   3.147   1.533
 5014SOL    HW115941   5.723   3.097   1.574
 5014SOL    HW215942   5.596   3.087   1.472
 5015SOL     OW15943   6.303   6.014   4.264
 5015SOL    HW115944   6.322   6.041   4.359
 5015SOL    HW215945   6.312   6.093   4.204
 5016SOL     OW15946   1.986   3.550   5.777
 5016SOL    HW115947   1.955   3.490   5.851
 5016SOL    HW215948   1.950   3.642   5.791
 5017SOL     OW15949   0.452   3.182   1.910
 5017SOL    HW115950   0.421   3.087   1.900
 5017SOL    HW215951   0.382   3.244   1.873
 5018SOL     OW15952   0.918   0.404   6.805
 5018SOL    HW115953   1.004   0.446   6.775
 5018SOL    HW215954   0.857   0.392   6.726
 5019SOL     OW15955   1.255   4.795   4.240
 5019SOL    HW115956   1.197   4.720   4.273
 5019SOL    HW215957   1.350   4.764   4.237
 5020SOL     OW15958   2.188   0.106   4.956
 5020SOL    HW115959   2.178   0.128   5.053
 5020SOL    HW215960   2.275   0.059   4.942
 5021SOL     OW15961   1.728   0.912   0.918
 5021SOL    HW115962   1.721   0.921   1.017
 5021SOL    HW215963   1.823   0.924   0.889
 5022SOL     OW15964   0.041   2.754   1.317
 5022SOL    HW115965   0.075   2.684   1.254
 5022SOL    HW215966   0.087   2.743   1.405
 5023SOL     OW15967   0.422   4.256   2.530
 5023SOL    HW115968   0.396   4.160   2.537
 5023SOL    HW215969   0.426   4.296   2.621
 5024SOL     OW15970   4.581   3.747   0.851
 5024SOL    HW115971   4.671   3.710   0.830
 5024SOL    HW215972   4.558   3.728   0.946
 5025SOL     OW15973   4.551   1.580   4.901
 5025SOL    HW115974   4.559   1.481   4.917
 5025SOL    HW215975   4.587   1.629   4.980
 5026SOL     OW15976   5.211   0.132   4.545
 5026SOL    HW115977   5.179   0.037   4.541
 5026SOL    HW215978   5.310   0.135   4.532
 5027SOL     OW15979   5.048   5.924   1.041
 5027SOL    HW115980   5.133   5.966   1.011
 5027SOL    HW215981   5.069   5.846   1.101
 5028SOL     OW15982   6.221   1.819   2.109
 5028SOL    HW115983   6.248   1.886   2.040
 5028SOL    HW215984   6.121   1.806   2.106
 5029SOL     OW15985   5.993   1.770   1.899
 5029SOL    HW115986   5.912   1.824   1.920
 5029SOL    HW215987   5.967   1.676   1.880
 5030SOL     OW15988   0.595   4.130   6.360
 5030SOL    HW115989   0.602   4.228   6.343
 5030SOL    HW215990   0.650   4.105   6.439
 5031SOL     OW15991   6.335   0.021   6.145
 5031SOL    HW115992   6.375   0.109   6.120
 5031SOL    HW215993   6.266   7.018   6.077
 5032SOL     OW15994   3.318   3.193   5.814
 5032SOL    HW115995   3.244   3.252   5.783
 5032SOL    HW215996   3.307   3.102   5.774
 5033SOL     OW15997   2.122   0.404   6.387
 5033SOL    HW115998   2.136   0.307   6.409
 5033SOL    HW215999   2.130   0.418   6.289
 5034SOL     OW16000   4.412   6.421   4.598
 5034SOL    HW116001   4.435   6.362   4.521
 5034SOL    HW216002   4.406   6.367   4.682
 5035SOL     OW16003   2.122   3.224   3.959
 5035SOL    HW116004   2.110   3.169   4.042
 5035SOL    HW216005   2.204   3.194   3.911
 5036SOL     OW16006   0.652   2.622   4.678
 5036SOL    HW116007   0.699   2.631   4.591
 5036SOL    HW216008   0.714   2.649   4.752
 5037SOL     OW16009   4.356   4.041   1.063
 5037SOL    HW116010   4.308   4.129   1.073
 5037SOL    HW216011   4.291   3.971   1.035
 5038SOL     OW16012   3.509   3.814   3.659
 5038SOL    HW116013   3.530   3.799   3.562
 5038SOL    HW216014   3.555   3.744   3.714
 5039SOL     OW16015   1.343   3.972   6.282
 5039SOL    HW116016   1.294   4.055   6.310
 5039SOL    HW216017   1.398   3.938   6.358
 5040SOL     OW16018   0.287   1.405   5.801
 5040SOL    HW116019   0.257   1.411   5.706
 5040SOL    HW216020   0.372   1.353   5.806
 5041SOL     OW16021   6.882   2.468   1.049
 5041SOL    HW116022   6.945   2.393   1.030
 5041SOL    HW216023   6.934   2.549   1.076
 5042SOL     OW16024   1.130   2.668   6.374
 5042SOL    HW116025   1.165   2.604   6.306
 5042SOL    HW216026   1.206   2.708   6.425
 5043SOL     OW16027   3.391   6.583   1.945
 5043SOL    HW116028   3.439   6.665   1.917
 5043SOL    HW216029   3.456   6.520   1.989
 5044SOL     OW16030   6.391   4.933   0.264
 5044SOL    HW116031   6.407   4.889   0.175
 5044SOL    HW216032   6.304   4.982   0.261
 5045SOL     OW16033   5.776   2.668   6.929
 5045SOL    HW116034   5.774   2.570   6.910
 5045SOL    HW216035   5.870   2.702   6.917
 5046SOL     OW16036   3.573   3.330   2.634
 5046SOL    HW116037   3.548   3.395   2.562
 5046SOL    HW216038   3.626   3.255   2.595
 5047SOL     OW16039   2.177   3.666   3.807
 5047SOL    HW116040   2.186   3.749   3.862
 5047SOL    HW216041   2.108   3.606   3.849
 5048SOL     OW16042   2.213   1.008   5.977
 5048SOL    HW116043   2.224   1.102   5.944
 5048SOL    HW216044   2.290   0.952   5.944
 5049SOL     OW16045   4.361   1.572   6.741
 5049SOL    HW116046   4.263   1.576   6.759
 5049SOL    HW216047   4.408   1.534   6.821
 5050SOL     OW16048   1.822   0.127   0.828
 5050SOL    HW116049   1.886   0.156   0.756
 5050SOL    HW216050   1.861   0.149   0.917
 5051SOL     OW16051   4.683   4.983   1.374
 5051SOL    HW116052   4.599   5.023   1.336
 5051SOL    HW216053   4.709   4.904   1.319
 5052SOL     OW16054   2.782   1.707   5.127
 5052SOL    HW116055   2.788   1.724   5.028
 5052SOL    HW216056   2.811   1.789   5.177
 5053SOL     OW16057   0.063   0.876   1.844
 5053SOL    HW116058   0.140   0.935   1.818
 5053SOL    HW216059   7.002   0.931   1.849
 5054SOL     OW16060   3.756   5.118   3.900
 5054SOL    HW116061   3.755   5.212   3.867
 5054SOL    HW216062   3.838   5.103   3.956
 5055SOL     OW16063   0.079   4.071   5.986
 5055SOL    HW116064   0.137   3.990   5.974
 5055SOL    HW216065   0.136   4.153   5.991
 5056SOL     OW16066   5.856   4.271   4.117
 5056SOL    HW116067   5.910   4.263   4.034
 5056SOL    HW216068   5.787   4.199   4.119
 5057SOL     OW16069   1.008   5.476   2.314
 5057SOL    HW116070   1.041   5.428   2.233
 5057SOL    HW216071   1.035   5.572   2.308
 5058SOL     OW16072   2.904   5.252   5.655
 5058SOL    HW116073   2.995   5.211   5.645
 5058SOL    HW216074   2.882   5.261   5.752
 5059SOL     OW16075   6.792   0.338   2.288
 5059SOL    HW116076   6.867   0.402   2.274
 5059SOL    HW216077   6.708   0.378   2.252
 5060SOL     OW16078   6.888   2.257   5.882
 5060SOL    HW116079   6.809   2.318   5.889
 5060SOL    HW216080   6.910   2.221   5.973
 5061SOL     OW16081   5.256   4.773   0.324
 5061SOL    HW116082   5.242   4.790   0.422
 5061SOL    HW216083   5.267   4.675   0.309
 5062SOL     OW16084   6.924   0.490   1.046
 5062SOL    HW116085   6.968   0.568   1.091
 5062SOL    HW216086   6.993   0.424   1.019
 5063SOL     OW16087   1.589   6.110   1.927
 5063SOL    HW116088   1.544   6.059   2.000
 5063SOL    HW216089   1.625   6.047   1.859
 5064SOL     OW16090   5.089   3.416   0.122
 5064SOL    HW116091   5.017   3.350   0.100
 5064SOL    HW216092   5.116   3.463   0.038
 5065SOL     OW16093   2.790   6.825   5.511
 5065SOL    HW116094   2.792   6.739   5.561
 5065SOL    HW216095   2.807   6.901   5.573
 5066SOL     OW16096   4.697   4.875   1.010
 5066SOL    HW116097   4.602   4.846   0.996
 5066SOL    HW216098   4.732   4.832   1.093
 5067SOL     OW16099   5.426   1.207   6.704
 5067SOL    HW116100   5.445   1.265   6.626
 5067SOL    HW216101   5.328   1.210   6.725
 5068SOL     OW16102   3.499   5.149   1.799
 5068SOL    HW116103   3.447   5.103   1.726
 5068SOL    HW216104   3.458   5.238   1.818
 5069SOL     OW16105   0.163   5.082   2.893
 5069SOL    HW116106   0.126   5.039   2.975
 5069SOL    HW216107   0.228   5.153   2.919
 5070SOL     OW16108   4.922   3.496   4.110
 5070SOL    HW116109   4.893   3.591   4.123
 5070SOL    HW216110   4.891   3.441   4.188
 5071SOL     OW16111   3.815   0.778   0.095
 5071SOL    HW116112   3.818   0.757   7.019
 5071SOL    HW216113   3.871   0.713   0.145
 5072SOL     OW16114   1.164   4.348   1.089
 5072SOL    HW116115   1.242   4.343   1.151
 5072SOL    HW216116   1.161   4.267   1.031
 5073SOL     OW16117   4.400   2.066   4.571
 5073SOL    HW116118   4.304   2.040   4.556
 5073SOL    HW216119   4.456   1.984   4.576
 5074SOL     OW16120   3.663   5.004   5.302
 5074SOL    HW116121   3.719   5.080   5.269
 5074SOL    HW216122   3.686   4.985   5.398
 5075SOL     OW16123   6.625   6.815   4.025
 5075SOL    HW116124   6.551   6.794   4.088
 5075SOL    HW216125   6.670   6.730   3.996
 5076SOL     OW16126   3.625   0.465   0.761
 5076SOL    HW116127   3.623   0.432   0.667
 5076SOL    HW216128   3.537   0.508   0.783
 5077SOL     OW16129   0.114   2.333   2.074
 5077SOL    HW116130   0.155   2.303   1.988
 5077SOL    HW216131   0.184   2.333   2.146
 5078SOL     OW16132   0.410   0.936   3.701
 5078SOL    HW116133   0.327   0.960   3.751
 5078SOL    HW216134   0.414   0.987   3.615
 5079SOL     OW16135   3.810   5.161   4.587
 5079SOL    HW116136   3.804   5.064   4.564
 5079SOL    HW216137   3.765   5.215   4.516
 5080SOL     OW16138   5.804   6.944   5.885
 5080SOL    HW116139   5.731   6.936   5.954
 5080SOL    HW216140   5.771   6.998   5.808
 5081SOL     OW16141   3.247   3.370   2.707
 5081SOL    HW116142   3.198   3.443   2.755
 5081SOL    HW216143   3.289   3.308   2.774
 5082SOL     OW16144   6.707   0.352   6.276
 5082SOL    HW116145   6.788   0.303   6.307
 5082SOL    HW216146   6.727   0.450   6.272
 5083SOL     OW16147   1.362   5.439   2.021
 5083SOL    HW116148   1.424   5.387   2.080
 5083SOL    HW216149   1.365   5.536   2.046
 5084SOL     OW16150   1.975   6.234   2.784
 5084SOL    HW116151   1.921   6.164   2.738
 5084SOL    HW216152   1.980   6.316   2.727
 5085SOL     OW16153   6.682   3.091   6.024
 5085SOL    HW116154   6.760   3.113   5.966
 5085SOL    HW216155   6.713   3.078   6.118
 5086SOL     OW16156   6.999   5.208   4.112
 5086SOL    HW116157   6.912   5.160   4.124
 5086SOL    HW216158   7.013   5.270   4.189
 5087SOL     OW16159   0.126   5.616   5.160
 5087SOL    HW116160   0.171   5.612   5.249
 5087SOL    HW216161   0.027   5.609   5.172
 5088SOL     OW16162   5.938   0.487   6.705
 5088SOL    HW116163   5.925   0.517   6.800
 5088SOL    HW216164   5.975   0.394   6.705
 5089SOL     OW16165   5.346   2.584   3.849
 5089SOL    HW116166   5.267   2.636   3.881
 5089SOL    HW216167   5.315   2.506   3.794
 5090SOL     OW16168   1.354   4.622   0.663
 5090SOL    HW116169   1.391   4.607   0.755
 5090SOL    HW216170   1.292   4.700   0.665
 5091SOL     OW16171   1.401   6.828   3.408
 5091SOL    HW116172   1.442   6.875   3.487
 5091SOL    HW216173   1.302   6.820   3.423
 5092SOL     OW16174   3.791   2.811   1.439
 5092SOL    HW116175   3.729   2.835   1.513
 5092SOL    HW216176   3.819   2.716   1.448
 5093SOL     OW16177   0.989   1.626   0.823
 5093SOL    HW116178   0.997   1.594   0.729
 5093SOL    HW216179   0.922   1.570   0.872
 5094SOL     OW16180   6.502   0.279   6.487
 5094SOL    HW116181   6.553   0.311   6.407
 5094SOL    HW216182   6.412   0.322   6.489
 5095SOL     OW16183   3.370   0.335   5.466
 5095SOL    HW116184   3.388   0.276   5.545
 5095SOL    HW216185   3.370   0.279   5.383
 5096SOL     OW16186   4.195   5.653   2.800
 5096SOL    HW116187   4.219   5.654   2.897
 5096SOL    HW216188   4.095   5.657   2.791
 5097SOL     OW16189   0.772   1.033   6.403
 5097SOL    HW116190   0.868   1.060   6.396
 5097SOL    HW216191   0.766   0.937   6.431
 5098SOL     OW16192   6.717   2.861   2.412
 5098SOL    HW116193   6.762   2.805   2.482
 5098SOL    HW216194   6.716   2.812   2.325
 5099SOL     OW16195   0.994   0.239   4.583
 5099SOL    HW116196   1.018   0.142   4.589
 5099SOL    HW216197   1.076   0.294   4.598
 5100SOL     OW16198   4.701   5.581   6.264
 5100SOL    HW116199   4.703   5.662   6.205
 5100SOL    HW216200   4.791   5.567   6.305
 5101SOL     OW16201   3.945   6.154   0.658
 5101SOL    HW116202   3.892   6.122   0.737
 5101SOL    HW216203   3.927   6.251   0.643
 5102SOL     OW16204   4.332   5.396   3.987
 5102SOL    HW116205   4.307   5.393   4.083
 5102SOL    HW216206   4.287   5.474   3.943
 5103SOL     OW16207   1.457   0.843   4.482
 5103SOL    HW116208   1.395   0.857   4.405
 5103SOL    HW216209   1.404   0.819   4.564
 5104SOL     OW16210   1.120   7.016   1.132
 5104SOL    HW116211   1.121   0.086   1.170
 5104SOL    HW216212   1.053   7.012   1.058
 5105SOL     OW16213   2.497   3.053   6.450
 5105SOL    HW116214   2.427   3.115   6.486
 5105SOL    HW216215   2.561   3.104   6.394
 5106SOL     OW16216   3.018   0.162   2.069
 5106SOL    HW116217   3.030   0.210   2.156
 5106SOL    HW216218   3.045   0.067   2.079
 5107SOL     OW16219   0.983   0.401   6.140
 5107SOL    HW116220   1.002   0.321   6.082
 5107SOL    HW216221   1.038   0.479   6.108
 5108SOL     OW16222   2.967   3.356   3.684
 5108SOL    HW116223   2.948   3.289   3.613
 5108SOL    HW216224   2.955   3.448   3.648
 5109SOL     OW16225   0.374   1.329   1.812
 5109SOL    HW116226   0.355   1.235   1.840
 5109SOL    HW216227   0.341   1.343   1.719
 5110SOL     OW16228   2.166   6.149   5.005
 5110SOL    HW116229   2.180   6.152   4.906
 5110SOL    HW216230   2.233   6.088   5.047
 5111SOL     OW16231   1.639   1.098   6.592
 5111SOL    HW116232   1.573   1.172   6.605
 5111SOL    HW216233   1.694   1.117   6.510
 5112SOL     OW16234   0.324   0.103   3.499
 5112SOL    HW116235   0.419   0.073   3.504
 5112SOL    HW216236   0.266   0.027   3.469
 5113SOL     OW16237   0.689   6.891   6.556
 5113SOL    HW116238   0.648   6.979   6.581
 5113SOL    HW216239   0.782   6.886   6.592
 5114SOL     OW16240   4.390   5.142   6.444
 5114SOL    HW116241   4.322   5.147   6.371
 5114SOL    HW216242   4.385   5.052   6.489
 5115SOL     OW16243   2.090   3.936   4.890
 5115SOL    HW116244   2.032   3.869   4.937
 5115SOL    HW216245   2.180   3.938   4.933
 5116SOL     OW16246   6.898   3.095   0.970
 5116SOL    HW116247   6.885   3.190   0.997
 5116SOL    HW216248   6.909   3.090   0.871
 5117SOL     OW16249   2.460   4.907   3.679
 5117SOL    HW116250   2.392   4.856   3.627
 5117SOL    HW216251   2.523   4.843   3.723
 5118SOL     OW16252   4.609   6.734   1.605
 5118SOL    HW116253   4.544   6.720   1.530
 5118SOL    HW216254   4.702   6.720   1.571
 5119SOL     OW16255   6.383   0.128   2.514
 5119SOL    HW116256   6.418   0.047   2.562
 5119SOL    HW216257   6.362   0.200   2.581
 5120SOL     OW16258   3.712   1.659   2.546
 5120SOL    HW116259   3.663   1.592   2.488
 5120SOL    HW216260   3.761   1.723   2.487
 5121SOL     OW16261   1.429   3.108   4.381
 5121SOL    HW116262   1.512   3.069   4.341
 5121SOL    HW216263   1.420   3.077   4.476
 5122SOL     OW16264   2.435   6.229   3.496
 5122SOL    HW116265   2.500   6.153   3.491
 5122SOL    HW216266   2.475   6.305   3.546
 5123SOL     OW16267   6.200   3.968   1.774
 5123SOL    HW116268   6.209   3.916   1.689
 5123SOL    HW216269   6.161   4.058   1.753
 5124SOL     OW16270   2.929   6.119   0.947
 5124SOL    HW116271   2.870   6.060   1.002
 5124SOL    HW216272   2.950   6.074   0.860
 5125SOL     OW16273   0.036   2.311   5.689
 5125SOL    HW116274   0.041   2.289   5.591
 5125SOL    HW216275   6.973   2.276   5.727
 5126SOL     OW16276   4.553   2.321   6.761
 5126SOL    HW116277   4.585   2.297   6.853
 5126SOL    HW216278   4.527   2.417   6.759
 5127SOL     OW16279   5.589   3.428   6.612
 5127SOL    HW116280   5.681   3.448   6.646
 5127SOL    HW216281   5.592   3.346   6.554
 5128SOL     OW16282   0.146   6.946   0.069
 5128SOL    HW116283   0.159   6.969   6.996
 5128SOL    HW216284   0.234   6.928   0.113
 5129SOL     OW16285   4.976   2.512   3.169
 5129SOL    HW116286   4.931   2.423   3.157
 5129SOL    HW216287   4.919   2.584   3.130
 5130SOL     OW16288   0.998   6.436   5.099
 5130SOL    HW116289   0.946   6.380   5.035
 5130SOL    HW216290   0.935   6.480   5.163
 5131SOL     OW16291   3.960   4.889   3.598
 5131SOL    HW116292   4.037   4.941   3.633
 5131SOL    HW216293   3.968   4.881   3.498
 5132SOL     OW16294   3.272   1.727   6.515
 5132SOL    HW116295   3.301   1.741   6.610
 5132SOL    HW216296   3.326   1.653   6.474
 5133SOL     OW16297   4.885   4.805   6.578
 5133SOL    HW116298   4.807   4.753   6.612
 5133SOL    HW216299   4.956   4.743   6.546
 5134SOL     OW16300   6.125   5.793   0.577
 5134SOL    HW116301   6.153   5.842   0.494
 5134SOL    HW216302   6.043   5.836   0.615
 5135SOL     OW16303   6.774   2.656   2.237
 5135SOL    HW116304   6.706   2.608   2.183
 5135SOL    HW216305   6.852   2.595   2.254
 5136SOL     OW16306   0.997   1.579   5.436
 5136SOL    HW116307   0.944   1.589   5.352
 5136SOL    HW216308   1.094   1.578   5.414
 5137SOL     OW16309   5.631   0.300   3.080
 5137SOL    HW116310   5.650   0.375   3.016
 5137SOL    HW216311   5.592   0.336   3.164
 5138SOL     OW16312   3.466   2.908   2.324
 5138SOL    HW116313   3.399   2.981   2.334
 5138SOL    HW216314   3.466   2.875   2.230
 5139SOL     OW16315   3.115   0.323   5.715
 5139SOL    HW116316   3.140   0.410   5.670
 5139SOL    HW216317   3.016   0.323   5.734
 5140SOL     OW16318   3.552   3.674   6.501
 5140SOL    HW116319   3.558   3.578   6.527
 5140SOL    HW216320   3.636   3.702   6.455
 5141SOL     OW16321   0.783   2.480   1.175
 5141SOL    HW116322   0.837   2.410   1.222
 5141SOL    HW216323   0.686   2.466   1.196
 5142SOL     OW16324   0.643   0.216   2.316
 5142SOL    HW116325   0.545   0.229   2.334
 5142SOL    HW216326   0.684   0.303   2.288
 5143SOL     OW16327   0.297   6.044   2.564
 5143SOL    HW116328   0.387   6.081   2.544
 5143SOL    HW216329   0.284   5.959   2.513
 5144SOL     OW16330   2.317   2.916   5.373
 5144SOL    HW116331   2.276   2.851   5.309
 5144SOL    HW216332   2.379   2.977   5.323
 5145SOL     OW16333   2.365   5.441   5.810
 5145SOL    HW116334   2.449   5.444   5.755
 5145SOL    HW216335   2.322   5.531   5.810
 5146SOL     OW16336   5.402   5.902   7.002
 5146SOL    HW116337   5.398   5.911   6.903
 5146SOL    HW216338   5.423   5.992   0.020
 5147SOL     OW16339   5.388   1.994   3.676
 5147SOL    HW116340   5.303   2.029   3.715
 5147SOL    HW216341   5.441   1.947   3.747
 5148SOL     OW16342   6.765   1.127   0.210
 5148SOL    HW116343   6.849   1.079   0.235
 5148SOL    HW216344   6.741   1.106   0.116
 5149SOL     OW16345   4.201   5.650   3.938
 5149SOL    HW116346   4.202   5.665   4.037
 5149SOL    HW216347   4.106   5.647   3.906
 5150SOL     OW16348   6.560   0.522   3.539
 5150SOL    HW116349   6.530   0.590   3.606
 5150SOL    HW216350   6.491   0.515   3.466
 5151SOL     OW16351   5.473   5.418   1.896
 5151SOL    HW116352   5.554   5.387   1.945
 5151SOL    HW216353   5.441   5.504   1.936
 5152SOL     OW16354   2.125   1.715   0.157
 5152SOL    HW116355   2.036   1.680   0.127
 5152SOL    HW216356   2.115   1.756   0.248
 5153SOL     OW16357   1.500   1.775   0.568
 5153SOL    HW116358   1.476   1.823   0.652
 5153SOL    HW216359   1.460   1.822   0.490
 5154SOL     OW16360   0.568   2.594   0.593
 5154SOL    HW116361   0.538   2.499   0.596
 5154SOL    HW216362   0.664   2.599   0.623
 5155SOL     OW16363   1.612   1.964   0.165
 5155SOL    HW116364   1.704   1.982   0.199
 5155SOL    HW216365   1.613   1.885   0.104
 5156SOL     OW16366   5.540   5.281   5.236
 5156SOL    HW116367   5.565   5.300   5.141
 5156SOL    HW216368   5.496   5.361   5.276
 5157SOL     OW16369   3.526   1.026   1.830
 5157SOL    HW116370   3.597   1.096   1.837
 5157SOL    HW216371   3.564   0.943   1.790
 5158SOL     OW16372   1.514   2.247   2.131
 5158SOL    HW116373   1.495   2.162   2.082
 5158SOL    HW216374   1.605   2.281   2.106
 5159SOL     OW16375   6.357   3.300   6.008
 5159SOL    HW116376   6.422   3.232   5.974
 5159SOL    HW216377   6.382   3.390   5.971
 5160SOL     OW16378   6.587   0.290   3.702
 5160SOL    HW116379   6.584   0.339   3.616
 5160SOL    HW216380   6.619   0.351   3.775
 5161SOL     OW16381   0.864   2.053   0.230
 5161SOL    HW116382   0.891   2.025   0.138
 5161SOL    HW216383   0.886   2.149   0.244
 5162SOL     OW16384   0.213   0.014   5.205
 5162SOL    HW116385   0.227   6.938   5.217
 5162SOL    HW216386   0.193   0.033   5.109
 5163SOL     OW16387   3.348   0.054   1.799
 5163SOL    HW116388   3.256   0.088   1.780
 5163SOL    HW216389   3.395   0.037   1.712
 5164SOL     OW16390   2.791   4.033   0.221
 5164SOL    HW116391   2.712   4.009   0.277
 5164SOL    HW216392   2.759   4.063   0.131
 5165SOL     OW16393   1.542   5.037   5.870
 5165SOL    HW116394   1.500   5.104   5.809
 5165SOL    HW216395   1.510   4.945   5.846
 5166SOL     OW16396   0.236   4.946   6.875
 5166SOL    HW116397   0.239   4.878   6.802
 5166SOL    HW216398   0.243   5.038   6.835
 5167SOL     OW16399   5.435   3.315   5.424
 5167SOL    HW116400   5.383   3.265   5.355
 5167SOL    HW216401   5.378   3.332   5.504
 5168SOL     OW16402   4.162   2.268   3.332
 5168SOL    HW116403   4.250   2.224   3.348
 5168SOL    HW216404   4.144   2.333   3.406
 5169SOL     OW16405   5.494   5.368   4.384
 5169SOL    HW116406   5.576   5.419   4.359
 5169SOL    HW216407   5.467   5.392   4.477
 5170SOL     OW16408   2.347   4.203   6.172
 5170SOL    HW116409   2.366   4.216   6.269
 5170SOL    HW216410   2.317   4.289   6.132
 5171SOL     OW16411   2.250   6.747   5.933
 5171SOL    HW116412   2.239   6.807   5.854
 5171SOL    HW216413   2.347   6.734   5.951
 5172SOL     OW16414   5.900   5.862   5.999
 5172SOL    HW116415   5.892   5.918   6.082
 5172SOL    HW216416   5.995   5.834   5.987
 5173SOL     OW16417   4.510   6.110   5.008
 5173SOL    HW116418   4.491   6.084   5.102
 5173SOL    HW216419   4.574   6.187   5.007
 5174SOL     OW16420   2.224   6.825   2.700
 5174SOL    HW116421   2.236   6.745   2.642
 5174SOL    HW216422   2.314   6.865   2.720
 5175SOL     OW16423   2.670   2.836   6.613
 5175SOL    HW116424   2.613   2.892   6.552
 5175SOL    HW216425   2.759   2.881   6.625
 5176SOL     OW16426   6.266   5.755   6.621
 5176SOL    HW116427   6.252   5.675   6.679
 5176SOL    HW216428   6.216   5.833   6.660
 5177SOL     OW16429   6.066   6.653   0.490
 5177SOL    HW116430   6.039   6.720   0.421
 5177SOL    HW216431   6.108   6.574   0.445
 5178SOL     OW16432   0.818   4.324   1.426
 5178SOL    HW116433   0.731   4.366   1.452
 5178SOL    HW216434   0.865   4.290   1.507
 5179SOL     OW16435   5.150   5.832   3.215
 5179SOL    HW116436   5.172   5.928   3.227
 5179SOL    HW216437   5.215   5.790   3.151
 5180SOL     OW16438   1.453   4.472   2.579
 5180SOL    HW116439   1.399   4.392   2.552
 5180SOL    HW216440   1.539   4.472   2.527
 5181SOL     OW16441   6.406   1.190   5.938
 5181SOL    HW116442   6.396   1.132   6.019
 5181SOL    HW216443   6.501   1.220   5.930
 5182SOL     OW16444   1.971   6.440   2.607
 5182SOL    HW116445   1.913   6.513   2.572
 5182SOL    HW216446   2.028   6.476   2.681
 5183SOL     OW16447   4.442   2.178   3.620
 5183SOL    HW116448   4.465   2.192   3.524
 5183SOL    HW216449   4.525   2.163   3.673
 5184SOL     OW16450   1.965   1.259   3.670
 5184SOL    HW116451   1.930   1.168   3.648
 5184SOL    HW216452   1.943   1.323   3.596
 5185SOL     OW16453   0.150   0.346   2.582
 5185SOL    HW116454   0.166   0.332   2.680
 5185SOL    HW216455   0.091   0.426   2.569
 5186SOL     OW16456   5.957   3.060   6.419
 5186SOL    HW116457   5.935   3.084   6.514
 5186SOL    HW216458   5.985   2.964   6.415
 5187SOL     OW16459   1.410   4.553   5.125
 5187SOL    HW116460   1.433   4.464   5.164
 5187SOL    HW216461   1.335   4.594   5.178
 5188SOL     OW16462   6.245   0.704   2.541
 5188SOL    HW116463   6.287   0.786   2.580
 5188SOL    HW216464   6.204   0.727   2.452
 5189SOL     OW16465   4.506   6.281   6.949
 5189SOL    HW116466   4.580   6.318   6.892
 5189SOL    HW216467   4.489   6.186   6.925
 5190SOL     OW16468   2.136   4.317   0.391
 5190SOL    HW116469   2.088   4.231   0.411
 5190SOL    HW216470   2.214   4.327   0.454
 5191SOL     OW16471   2.552   4.525   1.846
 5191SOL    HW116472   2.590   4.539   1.755
 5191SOL    HW216473   2.619   4.552   1.915
 5192SOL     OW16474   0.716   4.985   2.633
 5192SOL    HW116475   0.783   5.042   2.584
 5192SOL    HW216476   0.694   5.029   2.721
 5193SOL     OW16477   4.833   1.015   5.181
 5193SOL    HW116478   4.734   1.018   5.192
 5193SOL    HW216479   4.855   0.988   5.087
 5194SOL     OW16480   4.374   1.262   5.386
 5194SOL    HW116481   4.296   1.233   5.331
 5194SOL    HW216482   4.361   1.232   5.481
 5195SOL     OW16483   0.420   0.585   5.507
 5195SOL    HW116484   0.419   0.649   5.584
 5195SOL    HW216485   0.396   0.634   5.423
 5196SOL     OW16486   5.275   6.718   3.355
 5196SOL    HW116487   5.308   6.774   3.278
 5196SOL    HW216488   5.216   6.645   3.320
 5197SOL     OW16489   0.850   2.708   4.833
 5197SOL    HW116490   0.949   2.698   4.834
 5197SOL    HW216491   0.816   2.708   4.927
 5198SOL     OW16492   5.916   5.031   3.138
 5198SOL    HW116493   5.868   5.112   3.172
 5198SOL    HW216494   5.911   4.958   3.207
 5199SOL     OW16495   0.010   4.511   0.720
 5199SOL    HW116496   0.104   4.477   0.720
 5199SOL    HW216497   7.022   4.579   0.648
 5200SOL     OW16498   6.269   3.580   5.304
 5200SOL    HW116499   6.305   3.495   5.343
 5200SOL    HW216500   6.309   3.658   5.352
 5201SOL     OW16501   0.742   5.985   4.658
 5201SOL    HW116502   0.725   6.078   4.626
 5201SOL    HW216503   0.655   5.935   4.661
 5202SOL     OW16504   1.024   4.546   1.999
 5202SOL    HW116505   0.924   4.554   2.003
 5202SOL    HW216506   1.056   4.502   2.083
 5203SOL     OW16507   6.080   2.877   6.814
 5203SOL    HW116508   6.004   2.886   6.748
 5203SOL    HW216509   6.100   2.780   6.827
 5204SOL     OW16510   4.754   5.051   6.281
 5204SOL    HW116511   4.848   5.017   6.283
 5204SOL    HW216512   4.748   5.135   6.336
 5205SOL     OW16513   2.010   0.107   6.928
 5205SOL    HW116514   1.927   0.057   6.905
 5205SOL    HW216515   2.089   0.049   6.915
 5206SOL     OW16516   0.424   3.952   5.210
 5206SOL    HW116517   0.488   3.940   5.134
 5206SOL    HW216518   0.432   4.045   5.247
 5207SOL     OW16519   2.067   4.433   3.372
 5207SOL    HW116520   2.167   4.436   3.371
 5207SOL    HW216521   2.036   4.420   3.466
 5208SOL     OW16522   4.711   0.679   6.913
 5208SOL    HW116523   4.714   0.634   6.824
 5208SOL    HW216524   4.631   0.740   6.917
 5209SOL     OW16525   5.984   5.668   3.276
 5209SOL    HW116526   5.897   5.643   3.320
 5209SOL    HW216527   6.010   5.760   3.306
 5210SOL     OW16528   5.090   4.181   3.039
 5210SOL    HW116529   5.008   4.167   2.984
 5210SOL    HW216530   5.083   4.130   3.125
 5211SOL     OW16531   3.194   3.990   2.120
 5211SOL    HW116532   3.120   3.927   2.144
 5211SOL    HW216533   3.256   4.000   2.198
 5212SOL     OW16534   1.091   0.371   0.276
 5212SOL    HW116535   1.035   0.452   0.293
 5212SOL    HW216536   1.062   0.298   0.338
 5213SOL     OW16537   4.269   2.283   6.172
 5213SOL    HW116538   4.349   2.273   6.230
 5213SOL    HW216539   4.290   2.343   6.095
 5214SOL     OW16540   5.425   1.880   0.144
 5214SOL    HW116541   5.344   1.890   0.087
 5214SOL    HW216542   5.507   1.882   0.087
 5215SOL     OW16543   5.577   5.006   3.132
 5215SOL    HW116544   5.565   4.960   3.220
 5215SOL    HW216545   5.491   5.050   3.106
 5216SOL     OW16546   4.646   5.800   1.501
 5216SOL    HW116547   4.712   5.867   1.469
 5216SOL    HW216548   4.646   5.721   1.441
 5217SOL     OW16549   3.014   5.086   3.729
 5217SOL    HW116550   2.959   5.164   3.759
 5217SOL    HW216551   2.993   5.006   3.786
 5218SOL     OW16552   1.800   0.315   4.449
 5218SOL    HW116553   1.728   0.325   4.517
 5218SOL    HW216554   1.768   0.350   4.361
 5219SOL     OW16555   2.380   6.841   0.714
 5219SOL    HW116556   2.379   6.780   0.793
 5219SOL    HW216557   2.434   6.923   0.735
 5220SOL     OW16558   1.350   0.132   1.778
 5220SOL    HW116559   1.363   0.156   1.874
 5220SOL    HW216560   1.304   0.043   1.772
 5221SOL     OW16561   4.463   1.156   6.125
 5221SOL    HW116562   4.497   1.227   6.186
 5221SOL    HW216563   4.462   1.189   6.031
 5222SOL     OW16564   0.799   0.201   2.850
 5222SOL    HW116565   0.817   0.299   2.842
 5222SOL    HW216566   0.748   0.182   2.934
 5223SOL     OW16567   4.714   6.565   0.685
 5223SOL    HW116568   4.756   6.528   0.602
 5223SOL    HW216569   4.630   6.614   0.660
 5224SOL     OW16570   5.119   1.342   2.959
 5224SOL    HW116571   5.025   1.361   2.929
 5224SOL    HW216572   5.149   1.413   3.022
 5225SOL     OW16573   6.362   6.510   5.674
 5225SOL    HW116574   6.405   6.440   5.731
 5225SOL    HW216575   6.358   6.479   5.579
 5226SOL     OW16576   2.195   6.705   4.068
 5226SOL    HW116577   2.168   6.784   4.123
 5226SOL    HW216578   2.281   6.725   4.021
 5227SOL     OW16579   4.933   3.342   3.565
 5227SOL    HW116580   4.914   3.387   3.651
 5227SOL    HW216581   5.025   3.303   3.567
 5228SOL     OW16582   5.042   0.689   1.160
 5228SOL    HW116583   5.061   0.688   1.062
 5228SOL    HW216584   4.944   0.676   1.175
 5229SOL     OW16585   1.067   4.229   3.936
 5229SOL    HW116586   1.113   4.297   3.993
 5229SOL    HW216587   0.972   4.218   3.967
 5230SOL     OW16588   1.406   6.140   6.110
 5230SOL    HW116589   1.315   6.172   6.083
 5230SOL    HW216590   1.456   6.214   6.154
 5231SOL     OW16591   3.764   3.775   3.003
 5231SOL    HW116592   3.851   3.824   3.014
 5231SOL    HW216593   3.690   3.842   2.995
 5232SOL     OW16594   4.856   2.981   5.090
 5232SOL    HW116595   4.882   2.887   5.114
 5232SOL    HW216596   4.842   2.987   4.991
 5233SOL     OW16597   0.595   0.430   2.924
 5233SOL    HW116598   0.521   0.497   2.928
 5233SOL    HW216599   0.671   0.462   2.980
 5234SOL     OW16600   4.008   5.531   1.627
 5234SOL    HW116601   3.995   5.501   1.532
 5234SOL    HW216602   4.082   5.479   1.669
 5235SOL     OW16603   1.043   3.569   1.425
 5235SOL    HW116604   1.060   3.496   1.491
 5235SOL    HW216605   1.094   3.551   1.341
 5236SOL     OW16606   5.443   3.390   1.348
 5236SOL    HW116607   5.515   3.382   1.416
 5236SOL    HW216608   5.473   3.450   1.273
 5237SOL     OW16609   1.928   1.679   4.048
 5237SOL    HW116610   1.834   1.695   4.079
 5237SOL    HW216611   1.954   1.584   4.066
 5238SOL     OW16612   2.040   3.990   1.178
 5238SOL    HW116613   2.104   4.052   1.132
 5238SOL    HW216614   1.960   3.976   1.119
 5239SOL     OW16615   3.262   3.226   5.065
 5239SOL    HW116616   3.211   3.160   5.010
 5239SOL    HW216617   3.269   3.192   5.159
 5240SOL     OW16618   2.791   1.805   4.817
 5240SOL    HW116619   2.878   1.849   4.841
 5240SOL    HW216620   2.805   1.742   4.741
 5241SOL     OW16621   2.772   5.806   5.847
 5241SOL    HW116622   2.685   5.779   5.804
 5241SOL    HW216623   2.754   5.836   5.941
 5242SOL     OW16624   4.560   0.485   5.434
 5242SOL    HW116625   4.615   0.564   5.462
 5242SOL    HW216626   4.596   0.403   5.478
 5243SOL     OW16627   0.661   3.988   0.276
 5243SOL    HW116628   0.589   3.991   0.345
 5243SOL    HW216629   0.745   4.027   0.315
 5244SOL     OW16630   6.046   3.760   0.100
 5244SOL    HW116631   6.006   3.798   0.017
 5244SOL    HW216632   6.146   3.771   0.097
 5245SOL     OW16633   4.538   4.720   6.549
 5245SOL    HW116634   4.575   4.751   6.462
 5245SOL    HW216635   4.512   4.799   6.604
 5246SOL     OW16636   0.842   3.547   2.808
 5246SOL    HW116637   0.796   3.468   2.849
 5246SOL    HW216638   0.845   3.622   2.874
 5247SOL     OW16639   0.255   4.908   0.950
 5247SOL    HW116640   0.339   4.927   1.002
 5247SOL    HW216641   0.275   4.839   0.880
 5248SOL     OW16642   5.006   0.138   0.007
 5248SOL    HW116643   4.991   0.046   0.043
 5248SOL    HW216644   4.920   0.189   0.007
 5249SOL     OW16645   1.131   5.642   5.755
 5249SOL    HW116646   1.166   5.666   5.665
 5249SOL    HW216647   1.053   5.581   5.746
 5250SOL     OW16648   0.968   1.623   5.705
 5250SOL    HW116649   0.994   1.533   5.668
 5250SOL    HW216650   0.938   1.682   5.629
 5251SOL     OW16651   1.122   2.954   1.496
 5251SOL    HW116652   1.099   2.987   1.404
 5251SOL    HW216653   1.132   2.855   1.494
 5252SOL     OW16654   4.694   6.587   1.178
 5252SOL    HW116655   4.706   6.549   1.269
 5252SOL    HW216656   4.783   6.618   1.142
 5253SOL     OW16657   6.055   2.737   2.990
 5253SOL    HW116658   6.034   2.826   2.951
 5253SOL    HW216659   6.019   2.665   2.930
 5254SOL     OW16660   4.526   0.946   4.454
 5254SOL    HW116661   4.540   0.982   4.362
 5254SOL    HW216662   4.587   0.868   4.469
 5255SOL     OW16663   3.262   6.296   4.318
 5255SOL    HW116664   3.195   6.229   4.287
 5255SOL    HW216665   3.218   6.360   4.382
 5256SOL     OW16666   5.407   6.503   2.176
 5256SOL    HW116667   5.479   6.515   2.244
 5256SOL    HW216668   5.394   6.406   2.157
 5257SOL     OW16669   3.404   0.972   3.087
 5257SOL    HW116670   3.421   0.937   3.179
 5257SOL    HW216671   3.488   1.014   3.052
 5258SOL     OW16672   5.769   2.065   1.791
 5258SOL    HW116673   5.803   2.139   1.850
 5258SOL    HW216674   5.752   2.101   1.699
 5259SOL     OW16675   5.525   4.505   1.653
 5259SOL    HW116676   5.448   4.454   1.614
 5259SOL    HW216677   5.496   4.598   1.674
 5260SOL     OW16678   5.291   3.367   2.257
 5260SOL    HW116679   5.340   3.429   2.196
 5260SOL    HW216680   5.194   3.365   2.231
 5261SOL     OW16681   2.504   2.569   4.872
 5261SOL    HW116682   2.464   2.489   4.918
 5261SOL    HW216683   2.489   2.650   4.929
 5262SOL     OW16684   2.309   0.311   1.952
 5262SOL    HW116685   2.328   0.402   1.914
 5262SOL    HW216686   2.395   0.265   1.972
 5263SOL     OW16687   0.565   6.291   0.535
 5263SOL    HW116688   0.606   6.375   0.570
 5263SOL    HW216689   0.629   6.247   0.472
 5264SOL     OW16690   0.542   1.833   0.994
 5264SOL    HW116691   0.602   1.899   1.038
 5264SOL    HW216692   0.506   1.769   1.062
 5265SOL     OW16693   5.623   5.232   2.732
 5265SOL    HW116694   5.624   5.190   2.823
 5265SOL    HW216695   5.713   5.220   2.689
 5266SOL     OW16696   0.873   6.650   1.491
 5266SOL    HW116697   0.783   6.683   1.462
 5266SOL    HW216698   0.912   6.593   1.419
 5267SOL     OW16699   5.240   3.681   5.279
 5267SOL    HW116700   5.180   3.643   5.209
 5267SOL    HW216701   5.258   3.777   5.260
 5268SOL     OW16702   5.884   5.420   5.274
 5268SOL    HW116703   5.863   5.355   5.201
 5268SOL    HW216704   5.806   5.427   5.336
 5269SOL     OW16705   1.612   4.368   5.677
 5269SOL    HW116706   1.663   4.340   5.596
 5269SOL    HW216707   1.646   4.319   5.757
 5270SOL     OW16708   6.435   2.727   2.620
 5270SOL    HW116709   6.407   2.782   2.542
 5270SOL    HW216710   6.434   2.784   2.703
 5271SOL     OW16711   5.146   4.392   5.356
 5271SOL    HW116712   5.084   4.387   5.277
 5271SOL    HW216713   5.226   4.334   5.339
 5272SOL     OW16714   1.665   0.977   4.127
 5272SOL    HW116715   1.572   0.969   4.091
 5272SOL    HW216716   1.730   0.976   4.052
 5273SOL     OW16717   0.559   0.635   4.774
 5273SOL    HW116718   0.552   0.545   4.817
 5273SOL    HW216719   0.638   0.636   4.713
 5274SOL     OW16720   7.020   5.608   4.589
 5274SOL    HW116721   0.021   5.526   4.641
 5274SOL    HW216722   0.047   5.687   4.626
 5275SOL     OW16723   1.611   6.070   6.875
 5275SOL    HW116724   1.558   6.147   6.912
 5275SOL    HW216725   1.571   6.041   6.788
 5276SOL     OW16726   0.228   0.104   0.624
 5276SOL    HW116727   0.310   0.113   0.681
 5276SOL    HW216728   0.147   0.107   0.683
 5277SOL     OW16729   1.301   1.439   2.519
 5277SOL    HW116730   1.397   1.411   2.523
 5277SOL    HW216731   1.285   1.515   2.581
 5278SOL     OW16732   0.376   4.093   6.189
 5278SOL    HW116733   0.462   4.078   6.239
 5278SOL    HW216734   0.341   4.006   6.156
 5279SOL     OW16735   2.082   6.391   6.511
 5279SOL    HW116736   2.015   6.336   6.560
 5279SOL    HW216737   2.044   6.419   6.422
 5280SOL     OW16738   4.818   6.502   5.248
 5280SOL    HW116739   4.781   6.503   5.155
 5280SOL    HW216740   4.755   6.550   5.309
 5281SOL     OW16741   2.610   7.013   5.391
 5281SOL    HW116742   2.659   0.064   5.344
 5281SOL    HW216743   2.671   6.934   5.401
 5282SOL     OW16744   0.922   6.608   1.048
 5282SOL    HW116745   0.926   6.527   1.106
 5282SOL    HW216746   0.969   6.684   1.094
 5283SOL     OW16747   1.157   0.850   3.547
 5283SOL    HW116748   1.094   0.924   3.524
 5283SOL    HW216749   1.140   0.771   3.487
 5284SOL     OW16750   4.880   2.965   1.639
 5284SOL    HW116751   4.895   2.941   1.735
 5284SOL    HW216752   4.812   3.038   1.633
 5285SOL     OW16753   1.094   2.025   3.729
 5285SOL    HW116754   1.005   2.031   3.684
 5285SOL    HW216755   1.164   2.061   3.668
 5286SOL     OW16756   6.322   3.301   1.631
 5286SOL    HW116757   6.307   3.247   1.549
 5286SOL    HW216758   6.337   3.397   1.606
 5287SOL     OW16759   1.621   5.068   0.964
 5287SOL    HW116760   1.548   5.035   1.024
 5287SOL    HW216761   1.709   5.034   0.997
 5288SOL     OW16762   4.168   0.537   1.226
 5288SOL    HW116763   4.078   0.582   1.225
 5288SOL    HW216764   4.165   0.459   1.288
 5289SOL     OW16765   2.318   4.464   6.052
 5289SOL    HW116766   2.391   4.509   6.103
 5289SOL    HW216767   2.283   4.525   5.982
 5290SOL     OW16768   2.163   3.582   4.481
 5290SOL    HW116769   2.243   3.637   4.456
 5290SOL    HW216770   2.145   3.593   4.579
 5291SOL     OW16771   3.213   4.981   4.539
 5291SOL    HW116772   3.152   4.989   4.618
 5291SOL    HW216773   3.167   4.932   4.465
 5292SOL     OW16774   0.303   3.481   5.475
 5292SOL    HW116775   0.285   3.547   5.403
 5292SOL    HW216776   0.402   3.468   5.485
 5293SOL     OW16777   1.955   0.304   4.721
 5293SOL    HW116778   1.950   0.207   4.743
 5293SOL    HW216779   1.932   0.318   4.625
 5294SOL     OW16780   4.472   0.148   5.065
 5294SOL    HW116781   4.529   0.230   5.065
 5294SOL    HW216782   4.442   0.127   4.972
 5295SOL     OW16783   2.764   1.136   2.423
 5295SOL    HW116784   2.762   1.126   2.323
 5295SOL    HW216785   2.771   1.046   2.466
 5296SOL     OW16786   4.497   4.795   1.815
 5296SOL    HW116787   4.567   4.819   1.747
 5296SOL    HW216788   4.483   4.695   1.815
 5297SOL     OW16789   2.937   5.536   6.461
 5297SOL    HW116790   2.886   5.529   6.376
 5297SOL    HW216791   2.883   5.585   6.529
 5298SOL     OW16792   1.961   0.945   0.435
 5298SOL    HW116793   2.013   0.961   0.351
 5298SOL    HW216794   1.868   0.980   0.424
 5299SOL     OW16795   2.862   1.413   1.600
 5299SOL    HW116796   2.814   1.332   1.566
 5299SOL    HW216797   2.817   1.446   1.683
 5300SOL     OW16798   3.328   4.722   6.630
 5300SOL    HW116799   3.327   4.780   6.712
 5300SOL    HW216800   3.405   4.658   6.636
 5301SOL     OW16801   5.839   6.842   6.258
 5301SOL    HW116802   5.792   6.820   6.172
 5301SOL    HW216803   5.793   6.795   6.333
 5302SOL     OW16804   5.839   6.031   2.827
 5302SOL    HW116805   5.780   6.073   2.759
 5302SOL    HW216806   5.935   6.044   2.801
 5303SOL     OW16807   1.089   5.303   5.903
 5303SOL    HW116808   1.073   5.327   5.807
 5303SOL    HW216809   1.116   5.384   5.953
 5304SOL     OW16810   6.900   0.511   2.574
 5304SOL    HW116811   6.884   0.552   2.664
 5304SOL    HW216812   6.830   0.540   2.510
 5305SOL     OW16813   0.325   5.040   3.445
 5305SOL    HW116814   0.324   5.117   3.509
 5305SOL    HW216815   0.411   4.990   3.455
 5306SOL     OW16816   0.091   3.287   5.759
 5306SOL    HW116817   0.111   3.257   5.853
 5306SOL    HW216818   0.046   3.213   5.710
 5307SOL     OW16819   6.425   1.390   1.477
 5307SOL    HW116820   6.338   1.341   1.471
 5307SOL    HW216821   6.417   1.477   1.427
 5308SOL     OW16822   1.671   4.321   3.344
 5308SOL    HW116823   1.619   4.265   3.280
 5308SOL    HW216824   1.648   4.295   3.438
 5309SOL     OW16825   5.946   5.431   2.801
 5309SOL    HW116826   5.888   5.473   2.731
 5309SOL    HW216827   5.943   5.486   2.885
 5310SOL     OW16828   5.331   2.559   2.643
 5310SOL    HW116829   5.402   2.501   2.684
 5310SOL    HW216830   5.265   2.585   2.713
 5311SOL     OW16831   5.804   0.493   0.502
 5311SOL    HW116832   5.831   0.405   0.543
 5311SOL    HW216833   5.705   0.494   0.489
 5312SOL     OW16834   0.114   6.680   0.140
 5312SOL    HW116835   0.094   6.758   0.080
 5312SOL    HW216836   0.152   6.714   0.227
 5313SOL     OW16837   1.014   6.154   6.017
 5313SOL    HW116838   0.945   6.169   5.946
 5313SOL    HW216839   1.036   6.241   6.061
 5314SOL     OW16840   5.788   0.961   1.734
 5314SOL    HW116841   5.870   1.018   1.725
 5314SOL    HW216842   5.810   0.880   1.789
 5315SOL     OW16843   4.661   1.629   4.458
 5315SOL    HW116844   4.636   1.621   4.361
 5315SOL    HW216845   4.704   1.543   4.487
 5316SOL     OW16846   0.942   2.421   4.640
 5316SOL    HW116847   0.891   2.490   4.588
 5316SOL    HW216848   1.019   2.388   4.586
 5317SOL     OW16849   6.111   2.654   0.143
 5317SOL    HW116850   6.033   2.715   0.133
 5317SOL    HW216851   6.196   2.707   0.134
 5318SOL     OW16852   6.662   4.123   6.606
 5318SOL    HW116853   6.650   4.076   6.694
 5318SOL    HW216854   6.600   4.082   6.538
 5319SOL     OW16855   4.145   6.816   1.584
 5319SOL    HW116856   4.166   6.753   1.509
 5319SOL    HW216857   4.101   6.765   1.658
 5320SOL     OW16858   4.108   5.674   0.976
 5320SOL    HW116859   4.054   5.593   0.954
 5320SOL    HW216860   4.082   5.708   1.066
 5321SOL     OW16861   1.571   4.383   5.275
 5321SOL    HW116862   1.547   4.290   5.250
 5321SOL    HW216863   1.607   4.385   5.368
 5322SOL     OW16864   5.472   6.571   1.900
 5322SOL    HW116865   5.443   6.530   1.986
 5322SOL    HW216866   5.431   6.662   1.891
 5323SOL     OW16867   4.513   0.492   5.751
 5323SOL    HW116868   4.467   0.417   5.703
 5323SOL    HW216869   4.612   0.482   5.742
 5324SOL     OW16870   2.040   1.506   1.083
 5324SOL    HW116871   2.012   1.543   0.995
 5324SOL    HW216872   2.088   1.419   1.070
 5325SOL     OW16873   1.940   1.910   5.256
 5325SOL    HW116874   1.896   1.881   5.170
 5325SOL    HW216875   1.914   2.004   5.276
 5326SOL     OW16876   6.428   6.502   2.233
 5326SOL    HW116877   6.465   6.591   2.209
 5326SOL    HW216878   6.502   6.441   2.261
 5327SOL     OW16879   6.692   2.821   5.337
 5327SOL    HW116880   6.618   2.807   5.272
 5327SOL    HW216881   6.778   2.788   5.298
 5328SOL     OW16882   4.303   5.430   0.102
 5328SOL    HW116883   4.353   5.379   0.172
 5328SOL    HW216884   4.352   5.423   0.015
 5329SOL     OW16885   1.386   6.696   6.328
 5329SOL    HW116886   1.451   6.716   6.401
 5329SOL    HW216887   1.356   6.601   6.334
 5330SOL     OW16888   2.360   4.413   1.284
 5330SOL    HW116889   2.327   4.442   1.374
 5330SOL    HW216890   2.457   4.391   1.290
 5331SOL     OW16891   6.273   0.612   6.583
 5331SOL    HW116892   6.175   0.617   6.604
 5331SOL    HW216893   6.322   0.678   6.640
 5332SOL     OW16894   0.840   4.843   2.091
 5332SOL    HW116895   0.904   4.841   2.014
 5332SOL    HW216896   0.886   4.811   2.173
 5333SOL     OW16897   0.977   6.327   4.337
 5333SOL    HW116898   0.974   6.401   4.270
 5333SOL    HW216899   0.974   6.239   4.290
 5334SOL     OW16900   2.845   0.428   4.472
 5334SOL    HW116901   2.752   0.393   4.475
 5334SOL    HW216902   2.885   0.425   4.564
 5335SOL     OW16903   6.758   5.741   0.135
 5335SOL    HW116904   6.830   5.695   0.187
 5335SOL    HW216905   6.672   5.693   0.148
 5336SOL     OW16906   1.273   4.226   1.824
 5336SOL    HW116907   1.204   4.154   1.834
 5336SOL    HW216908   1.284   4.249   1.727
 5337SOL     OW16909   5.115   4.305   1.275
 5337SOL    HW116910   5.072   4.264   1.194
 5337SOL    HW216911   5.212   4.281   1.277
 5338SOL     OW16912   6.787   1.758   6.680
 5338SOL    HW116913   6.707   1.804   6.720
 5338SOL    HW216914   6.758   1.705   6.600
 5339SOL     OW16915   5.956   0.817   2.964
 5339SOL    HW116916   5.959   0.806   2.864
 5339SOL    HW216917   5.935   0.729   3.006
 5340SOL     OW16918   5.136   2.267   5.988
 5340SOL    HW116919   5.049   2.295   6.028
 5340SOL    HW216920   5.202   2.342   5.998
 5341SOL     OW16921   4.240   0.087   0.329
 5341SOL    HW116922   4.299   0.009   0.349
 5341SOL    HW216923   4.266   0.164   0.388
 5342SOL     OW16924   3.136   0.546   6.000
 5342SOL    HW116925   3.178   0.568   6.088
 5342SOL    HW216926   3.185   0.470   5.957
 5343SOL     OW16927   3.362   3.745   2.141
 5343SOL    HW116928   3.289   3.771   2.079
 5343SOL    HW216929   3.440   3.710   2.089
 5344SOL     OW16930   2.476   2.079   3.234
 5344SOL    HW116931   2.525   2.161   3.262
 5344SOL    HW216932   2.439   2.092   3.142
 5345SOL     OW16933   4.170   6.606   1.823
 5345SOL    HW116934   4.249   6.564   1.778
 5345SOL    HW216935   4.197   6.642   1.912
 5346SOL     OW16936   1.919   6.306   3.071
 5346SOL    HW116937   1.978   6.336   2.996
 5346SOL    HW216938   1.928   6.207   3.083
 5347SOL     OW16939   0.044   1.894   1.898
 5347SOL    HW116940   0.047   1.794   1.894
 5347SOL    HW216941   6.971   1.924   1.906
 5348SOL     OW16942   6.607   0.985   0.831
 5348SOL    HW116943   6.696   1.017   0.865
 5348SOL    HW216944   6.563   0.930   0.902
 5349SOL     OW16945   6.415   0.842   1.860
 5349SOL    HW116946   6.491   0.821   1.799
 5349SOL    HW216947   6.450   0.865   1.950
 5350SOL     OW16948   2.367   0.974   6.614
 5350SOL    HW116949   2.279   1.021   6.609
 5350SOL    HW216950   2.416   1.004   6.695
 5351SOL     OW16951   4.594   0.800   2.052
 5351SOL    HW116952   4.504   0.800   2.097
 5351SOL    HW216953   4.588   0.749   1.966
 5352SOL     OW16954   3.360   6.093   3.414
 5352SOL    HW116955   3.372   6.092   3.514
 5352SOL    HW216956   3.266   6.067   3.393
 5353SOL     OW16957   5.996   0.022   5.646
 5353SOL    HW116958   6.046   6.958   5.636
 5353SOL    HW216959   6.059   0.099   5.638
 5354SOL     OW16960   0.703   4.163   0.842
 5354SOL    HW116961   0.722   4.247   0.893
 5354SOL    HW216962   0.605   4.141   0.849
 5355SOL     OW16963   4.208   1.767   5.419
 5355SOL    HW116964   4.280   1.779   5.486
 5355SOL    HW216965   4.223   1.683   5.368
 5356SOL     OW16966   6.256   3.714   1.304
 5356SOL    HW116967   6.186   3.666   1.251
 5356SOL    HW216968   6.347   3.690   1.270
 5357SOL     OW16969   3.149   6.753   0.445
 5357SOL    HW116970   3.249   6.757   0.438
 5357SOL    HW216971   3.109   6.788   0.361
 5358SOL     OW16972   4.279   2.933   1.101
 5358SOL    HW116973   4.289   2.977   1.012
 5358SOL    HW216974   4.195   2.965   1.145
 5359SOL     OW16975   2.327   0.483   6.559
 5359SOL    HW116976   2.264   0.462   6.484
 5359SOL    HW216977   2.386   0.560   6.532
 5360SOL     OW16978   3.733   0.071   6.854
 5360SOL    HW116979   3.755   0.131   6.931
 5360SOL    HW216980   3.815   0.055   6.799
 5361SOL     OW16981   1.814   0.480   5.822
 5361SOL    HW116982   1.844   0.489   5.917
 5361SOL    HW216983   1.878   0.527   5.762
 5362SOL     OW16984   4.302   5.988   3.301
 5362SOL    HW116985   4.343   5.901   3.274
 5362SOL    HW216986   4.296   5.993   3.400
 5363SOL     OW16987   0.459   5.161   6.057
 5363SOL    HW116988   0.552   5.168   6.022
 5363SOL    HW216989   0.429   5.066   6.053
 5364SOL     OW16990   0.600   5.969   0.248
 5364SOL    HW116991   0.578   5.993   0.153
 5364SOL    HW216992   0.521   5.925   0.290
 5365SOL     OW16993   3.786   2.222   6.747
 5365SOL    HW116994   3.756   2.272   6.665
 5365SOL    HW216995   3.848   2.149   6.720
 5366SOL     OW16996   4.184   3.866   6.858
 5366SOL    HW116997   4.242   3.878   6.777
 5366SOL    HW216998   4.088   3.868   6.830
 5367SOL     OW16999   0.292   4.453   0.747
 5367SOL    HW117000   0.306   4.406   0.834
 5367SOL    HW217001   0.332   4.399   0.672
 5368SOL     OW17002   6.149   1.251   3.642
 5368SOL    HW117003   6.125   1.259   3.739
 5368SOL    HW217004   6.221   1.183   3.632
 5369SOL     OW17005   1.662   3.925   2.282
 5369SOL    HW117006   1.584   3.908   2.223
 5369SOL    HW217007   1.673   4.023   2.295
 5370SOL     OW17008   4.063   2.921   1.465
 5370SOL    HW117009   4.097   2.896   1.555
 5370SOL    HW217010   3.974   2.878   1.449
 5371SOL     OW17011   1.041   4.131   5.581
 5371SOL    HW117012   1.011   4.185   5.502
 5371SOL    HW217013   0.979   4.053   5.594
 5372SOL     OW17014   2.304   5.172   3.034
 5372SOL    HW117015   2.289   5.176   2.935
 5372SOL    HW217016   2.372   5.241   3.060
 5373SOL     OW17017   2.519   5.198   3.694
 5373SOL    HW117018   2.526   5.099   3.689
 5373SOL    HW217019   2.491   5.234   3.604
 5374SOL     OW17020   3.390   2.187   0.656
 5374SOL    HW117021   3.348   2.266   0.699
 5374SOL    HW217022   3.323   2.113   0.650
 5375SOL     OW17023   1.528   4.701   4.220
 5375SOL    HW117024   1.602   4.703   4.153
 5375SOL    HW217025   1.543   4.626   4.284
 5376SOL     OW17026   2.529   4.320   0.405
 5376SOL    HW117027   2.611   4.264   0.403
 5376SOL    HW217028   2.485   4.312   0.494
 5377SOL     OW17029   0.706   1.547   1.259
 5377SOL    HW117030   0.730   1.626   1.315
 5377SOL    HW217031   0.703   1.465   1.316
 5378SOL     OW17032   4.892   6.923   0.113
 5378SOL    HW117033   4.932   6.848   0.061
 5378SOL    HW217034   4.847   6.887   0.195
 5379SOL     OW17035   0.092   6.481   1.530
 5379SOL    HW117036   0.079   6.560   1.591
 5379SOL    HW217037   0.189   6.473   1.506
 5380SOL     OW17038   2.691   0.146   4.229
 5380SOL    HW117039   2.765   0.145   4.162
 5380SOL    HW217040   2.615   0.201   4.194
 5381SOL     OW17041   5.693   4.193   1.502
 5381SOL    HW117042   5.765   4.195   1.571
 5381SOL    HW217043   5.720   4.251   1.425
 5382SOL     OW17044   1.162   0.475   1.752
 5382SOL    HW117045   1.175   0.519   1.842
 5382SOL    HW217046   1.216   0.392   1.747
 5383SOL     OW17047   2.396   2.337   5.002
 5383SOL    HW117048   2.381   2.284   4.919
 5383SOL    HW217049   2.461   2.290   5.061
 5384SOL     OW17050   6.044   6.829   3.884
 5384SOL    HW117051   5.955   6.789   3.864
 5384SOL    HW217052   6.048   6.922   3.846
 5385SOL     OW17053   2.970   3.870   2.242
 5385SOL    HW117054   2.903   3.944   2.239
 5385SOL    HW217055   2.924   3.782   2.253
 5386SOL     OW17056   5.043   0.044   5.425
 5386SOL    HW117057   5.137   0.059   5.395
 5386SOL    HW217058   4.986   0.018   5.347
 5387SOL     OW17059   2.543   5.394   1.795
 5387SOL    HW117060   2.521   5.478   1.844
 5387SOL    HW217061   2.571   5.323   1.861
 5388SOL     OW17062   5.815   6.636   2.625
 5388SOL    HW117063   5.718   6.633   2.648
 5388SOL    HW217064   5.845   6.732   2.619
 5389SOL     OW17065   5.014   2.129   1.374
 5389SOL    HW117066   4.976   2.220   1.358
 5389SOL    HW217067   4.996   2.071   1.295
 5390SOL     OW17068   5.917   4.763   6.170
 5390SOL    HW117069   5.862   4.681   6.185
 5390SOL    HW217070   5.967   4.785   6.254
 5391SOL     OW17071   2.696   3.105   6.862
 5391SOL    HW117072   2.625   3.065   6.805
 5391SOL    HW217073   2.665   3.193   6.897
 5392SOL     OW17074   6.075   3.214   2.479
 5392SOL    HW117075   6.090   3.270   2.561
 5392SOL    HW217076   6.032   3.270   2.408
 5393SOL     OW17077   5.915   6.788   6.871
 5393SOL    HW117078   5.870   6.716   6.818
 5393SOL    HW217079   5.999   6.815   6.825
 5394SOL     OW17080   0.906   4.177   5.854
 5394SOL    HW117081   0.991   4.155   5.806
 5394SOL    HW217082   0.849   4.237   5.797
 5395SOL     OW17083   4.492   1.364   0.214
 5395SOL    HW117084   4.528   1.271   0.227
 5395SOL    HW217085   4.535   1.405   0.133
 5396SOL     OW17086   5.338   2.981   2.275
 5396SOL    HW117087   5.433   3.010   2.258
 5396SOL    HW217088   5.337   2.909   2.344
 5397SOL     OW17089   0.182   2.769   1.564
 5397SOL    HW117090   0.103   2.759   1.625
 5397SOL    HW217091   0.219   2.862   1.574
 5398SOL     OW17092   3.958   2.960   1.821
 5398SOL    HW117093   3.947   3.025   1.745
 5398SOL    HW217094   3.955   3.010   1.907
 5399SOL     OW17095   1.018   5.706   0.612
 5399SOL    HW117096   0.955   5.652   0.556
 5399SOL    HW217097   0.975   5.726   0.700
 5400SOL     OW17098   2.788   4.657   6.645
 5400SOL    HW117099   2.864   4.721   6.658
 5400SOL    HW217100   2.799   4.610   6.557
 5401SOL     OW17101   6.456   3.014   1.717
 5401SOL    HW117102   6.505   3.024   1.630
 5401SOL    HW217103   6.510   3.055   1.790
 5402SOL     OW17104   1.473   6.384   2.459
 5402SOL    HW117105   1.545   6.326   2.421
 5402SOL    HW217106   1.385   6.360   2.418
 5403SOL     OW17107   6.423   3.245   6.503
 5403SOL    HW117108   6.329   3.251   6.536
 5403SOL    HW217109   6.423   3.230   6.404
 5404SOL     OW17110   1.725   3.186   2.689
 5404SOL    HW117111   1.661   3.199   2.764
 5404SOL    HW217112   1.683   3.131   2.617
 5405SOL     OW17113   6.725   4.586   6.163
 5405SOL    HW117114   6.755   4.508   6.217
 5405SOL    HW217115   6.656   4.557   6.097
 5406SOL     OW17116   1.878   0.007   5.083
 5406SOL    HW117117   1.778   0.005   5.088
 5406SOL    HW217118   1.907   0.010   4.988
 5407SOL     OW17119   3.789   3.467   0.060
 5407SOL    HW117120   3.887   3.479   0.040
 5407SOL    HW217121   3.778   3.404   0.137
 5408SOL     OW17122   2.834   1.010   6.995
 5408SOL    HW117123   2.801   1.095   6.955
 5408SOL    HW217124   2.902   0.969   6.934
 5409SOL     OW17125   3.950   0.940   2.493
 5409SOL    HW117126   3.878   0.874   2.475
 5409SOL    HW217127   3.987   0.925   2.585
 5410SOL     OW17128   2.140   2.273   2.359
 5410SOL    HW117129   2.190   2.280   2.274
 5410SOL    HW217130   2.093   2.360   2.378
 5411SOL     OW17131   0.596   5.067   4.864
 5411SOL    HW117132   0.529   5.041   4.934
 5411SOL    HW217133   0.614   5.165   4.871
 5412SOL     OW17134   6.045   3.113   1.380
 5412SOL    HW117135   6.018   3.208   1.398
 5412SOL    HW217136   6.094   3.077   1.459
 5413SOL     OW17137   2.428   0.181   1.631
 5413SOL    HW117138   2.479   0.254   1.677
 5413SOL    HW217139   2.490   0.132   1.569
 5414SOL     OW17140   4.265   0.748   6.221
 5414SOL    HW117141   4.334   0.788   6.162
 5414SOL    HW217142   4.259   0.650   6.203
 5415SOL     OW17143   5.639   4.723   2.170
 5415SOL    HW117144   5.660   4.722   2.073
 5415SOL    HW217145   5.588   4.641   2.195
 5416SOL     OW17146   4.628   5.647   4.280
 5416SOL    HW117147   4.637   5.641   4.181
 5416SOL    HW217148   4.664   5.736   4.311
 5417SOL     OW17149   3.681   0.260   5.395
 5417SOL    HW117150   3.641   0.187   5.450
 5417SOL    HW217151   3.610   0.299   5.336
 5418SOL     OW17152   3.284   0.196   2.865
 5418SOL    HW117153   3.258   0.290   2.885
 5418SOL    HW217154   3.215   0.154   2.807
 5419SOL     OW17155   3.285   4.150   6.321
 5419SOL    HW117156   3.357   4.100   6.370
 5419SOL    HW217157   3.327   4.219   6.263
 5420SOL     OW17158   1.469   1.531   2.834
 5420SOL    HW117159   1.557   1.574   2.856
 5420SOL    HW217160   1.476   1.482   2.747
 5421SOL     OW17161   1.378   3.524   1.486
 5421SOL    HW117162   1.438   3.598   1.513
 5421SOL    HW217163   1.371   3.521   1.386
 5422SOL     OW17164   2.093   4.005   0.780
 5422SOL    HW117165   2.028   3.930   0.767
 5422SOL    HW217166   2.051   4.077   0.836
 5423SOL     OW17167   6.053   3.867   6.330
 5423SOL    HW117168   5.998   3.909   6.257
 5423SOL    HW217169   6.055   3.928   6.409
 5424SOL     OW17170   5.586   3.808   5.269
 5424SOL    HW117171   5.678   3.794   5.306
 5424SOL    HW217172   5.521   3.751   5.319
 5425SOL     OW17173   5.021   0.571   4.662
 5425SOL    HW117174   4.991   0.521   4.580
 5425SOL    HW217175   5.118   0.553   4.678
 5426SOL     OW17176   6.683   0.174   5.657
 5426SOL    HW117177   6.640   0.199   5.744
 5426SOL    HW217178   6.649   0.084   5.628
 5427SOL     OW17179   4.262   6.280   6.721
 5427SOL    HW117180   4.278   6.330   6.806
 5427SOL    HW217181   4.216   6.340   6.655
 5428SOL     OW17182   1.242   0.410   6.577
 5428SOL    HW117183   1.235   0.447   6.669
 5428SOL    HW217184   1.151   0.384   6.544
 5429SOL     OW17185   1.706   2.681   6.685
 5429SOL    HW117186   1.689   2.688   6.784
 5429SOL    HW217187   1.801   2.655   6.669
 5430SOL     OW17188   2.412   2.531   5.806
 5430SOL    HW117189   2.510   2.546   5.796
 5430SOL    HW217190   2.366   2.619   5.818
 5431SOL     OW17191   3.833   5.917   4.496
 5431SOL    HW117192   3.860   5.947   4.588
 5431SOL    HW217193   3.741   5.879   4.499
 5432SOL     OW17194   5.313   6.346   1.235
 5432SOL    HW117195   5.272   6.312   1.150
 5432SOL    HW217196   5.413   6.347   1.226
 5433SOL     OW17197   0.229   1.758   4.367
 5433SOL    HW117198   0.139   1.787   4.398
 5433SOL    HW217199   0.228   1.748   4.267
 5434SOL     OW17200   3.112   7.015   5.600
 5434SOL    HW117201   3.024   6.988   5.639
 5434SOL    HW217202   3.178   0.007   5.674
 5435SOL     OW17203   4.219   1.194   1.865
 5435SOL    HW117204   4.242   1.291   1.870
 5435SOL    HW217205   4.289   1.145   1.812
 5436SOL     OW17206   5.374   4.100   2.575
 5436SOL    HW117207   5.277   4.078   2.585
 5436SOL    HW217208   5.386   4.164   2.499
 5437SOL     OW17209   3.276   3.733   6.378
 5437SOL    HW117210   3.338   3.674   6.429
 5437SOL    HW217211   3.306   3.739   6.282
 5438SOL     OW17212   6.401   1.638   1.343
 5438SOL    HW117213   6.325   1.629   1.407
 5438SOL    HW217214   6.383   1.713   1.279
 5439SOL     OW17215   1.210   2.233   1.257
 5439SOL    HW117216   1.186   2.146   1.214
 5439SOL    HW217217   1.269   2.216   1.336
 5440SOL     OW17218   1.639   1.974   0.750
 5440SOL    HW117219   1.572   1.988   0.823
 5440SOL    HW217220   1.722   1.933   0.788
 5441SOL     OW17221   4.180   1.610   3.892
 5441SOL    HW117222   4.245   1.685   3.882
 5441SOL    HW217223   4.157   1.597   3.988
 5442SOL     OW17224   3.815   0.451   2.625
 5442SOL    HW117225   3.832   0.459   2.526
 5442SOL    HW217226   3.717   0.444   2.641
 5443SOL     OW17227   3.235   6.625   4.865
 5443SOL    HW117228   3.171   6.699   4.887
 5443SOL    HW217229   3.268   6.637   4.771
 5444SOL     OW17230   0.186   6.913   3.374
 5444SOL    HW117231   0.104   6.887   3.423
 5444SOL    HW217232   0.163   6.936   3.279
 5445SOL     OW17233   5.501   3.717   2.421
 5445SOL    HW117234   5.409   3.756   2.416
 5445SOL    HW217235   5.514   3.674   2.510
 5446SOL     OW17236   6.536   5.646   5.771
 5446SOL    HW117237   6.454   5.686   5.810
 5446SOL    HW217238   6.617   5.683   5.816
 5447SOL     OW17239   3.359   1.560   0.494
 5447SOL    HW117240   3.337   1.627   0.564
 5447SOL    HW217241   3.281   1.548   0.433
 5448SOL     OW17242   5.726   2.452   5.775
 5448SOL    HW117243   5.663   2.429   5.849
 5448SOL    HW217244   5.808   2.495   5.812
 5449SOL     OW17245   0.519   3.584   6.584
 5449SOL    HW117246   0.538   3.553   6.491
 5449SOL    HW217247   0.554   3.677   6.595
 5450SOL     OW17248   2.037   6.894   0.562
 5450SOL    HW117249   1.974   6.840   0.506
 5450SOL    HW217250   2.052   6.848   0.649
 5451SOL     OW17251   1.450   0.106   2.455
 5451SOL    HW117252   1.500   0.164   2.519
 5451SOL    HW217253   1.383   0.051   2.506
 5452SOL     OW17254   2.992   3.997   5.653
 5452SOL    HW117255   2.896   3.972   5.669
 5452SOL    HW217256   3.020   3.966   5.562
 5453SOL     OW17257   6.248   5.122   6.652
 5453SOL    HW117258   6.262   5.027   6.625
 5453SOL    HW217259   6.150   5.139   6.664
 5454SOL     OW17260   0.523   4.427   6.439
 5454SOL    HW117261   0.530   4.440   6.538
 5454SOL    HW217262   0.431   4.395   6.416
 5455SOL     OW17263   6.698   3.112   1.315
 5455SOL    HW117264   6.674   3.167   1.395
 5455SOL    HW217265   6.771   3.048   1.339
 5456SOL     OW17266   3.692   6.704   1.085
 5456SOL    HW117267   3.615   6.762   1.060
 5456SOL    HW217268   3.710   6.713   1.183
 5457SOL     OW17269   5.995   3.761   0.549
 5457SOL    HW117270   6.019   3.857   0.536
 5457SOL    HW217271   5.998   3.713   0.461
 5458SOL     OW17272   2.605   4.220   6.714
 5458SOL    HW117273   2.687   4.253   6.763
 5458SOL    HW217274   2.610   4.121   6.705
 5459SOL     OW17275   2.268   4.648   5.880
 5459SOL    HW117276   2.285   4.747   5.878
 5459SOL    HW217277   2.293   4.608   5.792
 5460SOL     OW17278   3.659   0.630   1.368
 5460SOL    HW117279   3.570   0.625   1.411
 5460SOL    HW217280   3.729   0.598   1.431
 5461SOL     OW17281   4.559   6.687   5.192
 5461SOL    HW117282   4.523   6.608   5.242
 5461SOL    HW217283   4.632   6.730   5.245
 5462SOL     OW17284   1.024   0.455   1.422
 5462SOL    HW117285   1.095   0.514   1.459
 5462SOL    HW217286   0.940   0.507   1.410
 5463SOL     OW17287   0.106   3.105   0.425
 5463SOL    HW117288   0.065   3.046   0.494
 5463SOL    HW217289   0.187   3.149   0.464
 5464SOL     OW17290   2.318   6.837   4.453
 5464SOL    HW117291   2.402   6.887   4.434
 5464SOL    HW217292   2.333   6.739   4.441
 5465SOL     OW17293   2.503   6.709   5.990
 5465SOL    HW117294   2.578   6.694   6.055
 5465SOL    HW217295   2.490   6.626   5.935
 5466SOL     OW17296   4.883   4.348   4.701
 5466SOL    HW117297   4.858   4.258   4.667
 5466SOL    HW217298   4.962   4.382   4.650
 5467SOL     OW17299   6.338   2.045   1.977
 5467SOL    HW117300   6.359   2.142   1.992
 5467SOL    HW217301   6.381   2.014   1.892
 5468SOL     OW17302   4.077   1.506   5.595
 5468SOL    HW117303   3.991   1.496   5.644
 5468SOL    HW217304   4.154   1.495   5.658
 5469SOL     OW17305   4.380   4.928   6.642
 5469SOL    HW117306   4.284   4.905   6.624
 5469SOL    HW217307   4.395   4.927   6.741
 5470SOL     OW17308   1.198   5.575   3.351
 5470SOL    HW117309   1.193   5.674   3.333
 5470SOL    HW217310   1.289   5.553   3.386
 5471SOL     OW17311   6.357   4.816   2.177
 5471SOL    HW117312   6.390   4.899   2.132
 5471SOL    HW217313   6.357   4.829   2.276
 5472SOL     OW17314   3.988   5.117   5.491
 5472SOL    HW117315   3.998   5.180   5.414
 5472SOL    HW217316   3.891   5.105   5.512
 5473SOL     OW17317   1.542   3.284   3.500
 5473SOL    HW117318   1.456   3.302   3.452
 5473SOL    HW217319   1.555   3.351   3.572
 5474SOL     OW17320   2.172   6.097   3.537
 5474SOL    HW117321   2.131   6.172   3.484
 5474SOL    HW217322   2.272   6.100   3.527
 5475SOL     OW17323   3.117   2.542   1.415
 5475SOL    HW117324   3.165   2.566   1.499
 5475SOL    HW217325   3.064   2.458   1.429
 5476SOL     OW17326   1.055   3.488   5.995
 5476SOL    HW117327   1.070   3.473   6.093
 5476SOL    HW217328   1.022   3.581   5.980
 5477SOL     OW17329   2.282   2.912   2.289
 5477SOL    HW117330   2.306   2.877   2.198
 5477SOL    HW217331   2.226   2.994   2.280
 5478SOL     OW17332   6.640   6.224   6.090
 5478SOL    HW117333   6.672   6.268   6.174
 5478SOL    HW217334   6.667   6.128   6.091
 5479SOL     OW17335   4.406   0.486   4.425
 5479SOL    HW117336   4.329   0.428   4.453
 5479SOL    HW217337   4.386   0.528   4.337
 5480SOL     OW17338   0.187   3.311   4.578
 5480SOL    HW117339   0.138   3.246   4.519
 5480SOL    HW217340   0.132   3.329   4.660
 5481SOL     OW17341   4.727   6.599   4.194
 5481SOL    HW117342   4.771   6.577   4.281
 5481SOL    HW217343   4.716   6.515   4.140
 5482SOL     OW17344   1.656   4.488   1.575
 5482SOL    HW117345   1.596   4.544   1.633
 5482SOL    HW217346   1.727   4.546   1.535
 5483SOL     OW17347   0.966   2.877   6.168
 5483SOL    HW117348   0.869   2.872   6.193
 5483SOL    HW217349   1.019   2.818   6.228
 5484SOL     OW17350   4.832   0.099   5.110
 5484SOL    HW117351   4.932   0.100   5.102
 5484SOL    HW217352   4.791   0.127   5.023
 5485SOL     OW17353   3.045   0.093   4.711
 5485SOL    HW117354   3.053   0.141   4.798
 5485SOL    HW217355   3.044   0.159   4.636
 5486SOL     OW17356   2.165   5.251   4.716
 5486SOL    HW117357   2.183   5.252   4.618
 5486SOL    HW217358   2.088   5.312   4.736
 5487SOL     OW17359   3.353   5.106   5.306
 5487SOL    HW117360   3.375   5.019   5.260
 5487SOL    HW217361   3.349   5.179   5.238
 5488SOL     OW17362   5.515   2.371   0.839
 5488SOL    HW117363   5.611   2.341   0.843
 5488SOL    HW217364   5.511   2.463   0.801
 5489SOL     OW17365   6.672   3.728   3.616
 5489SOL    HW117366   6.717   3.783   3.687
 5489SOL    HW217367   6.660   3.635   3.650
 5490SOL     OW17368   1.559   6.024   3.081
 5490SOL    HW117369   1.632   5.964   3.048
 5490SOL    HW217370   1.473   5.974   3.080
 5491SOL     OW17371   6.470   4.083   0.763
 5491SOL    HW117372   6.371   4.088   0.749
 5491SOL    HW217373   6.501   4.167   0.807
 5492SOL     OW17374   6.951   1.865   5.986
 5492SOL    HW117375   6.928   1.767   5.990
 5492SOL    HW217376   0.027   1.875   5.974
 5493SOL     OW17377   3.553   3.919   0.732
 5493SOL    HW117378   3.616   3.912   0.809
 5493SOL    HW217379   3.595   3.881   0.650
 5494SOL     OW17380   5.952   3.536   5.314
 5494SOL    HW117381   5.895   3.583   5.382
 5494SOL    HW217382   6.040   3.582   5.307
 5495SOL     OW17383   5.959   6.844   0.320
 5495SOL    HW117384   5.981   6.933   0.280
 5495SOL    HW217385   5.861   6.841   0.343
 5496SOL     OW17386   3.781   0.436   4.716
 5496SOL    HW117387   3.741   0.409   4.803
 5496SOL    HW217388   3.879   0.413   4.715
 5497SOL     OW17389   0.738   0.515   5.498
 5497SOL    HW117390   0.640   0.509   5.481
 5497SOL    HW217391   0.774   0.598   5.455
 5498SOL     OW17392   0.475   5.780   1.276
 5498SOL    HW117393   0.462   5.681   1.282
 5498SOL    HW217394   0.512   5.803   1.186
 5499SOL     OW17395   1.647   0.045   4.716
 5499SOL    HW117396   1.722   0.102   4.682
 5499SOL    HW217397   1.603   0.090   4.793
 5500SOL     OW17398   2.944   0.408   1.046
 5500SOL    HW117399   3.026   0.464   1.036
 5500SOL    HW217400   2.871   0.463   1.086
 5501SOL     OW17401   3.720   3.812   0.048
 5501SOL    HW117402   3.739   3.899   0.003
 5501SOL    HW217403   3.713   3.739   7.002
 5502SOL     OW17404   4.709   3.103   6.899
 5502SOL    HW117405   4.618   3.072   6.872
 5502SOL    HW217406   4.761   3.027   6.937
 5503SOL     OW17407   6.144   3.460   0.945
 5503SOL    HW117408   6.087   3.378   0.944
 5503SOL    HW217409   6.112   3.525   0.875
 5504SOL     OW17410   3.697   1.838   0.118
 5504SOL    HW117411   3.668   1.926   0.083
 5504SOL    HW217412   3.617   1.784   0.144
 5505SOL     OW17413   2.991   4.929   3.417
 5505SOL    HW117414   2.980   5.025   3.391
 5505SOL    HW217415   3.065   4.921   3.483
 5506SOL     OW17416   6.824   2.997   5.610
 5506SOL    HW117417   6.857   3.032   5.698
 5506SOL    HW217418   6.892   3.018   5.539
 5507SOL     OW17419   3.478   0.186   6.744
 5507SOL    HW117420   3.403   0.154   6.802
 5507SOL    HW217421   3.565   0.160   6.787
 5508SOL     OW17422   0.156   0.943   6.332
 5508SOL    HW117423   0.173   0.920   6.236
 5508SOL    HW217424   0.185   0.866   6.390
 5509SOL     OW17425   6.572   4.768   0.409
 5509SOL    HW117426   6.508   4.830   0.362
 5509SOL    HW217427   6.555   4.675   0.379
 5510SOL     OW17428   4.978   5.367   0.019
 5510SOL    HW117429   5.057   5.326   6.995
 5510SOL    HW217430   4.901   5.304   0.016
 5511SOL     OW17431   0.481   2.644   5.981
 5511SOL    HW117432   0.568   2.690   5.969
 5511SOL    HW217433   0.496   2.546   5.993
 5512SOL     OW17434   2.386   0.500   2.327
 5512SOL    HW117435   2.388   0.599   2.317
 5512SOL    HW217436   2.296   0.466   2.301
 5513SOL     OW17437   3.646   4.335   0.071
 5513SOL    HW117438   3.556   4.379   0.072
 5513SOL    HW217439   3.706   4.381   0.137
 5514SOL     OW17440   3.549   0.886   0.337
 5514SOL    HW117441   3.623   0.928   0.284
 5514SOL    HW217442   3.588   0.827   0.408
 5515SOL     OW17443   2.712   5.374   2.590
 5515SOL    HW117444   2.647   5.439   2.551
 5515SOL    HW217445   2.802   5.418   2.599
 5516SOL     OW17446   2.147   2.234   5.518
 5516SOL    HW117447   2.149   2.301   5.592
 5516SOL    HW217448   2.132   2.143   5.557
 5517SOL     OW17449   1.376   1.868   3.142
 5517SOL    HW117450   1.448   1.902   3.082
 5517SOL    HW217451   1.342   1.943   3.198
 5518SOL     OW17452   4.594   5.198   6.727
 5518SOL    HW117453   4.674   5.184   6.668
 5518SOL    HW217454   4.522   5.134   6.700
 5519SOL     OW17455   5.103   2.610   4.677
 5519SOL    HW117456   5.154   2.647   4.754
 5519SOL    HW217457   5.125   2.513   4.665
 5520SOL     OW17458   4.752   0.837   1.349
 5520SOL    HW117459   4.845   0.848   1.385
 5520SOL    HW217460   4.690   0.896   1.399
 5521SOL     OW17461   4.755   6.320   2.525
 5521SOL    HW117462   4.748   6.259   2.604
 5521SOL    HW217463   4.847   6.311   2.485
 5522SOL     OW17464   6.111   6.134   0.846
 5522SOL    HW117465   6.051   6.115   0.768
 5522SOL    HW217466   6.096   6.065   0.916
 5523SOL     OW17467   5.283   1.694   0.853
 5523SOL    HW117468   5.186   1.703   0.875
 5523SOL    HW217469   5.316   1.780   0.814
 5524SOL     OW17470   2.705   1.399   3.792
 5524SOL    HW117471   2.649   1.415   3.874
 5524SOL    HW217472   2.665   1.325   3.739
 5525SOL     OW17473   6.089   0.834   1.446
 5525SOL    HW117474   6.034   0.917   1.451
 5525SOL    HW217475   6.124   0.811   1.537
 5526SOL     OW17476   5.365   5.294   3.920
 5526SOL    HW117477   5.277   5.249   3.936
 5526SOL    HW217478   5.431   5.227   3.885
 5527SOL     OW17479   6.046   0.427   3.285
 5527SOL    HW117480   5.965   0.389   3.329
 5527SOL    HW217481   6.089   0.357   3.228
 5528SOL     OW17482   1.038   1.736   6.993
 5528SOL    HW117483   1.082   1.660   0.019
 5528SOL    HW217484   0.940   1.734   7.009
 5529SOL     OW17485   3.473   0.742   2.348
 5529SOL    HW117486   3.386   0.740   2.397
 5529SOL    HW217487   3.489   0.654   2.303
 5530SOL     OW17488   6.919   2.102   1.003
 5530SOL    HW117489   6.988   2.033   0.981
 5530SOL    HW217490   6.873   2.076   1.088
 5531SOL     OW17491   1.795   4.248   1.619
 5531SOL    HW117492   1.784   4.193   1.702
 5531SOL    HW217493   1.760   4.340   1.635
 5532SOL     OW17494   0.850   2.849   6.840
 5532SOL    HW117495   0.792   2.886   6.912
 5532SOL    HW217496   0.793   2.803   6.772
 5533SOL     OW17497   3.440   1.192   2.388
 5533SOL    HW117498   3.483   1.128   2.324
 5533SOL    HW217499   3.385   1.259   2.337
 5534SOL     OW17500   1.297   0.232   4.604
 5534SOL    HW117501   1.325   0.164   4.536
 5534SOL    HW217502   1.319   0.198   4.696
 5535SOL     OW17503   0.235   2.151   2.656
 5535SOL    HW117504   0.175   2.099   2.716
 5535SOL    HW217505   0.323   2.165   2.701
 5536SOL     OW17506   4.502   6.231   4.403
 5536SOL    HW117507   4.413   6.210   4.363
 5536SOL    HW217508   4.526   6.159   4.469
 5537SOL     OW17509   3.034   2.203   3.917
 5537SOL    HW117510   2.990   2.292   3.911
 5537SOL    HW217511   3.063   2.174   3.826
 5538SOL     OW17512   4.793   5.025   4.541
 5538SOL    HW117513   4.770   5.113   4.499
 5538SOL    HW217514   4.768   5.027   4.637
 5539SOL     OW17515   2.405   4.666   0.071
 5539SOL    HW117516   2.450   4.633   0.154
 5539SOL    HW217517   2.456   4.743   0.033
 5540SOL     OW17518   4.290   5.685   2.334
 5540SOL    HW117519   4.310   5.625   2.411
 5540SOL    HW217520   4.225   5.755   2.362
 5541SOL     OW17521   4.175   1.313   6.277
 5541SOL    HW117522   4.190   1.341   6.182
 5541SOL    HW217523   4.237   1.238   6.299
 5542SOL     OW17524   5.249   4.296   6.883
 5542SOL    HW117525   5.223   4.298   6.787
 5542SOL    HW217526   5.168   4.302   6.940
 5543SOL     OW17527   0.287   2.212   5.287
 5543SOL    HW117528   0.267   2.157   5.206
 5543SOL    HW217529   0.205   2.262   5.315
 5544SOL     OW17530   5.509   0.952   6.768
 5544SOL    HW117531   5.604   0.942   6.798
 5544SOL    HW217532   5.496   1.042   6.728
 5545SOL     OW17533   2.727   2.443   1.765
 5545SOL    HW117534   2.818   2.428   1.802
 5545SOL    HW217535   2.733   2.484   1.674
 5546SOL     OW17536   4.126   4.761   5.661
 5546SOL    HW117537   4.123   4.861   5.669
 5546SOL    HW217538   4.135   4.735   5.565
 5547SOL     OW17539   3.337   5.579   4.010
 5547SOL    HW117540   3.366   5.551   4.102
 5547SOL    HW217541   3.415   5.572   3.948
 5548SOL     OW17542   0.539   2.318   4.536
 5548SOL    HW117543   0.585   2.322   4.447
 5548SOL    HW217544   0.446   2.356   4.527
 5549SOL     OW17545   3.653   5.102   0.096
 5549SOL    HW117546   3.632   5.048   0.015
 5549SOL    HW217547   3.695   5.188   0.069
 5550SOL     OW17548   2.753   6.513   2.405
 5550SOL    HW117549   2.819   6.519   2.331
 5550SOL    HW217550   2.769   6.431   2.459
 5551SOL     OW17551   0.756   1.195   3.125
 5551SOL    HW117552   0.738   1.186   3.223
 5551SOL    HW217553   0.848   1.232   3.112
 5552SOL     OW17554   0.818   2.654   2.148
 5552SOL    HW117555   0.915   2.630   2.154
 5552SOL    HW217556   0.774   2.600   2.077
 5553SOL     OW17557   4.529   6.306   6.530
 5553SOL    HW117558   4.463   6.312   6.605
 5553SOL    HW217559   4.480   6.308   6.443
 5554SOL     OW17560   3.636   1.102   4.257
 5554SOL    HW117561   3.617   1.017   4.208
 5554SOL    HW217562   3.622   1.087   4.355
 5555SOL     OW17563   0.681   5.954   1.770
 5555SOL    HW117564   0.696   5.997   1.681
 5555SOL    HW217565   0.769   5.932   1.812
 5556SOL     OW17566   1.003   0.892   4.372
 5556SOL    HW117567   0.952   0.950   4.308
 5556SOL    HW217568   1.037   0.812   4.324
 5557SOL     OW17569   2.288   0.444   2.983
 5557SOL    HW117570   2.299   0.505   2.905
 5557SOL    HW217571   2.191   0.430   3.002
 5558SOL     OW17572   4.985   2.634   5.403
 5558SOL    HW117573   5.026   2.660   5.315
 5558SOL    HW217574   4.889   2.610   5.389
 5559SOL     OW17575   2.135   0.661   1.468
 5559SOL    HW117576   2.181   0.642   1.381
 5559SOL    HW217577   2.136   0.578   1.525
 5560SOL     OW17578   6.999   1.034   4.420
 5560SOL    HW117579   6.930   0.965   4.395
 5560SOL    HW217580   6.987   1.060   4.515
 5561SOL     OW17581   1.775   3.715   2.421
 5561SOL    HW117582   1.755   3.621   2.394
 5561SOL    HW217583   1.725   3.778   2.362
 5562SOL     OW17584   2.860   2.008   6.867
 5562SOL    HW117585   2.824   2.094   6.831
 5562SOL    HW217586   2.897   1.953   6.792
 5563SOL     OW17587   4.067   4.181   1.578
 5563SOL    HW117588   3.968   4.167   1.581
 5563SOL    HW217589   4.106   4.126   1.504
 5564SOL     OW17590   5.368   2.257   1.391
 5564SOL    HW117591   5.334   2.270   1.299
 5564SOL    HW217592   5.377   2.159   1.410
 5565SOL     OW17593   2.520   2.610   5.406
 5565SOL    HW117594   2.612   2.572   5.412
 5565SOL    HW217595   2.508   2.679   5.477
 5566SOL     OW17596   2.349   4.329   0.621
 5566SOL    HW117597   2.326   4.241   0.663
 5566SOL    HW217598   2.391   4.388   0.689
 5567SOL     OW17599   1.365   5.268   2.983
 5567SOL    HW117600   1.372   5.345   3.046
 5567SOL    HW217601   1.426   5.194   3.014
 5568SOL     OW17602   4.029   2.551   0.225
 5568SOL    HW117603   3.984   2.509   0.146
 5568SOL    HW217604   4.002   2.647   0.231
 5569SOL     OW17605   4.825   1.976   6.628
 5569SOL    HW117606   4.897   2.044   6.640
 5569SOL    HW217607   4.808   1.961   6.530
 5570SOL     OW17608   1.186   3.269   4.980
 5570SOL    HW117609   1.156   3.176   4.961
 5570SOL    HW217610   1.145   3.300   5.067
 5571SOL     OW17611   6.486   4.331   6.677
 5571SOL    HW117612   6.448   4.293   6.761
 5571SOL    HW217613   6.570   4.282   6.653
 5572SOL     OW17614   6.988   3.347   4.749
 5572SOL    HW117615   6.969   3.253   4.776
 5572SOL    HW217616   6.914   3.381   4.691
 5573SOL     OW17617   0.139   3.980   6.824
 5573SOL    HW117618   0.216   4.020   6.875
 5573SOL    HW217619   0.103   4.047   6.760
 5574SOL     OW17620   1.198   6.812   3.921
 5574SOL    HW117621   1.261   6.843   3.850
 5574SOL    HW217622   1.132   6.884   3.942
 5575SOL     OW17623   1.222   1.055   2.064
 5575SOL    HW117624   1.154   1.128   2.057
 5575SOL    HW217625   1.191   0.976   2.011
 5576SOL     OW17626   5.473   6.262   5.845
 5576SOL    HW117627   5.437   6.290   5.934
 5576SOL    HW217628   5.545   6.326   5.817
 5577SOL     OW17629   2.449   4.467   4.662
 5577SOL    HW117630   2.530   4.505   4.706
 5577SOL    HW217631   2.392   4.420   4.730
 5578SOL     OW17632   3.243   1.959   6.297
 5578SOL    HW117633   3.162   1.993   6.344
 5578SOL    HW217634   3.325   1.987   6.347
 5579SOL     OW17635   5.045   5.340   2.083
 5579SOL    HW117636   5.025   5.336   2.181
 5579SOL    HW217637   5.066   5.248   2.049
 5580SOL     OW17638   5.125   1.171   1.505
 5580SOL    HW117639   5.056   1.233   1.466
 5580SOL    HW217640   5.162   1.211   1.589
 5581SOL     OW17641   2.811   2.646   0.461
 5581SOL    HW117642   2.731   2.590   0.482
 5581SOL    HW217643   2.884   2.588   0.425
 5582SOL     OW17644   3.715   3.142   3.125
 5582SOL    HW117645   3.671   3.229   3.101
 5582SOL    HW217646   3.647   3.080   3.163
 5583SOL     OW17647   4.482   0.507   6.939
 5583SOL    HW117648   4.442   0.535   6.852
 5583SOL    HW217649   4.565   0.560   6.956
 5584SOL     OW17650   4.928   3.475   3.289
 5584SOL    HW117651   4.935   3.451   3.386
 5584SOL    HW217652   4.933   3.392   3.234
 5585SOL     OW17653   0.585   6.993   4.640
 5585SOL    HW117654   0.626   6.927   4.577
 5585SOL    HW217655   0.532   0.038   4.588
 5586SOL     OW17656   2.752   1.232   6.885
 5586SOL    HW117657   2.706   1.312   6.923
 5586SOL    HW217658   2.745   1.233   6.785
 5587SOL     OW17659   3.357   6.657   3.512
 5587SOL    HW117660   3.285   6.590   3.528
 5587SOL    HW217661   3.352   6.729   3.582
 5588SOL     OW17662   4.938   6.617   6.096
 5588SOL    HW117663   4.854   6.664   6.122
 5588SOL    HW217664   5.013   6.683   6.094
 5589SOL     OW17665   2.587   3.958   0.363
 5589SOL    HW117666   2.513   4.021   0.387
 5589SOL    HW217667   2.603   3.896   0.440
 5590SOL     OW17668   6.820   0.489   3.544
 5590SOL    HW117669   6.725   0.509   3.566
 5590SOL    HW217670   6.873   0.481   3.629
 5591SOL     OW17671   5.320   0.115   0.758
 5591SOL    HW117672   5.386   0.135   0.686
 5591SOL    HW217673   5.363   0.128   0.848
 5592SOL     OW17674   1.342   2.695   2.301
 5592SOL    HW117675   1.290   2.780   2.312
 5592SOL    HW217676   1.327   2.659   2.209
 5593SOL     OW17677   2.417   4.727   5.020
 5593SOL    HW117678   2.471   4.695   4.942
 5593SOL    HW217679   2.464   4.703   5.105
 5594SOL     OW17680   2.989   1.573   6.752
 5594SOL    HW117681   3.052   1.495   6.745
 5594SOL    HW217682   3.033   1.654   6.714
 5595SOL     OW17683   0.731   2.817   6.587
 5595SOL    HW117684   0.729   2.892   6.521
 5595SOL    HW217685   0.802   2.752   6.560
 5596SOL     OW17686   4.837   3.120   4.573
 5596SOL    HW117687   4.829   3.213   4.609
 5596SOL    HW217688   4.819   3.054   4.646
 5597SOL     OW17689   7.001   1.686   6.832
 5597SOL    HW117690   6.918   1.714   6.786
 5597SOL    HW217691   6.980   1.614   6.899
 5598SOL     OW17692   6.548   1.393   3.592
 5598SOL    HW117693   6.551   1.311   3.536
 5598SOL    HW217694   6.590   1.374   3.681
 5599SOL     OW17695   5.818   2.881   3.214
 5599SOL    HW117696   5.805   2.913   3.120
 5599SOL    HW217697   5.915   2.860   3.229
 5600SOL     OW17698   1.981   2.990   2.022
 5600SOL    HW117699   1.948   2.992   1.928
 5600SOL    HW217700   1.948   3.071   2.071
 5601SOL     OW17701   5.876   3.029   5.667
 5601SOL    HW117702   5.915   2.985   5.748
 5601SOL    HW217703   5.780   3.002   5.658
 5602SOL     OW17704   6.220   2.102   3.020
 5602SOL    HW117705   6.253   2.009   3.000
 5602SOL    HW217706   6.218   2.155   2.935
 5603SOL     OW17707   3.371   2.301   6.383
 5603SOL    HW117708   3.450   2.241   6.378
 5603SOL    HW217709   3.354   2.343   6.294
 5604SOL     OW17710   0.905   6.137   3.752
 5604SOL    HW117711   0.972   6.066   3.730
 5604SOL    HW217712   0.896   6.200   3.675
 5605SOL     OW17713   4.362   0.521   3.828
 5605SOL    HW117714   4.459   0.542   3.825
 5605SOL    HW217715   4.317   0.577   3.898
 5606SOL     OW17716   4.855   3.097   0.786
 5606SOL    HW117717   4.776   3.098   0.848
 5606SOL    HW217718   4.895   3.188   0.782
 5607SOL     OW17719   6.949   2.401   3.106
 5607SOL    HW117720   6.860   2.360   3.089
 5607SOL    HW217721   7.005   2.396   3.023
 5608SOL     OW17722   5.474   0.361   3.976
 5608SOL    HW117723   5.548   0.415   4.016
 5608SOL    HW217724   5.512   0.287   3.921
 5609SOL     OW17725   6.399   0.511   0.581
 5609SOL    HW117726   6.438   0.512   0.673
 5609SOL    HW217727   6.299   0.503   0.587
 5610SOL     OW17728   5.695   5.839   5.806
 5610SOL    HW117729   5.605   5.838   5.850
 5610SOL    HW217730   5.766   5.827   5.876
 5611SOL     OW17731   6.246   3.952   2.059
 5611SOL    HW117732   6.269   3.857   2.081
 5611SOL    HW217733   6.190   3.954   1.976
 5612SOL     OW17734   4.396   2.073   0.996
 5612SOL    HW117735   4.394   2.027   0.908
 5612SOL    HW217736   4.397   2.172   0.981
 5613SOL     OW17737   6.125   5.189   5.905
 5613SOL    HW117738   6.201   5.149   5.956
 5613SOL    HW217739   6.039   5.160   5.946
 5614SOL     OW17740   4.682   1.727   5.124
 5614SOL    HW117741   4.595   1.746   5.168
 5614SOL    HW217742   4.746   1.801   5.143
 5615SOL     OW17743   0.732   3.179   3.239
 5615SOL    HW117744   0.734   3.160   3.337
 5615SOL    HW217745   0.773   3.102   3.189
 5616SOL     OW17746   1.633   3.247   1.928
 5616SOL    HW117747   1.672   3.228   1.838
 5616SOL    HW217748   1.705   3.239   1.998
 5617SOL     OW17749   1.159   5.401   6.271
 5617SOL    HW117750   1.128   5.485   6.226
 5617SOL    HW217751   1.079   5.347   6.300
 5618SOL     OW17752   4.574   6.979   2.619
 5618SOL    HW117753   4.671   6.966   2.599
 5618SOL    HW217754   4.520   6.915   2.564
 5619SOL     OW17755   3.197   3.006   3.239
 5619SOL    HW117756   3.170   3.063   3.161
 5619SOL    HW217757   3.115   2.977   3.288
 5620SOL     OW17758   5.154   4.523   4.908
 5620SOL    HW117759   5.062   4.556   4.930
 5620SOL    HW217760   5.197   4.488   4.991
 5621SOL     OW17761   1.027   2.688   6.960
 5621SOL    HW117762   1.105   2.678   6.899
 5621SOL    HW217763   0.953   2.735   6.912
 5622SOL     OW17764   5.121   5.649   3.831
 5622SOL    HW117765   5.057   5.589   3.783
 5622SOL    HW217766   5.070   5.710   3.891
 5623SOL     OW17767   4.812   4.692   4.052
 5623SOL    HW117768   4.892   4.651   4.096
 5623SOL    HW217769   4.731   4.675   4.108
 5624SOL     OW17770   4.815   3.867   3.624
 5624SOL    HW117771   4.831   3.963   3.600
 5624SOL    HW217772   4.837   3.809   3.545
 5625SOL     OW17773   2.910   6.497   6.013
 5625SOL    HW117774   2.939   6.403   6.000
 5625SOL    HW217775   2.833   6.501   6.076
 5626SOL     OW17776   1.588   5.257   6.599
 5626SOL    HW117777   1.580   5.346   6.555
 5626SOL    HW217778   1.652   5.199   6.548
 5627SOL     OW17779   1.164   5.541   0.789
 5627SOL    HW117780   1.181   5.639   0.799
 5627SOL    HW217781   1.155   5.519   0.692
 5628SOL     OW17782   1.622   3.138   0.236
 5628SOL    HW117783   1.611   3.199   0.158
 5628SOL    HW217784   1.714   3.098   0.234
 5629SOL     OW17785   6.791   3.727   4.253
 5629SOL    HW117786   6.814   3.801   4.316
 5629SOL    HW217787   6.695   3.733   4.227
 5630SOL     OW17788   1.232   3.738   0.540
 5630SOL    HW117789   1.308   3.724   0.476
 5630SOL    HW217790   1.266   3.782   0.623
 5631SOL     OW17791   3.837   0.511   1.540
 5631SOL    HW117792   3.838   0.421   1.496
 5631SOL    HW217793   3.862   0.502   1.636
 5632SOL     OW17794   4.047   6.124   6.781
 5632SOL    HW117795   4.124   6.181   6.753
 5632SOL    HW217796   4.081   6.039   6.823
 5633SOL     OW17797   1.105   5.968   5.483
 5633SOL    HW117798   1.059   5.880   5.484
 5633SOL    HW217799   1.108   6.005   5.576
 5634SOL     OW17800   2.544   0.955   1.699
 5634SOL    HW117801   2.500   0.894   1.633
 5634SOL    HW217802   2.495   0.951   1.786
 5635SOL     OW17803   3.498   0.785   2.056
 5635SOL    HW117804   3.444   0.868   2.066
 5635SOL    HW217805   3.595   0.809   2.053
 5636SOL     OW17806   5.601   0.752   5.715
 5636SOL    HW117807   5.621   0.685   5.643
 5636SOL    HW217808   5.678   0.815   5.723
 5637SOL     OW17809   5.055   6.941   4.673
 5637SOL    HW117810   4.980   7.006   4.660
 5637SOL    HW217811   5.094   6.953   4.764
 5638SOL     OW17812   6.641   5.076   0.277
 5638SOL    HW117813   6.654   5.106   0.372
 5638SOL    HW217814   6.551   5.035   0.267
 5639SOL     OW17815   3.632   0.600   1.829
 5639SOL    HW117816   3.597   0.506   1.829
 5639SOL    HW217817   3.620   0.639   1.920
 5640SOL     OW17818   2.713   6.968   3.623
 5640SOL    HW117819   2.779   7.018   3.680
 5640SOL    HW217820   2.658   0.011   3.571
 5641SOL     OW17821   6.736   4.508   3.768
 5641SOL    HW117822   6.638   4.520   3.781
 5641SOL    HW217823   6.753   4.476   3.674
 5642SOL     OW17824   1.873   3.154   6.273
 5642SOL    HW117825   1.935   3.076   6.278
 5642SOL    HW217826   1.917   3.235   6.312
 5643SOL     OW17827   6.128   2.618   3.871
 5643SOL    HW117828   6.054   2.581   3.927
 5643SOL    HW217829   6.158   2.548   3.805
 5644SOL     OW17830   3.969   0.556   5.838
 5644SOL    HW117831   3.988   0.483   5.772
 5644SOL    HW217832   4.053   0.608   5.855
 5645SOL     OW17833   5.875   6.746   3.188
 5645SOL    HW117834   5.797   6.802   3.217
 5645SOL    HW217835   5.936   6.731   3.267
 5646SOL     OW17836   6.285   0.010   4.040
 5646SOL    HW117837   6.381   0.037   4.043
 5646SOL    HW217838   6.237   0.065   3.972
 5647SOL     OW17839   6.930   3.998   6.609
 5647SOL    HW117840   6.873   4.079   6.603
 5647SOL    HW217841   6.984   3.989   6.525
 5648SOL     OW17842   2.525   1.671   4.209
 5648SOL    HW117843   2.482   1.615   4.280
 5648SOL    HW217844   2.456   1.728   4.165
 5649SOL     OW17845   0.769   0.569   5.901
 5649SOL    HW117846   0.738   0.605   5.813
 5649SOL    HW217847   0.832   0.634   5.943
 5650SOL     OW17848   6.959   5.138   5.341
 5650SOL    HW117849   6.972   5.133   5.440
 5650SOL    HW217850   6.978   5.049   5.300
 5651SOL     OW17851   5.691   1.665   2.234
 5651SOL    HW117852   5.750   1.606   2.177
 5651SOL    HW217853   5.745   1.741   2.270
 5652SOL     OW17854   5.426   4.253   0.403
 5652SOL    HW117855   5.438   4.156   0.424
 5652SOL    HW217856   5.511   4.289   0.364
 5653SOL     OW17857   2.063   5.732   0.160
 5653SOL    HW117858   1.997   5.793   0.204
 5653SOL    HW217859   2.154   5.747   0.199
 5654SOL     OW17860   1.644   6.200   0.219
 5654SOL    HW117861   1.598   6.246   0.295
 5654SOL    HW217862   1.610   6.238   0.133
 5655SOL     OW17863   6.533   5.248   2.853
 5655SOL    HW117864   6.576   5.242   2.763
 5655SOL    HW217865   6.603   5.252   2.924
 5656SOL     OW17866   3.694   5.784   6.573
 5656SOL    HW117867   3.646   5.726   6.506
 5656SOL    HW217868   3.778   5.818   6.532
 5657SOL     OW17869   4.715   5.626   1.971
 5657SOL    HW117870   4.615   5.625   1.964
 5657SOL    HW217871   4.745   5.553   2.031
 5658SOL     OW17872   5.452   6.367   6.109
 5658SOL    HW117873   5.355   6.349   6.123
 5658SOL    HW217874   5.491   6.407   6.192
 5659SOL     OW17875   3.156   3.051   2.727
 5659SOL    HW117876   3.081   3.039   2.662
 5659SOL    HW217877   3.243   3.028   2.682
 5660SOL     OW17878   6.343   6.408   1.598
 5660SOL    HW117879   6.403   6.348   1.651
 5660SOL    HW217880   6.301   6.475   1.659
 5661SOL     OW17881   6.240   5.658   4.427
 5661SOL    HW117882   6.294   5.680   4.346
 5661SOL    HW217883   6.277   5.575   4.470
 5662SOL     OW17884   2.370   4.953   4.850
 5662SOL    HW117885   2.375   4.866   4.898
 5662SOL    HW217886   2.293   4.951   4.785
 5663SOL     OW17887   2.626   4.478   1.327
 5663SOL    HW117888   2.679   4.395   1.309
 5663SOL    HW217889   2.684   4.545   1.374
 5664SOL     OW17890   6.702   6.297   1.908
 5664SOL    HW117891   6.772   6.226   1.906
 5664SOL    HW217892   6.721   6.360   1.984
 5665SOL     OW17893   1.007   1.564   5.949
 5665SOL    HW117894   1.102   1.553   5.979
 5665SOL    HW217895   1.005   1.590   5.853
 5666SOL     OW17896   5.836   5.635   0.359
 5666SOL    HW117897   5.899   5.594   0.425
 5666SOL    HW217898   5.830   5.577   0.277
 5667SOL     OW17899   6.263   4.739   2.716
 5667SOL    HW117900   6.238   4.673   2.646
 5667SOL    HW217901   6.260   4.832   2.678
 5668SOL     OW17902   6.097   3.117   5.990
 5668SOL    HW117903   6.155   3.163   5.923
 5668SOL    HW217904   6.075   3.025   5.957
 5669SOL     OW17905   0.349   3.171   4.372
 5669SOL    HW117906   0.312   3.236   4.439
 5669SOL    HW217907   0.275   3.116   4.335
 5670SOL     OW17908   1.323   3.800   2.371
 5670SOL    HW117909   1.290   3.843   2.287
 5670SOL    HW217910   1.289   3.706   2.375
 5671SOL     OW17911   1.123   0.686   5.176
 5671SOL    HW117912   1.149   0.782   5.189
 5671SOL    HW217913   1.204   0.628   5.187
 5672SOL     OW17914   5.025   3.935   5.950
 5672SOL    HW117915   5.004   3.960   5.856
 5672SOL    HW217916   4.940   3.929   6.003
 5673SOL     OW17917   1.596   6.983   0.754
 5673SOL    HW117918   1.621   6.994   0.658
 5673SOL    HW217919   1.663   0.008   0.811
 5674SOL     OW17920   6.872   3.341   1.302
 5674SOL    HW117921   6.831   3.258   1.265
 5674SOL    HW217922   6.836   3.421   1.254
 5675SOL     OW17923   3.877   1.064   6.215
 5675SOL    HW117924   3.969   1.073   6.252
 5675SOL    HW217925   3.873   0.984   6.155
 5676SOL     OW17926   3.162   6.828   1.448
 5676SOL    HW117927   3.158   6.728   1.449
 5676SOL    HW217928   3.157   6.860   1.353
 5677SOL     OW17929   6.702   0.596   3.283
 5677SOL    HW117930   6.650   0.524   3.239
 5677SOL    HW217931   6.748   0.559   3.364
 5678SOL     OW17932   1.645   5.802   3.599
 5678SOL    HW117933   1.616   5.896   3.612
 5678SOL    HW217934   1.744   5.799   3.581
 5679SOL     OW17935   3.171   5.490   5.376
 5679SOL    HW117936   3.199   5.547   5.299
 5679SOL    HW217937   3.251   5.445   5.415
 5680SOL     OW17938   1.630   6.988   6.654
 5680SOL    HW117939   1.588   6.973   6.743
 5680SOL    HW217940   1.717   0.014   6.665
 5681SOL     OW17941   2.723   4.095   6.995
 5681SOL    HW117942   2.790   4.130   6.931
 5681SOL    HW217943   2.690   4.005   6.963
 5682SOL     OW17944   1.416   3.830   4.118
 5682SOL    HW117945   1.426   3.747   4.064
 5682SOL    HW217946   1.419   3.808   4.215
 5683SOL     OW17947   4.078   3.669   4.791
 5683SOL    HW117948   3.988   3.624   4.795
 5683SOL    HW217949   4.067   3.764   4.762
 5684SOL     OW17950   3.082   3.175   3.056
 5684SOL    HW117951   3.048   3.165   2.962
 5684SOL    HW217952   3.028   3.244   3.104
 5685SOL     OW17953   0.155   5.780   1.963
 5685SOL    HW117954   0.180   5.872   1.931
 5685SOL    HW217955   0.236   5.722   1.966
 5686SOL     OW17956   3.307   4.580   0.209
 5686SOL    HW117957   3.264   4.503   0.162
 5686SOL    HW217958   3.237   4.647   0.234
 5687SOL     OW17959   4.006   5.384   6.454
 5687SOL    HW117960   4.103   5.400   6.436
 5687SOL    HW217961   3.986   5.402   6.550
 5688SOL     OW17962   5.728   1.830   1.931
 5688SOL    HW117963   5.735   1.913   1.877
 5688SOL    HW217964   5.670   1.847   2.011
 5689SOL     OW17965   4.438   3.307   6.017
 5689SOL    HW117966   4.371   3.243   6.053
 5689SOL    HW217967   4.530   3.280   6.046
 5690SOL     OW17968   4.457   6.569   2.446
 5690SOL    HW117969   4.476   6.573   2.348
 5690SOL    HW217970   4.451   6.662   2.482
 5691SOL     OW17971   2.542   0.311   4.040
 5691SOL    HW117972   2.546   0.232   3.979
 5691SOL    HW217973   2.454   0.357   4.030
 5692SOL     OW17974   5.849   2.810   6.657
 5692SOL    HW117975   5.889   2.778   6.571
 5692SOL    HW217976   5.751   2.790   6.658
 5693SOL     OW17977   4.885   2.265   2.666
 5693SOL    HW117978   4.927   2.262   2.575
 5693SOL    HW217979   4.948   2.225   2.733
 5694SOL     OW17980   1.240   1.641   3.924
 5694SOL    HW117981   1.248   1.542   3.910
 5694SOL    HW217982   1.178   1.659   4.001
 5695SOL     OW17983   2.012   3.455   3.342
 5695SOL    HW117984   2.032   3.441   3.438
 5695SOL    HW217985   1.920   3.421   3.322
 5696SOL     OW17986   3.324   0.274   6.065
 5696SOL    HW117987   3.397   0.329   6.025
 5696SOL    HW217988   3.361   0.186   6.095
 5697SOL     OW17989   6.343   3.802   0.074
 5697SOL    HW117990   6.411   3.761   0.013
 5697SOL    HW217991   6.382   3.809   0.166
 5698SOL     OW17992   1.196   4.190   3.137
 5698SOL    HW117993   1.293   4.212   3.133
 5698SOL    HW217994   1.184   4.103   3.184
 5699SOL     OW17995   6.817   2.677   5.020
 5699SOL    HW117996   6.796   2.774   5.004
 5699SOL    HW217997   6.890   2.649   4.958
 5700SOL     OW17998   0.971   5.804   3.436
 5700SOL    HW117999   0.982   5.723   3.493
 5700SOL    HW218000   1.000   5.885   3.487
 5701SOL     OW18001   5.540   4.434   2.061
 5701SOL    HW118002   5.608   4.405   2.129
 5701SOL    HW218003   5.583   4.444   1.972
 5702SOL     OW18004   2.176   0.339   6.966
 5702SOL    HW118005   2.239   0.336   0.021
 5702SOL    HW218006   2.114   0.261   6.971
 5703SOL     OW18007   4.837   4.351   1.844
 5703SOL    HW118008   4.825   4.259   1.807
 5703SOL    HW218009   4.785   4.359   1.929
 5704SOL     OW18010   4.998   4.018   3.268
 5704SOL    HW118011   4.970   3.932   3.224
 5704SOL    HW218012   5.078   4.000   3.326
 5705SOL     OW18013   6.072   1.711   3.245
 5705SOL    HW118014   6.136   1.712   3.322
 5705SOL    HW218015   6.028   1.800   3.237
 5706SOL     OW18016   2.072   1.463   6.567
 5706SOL    HW118017   1.988   1.508   6.538
 5706SOL    HW218018   2.074   1.369   6.534
 5707SOL     OW18019   2.756   1.220   6.613
 5707SOL    HW118020   2.854   1.234   6.595
 5707SOL    HW218021   2.706   1.304   6.593
 5708SOL     OW18022   6.628   0.123   1.672
 5708SOL    HW118023   6.694   0.146   1.600
 5708SOL    HW218024   6.634   0.025   1.692
 5709SOL     OW18025   1.227   1.908   1.912
 5709SOL    HW118026   1.316   1.934   1.947
 5709SOL    HW218027   1.185   1.841   1.974
 5710SOL     OW18028   3.438   4.335   6.201
 5710SOL    HW118029   3.515   4.300   6.147
 5710SOL    HW218030   3.435   4.435   6.193
 5711SOL     OW18031   5.036   1.230   4.552
 5711SOL    HW118032   5.109   1.197   4.492
 5711SOL    HW218033   4.969   1.157   4.565
 5712SOL     OW18034   6.449   5.984   6.968
 5712SOL    HW118035   6.521   6.015   6.906
 5712SOL    HW218036   6.411   5.898   6.935
 5713SOL     OW18037   0.235   2.627   2.413
 5713SOL    HW118038   0.223   2.696   2.484
 5713SOL    HW218039   0.232   2.536   2.455
 5714SOL     OW18040   2.104   0.640   6.121
 5714SOL    HW118041   2.177   0.679   6.065
 5714SOL    HW218042   2.115   0.541   6.126
 5715SOL     OW18043   1.129   6.872   3.601
 5715SOL    HW118044   1.165   6.779   3.594
 5715SOL    HW218045   1.100   6.903   3.510
 5716SOL     OW18046   2.047   2.470   5.115
 5716SOL    HW118047   2.084   2.377   5.125
 5716SOL    HW218048   2.058   2.519   5.201
 5717SOL     OW18049   0.720   3.886   6.862
 5717SOL    HW118050   0.650   3.858   6.795
 5717SOL    HW218051   0.782   3.951   6.819
 5718SOL     OW18052   2.517   4.751   5.619
 5718SOL    HW118053   2.495   4.655   5.599
 5718SOL    HW218054   2.596   4.779   5.565
 5719SOL     OW18055   2.331   0.456   0.332
 5719SOL    HW118056   2.329   0.551   0.302
 5719SOL    HW218057   2.345   0.452   0.431
 5720SOL     OW18058   1.282   5.880   3.998
 5720SOL    HW118059   1.221   5.801   4.000
 5720SOL    HW218060   1.228   5.963   3.989
 5721SOL     OW18061   6.849   4.325   0.753
 5721SOL    HW118062   6.913   4.399   0.775
 5721SOL    HW218063   6.785   4.314   0.829
 5722SOL     OW18064   5.340   1.435   4.010
 5722SOL    HW118065   5.310   1.443   4.106
 5722SOL    HW218066   5.275   1.378   3.960
 5723SOL     OW18067   1.141   4.097   0.991
 5723SOL    HW118068   1.187   4.012   1.016
 5723SOL    HW218069   1.083   4.082   0.911
 5724SOL     OW18070   4.660   2.634   6.021
 5724SOL    HW118071   4.654   2.537   6.043
 5724SOL    HW218072   4.701   2.684   6.097
 5725SOL     OW18073   5.507   5.786   5.601
 5725SOL    HW118074   5.600   5.810   5.627
 5725SOL    HW218075   5.489   5.818   5.508
 5726SOL     OW18076   4.535   4.014   5.517
 5726SOL    HW118077   4.607   3.946   5.506
 5726SOL    HW218078   4.576   4.105   5.524
 5727SOL     OW18079   5.930   2.192   3.795
 5727SOL    HW118080   5.876   2.183   3.711
 5727SOL    HW218081   5.874   2.237   3.865
 5728SOL     OW18082   4.748   0.674   5.513
 5728SOL    HW118083   4.791   0.609   5.576
 5728SOL    HW218084   4.792   0.668   5.424
 5729SOL     OW18085   1.424   2.922   4.710
 5729SOL    HW118086   1.349   2.951   4.769
 5729SOL    HW218087   1.509   2.964   4.740
 5730SOL     OW18088   3.855   5.225   0.728
 5730SOL    HW118089   3.783   5.204   0.794
 5730SOL    HW218090   3.820   5.212   0.635
 5731SOL     OW18091   4.201   1.637   4.799
 5731SOL    HW118092   4.204   1.613   4.896
 5731SOL    HW218093   4.181   1.556   4.745
 5732SOL     OW18094   5.444   4.370   4.160
 5732SOL    HW118095   5.460   4.382   4.258
 5732SOL    HW218096   5.349   4.392   4.139
 5733SOL     OW18097   2.798   6.873   1.443
 5733SOL    HW118098   2.844   6.932   1.509
 5733SOL    HW218099   2.809   6.778   1.470
 5734SOL     OW18100   1.538   6.347   6.223
 5734SOL    HW118101   1.581   6.392   6.144
 5734SOL    HW218102   1.605   6.340   6.297
 5735SOL     OW18103   5.332   0.960   1.892
 5735SOL    HW118104   5.330   0.936   1.795
 5735SOL    HW218105   5.238   0.964   1.927
 5736SOL     OW18106   6.009   4.174   6.483
 5736SOL    HW118107   6.015   4.096   6.545
 5736SOL    HW218108   6.098   4.221   6.481
 5737SOL     OW18109   5.219   5.931   2.201
 5737SOL    HW118110   5.305   5.889   2.229
 5737SOL    HW218111   5.230   5.974   2.111
 5738SOL     OW18112   2.170   0.818   0.824
 5738SOL    HW118113   2.086   0.868   0.846
 5738SOL    HW218114   2.238   0.834   0.895
 5739SOL     OW18115   2.446   1.142   5.655
 5739SOL    HW118116   2.375   1.182   5.712
 5739SOL    HW218117   2.536   1.162   5.693
 5740SOL     OW18118   4.960   3.554   2.899
 5740SOL    HW118119   4.977   3.456   2.901
 5740SOL    HW218120   4.991   3.596   2.984
 5741SOL     OW18121   1.652   3.504   4.216
 5741SOL    HW118122   1.694   3.427   4.264
 5741SOL    HW218123   1.720   3.576   4.204
 5742SOL     OW18124   6.073   6.923   3.032
 5742SOL    HW118125   6.146   6.941   3.098
 5742SOL    HW218126   6.022   6.842   3.061
 5743SOL     OW18127   3.543   5.836   0.269
 5743SOL    HW118128   3.585   5.761   0.217
 5743SOL    HW218129   3.607   5.867   0.339
 5744SOL     OW18130   5.258   6.293   3.525
 5744SOL    HW118131   5.330   6.334   3.581
 5744SOL    HW218132   5.259   6.194   3.537
 5745SOL     OW18133   1.075   3.084   2.315
 5745SOL    HW118134   1.048   3.178   2.336
 5745SOL    HW218135   1.027   3.052   2.233
 5746SOL     OW18136   5.229   0.140   2.712
 5746SOL    HW118137   5.322   0.103   2.700
 5746SOL    HW218138   5.204   0.133   2.808
 5747SOL     OW18139   1.318   6.844   1.174
 5747SOL    HW118140   1.332   6.766   1.114
 5747SOL    HW218141   1.239   6.896   1.144
 5748SOL     OW18142   6.785   6.158   0.502
 5748SOL    HW118143   6.752   6.090   0.567
 5748SOL    HW218144   6.774   6.250   0.541
 5749SOL     OW18145   1.921   5.684   6.174
 5749SOL    HW118146   1.936   5.731   6.087
 5749SOL    HW218147   1.892   5.590   6.156
 5750SOL     OW18148   6.833   2.754   4.173
 5750SOL    HW118149   6.933   2.756   4.176
 5750SOL    HW218150   6.800   2.827   4.113
 5751SOL     OW18151   1.275   3.926   4.499
 5751SOL    HW118152   1.233   4.003   4.547
 5751SOL    HW218153   1.219   3.903   4.419
 5752SOL     OW18154   5.309   0.685   0.085
 5752SOL    HW118155   5.376   0.618   0.053
 5752SOL    HW218156   5.274   0.738   0.007
 5753SOL     OW18157   3.315   4.044   4.437
 5753SOL    HW118158   3.236   4.002   4.482
 5753SOL    HW218159   3.372   4.090   4.506
 5754SOL     OW18160   0.130   5.927   1.303
 5754SOL    HW118161   0.055   5.933   1.369
 5754SOL    HW218162   0.217   5.928   1.352
 5755SOL     OW18163   0.925   3.669   6.651
 5755SOL    HW118164   0.866   3.631   6.722
 5755SOL    HW218165   1.000   3.720   6.694
 5756SOL     OW18166   6.003   5.903   1.851
 5756SOL    HW118167   6.065   5.922   1.927
 5756SOL    HW218168   6.031   5.956   1.771
 5757SOL     OW18169   6.979   1.097   3.844
 5757SOL    HW118170   6.930   1.050   3.917
 5757SOL    HW218171   6.947   1.192   3.838
 5758SOL     OW18172   6.241   6.459   2.880
 5758SOL    HW118173   6.291   6.541   2.907
 5758SOL    HW218174   6.148   6.484   2.853
 5759SOL     OW18175   3.074   0.177   1.807
 5759SOL    HW118176   3.034   0.264   1.780
 5759SOL    HW218177   3.041   0.152   1.898
 5760SOL     OW18178   1.664   2.712   0.455
 5760SOL    HW118179   1.697   2.750   0.369
 5760SOL    HW218180   1.589   2.648   0.437
 5761SOL     OW18181   6.715   6.885   5.026
 5761SOL    HW118182   6.698   6.961   4.964
 5761SOL    HW218183   6.808   6.892   5.062
 5762SOL     OW18184   0.747   5.535   6.375
 5762SOL    HW118185   0.757   5.634   6.380
 5762SOL    HW218186   0.651   5.511   6.363
 5763SOL     OW18187   5.806   0.141   0.547
 5763SOL    HW118188   5.756   0.116   0.464
 5763SOL    HW218189   5.904   0.146   0.526
 5764SOL     OW18190   4.445   6.214   4.000
 5764SOL    HW118191   4.367   6.151   4.005
 5764SOL    HW218192   4.412   6.308   4.008
 5765SOL     OW18193   6.379   4.943   2.433
 5765SOL    HW118194   6.432   4.977   2.511
 5765SOL    HW218195   6.290   4.988   2.431
 5766SOL     OW18196   0.501   1.344   4.296
 5766SOL    HW118197   0.547   1.266   4.252
 5766SOL    HW218198   0.416   1.312   4.339
 5767SOL     OW18199   4.197   6.984   0.068
 5767SOL    HW118200   4.215   0.015   0.150
 5767SOL    HW218201   4.103   6.948   0.071
 5768SOL     OW18202   0.924   1.087   5.146
 5768SOL    HW118203   0.905   1.185   5.153
 5768SOL    HW218204   0.839   1.035   5.161
 5769SOL     OW18205   1.631   3.698   5.449
 5769SOL    HW118206   1.717   3.741   5.422
 5769SOL    HW218207   1.562   3.770   5.464
 5770SOL     OW18208   1.822   4.046   2.016
 5770SOL    HW118209   1.734   4.027   1.972
 5770SOL    HW218210   1.884   4.086   1.949
 5771SOL     OW18211   3.279   5.265   3.968
 5771SOL    HW118212   3.324   5.302   3.887
 5771SOL    HW218213   3.185   5.299   3.973
 5772SOL     OW18214   3.303   6.924   2.718
 5772SOL    HW118215   3.398   6.935   2.690
 5772SOL    HW218216   3.297   6.854   2.789
 5773SOL     OW18217   5.505   1.124   2.440
 5773SOL    HW118218   5.554   1.163   2.517
 5773SOL    HW218219   5.570   1.091   2.371
 5774SOL     OW18220   0.645   6.530   2.750
 5774SOL    HW118221   0.706   6.556   2.825
 5774SOL    HW218222   0.591   6.609   2.722
 5775SOL     OW18223   6.294   5.099   1.482
 5775SOL    HW118224   6.285   5.155   1.400
 5775SOL    HW218225   6.238   5.016   1.472
 5776SOL     OW18226   2.362   0.796   4.067
 5776SOL    HW118227   2.294   0.858   4.030
 5776SOL    HW218228   2.454   0.831   4.049
 5777SOL     OW18229   1.912   6.892   1.624
 5777SOL    HW118230   1.902   6.921   1.719
 5777SOL    HW218231   2.009   6.889   1.600
 5778SOL     OW18232   0.208   0.946   0.935
 5778SOL    HW118233   0.208   0.913   0.841
 5778SOL    HW218234   0.142   1.021   0.944
 5779SOL     OW18235   5.963   1.113   6.215
 5779SOL    HW118236   5.965   1.042   6.285
 5779SOL    HW218237   5.989   1.073   6.126
 5780SOL     OW18238   5.507   4.999   4.009
 5780SOL    HW118239   5.419   4.999   4.056
 5780SOL    HW218240   5.567   4.929   4.048
 5781SOL     OW18241   1.322   5.501   5.877
 5781SOL    HW118242   1.248   5.541   5.824
 5781SOL    HW218243   1.407   5.551   5.858
 5782SOL     OW18244   0.572   0.645   0.428
 5782SOL    HW118245   0.482   0.661   0.468
 5782SOL    HW218246   0.606   0.729   0.385
 5783SOL     OW18247   2.277   2.574   0.587
 5783SOL    HW118248   2.273   2.519   0.670
 5783SOL    HW218249   2.185   2.605   0.563
 5784SOL     OW18250   6.619   6.074   6.728
 5784SOL    HW118251   6.604   6.160   6.680
 5784SOL    HW218252   6.589   5.998   6.671
 5785SOL     OW18253   1.081   1.114   0.447
 5785SOL    HW118254   1.084   1.040   0.514
 5785SOL    HW218255   1.153   1.180   0.468
 5786SOL     OW18256   6.142   5.415   1.477
 5786SOL    HW118257   6.238   5.413   1.505
 5786SOL    HW218258   6.087   5.458   1.548
 5787SOL     OW18259   2.302   2.805   6.643
 5787SOL    HW118260   2.215   2.852   6.628
 5787SOL    HW218261   2.294   2.710   6.612
 5788SOL     OW18262   2.857   0.593   3.436
 5788SOL    HW118263   2.945   0.567   3.397
 5788SOL    HW218264   2.831   0.684   3.404
 5789SOL     OW18265   3.861   4.660   6.066
 5789SOL    HW118266   3.943   4.699   6.024
 5789SOL    HW218267   3.782   4.717   6.043
 5790SOL     OW18268   1.325   3.255   3.276
 5790SOL    HW118269   1.236   3.217   3.303
 5790SOL    HW218270   1.311   3.328   3.209
 5791SOL     OW18271   1.810   0.579   2.915
 5791SOL    HW118272   1.834   0.676   2.908
 5791SOL    HW218273   1.741   0.557   2.846
 5792SOL     OW18274   6.889   2.722   2.602
 5792SOL    HW118275   6.934   2.748   2.688
 5792SOL    HW218276   6.950   2.663   2.549
 5793SOL     OW18277   0.180   0.963   3.817
 5793SOL    HW118278   0.208   0.911   3.898
 5793SOL    HW218279   0.098   1.016   3.839
 5794SOL     OW18280   5.270   4.520   6.200
 5794SOL    HW118281   5.314   4.515   6.111
 5794SOL    HW218282   5.267   4.429   6.241
 5795SOL     OW18283   5.423   3.988   6.685
 5795SOL    HW118284   5.437   3.889   6.694
 5795SOL    HW218285   5.403   4.026   6.775
 5796SOL     OW18286   3.705   2.509   0.763
 5796SOL    HW118287   3.707   2.435   0.696
 5796SOL    HW218288   3.648   2.584   0.729
 5797SOL     OW18289   3.425   2.918   6.025
 5797SOL    HW118290   3.381   3.006   6.043
 5797SOL    HW218291   3.519   2.921   6.057
 5798SOL     OW18292   6.536   5.476   4.148
 5798SOL    HW118293   6.604   5.439   4.211
 5798SOL    HW218294   6.572   5.558   4.104
 5799SOL     OW18295   5.254   0.629   3.534
 5799SOL    HW118296   5.307   0.550   3.503
 5799SOL    HW218297   5.257   0.633   3.634
 5800SOL     OW18298   5.901   5.240   0.394
 5800SOL    HW118299   5.817   5.243   0.339
 5800SOL    HW218300   5.878   5.248   0.491
 5801SOL     OW18301   2.429   1.105   2.765
 5801SOL    HW118302   2.409   1.013   2.729
 5801SOL    HW218303   2.528   1.120   2.762
 5802SOL     OW18304   0.295   2.420   4.546
 5802SOL    HW118305   0.334   2.431   4.637
 5802SOL    HW218306   0.302   2.506   4.496
 5803SOL     OW18307   1.858   4.833   0.662
 5803SOL    HW118308   1.862   4.870   0.569
 5803SOL    HW218309   1.797   4.754   0.664
 5804SOL     OW18310   6.389   3.253   5.592
 5804SOL    HW118311   6.391   3.247   5.492
 5804SOL    HW218312   6.374   3.348   5.620
 5805SOL     OW18313   5.878   3.151   6.653
 5805SOL    HW118314   5.781   3.132   6.638
 5805SOL    HW218315   5.889   3.207   6.736
 5806SOL     OW18316   0.417   6.860   0.090
 5806SOL    HW118317   0.466   6.796   0.149
 5806SOL    HW218318   0.470   6.877   0.007
 5807SOL     OW18319   2.015   3.687   1.976
 5807SOL    HW118320   2.002   3.721   2.069
 5807SOL    HW218321   2.093   3.625   1.974
 5808SOL     OW18322   6.575   2.524   3.171
 5808SOL    HW118323   6.629   2.450   3.131
 5808SOL    HW218324   6.484   2.526   3.130
 5809SOL     OW18325   6.497   3.225   4.103
 5809SOL    HW118326   6.581   3.272   4.077
 5809SOL    HW218327   6.495   3.212   4.203
 5810SOL     OW18328   2.821   2.303   2.591
 5810SOL    HW118329   2.892   2.351   2.642
 5810SOL    HW218330   2.846   2.301   2.494
 5811SOL     OW18331   2.699   1.426   3.142
 5811SOL    HW118332   2.603   1.401   3.126
 5811SOL    HW218333   2.713   1.522   3.119
 5812SOL     OW18334   4.306   0.418   4.716
 5812SOL    HW118335   4.344   0.511   4.721
 5812SOL    HW218336   4.354   0.367   4.645
 5813SOL     OW18337   1.414   1.081   5.277
 5813SOL    HW118338   1.403   1.065   5.375
 5813SOL    HW218339   1.424   1.179   5.260
 5814SOL     OW18340   0.350   5.082   1.200
 5814SOL    HW118341   0.381   5.137   1.277
 5814SOL    HW218342   0.412   5.004   1.188
 5815SOL     OW18343   3.524   1.354   3.360
 5815SOL    HW118344   3.526   1.395   3.269
 5815SOL    HW218345   3.522   1.426   3.429
 5816SOL     OW18346   4.789   6.710   0.904
 5816SOL    HW118347   4.706   6.767   0.901
 5816SOL    HW218348   4.783   6.639   0.833
 5817SOL     OW18349   5.164   1.867   5.374
 5817SOL    HW118350   5.217   1.784   5.393
 5817SOL    HW218351   5.214   1.924   5.308
 5818SOL     OW18352   6.035   6.100   6.050
 5818SOL    HW118353   6.106   6.043   6.008
 5818SOL    HW218354   5.984   6.147   5.978
 5819SOL     OW18355   5.985   0.405   0.759
 5819SOL    HW118356   6.070   0.373   0.719
 5819SOL    HW218357   5.966   0.353   0.843
 5820SOL     OW18358   6.120   5.999   3.033
 5820SOL    HW118359   6.034   5.990   3.083
 5820SOL    HW218360   6.149   6.094   3.033
 5821SOL     OW18361   3.918   0.509   1.799
 5821SOL    HW118362   4.016   0.493   1.810
 5821SOL    HW218363   3.886   0.570   1.871
 5822SOL     OW18364   0.320   1.417   2.580
 5822SOL    HW118365   0.294   1.337   2.634
 5822SOL    HW218366   0.238   1.469   2.556
 5823SOL     OW18367   2.276   2.500   4.231
 5823SOL    HW118368   2.310   2.510   4.137
 5823SOL    HW218369   2.293   2.584   4.282
 5824SOL     OW18370   4.402   0.707   3.511
 5824SOL    HW118371   4.338   0.726   3.585
 5824SOL    HW218372   4.406   0.609   3.494
 5825SOL     OW18373   2.704   1.119   0.687
 5825SOL    HW118374   2.770   1.044   0.686
 5825SOL    HW218375   2.625   1.094   0.741
 5826SOL     OW18376   6.293   0.850   4.753
 5826SOL    HW118377   6.338   0.938   4.763
 5826SOL    HW218378   6.362   0.778   4.742
 5827SOL     OW18379   1.035   5.229   5.487
 5827SOL    HW118380   0.939   5.229   5.459
 5827SOL    HW218381   1.058   5.142   5.530
 5828SOL     OW18382   6.816   3.131   1.745
 5828SOL    HW118383   6.825   3.041   1.703
 5828SOL    HW218384   6.808   3.120   1.844
 5829SOL     OW18385   1.562   1.392   2.090
 5829SOL    HW118386   1.468   1.363   2.077
 5829SOL    HW218387   1.624   1.326   2.048
 5830SOL     OW18388   2.006   0.977   5.588
 5830SOL    HW118389   2.083   1.040   5.573
 5830SOL    HW218390   2.032   0.909   5.656
 5831SOL     OW18391   5.825   6.007   3.113
 5831SOL    HW118392   5.829   6.040   3.019
 5831SOL    HW218393   5.729   6.002   3.143
 5832SOL     OW18394   3.584   3.655   4.991
 5832SOL    HW118395   3.538   3.605   4.918
 5832SOL    HW218396   3.585   3.753   4.968
 5833SOL     OW18397   3.924   3.100   4.813
 5833SOL    HW118398   3.987   3.123   4.739
 5833SOL    HW218399   3.945   3.156   4.893
 5834SOL     OW18400   5.984   0.610   0.192
 5834SOL    HW118401   6.012   0.704   0.215
 5834SOL    HW218402   6.045   0.546   0.239
 5835SOL     OW18403   4.987   2.294   3.944
 5835SOL    HW118404   5.015   2.374   3.892
 5835SOL    HW218405   5.004   2.310   4.042
 5836SOL     OW18406   3.421   6.189   2.541
 5836SOL    HW118407   3.333   6.152   2.571
 5836SOL    HW218408   3.490   6.116   2.541
 5837SOL     OW18409   4.970   4.690   6.245
 5837SOL    HW118410   4.909   4.642   6.308
 5837SOL    HW218411   5.064   4.677   6.274
 5838SOL     OW18412   0.352   2.030   5.508
 5838SOL    HW118413   0.314   2.091   5.439
 5838SOL    HW218414   0.281   2.006   5.574
 5839SOL     OW18415   0.120   3.170   2.539
 5839SOL    HW118416   0.029   3.158   2.579
 5839SOL    HW218417   0.142   3.092   2.481
 5840SOL     OW18418   1.989   5.075   0.018
 5840SOL    HW118419   2.053   5.097   6.967
 5840SOL    HW218420   1.906   5.131   0.009
 5841SOL     OW18421   6.783   2.460   2.777
 5841SOL    HW118422   6.753   2.543   2.825
 5841SOL    HW218423   6.784   2.478   2.679
 5842SOL     OW18424   4.149   2.977   0.466
 5842SOL    HW118425   4.096   2.897   0.494
 5842SOL    HW218426   4.146   2.987   0.367
 5843SOL     OW18427   1.533   2.871   1.700
 5843SOL    HW118428   1.627   2.876   1.736
 5843SOL    HW218429   1.486   2.793   1.742
 5844SOL     OW18430   1.296   6.091   0.392
 5844SOL    HW118431   1.210   6.131   0.424
 5844SOL    HW218432   1.286   6.059   0.298
 5845SOL     OW18433   1.185   2.033   4.582
 5845SOL    HW118434   1.223   1.981   4.659
 5845SOL    HW218435   1.130   1.973   4.525
 5846SOL     OW18436   0.254   3.088   6.238
 5846SOL    HW118437   0.331   3.032   6.208
 5846SOL    HW218438   0.266   3.113   6.334
 5847SOL     OW18439   2.035   2.514   3.296
 5847SOL    HW118440   2.111   2.528   3.232
 5847SOL    HW218441   2.054   2.435   3.353
 5848SOL     OW18442   1.068   4.961   3.785
 5848SOL    HW118443   1.029   4.897   3.718
 5848SOL    HW218444   1.157   4.994   3.753
 5849SOL     OW18445   3.515   6.877   5.680
 5849SOL    HW118446   3.509   6.878   5.780
 5849SOL    HW218447   3.562   6.959   5.649
 5850SOL     OW18448   1.065   4.199   2.895
 5850SOL    HW118449   1.125   4.199   2.976
 5850SOL    HW218450   1.070   4.109   2.851
 5851SOL     OW18451   5.646   3.100   2.421
 5851SOL    HW118452   5.651   3.177   2.356
 5851SOL    HW218453   5.736   3.057   2.429
 5852SOL     OW18454   3.707   5.833   2.751
 5852SOL    HW118455   3.690   5.855   2.847
 5852SOL    HW218456   3.706   5.734   2.739
 5853SOL     OW18457   3.838   4.060   5.495
 5853SOL    HW118458   3.809   4.142   5.546
 5853SOL    HW218459   3.934   4.069   5.469
 5854SOL     OW18460   0.346   1.043   6.547
 5854SOL    HW118461   0.294   1.051   6.463
 5854SOL    HW218462   0.287   1.064   6.625
 5855SOL     OW18463   1.390   1.157   4.807
 5855SOL    HW118464   1.320   1.094   4.841
 5855SOL    HW218465   1.396   1.237   4.867
 5856SOL     OW18466   2.028   5.214   3.814
 5856SOL    HW118467   1.967   5.138   3.838
 5856SOL    HW218468   2.120   5.195   3.848
 5857SOL     OW18469   0.247   2.721   5.884
 5857SOL    HW118470   0.186   2.642   5.879
 5857SOL    HW218471   0.340   2.690   5.904
 5858SOL     OW18472   3.292   6.724   2.916
 5858SOL    HW118473   3.216   6.738   2.980
 5858SOL    HW218474   3.378   6.747   2.961
 5859SOL     OW18475   6.437   5.435   1.410
 5859SOL    HW118476   6.483   5.386   1.483
 5859SOL    HW218477   6.506   5.469   1.345
 5860SOL     OW18478   1.712   3.879   1.346
 5860SOL    HW118479   1.760   3.817   1.407
 5860SOL    HW218480   1.654   3.941   1.400
 5861SOL     OW18481   6.148   1.905   3.739
 5861SOL    HW118482   6.148   2.004   3.723
 5861SOL    HW218483   6.092   1.885   3.819
 5862SOL     OW18484   4.586   4.349   3.512
 5862SOL    HW118485   4.565   4.290   3.590
 5862SOL    HW218486   4.678   4.330   3.479
 5863SOL     OW18487   1.901   1.025   0.703
 5863SOL    HW118488   1.809   1.066   0.704
 5863SOL    HW218489   1.915   0.978   0.616
 5864SOL     OW18490   4.766   4.844   0.744
 5864SOL    HW118491   4.737   4.918   0.684
 5864SOL    HW218492   4.732   4.861   0.837
 5865SOL     OW18493   4.058   0.927   3.351
 5865SOL    HW118494   3.964   0.949   3.323
 5865SOL    HW218495   4.077   0.831   3.333
 5866SOL     OW18496   3.982   0.493   6.509
 5866SOL    HW118497   4.022   0.585   6.498
 5866SOL    HW218498   4.052   0.432   6.545
 5867SOL     OW18499   0.290   2.653   0.693
 5867SOL    HW118500   0.380   2.621   0.723
 5867SOL    HW218501   0.266   2.736   0.742
 5868SOL     OW18502   1.248   0.063   4.910
 5868SOL    HW118503   1.148   0.063   4.918
 5868SOL    HW218504   1.282   0.157   4.912
 5869SOL     OW18505   2.705   5.123   3.464
 5869SOL    HW118506   2.796   5.162   3.451
 5869SOL    HW218507   2.639   5.197   3.479
 5870SOL     OW18508   5.506   4.907   4.672
 5870SOL    HW118509   5.434   4.850   4.711
 5870SOL    HW218510   5.593   4.858   4.677
 5871SOL     OW18511   2.533   3.458   6.610
 5871SOL    HW118512   2.458   3.432   6.671
 5871SOL    HW218513   2.537   3.394   6.533
 5872SOL     OW18514   3.929   5.777   4.279
 5872SOL    HW118515   3.845   5.725   4.261
 5872SOL    HW218516   3.920   5.825   4.366
 5873SOL     OW18517   2.456   3.529   0.279
 5873SOL    HW118518   2.357   3.514   0.272
 5873SOL    HW218519   2.483   3.604   0.220
 5874SOL     OW18520   1.596   4.453   0.467
 5874SOL    HW118521   1.637   4.518   0.531
 5874SOL    HW218522   1.584   4.496   0.378
 5875SOL     OW18523   4.683   2.050   0.566
 5875SOL    HW118524   4.667   1.993   0.647
 5875SOL    HW218525   4.664   2.146   0.588
 5876SOL     OW18526   3.932   4.162   5.902
 5876SOL    HW118527   3.855   4.208   5.860
 5876SOL    HW218528   3.945   4.073   5.859
 5877SOL     OW18529   6.394   0.188   2.247
 5877SOL    HW118530   6.390   0.156   2.341
 5877SOL    HW218531   6.381   0.111   2.184
 5878SOL     OW18532   5.265   4.721   2.286
 5878SOL    HW118533   5.202   4.798   2.275
 5878SOL    HW218534   5.294   4.689   2.195
 5879SOL     OW18535   3.732   3.173   5.431
 5879SOL    HW118536   3.652   3.190   5.487
 5879SOL    HW218537   3.715   3.205   5.338
 5880SOL     OW18538   6.084   2.594   6.226
 5880SOL    HW118539   6.176   2.628   6.203
 5880SOL    HW218540   6.024   2.605   6.147
 5881SOL     OW18541   1.650   6.387   2.672
 5881SOL    HW118542   1.635   6.436   2.758
 5881SOL    HW218543   1.580   6.414   2.606
 5882SOL     OW18544   1.868   4.817   5.686
 5882SOL    HW118545   1.779   4.809   5.642
 5882SOL    HW218546   1.901   4.727   5.713
 5883SOL     OW18547   6.629   4.630   0.008
 5883SOL    HW118548   6.608   4.726   7.012
 5883SOL    HW218549   6.692   4.625   0.086
 5884SOL     OW18550   6.691   1.389   2.624
 5884SOL    HW118551   6.636   1.381   2.707
 5884SOL    HW218552   6.634   1.371   2.544
 5885SOL     OW18553   6.651   5.326   0.694
 5885SOL    HW118554   6.636   5.259   0.622
 5885SOL    HW218555   6.691   5.281   0.774
 5886SOL     OW18556   1.956   4.345   3.639
 5886SOL    HW118557   1.970   4.248   3.622
 5886SOL    HW218558   1.864   4.359   3.676
 5887SOL     OW18559   2.458   2.988   0.761
 5887SOL    HW118560   2.439   2.912   0.699
 5887SOL    HW218561   2.556   2.993   0.779
 5888SOL     OW18562   2.906   6.638   1.534
 5888SOL    HW118563   2.912   6.697   1.614
 5888SOL    HW218564   2.989   6.582   1.527
 5889SOL     OW18565   5.979   1.037   1.981
 5889SOL    HW118566   5.984   1.130   1.944
 5889SOL    HW218567   5.888   1.021   2.020
 5890SOL     OW18568   1.951   5.310   3.200
 5890SOL    HW118569   2.001   5.223   3.193
 5890SOL    HW218570   1.968   5.351   3.290
 5891SOL     OW18571   2.454   3.773   6.755
 5891SOL    HW118572   2.494   3.752   6.666
 5891SOL    HW218573   2.402   3.694   6.788
 5892SOL     OW18574   0.864   3.267   0.292
 5892SOL    HW118575   0.766   3.278   0.274
 5892SOL    HW218576   0.910   3.237   0.209
 5893SOL     OW18577   0.605   6.566   0.522
 5893SOL    HW118578   0.579   6.643   0.581
 5893SOL    HW218579   0.705   6.564   0.512
 5894SOL     OW18580   2.169   5.705   6.900
 5894SOL    HW118581   2.179   5.673   6.994
 5894SOL    HW218582   2.171   5.805   6.898
 5895SOL     OW18583   5.219   3.993   3.421
 5895SOL    HW118584   5.310   4.014   3.458
 5895SOL    HW218585   5.154   3.988   3.497
 5896SOL     OW18586   5.802   2.610   2.165
 5896SOL    HW118587   5.763   2.584   2.077
 5896SOL    HW218588   5.816   2.709   2.168
 5897SOL     OW18589   3.621   2.067   0.482
 5897SOL    HW118590   3.619   1.968   0.470
 5897SOL    HW218591   3.546   2.095   0.541
 5898SOL     OW18592   2.006   1.507   6.229
 5898SOL    HW118593   2.067   1.579   6.261
 5898SOL    HW218594   2.060   1.427   6.202
 5899SOL     OW18595   0.334   6.575   6.567
 5899SOL    HW118596   0.333   6.496   6.628
 5899SOL    HW218597   0.274   6.558   6.489
 5900SOL     OW18598   5.847   6.487   3.071
 5900SOL    HW118599   5.905   6.424   3.122
 5900SOL    HW218600   5.862   6.580   3.104
 5901SOL     OW18601   2.207   1.019   4.937
 5901SOL    HW118602   2.163   1.063   4.859
 5901SOL    HW218603   2.220   0.922   4.917
 5902SOL     OW18604   4.630   3.452   5.833
 5902SOL    HW118605   4.709   3.419   5.781
 5902SOL    HW218606   4.588   3.375   5.880
 5903SOL     OW18607   6.296   1.767   5.300
 5903SOL    HW118608   6.198   1.762   5.283
 5903SOL    HW218609   6.343   1.792   5.215
 5904SOL     OW18610   0.737   4.904   1.508
 5904SOL    HW118611   0.660   4.966   1.523
 5904SOL    HW218612   0.807   4.922   1.577
 5905SOL     OW18613   5.872   1.994   4.194
 5905SOL    HW118614   5.932   1.990   4.114
 5905SOL    HW218615   5.800   1.925   4.186
 5906SOL     OW18616   4.352   1.090   5.627
 5906SOL    HW118617   4.362   1.021   5.556
 5906SOL    HW218618   4.259   1.127   5.626
 5907SOL     OW18619   1.428   3.902   5.501
 5907SOL    HW118620   1.335   3.900   5.465
 5907SOL    HW218621   1.427   3.942   5.593
 5908SOL     OW18622   4.658   4.009   6.517
 5908SOL    HW118623   4.706   4.065   6.584
 5908SOL    HW218624   4.620   4.068   6.446
 5909SOL     OW18625   6.489   4.807   3.835
 5909SOL    HW118626   6.528   4.854   3.756
 5909SOL    HW218627   6.473   4.711   3.812
 5910SOL     OW18628   3.209   4.776   0.634
 5910SOL    HW118629   3.250   4.685   0.625
 5910SOL    HW218630   3.225   4.828   0.550
 5911SOL     OW18631   6.007   6.649   0.068
 5911SOL    HW118632   5.982   6.708   7.014
 5911SOL    HW218633   6.030   6.704   0.148
 5912SOL     OW18634   0.664   3.624   5.006
 5912SOL    HW118635   0.637   3.586   4.918
 5912SOL    HW218636   0.764   3.627   5.012
 5913SOL     OW18637   1.518   2.240   4.986
 5913SOL    HW118638   1.501   2.326   4.938
 5913SOL    HW218639   1.434   2.186   4.989
 5914SOL     OW18640   1.697   5.842   0.595
 5914SOL    HW118641   1.607   5.880   0.573
 5914SOL    HW218642   1.700   5.745   0.570
 5915SOL     OW18643   5.196   3.189   4.224
 5915SOL    HW118644   5.158   3.171   4.133
 5915SOL    HW218645   5.295   3.182   4.221
 5916SOL     OW18646   3.062   6.987   6.255
 5916SOL    HW118647   3.083   0.062   6.247
 5916SOL    HW218648   3.120   6.936   6.192
 5917SOL     OW18649   3.513   4.069   2.675
 5917SOL    HW118650   3.416   4.078   2.653
 5917SOL    HW218651   3.533   3.975   2.701
 5918SOL     OW18652   2.581   2.509   3.792
 5918SOL    HW118653   2.592   2.487   3.695
 5918SOL    HW218654   2.647   2.458   3.846
 5919SOL     OW18655   1.378   2.430   6.919
 5919SOL    HW118656   1.349   2.459   7.010
 5919SOL    HW218657   1.388   2.331   6.917
 5920SOL     OW18658   2.479   5.469   7.001
 5920SOL    HW118659   2.476   5.453   0.077
 5920SOL    HW218660   2.395   5.433   6.959
 5921SOL     OW18661   3.379   5.390   5.515
 5921SOL    HW118662   3.401   5.293   5.520
 5921SOL    HW218663   3.370   5.427   5.608
 5922SOL     OW18664   6.152   4.289   1.772
 5922SOL    HW118665   6.237   4.262   1.817
 5922SOL    HW218666   6.129   4.383   1.796
 5923SOL     OW18667   6.945   1.048   3.575
 5923SOL    HW118668   6.958   1.081   3.668
 5923SOL    HW218669   6.871   0.980   3.573
 5924SOL     OW18670   5.773   1.563   4.936
 5924SOL    HW118671   5.690   1.617   4.922
 5924SOL    HW218672   5.825   1.558   4.850
 5925SOL     OW18673   6.283   5.644   0.743
 5925SOL    HW118674   6.244   5.708   0.677
 5925SOL    HW218675   6.345   5.581   0.696
 5926SOL     OW18676   3.432   5.104   2.284
 5926SOL    HW118677   3.407   5.151   2.369
 5926SOL    HW218678   3.530   5.111   2.269
 5927SOL     OW18679   2.443   5.260   2.589
 5927SOL    HW118680   2.541   5.279   2.602
 5927SOL    HW218681   2.428   5.220   2.499
 5928SOL     OW18682   0.566   6.503   1.524
 5928SOL    HW118683   0.616   6.558   1.458
 5928SOL    HW218684   0.548   6.412   1.485
 5929SOL     OW18685   1.492   6.962   5.638
 5929SOL    HW118686   1.460   6.903   5.564
 5929SOL    HW218687   1.589   6.945   5.655
 5930SOL     OW18688   6.739   1.326   5.219
 5930SOL    HW118689   6.784   1.382   5.289
 5930SOL    HW218690   6.646   1.305   5.247
 5931SOL     OW18691   6.175   5.230   1.273
 5931SOL    HW118692   6.141   5.293   1.342
 5931SOL    HW218693   6.128   5.247   1.186
 5932SOL     OW18694   2.377   0.287   0.115
 5932SOL    HW118695   2.370   0.330   0.205
 5932SOL    HW218696   2.371   0.188   0.125
 5933SOL     OW18697   6.063   3.676   2.624
 5933SOL    HW118698   5.969   3.675   2.589
 5933SOL    HW218699   6.067   3.728   2.709
 5934SOL     OW18700   2.873   3.507   2.196
 5934SOL    HW118701   2.891   3.507   2.294
 5934SOL    HW218702   2.775   3.494   2.180
 5935SOL     OW18703   4.111   3.621   2.771
 5935SOL    HW118704   4.025   3.629   2.721
 5935SOL    HW218705   4.134   3.525   2.784
 5936SOL     OW18706   5.633   6.076   6.184
 5936SOL    HW118707   5.559   6.010   6.195
 5936SOL    HW218708   5.605   6.148   6.121
 5937SOL     OW18709   1.330   4.303   0.150
 5937SOL    HW118710   1.421   4.316   0.109
 5937SOL    HW218711   1.331   4.222   0.207
 5938SOL     OW18712   1.815   4.318   1.344
 5938SOL    HW118713   1.817   4.270   1.432
 5938SOL    HW218714   1.765   4.404   1.355
 5939SOL     OW18715   2.294   1.287   2.623
 5939SOL    HW118716   2.329   1.220   2.689
 5939SOL    HW218717   2.323   1.379   2.651
 5940SOL     OW18718   4.205   5.256   3.638
 5940SOL    HW118719   4.120   5.240   3.587
 5940SOL    HW218720   4.254   5.333   3.597
 5941SOL     OW18721   6.652   3.758   2.854
 5941SOL    HW118722   6.744   3.760   2.815
 5941SOL    HW218723   6.587   3.795   2.787
 5942SOL     OW18724   6.403   2.035   5.196
 5942SOL    HW118725   6.352   2.035   5.110
 5942SOL    HW218726   6.410   2.129   5.231
 5943SOL     OW18727   0.892   5.031   0.392
 5943SOL    HW118728   0.903   4.939   0.430
 5943SOL    HW218729   0.815   5.076   0.437
 5944SOL     OW18730   4.837   1.838   2.962
 5944SOL    HW118731   4.795   1.766   2.906
 5944SOL    HW218732   4.775   1.916   2.969
 5945SOL     OW18733   6.873   4.935   5.937
 5945SOL    HW118734   6.939   4.891   5.998
 5945SOL    HW218735   6.856   5.029   5.967
 5946SOL     OW18736   3.928   2.770   5.241
 5946SOL    HW118737   3.928   2.837   5.167
 5946SOL    HW218738   3.993   2.697   5.220
 5947SOL     OW18739   4.311   3.778   1.297
 5947SOL    HW118740   4.307   3.732   1.207
 5947SOL    HW218741   4.398   3.758   1.341
 5948SOL     OW18742   3.648   5.473   3.122
 5948SOL    HW118743   3.648   5.467   3.022
 5948SOL    HW218744   3.558   5.446   3.157
 5949SOL     OW18745   4.622   4.516   2.404
 5949SOL    HW118746   4.574   4.539   2.489
 5949SOL    HW218747   4.709   4.564   2.400
 5950SOL     OW18748   6.563   2.262   3.731
 5950SOL    HW118749   6.570   2.232   3.636
 5950SOL    HW218750   6.468   2.255   3.761
 5951SOL     OW18751   2.006   6.638   3.877
 5951SOL    HW118752   2.070   6.686   3.938
 5951SOL    HW218753   1.946   6.579   3.931
 5952SOL     OW18754   6.905   6.656   4.729
 5952SOL    HW118755   6.959   6.734   4.698
 5952SOL    HW218756   6.938   6.626   4.818
 5953SOL     OW18757   0.489   3.400   6.372
 5953SOL    HW118758   0.424   3.472   6.397
 5953SOL    HW218759   0.447   3.311   6.386
 5954SOL     OW18760   1.163   5.205   6.750
 5954SOL    HW118761   1.082   5.174   6.699
 5954SOL    HW218762   1.150   5.184   6.847
 5955SOL     OW18763   5.006   5.223   2.974
 5955SOL    HW118764   5.021   5.213   3.072
 5955SOL    HW218765   4.936   5.293   2.958
 5956SOL     OW18766   6.504   2.185   6.714
 5956SOL    HW118767   6.517   2.086   6.704
 5956SOL    HW218768   6.567   2.220   6.783
 5957SOL     OW18769   4.772   6.881   5.747
 5957SOL    HW118770   4.684   6.889   5.792
 5957SOL    HW218771   4.759   6.885   5.648
 5958SOL     OW18772   0.926   5.379   2.556
 5958SOL    HW118773   0.956   5.429   2.475
 5958SOL    HW218774   0.985   5.299   2.570
 5959SOL     OW18775   1.837   1.180   6.784
 5959SOL    HW118776   1.797   1.263   6.823
 5959SOL    HW218777   1.766   1.128   6.736
 5960SOL     OW18778   3.445   6.846   4.902
 5960SOL    HW118779   3.378   6.832   4.974
 5960SOL    HW218780   3.409   6.911   4.835
 5961SOL     OW18781   2.760   1.240   5.950
 5961SOL    HW118782   2.689   1.170   5.941
 5961SOL    HW218783   2.771   1.264   6.046
 5962SOL     OW18784   5.418   5.487   2.894
 5962SOL    HW118785   5.463   5.444   2.972
 5962SOL    HW218786   5.451   5.445   2.809
 5963SOL     OW18787   3.937   3.891   2.052
 5963SOL    HW118788   4.009   3.958   2.031
 5963SOL    HW218789   3.923   3.887   2.151
 5964SOL     OW18790   1.212   4.142   5.789
 5964SOL    HW118791   1.283   4.211   5.799
 5964SOL    HW218792   1.153   4.166   5.712
 5965SOL     OW18793   2.041   1.428   4.371
 5965SOL    HW118794   2.024   1.330   4.383
 5965SOL    HW218795   2.096   1.462   4.446
 5966SOL     OW18796   1.511   6.643   4.344
 5966SOL    HW118797   1.491   6.594   4.429
 5966SOL    HW218798   1.426   6.668   4.299
 5967SOL     OW18799   4.675   6.675   1.972
 5967SOL    HW118800   4.686   6.600   1.907
 5967SOL    HW218801   4.735   6.750   1.947
 5968SOL     OW18802   0.577   2.040   4.321
 5968SOL    HW118803   0.632   2.122   4.306
 5968SOL    HW218804   0.630   1.959   4.298
 5969SOL     OW18805   5.926   3.244   3.233
 5969SOL    HW118806   5.910   3.172   3.301
 5969SOL    HW218807   5.838   3.271   3.192
 5970SOL     OW18808   2.262   2.956   3.903
 5970SOL    HW118809   2.308   2.925   3.819
 5970SOL    HW218810   2.308   2.917   3.982
 5971SOL     OW18811   2.426   7.008   2.781
 5971SOL    HW118812   2.524   7.002   2.765
 5971SOL    HW218813   2.402   0.079   2.809
 5972SOL     OW18814   4.857   6.736   1.414
 5972SOL    HW118815   4.880   6.725   1.510
 5972SOL    HW218816   4.914   6.676   1.358
 5973SOL     OW18817   0.717   4.549   3.439
 5973SOL    HW118818   0.760   4.464   3.409
 5973SOL    HW218819   0.763   4.582   3.522
 5974SOL     OW18820   1.222   4.211   6.361
 5974SOL    HW118821   1.226   4.227   6.263
 5974SOL    HW218822   1.129   4.190   6.388
 5975SOL     OW18823   1.651   3.496   6.803
 5975SOL    HW118824   1.553   3.507   6.820
 5975SOL    HW218825   1.665   3.427   6.732
 5976SOL     OW18826   3.526   3.400   4.503
 5976SOL    HW118827   3.556   3.318   4.552
 5976SOL    HW218828   3.448   3.378   4.445
 5977SOL     OW18829   1.016   3.236   2.995
 5977SOL    HW118830   0.942   3.263   2.933
 5977SOL    HW218831   1.043   3.314   3.051
 5978SOL     OW18832   5.510   5.375   3.106
 5978SOL    HW118833   5.582   5.344   3.168
 5978SOL    HW218834   5.424   5.384   3.156
 5979SOL     OW18835   0.783   1.125   2.737
 5979SOL    HW118836   0.834   1.194   2.786
 5979SOL    HW218837   0.762   1.158   2.644
 5980SOL     OW18838   6.310   3.757   6.262
 5980SOL    HW118839   6.361   3.716   6.338
 5980SOL    HW218840   6.233   3.810   6.299
 5981SOL     OW18841   3.981   1.848   1.249
 5981SOL    HW118842   3.986   1.822   1.152
 5981SOL    HW218843   3.938   1.938   1.257
 5982SOL     OW18844   6.069   2.390   6.682
 5982SOL    HW118845   6.141   2.322   6.666
 5982SOL    HW218846   6.033   2.422   6.594
 5983SOL     OW18847   0.974   1.314   4.847
 5983SOL    HW118848   1.047   1.363   4.799
 5983SOL    HW218849   0.914   1.270   4.780
 5984SOL     OW18850   0.718   0.005   5.572
 5984SOL    HW118851   0.810   0.027   5.542
 5984SOL    HW218852   0.701   0.043   5.663
 5985SOL     OW18853   4.914   3.292   4.291
 5985SOL    HW118854   5.003   3.247   4.285
 5985SOL    HW218855   4.851   3.236   4.345
 5986SOL     OW18856   3.895   3.404   2.174
 5986SOL    HW118857   3.983   3.383   2.132
 5986SOL    HW218858   3.825   3.340   2.141
 5987SOL     OW18859   4.415   6.937   5.630
 5987SOL    HW118860   4.356   7.010   5.663
 5987SOL    HW218861   4.360   6.869   5.581
 5988SOL     OW18862   3.845   0.427   4.212
 5988SOL    HW118863   3.819   0.390   4.302
 5988SOL    HW218864   3.762   0.444   4.158
 5989SOL     OW18865   2.764   0.950   6.208
 5989SOL    HW118866   2.830   1.022   6.187
 5989SOL    HW218867   2.722   0.967   6.297
 5990SOL     OW18868   3.182   5.144   2.152
 5990SOL    HW118869   3.133   5.060   2.131
 5990SOL    HW218870   3.265   5.123   2.203
 5991SOL     OW18871   3.415   5.396   3.605
 5991SOL    HW118872   3.345   5.327   3.588
 5991SOL    HW218873   3.496   5.376   3.551
 5992SOL     OW18874   4.251   1.535   4.465
 5992SOL    HW118875   4.319   1.585   4.517
 5992SOL    HW218876   4.164   1.585   4.467
 5993SOL     OW18877   3.533   5.627   3.820
 5993SOL    HW118878   3.616   5.573   3.828
 5993SOL    HW218879   3.515   5.646   3.723
 5994SOL     OW18880   6.617   2.844   1.522
 5994SOL    HW118881   6.553   2.804   1.587
 5994SOL    HW218882   6.600   2.806   1.431
 5995SOL     OW18883   0.921   4.663   1.418
 5995SOL    HW118884   0.871   4.577   1.418
 5995SOL    HW218885   0.859   4.737   1.446
 5996SOL     OW18886   0.689   5.197   5.896
 5996SOL    HW118887   0.656   5.286   5.864
 5996SOL    HW218888   0.779   5.209   5.939
 5997SOL     OW18889   0.664   0.587   1.726
 5997SOL    HW118890   0.704   0.569   1.816
 5997SOL    HW218891   0.675   0.506   1.668
 5998SOL     OW18892   4.386   1.865   3.314
 5998SOL    HW118893   4.417   1.853   3.219
 5998SOL    HW218894   4.414   1.786   3.368
 5999SOL     OW18895   2.265   2.251   3.026
 5999SOL    HW118896   2.316   2.190   2.966
 5999SOL    HW218897   2.205   2.197   3.085
 6000SOL     OW18898   4.598   6.499   2.994
 6000SOL    HW118899   4.557   6.472   3.081
 6000SOL    HW218900   4.680   6.554   3.012
 6001SOL     OW18901   6.337   1.619   0.209
 6001SOL    HW118902   6.244   1.611   0.172
 6001SOL    HW218903   6.343   1.702   0.265
 6002SOL     OW18904   1.896   6.974   1.893
 6002SOL    HW118905   1.827   6.952   1.963
 6002SOL    HW218906   1.934   0.042   1.911
 6003SOL     OW18907   5.078   4.003   3.670
 6003SOL    HW118908   5.077   3.974   3.765
 6003SOL    HW218909   5.011   4.076   3.657
 6004SOL     OW18910   0.292   3.523   1.411
 6004SOL    HW118911   0.292   3.433   1.454
 6004SOL    HW218912   0.224   3.581   1.455
 6005SOL     OW18913   2.707   5.877   2.619
 6005SOL    HW118914   2.798   5.885   2.579
 6005SOL    HW218915   2.700   5.791   2.671
 6006SOL     OW18916   2.124   5.482   6.762
 6006SOL    HW118917   2.133   5.569   6.811
 6006SOL    HW218918   2.032   5.476   6.723
 6007SOL     OW18919   5.365   2.345   4.461
 6007SOL    HW118920   5.463   2.324   4.459
 6007SOL    HW218921   5.348   2.428   4.408
 6008SOL     OW18922   4.358   5.306   0.355
 6008SOL    HW118923   4.297   5.233   0.386
 6008SOL    HW218924   4.434   5.316   0.420
 6009SOL     OW18925   3.286   1.641   4.186
 6009SOL    HW118926   3.375   1.596   4.199
 6009SOL    HW218927   3.252   1.672   4.275
 6010SOL     OW18928   1.362   3.037   3.596
 6010SOL    HW118929   1.414   3.051   3.512
 6010SOL    HW218930   1.422   3.001   3.667
 6011SOL     OW18931   6.981   2.865   2.231
 6011SOL    HW118932   6.944   2.929   2.164
 6011SOL    HW218933   6.920   2.787   2.239
 6012SOL     OW18934   0.302   3.168   1.030
 6012SOL    HW118935   0.281   3.070   1.021
 6012SOL    HW218936   0.262   3.202   1.115
 6013SOL     OW18937   5.869   0.639   2.163
 6013SOL    HW118938   5.819   0.651   2.249
 6013SOL    HW218939   5.837   0.704   2.095
 6014SOL     OW18940   5.116   0.381   1.193
 6014SOL    HW118941   5.027   0.406   1.156
 6014SOL    HW218942   5.142   0.448   1.263
 6015SOL     OW18943   4.996   1.356   5.006
 6015SOL    HW118944   5.014   1.264   5.042
 6015SOL    HW218945   4.966   1.416   5.080
 6016SOL     OW18946   1.734   6.775   5.394
 6016SOL    HW118947   1.645   6.761   5.438
 6016SOL    HW218948   1.782   6.850   5.439
 6017SOL     OW18949   6.972   3.892   2.520
 6017SOL    HW118950   6.947   3.890   2.617
 6017SOL    HW218951   6.991   3.799   2.489
 6018SOL     OW18952   2.659   5.456   0.818
 6018SOL    HW118953   2.717   5.527   0.858
 6018SOL    HW218954   2.563   5.475   0.838
 6019SOL     OW18955   5.315   6.738   3.643
 6019SOL    HW118956   5.227   6.745   3.690
 6019SOL    HW218957   5.300   6.714   3.548
 6020SOL     OW18958   3.034   0.366   2.296
 6020SOL    HW118959   3.063   0.440   2.235
 6020SOL    HW218960   3.110   0.341   2.356
 6021SOL     OW18961   4.098   0.642   3.320
 6021SOL    HW118962   4.167   0.598   3.262
 6021SOL    HW218963   4.123   0.632   3.416
 6022SOL     OW18964   4.032   1.019   5.921
 6022SOL    HW118965   4.045   0.975   6.010
 6022SOL    HW218966   3.935   1.017   5.897
 6023SOL     OW18967   0.459   2.052   2.418
 6023SOL    HW118968   0.476   2.065   2.516
 6023SOL    HW218969   0.385   2.111   2.389
 6024SOL     OW18970   0.560   5.234   2.271
 6024SOL    HW118971   0.547   5.135   2.271
 6024SOL    HW218972   0.514   5.273   2.191
 6025SOL     OW18973   4.018   2.102   2.331
 6025SOL    HW118974   3.957   2.098   2.409
 6025SOL    HW218975   3.967   2.129   2.249
 6026SOL     OW18976   1.176   4.496   5.613
 6026SOL    HW118977   1.190   4.503   5.514
 6026SOL    HW218978   1.168   4.588   5.652
 6027SOL     OW18979   3.250   3.330   0.624
 6027SOL    HW118980   3.317   3.404   0.626
 6027SOL    HW218981   3.170   3.360   0.571
 6028SOL     OW18982   1.264   4.886   6.805
 6028SOL    HW118983   1.262   4.984   6.825
 6028SOL    HW218984   1.174   4.856   6.774
 6029SOL     OW18985   1.591   5.214   1.640
 6029SOL    HW118986   1.539   5.144   1.591
 6029SOL    HW218987   1.543   5.302   1.631
 6030SOL     OW18988   1.781   0.010   1.418
 6030SOL    HW118989   1.834   7.018   1.501
 6030SOL    HW218990   1.816   6.973   1.345
 6031SOL     OW18991   5.470   0.118   4.503
 6031SOL    HW118992   5.486   0.073   4.591
 6031SOL    HW218993   5.481   0.051   4.429
 6032SOL     OW18994   0.206   3.763   2.855
 6032SOL    HW118995   0.215   3.719   2.765
 6032SOL    HW218996   0.175   3.695   2.922
 6033SOL     OW18997   0.534   0.408   4.578
 6033SOL    HW118998   0.620   0.456   4.562
 6033SOL    HW218999   0.512   0.410   4.675
 6034SOL     OW19000   2.309   4.333   4.883
 6034SOL    HW119001   2.353   4.265   4.941
 6034SOL    HW219002   2.263   4.401   4.940
 6035SOL     OW19003   5.680   0.527   4.086
 6035SOL    HW119004   5.653   0.605   4.030
 6035SOL    HW219005   5.713   0.560   4.175
 6036SOL     OW19006   0.678   1.127   3.904
 6036SOL    HW119007   0.700   1.030   3.914
 6036SOL    HW219008   0.678   1.151   3.807
 6037SOL     OW19009   6.752   5.702   4.928
 6037SOL    HW119010   6.787   5.646   5.003
 6037SOL    HW219011   6.730   5.643   4.850
 6038SOL     OW19012   5.340   4.303   5.997
 6038SOL    HW119013   5.369   4.208   6.011
 6038SOL    HW219014   5.418   4.363   6.008
 6039SOL     OW19015   3.609   3.331   3.513
 6039SOL    HW119016   3.557   3.260   3.466
 6039SOL    HW219017   3.660   3.385   3.447
 6040SOL     OW19018   1.266   1.636   0.267
 6040SOL    HW119019   1.310   1.726   0.264
 6040SOL    HW219020   1.171   1.645   0.237
 6041SOL     OW19021   0.762   2.974   0.068
 6041SOL    HW119022   0.736   3.059   0.112
 6041SOL    HW219023   0.682   2.913   0.062
 6042SOL     OW19024   5.795   5.222   4.564
 6042SOL    HW119025   5.787   5.128   4.596
 6042SOL    HW219026   5.871   5.267   4.612
 6043SOL     OW19027   0.417   4.739   4.030
 6043SOL    HW119028   0.465   4.824   4.047
 6043SOL    HW219029   0.360   4.749   3.948
 6044SOL     OW19030   0.977   0.789   1.297
 6044SOL    HW119031   0.920   0.810   1.376
 6044SOL    HW219032   1.061   0.844   1.300
 6045SOL     OW19033   0.190   3.527   0.726
 6045SOL    HW119034   0.143   3.533   0.638
 6045SOL    HW219035   0.284   3.496   0.712
 6046SOL     OW19036   2.474   3.188   0.567
 6046SOL    HW119037   2.415   3.131   0.510
 6046SOL    HW219038   2.487   3.145   0.656
 6047SOL     OW19039   0.583   6.395   4.724
 6047SOL    HW119040   0.584   6.388   4.624
 6047SOL    HW219041   0.656   6.457   4.753
 6048SOL     OW19042   5.187   6.249   4.918
 6048SOL    HW119043   5.171   6.217   5.011
 6048SOL    HW219044   5.260   6.195   4.875
 6049SOL     OW19045   6.313   5.401   0.872
 6049SOL    HW119046   6.235   5.384   0.933
 6049SOL    HW219047   6.307   5.494   0.836
 6050SOL     OW19048   5.204   4.611   5.493
 6050SOL    HW119049   5.198   4.519   5.454
 6050SOL    HW219050   5.271   4.665   5.442
 6051SOL     OW19051   2.293   1.914   3.355
 6051SOL    HW119052   2.345   1.989   3.314
 6051SOL    HW219053   2.220   1.887   3.292
 6052SOL     OW19054   6.638   1.201   0.589
 6052SOL    HW119055   6.720   1.158   0.627
 6052SOL    HW219056   6.580   1.130   0.548
 6053SOL     OW19057   1.891   0.230   5.992
 6053SOL    HW119058   1.834   0.295   6.044
 6053SOL    HW219059   1.919   0.155   6.051
 6054SOL     OW19060   2.541   4.593   6.764
 6054SOL    HW119061   2.488   4.673   6.792
 6054SOL    HW219062   2.632   4.621   6.736
 6055SOL     OW19063   5.044   0.695   3.971
 6055SOL    HW119064   5.007   0.689   4.063
 6055SOL    HW219065   4.971   0.685   3.904
 6056SOL     OW19066   5.158   3.090   6.520
 6056SOL    HW119067   5.177   3.187   6.537
 6056SOL    HW219068   5.101   3.053   6.593
 6057SOL     OW19069   2.860   0.552   6.343
 6057SOL    HW119070   2.778   0.543   6.399
 6057SOL    HW219071   2.927   0.483   6.372
 6058SOL     OW19072   5.398   1.048   3.999
 6058SOL    HW119073   5.394   1.026   4.097
 6058SOL    HW219074   5.482   1.099   3.980
 6059SOL     OW19075   6.623   6.178   6.387
 6059SOL    HW119076   6.609   6.242   6.462
 6059SOL    HW219077   6.536   6.135   6.362
 6060SOL     OW19078   2.967   6.359   6.379
 6060SOL    HW119079   2.878   6.403   6.382
 6060SOL    HW219080   3.036   6.420   6.419
 6061SOL     OW19081   1.847   1.641   6.530
 6061SOL    HW119082   1.825   1.615   6.436
 6061SOL    HW219083   1.900   1.727   6.529
 6062SOL     OW19084   1.727   0.501   4.265
 6062SOL    HW119085   1.786   0.561   4.320
 6062SOL    HW219086   1.654   0.556   4.223
 6063SOL     OW19087   4.856   6.654   6.939
 6063SOL    HW119088   4.780   6.683   6.880
 6063SOL    HW219089   4.942   6.684   6.898
 6064SOL     OW19090   0.564   5.665   3.689
 6064SOL    HW119091   0.654   5.626   3.709
 6064SOL    HW219092   0.506   5.657   3.770
 6065SOL     OW19093   5.990   6.765   1.076
 6065SOL    HW119094   5.925   6.724   1.011
 6065SOL    HW219095   6.066   6.702   1.090
 6066SOL     OW19096   4.229   2.330   6.695
 6066SOL    HW119097   4.271   2.349   6.784
 6066SOL    HW219098   4.228   2.231   6.680
 6067SOL     OW19099   5.681   2.244   6.782
 6067SOL    HW119100   5.765   2.292   6.806
 6067SOL    HW219101   5.604   2.308   6.784
 6068SOL     OW19102   4.919   1.925   5.204
 6068SOL    HW119103   4.842   1.970   5.247
 6068SOL    HW219104   4.986   1.899   5.273
 6069SOL     OW19105   6.046   4.013   4.339
 6069SOL    HW119106   5.975   4.025   4.269
 6069SOL    HW219107   6.074   3.917   4.341
 6070SOL     OW19108   3.736   2.783   6.955
 6070SOL    HW119109   3.771   2.842   6.882
 6070SOL    HW219110   3.639   2.764   6.938
 6071SOL     OW19111   4.900   6.287   5.395
 6071SOL    HW119112   4.986   6.257   5.355
 6071SOL    HW219113   4.867   6.368   5.348
 6072SOL     OW19114   6.923   1.764   0.751
 6072SOL    HW119115   6.871   1.850   0.757
 6072SOL    HW219116   6.906   1.709   0.833
 6073SOL     OW19117   6.531   1.960   1.099
 6073SOL    HW119118   6.622   1.957   1.141
 6073SOL    HW219119   6.490   2.050   1.114
 6074SOL     OW19120   0.565   0.381   4.863
 6074SOL    HW119121   0.660   0.358   4.842
 6074SOL    HW219122   0.532   0.323   4.938
 6075SOL     OW19123   4.978   4.410   6.610
 6075SOL    HW119124   5.009   4.478   6.675
 6075SOL    HW219125   5.054   4.350   6.585
 6076SOL     OW19126   2.263   0.026   3.653
 6076SOL    HW119127   2.190   6.996   3.697
 6076SOL    HW219128   2.238   0.123   3.652
 6077SOL     OW19129   5.492   5.449   2.620
 6077SOL    HW119130   5.501   5.484   2.526
 6077SOL    HW219131   5.544   5.365   2.629
 6078SOL     OW19132   2.285   4.760   3.514
 6078SOL    HW119133   2.186   4.750   3.502
 6078SOL    HW219134   2.323   4.674   3.550
 6079SOL     OW19135   2.134   1.386   0.678
 6079SOL    HW119136   2.113   1.331   0.759
 6079SOL    HW219137   2.228   1.366   0.647
 6080SOL     OW19138   5.768   2.325   2.722
 6080SOL    HW119139   5.855   2.359   2.758
 6080SOL    HW219140   5.779   2.300   2.626
 6081SOL     OW19141   0.580   3.777   2.616
 6081SOL    HW119142   0.572   3.727   2.702
 6081SOL    HW219143   0.674   3.807   2.603
 6082SOL     OW19144   3.721   1.697   4.259
 6082SOL    HW119145   3.811   1.662   4.234
 6082SOL    HW219146   3.695   1.771   4.197
 6083SOL     OW19147   1.855   6.714   0.442
 6083SOL    HW119148   1.937   6.668   0.409
 6083SOL    HW219149   1.775   6.679   0.393
 6084SOL     OW19150   0.221   5.079   6.241
 6084SOL    HW119151   0.289   5.013   6.208
 6084SOL    HW219152   0.236   5.094   6.339
 6085SOL     OW19153   5.002   4.487   1.419
 6085SOL    HW119154   4.924   4.440   1.459
 6085SOL    HW219155   5.047   4.427   1.352
 6086SOL     OW19156   2.741   1.697   3.086
 6086SOL    HW119157   2.825   1.724   3.132
 6086SOL    HW219158   2.662   1.731   3.137
 6087SOL     OW19159   3.939   0.117   0.574
 6087SOL    HW119160   4.030   0.078   0.593
 6087SOL    HW219161   3.949   0.213   0.550
 6088SOL     OW19162   6.976   0.028   5.729
 6088SOL    HW119163   6.972   0.105   5.665
 6088SOL    HW219164   6.957   6.966   5.680
 6089SOL     OW19165   6.424   3.402   0.297
 6089SOL    HW119166   6.519   3.430   0.313
 6089SOL    HW219167   6.407   3.314   0.341
 6090SOL     OW19168   0.394   5.664   3.933
 6090SOL    HW119169   0.294   5.659   3.940
 6090SOL    HW219170   0.426   5.748   3.977
 6091SOL     OW19171   5.890   1.914   1.539
 6091SOL    HW119172   5.831   1.976   1.589
 6091SOL    HW219173   5.835   1.857   1.478
 6092SOL     OW19174   1.719   2.425   1.128
 6092SOL    HW119175   1.678   2.493   1.189
 6092SOL    HW219176   1.809   2.399   1.163
 6093SOL     OW19177   1.176   3.430   0.866
 6093SOL    HW119178   1.229   3.490   0.806
 6093SOL    HW219179   1.236   3.390   0.936
 6094SOL     OW19180   0.838   0.954   0.986
 6094SOL    HW119181   0.807   0.868   0.946
 6094SOL    HW219182   0.920   0.938   1.041
 6095SOL     OW19183   6.241   4.238   5.271
 6095SOL    HW119184   6.206   4.314   5.327
 6095SOL    HW219185   6.192   4.235   5.184
 6096SOL     OW19186   3.958   1.682   2.999
 6096SOL    HW119187   3.904   1.745   2.943
 6096SOL    HW219188   4.049   1.672   2.959
 6097SOL     OW19189   3.352   1.813   1.696
 6097SOL    HW119190   3.400   1.795   1.782
 6097SOL    HW219191   3.261   1.850   1.715
 6098SOL     OW19192   1.331   1.169   6.335
 6098SOL    HW119193   1.393   1.238   6.297
 6098SOL    HW219194   1.292   1.202   6.421
 6099SOL     OW19195   5.806   4.966   4.647
 6099SOL    HW119196   5.809   4.905   4.568
 6099SOL    HW219197   5.822   4.913   4.731
 6100SOL     OW19198   0.048   1.815   0.250
 6100SOL    HW119199   0.043   1.874   0.331
 6100SOL    HW219200   0.010   1.863   0.171
 6101SOL     OW19201   5.672   0.937   4.088
 6101SOL    HW119202   5.688   1.028   4.051
 6101SOL    HW219203   5.760   0.895   4.112
 6102SOL     OW19204   3.016   0.743   5.118
 6102SOL    HW119205   2.919   0.758   5.141
 6102SOL    HW219206   3.056   0.829   5.087
 6103SOL     OW19207   6.210   1.164   5.297
 6103SOL    HW119208   6.235   1.107   5.375
 6103SOL    HW219209   6.191   1.257   5.329
 6104SOL     OW19210   1.766   3.347   0.877
 6104SOL    HW119211   1.774   3.281   0.951
 6104SOL    HW219212   1.855   3.361   0.835
 6105SOL     OW19213   3.239   5.287   4.793
 6105SOL    HW119214   3.196   5.271   4.704
 6105SOL    HW219215   3.170   5.278   4.865
 6106SOL     OW19216   3.185   5.514   4.333
 6106SOL    HW119217   3.167   5.433   4.388
 6106SOL    HW219218   3.107   5.577   4.339
 6107SOL     OW19219   2.375   4.977   5.588
 6107SOL    HW119220   2.458   5.017   5.627
 6107SOL    HW219221   2.369   4.881   5.614
 6108SOL     OW19222   6.252   1.846   4.154
 6108SOL    HW119223   6.174   1.829   4.214
 6108SOL    HW219224   6.318   1.772   4.164
 6109SOL     OW19225   6.370   4.428   1.937
 6109SOL    HW119226   6.464   4.444   1.907
 6109SOL    HW219227   6.366   4.343   1.989
 6110SOL     OW19228   3.479   2.066   4.069
 6110SOL    HW119229   3.520   1.975   4.065
 6110SOL    HW219230   3.437   2.087   3.980
 6111SOL     OW19231   0.452   4.605   3.004
 6111SOL    HW119232   0.488   4.632   3.093
 6111SOL    HW219233   0.499   4.656   2.932
 6112SOL     OW19234   1.207   2.055   1.695
 6112SOL    HW119235   1.241   2.148   1.711
 6112SOL    HW219236   1.191   2.010   1.783
 6113SOL     OW19237   2.161   5.503   5.195
 6113SOL    HW119238   2.248   5.547   5.217
 6113SOL    HW219239   2.106   5.494   5.278
 6114SOL     OW19240   5.257   5.288   1.089
 6114SOL    HW119241   5.339   5.279   1.032
 6114SOL    HW219242   5.179   5.310   1.030
 6115SOL     OW19243   6.189   4.566   2.525
 6115SOL    HW119244   6.098   4.530   2.544
 6115SOL    HW219245   6.207   4.561   2.427
 6116SOL     OW19246   3.267   2.375   1.015
 6116SOL    HW119247   3.235   2.289   1.055
 6116SOL    HW219248   3.338   2.415   1.074
 6117SOL     OW19249   5.546   6.659   4.183
 6117SOL    HW119250   5.565   6.696   4.274
 6117SOL    HW219251   5.504   6.568   4.192
 6118SOL     OW19252   5.982   0.214   2.853
 6118SOL    HW119253   5.942   0.128   2.822
 6118SOL    HW219254   5.949   0.289   2.796
 6119SOL     OW19255   6.414   5.336   3.714
 6119SOL    HW119256   6.349   5.281   3.662
 6119SOL    HW219257   6.405   5.314   3.812
 6120SOL     OW19258   2.795   0.952   3.298
 6120SOL    HW119259   2.890   0.944   3.328
 6120SOL    HW219260   2.748   1.020   3.354
 6121SOL     OW19261   6.807   2.030   4.518
 6121SOL    HW119262   6.810   2.068   4.425
 6121SOL    HW219263   6.713   2.032   4.552
 6122SOL     OW19264   4.646   6.075   3.867
 6122SOL    HW119265   4.677   6.113   3.779
 6122SOL    HW219266   4.581   6.138   3.909
 6123SOL     OW19267   6.999   1.379   1.787
 6123SOL    HW119268   6.992   1.382   1.887
 6123SOL    HW219269   6.909   1.365   1.747
 6124SOL     OW19270   2.828   0.447   5.176
 6124SOL    HW119271   2.817   0.503   5.258
 6124SOL    HW219272   2.814   0.503   5.095
 6125SOL     OW19273   2.012   4.974   2.538
 6125SOL    HW119274   2.109   4.965   2.564
 6125SOL    HW219275   1.990   4.907   2.468
 6126SOL     OW19276   4.559   5.663   2.339
 6126SOL    HW119277   4.473   5.682   2.291
 6126SOL    HW219278   4.545   5.588   2.403
 6127SOL     OW19279   1.926   3.860   2.183
 6127SOL    HW119280   1.848   3.840   2.243
 6127SOL    HW219281   1.892   3.903   2.099
 6128SOL     OW19282   4.876   2.367   1.257
 6128SOL    HW119283   4.948   2.430   1.287
 6128SOL    HW219284   4.787   2.406   1.278
 6129SOL     OW19285   5.785   4.345   3.451
 6129SOL    HW119286   5.728   4.280   3.401
 6129SOL    HW219287   5.727   4.416   3.492
 6130SOL     OW19288   5.587   4.542   2.809
 6130SOL    HW119289   5.530   4.624   2.822
 6130SOL    HW219290   5.532   4.471   2.766
 6131SOL     OW19291   6.443   1.055   5.071
 6131SOL    HW119292   6.444   1.101   4.982
 6131SOL    HW219293   6.351   1.021   5.090
 6132SOL     OW19294   6.470   2.374   0.573
 6132SOL    HW119295   6.421   2.444   0.624
 6132SOL    HW219296   6.461   2.286   0.619
 6133SOL     OW19297   1.483   4.806   0.479
 6133SOL    HW119298   1.470   4.737   0.550
 6133SOL    HW219299   1.527   4.887   0.520
 6134SOL     OW19300   4.643   3.173   0.240
 6134SOL    HW119301   4.606   3.084   0.265
 6134SOL    HW219302   4.601   3.244   0.297
 6135SOL     OW19303   5.705   0.211   2.243
 6135SOL    HW119304   5.706   0.273   2.164
 6135SOL    HW219305   5.675   0.260   2.324
 6136SOL     OW19306   0.037   1.378   2.333
 6136SOL    HW119307   0.043   1.280   2.354
 6136SOL    HW219308   0.023   1.429   2.418
 6137SOL     OW19309   2.982   6.729   5.903
 6137SOL    HW119310   2.949   6.669   5.976
 6137SOL    HW219311   2.966   6.824   5.927
 6138SOL     OW19312   4.604   6.888   2.957
 6138SOL    HW119313   4.583   6.820   2.886
 6138SOL    HW219314   4.568   6.856   3.044
 6139SOL     OW19315   2.376   5.714   3.987
 6139SOL    HW119316   2.306   5.727   4.057
 6139SOL    HW219317   2.362   5.626   3.942
 6140SOL     OW19318   1.902   5.838   1.554
 6140SOL    HW119319   1.987   5.795   1.522
 6140SOL    HW219320   1.826   5.803   1.500
 6141SOL     OW19321   6.740   5.951   5.584
 6141SOL    HW119322   6.761   5.878   5.519
 6141SOL    HW219323   6.722   5.911   5.674
 6142SOL     OW19324   0.344   3.999   2.574
 6142SOL    HW119325   0.284   4.019   2.652
 6142SOL    HW219326   0.300   3.931   2.515
 6143SOL     OW19327   6.790   4.361   6.288
 6143SOL    HW119328   6.840   4.378   6.373
 6143SOL    HW219329   6.820   4.273   6.249
 6144SOL     OW19330   0.134   4.999   4.017
 6144SOL    HW119331   0.202   5.004   4.091
 6144SOL    HW219332   0.074   5.078   4.022
 6145SOL     OW19333   5.358   5.507   3.411
 6145SOL    HW119334   5.393   5.596   3.384
 6145SOL    HW219335   5.326   5.511   3.506
 6146SOL     OW19336   5.400   1.346   3.136
 6146SOL    HW119337   5.477   1.386   3.086
 6146SOL    HW219338   5.401   1.247   3.124
 6147SOL     OW19339   0.995   3.497   3.173
 6147SOL    HW119340   0.939   3.570   3.134
 6147SOL    HW219341   0.950   3.461   3.255
 6148SOL     OW19342   5.877   5.818   3.961
 6148SOL    HW119343   5.923   5.865   4.037
 6148SOL    HW219344   5.780   5.807   3.982
 6149SOL     OW19345   2.299   0.229   4.734
 6149SOL    HW119346   2.244   0.206   4.815
 6149SOL    HW219347   2.396   0.213   4.754
 6150SOL     OW19348   4.150   5.787   5.961
 6150SOL    HW119349   4.067   5.760   5.911
 6150SOL    HW219350   4.223   5.806   5.895
 6151SOL     OW19351   4.491   0.755   5.789
 6151SOL    HW119352   4.461   0.793   5.702
 6151SOL    HW219353   4.501   0.656   5.781
 6152SOL     OW19354   6.551   4.990   5.775
 6152SOL    HW119355   6.647   4.961   5.778
 6152SOL    HW219356   6.494   4.922   5.821
 6153SOL     OW19357   5.011   4.222   0.228
 6153SOL    HW119358   5.101   4.235   0.187
 6153SOL    HW219359   5.007   4.132   0.272
 6154SOL     OW19360   4.993   2.943   3.333
 6154SOL    HW119361   5.046   2.915   3.413
 6154SOL    HW219362   5.020   2.888   3.254
 6155SOL     OW19363   1.846   3.764   4.147
 6155SOL    HW119364   1.893   3.812   4.221
 6155SOL    HW219365   1.889   3.675   4.133
 6156SOL     OW19366   6.307   0.626   4.403
 6156SOL    HW119367   6.241   0.626   4.328
 6156SOL    HW219368   6.261   0.600   4.487
 6157SOL     OW19369   1.282   1.617   3.412
 6157SOL    HW119370   1.310   1.534   3.460
 6157SOL    HW219371   1.348   1.690   3.430
 6158SOL     OW19372   4.357   0.561   0.632
 6158SOL    HW119373   4.379   0.654   0.604
 6158SOL    HW219374   4.429   0.526   0.692
 6159SOL     OW19375   5.658   3.186   7.007
 6159SOL    HW119376   5.734   3.240   6.969
 6159SOL    HW219377   5.671   3.089   6.984
 6160SOL     OW19378   6.636   4.694   1.478
 6160SOL    HW119379   6.556   4.660   1.428
 6160SOL    HW219380   6.630   4.667   1.573
 6161SOL     OW19381   5.769   0.690   6.328
 6161SOL    HW119382   5.731   0.640   6.406
 6161SOL    HW219383   5.866   0.669   6.319
 6162SOL     OW19384   6.200   5.090   4.141
 6162SOL    HW119385   6.153   5.099   4.229
 6162SOL    HW219386   6.135   5.107   4.067
 6163SOL     OW19387   0.052   4.240   2.202
 6163SOL    HW119388   0.050   4.233   2.102
 6163SOL    HW219389   0.146   4.260   2.231
 6164SOL     OW19390   4.556   2.816   0.534
 6164SOL    HW119391   4.499   2.889   0.497
 6164SOL    HW219392   4.502   2.732   0.539
 6165SOL     OW19393   4.410   6.631   0.591
 6165SOL    HW119394   4.424   6.539   0.557
 6165SOL    HW219395   4.401   6.695   0.514
 6166SOL     OW19396   3.694   1.366   6.882
 6166SOL    HW119397   3.728   1.388   6.973
 6166SOL    HW219398   3.594   1.360   6.884
 6167SOL     OW19399   0.024   5.128   3.165
 6167SOL    HW119400   6.968   5.124   3.226
 6167SOL    HW219401   0.074   5.214   3.181
 6168SOL     OW19402   0.600   2.539   1.531
 6168SOL    HW119403   0.511   2.553   1.574
 6168SOL    HW219404   0.589   2.535   1.432
 6169SOL     OW19405   1.878   4.460   1.912
 6169SOL    HW119406   1.795   4.424   1.870
 6169SOL    HW219407   1.958   4.410   1.877
 6170SOL     OW19408   6.636   1.806   3.605
 6170SOL    HW119409   6.706   1.876   3.621
 6170SOL    HW219410   6.652   1.729   3.668
 6171SOL     OW19411   6.369   0.867   6.769
 6171SOL    HW119412   6.298   0.860   6.838
 6171SOL    HW219413   6.458   0.851   6.811
 6172SOL     OW19414   1.251   4.436   4.005
 6172SOL    HW119415   1.333   4.412   4.058
 6172SOL    HW219416   1.236   4.534   4.010
 6173SOL     OW19417   5.855   6.404   3.433
 6173SOL    HW119418   5.945   6.390   3.391
 6173SOL    HW219419   5.785   6.361   3.376
 6174SOL     OW19420   6.357   2.648   2.268
 6174SOL    HW119421   6.364   2.651   2.168
 6174SOL    HW219422   6.406   2.567   2.302
 6175SOL     OW19423   3.639   2.155   6.371
 6175SOL    HW119424   3.605   2.065   6.400
 6175SOL    HW219425   3.735   2.163   6.397
 6176SOL     OW19426   3.753   3.643   6.121
 6176SOL    HW119427   3.666   3.673   6.081
 6176SOL    HW219428   3.756   3.543   6.123
 6177SOL     OW19429   5.862   6.470   1.610
 6177SOL    HW119430   5.764   6.453   1.595
 6177SOL    HW219431   5.882   6.566   1.593
 6178SOL     OW19432   4.124   4.680   1.864
 6178SOL    HW119433   4.081   4.623   1.794
 6178SOL    HW219434   4.055   4.737   1.908
 6179SOL     OW19435   5.466   4.755   4.983
 6179SOL    HW119436   5.406   4.736   4.905
 6179SOL    HW219437   5.472   4.854   4.996
 6180SOL     OW19438   2.979   4.698   6.415
 6180SOL    HW119439   2.978   4.756   6.496
 6180SOL    HW219440   3.068   4.704   6.370
 6181SOL     OW19441   6.020   6.393   6.755
 6181SOL    HW119442   5.924   6.368   6.745
 6181SOL    HW219443   6.060   6.408   6.665
 6182SOL     OW19444   3.023   2.446   0.442
 6182SOL    HW119445   3.102   2.413   0.391
 6182SOL    HW219446   2.971   2.369   0.478
 6183SOL     OW19447   6.941   6.771   0.633
 6183SOL    HW119448   7.004   6.695   0.621
 6183SOL    HW219449   6.979   6.836   0.699
 6184SOL     OW19450   3.401   6.389   5.462
 6184SOL    HW119451   3.386   6.474   5.513
 6184SOL    HW219452   3.370   6.312   5.517
 6185SOL     OW19453   3.850   3.531   5.117
 6185SOL    HW119454   3.903   3.614   5.136
 6185SOL    HW219455   3.777   3.553   5.052
 6186SOL     OW19456   0.963   1.948   2.350
 6186SOL    HW119457   0.894   2.003   2.304
 6186SOL    HW219458   0.923   1.862   2.381
 6187SOL     OW19459   3.366   1.561   6.098
 6187SOL    HW119460   3.341   1.465   6.095
 6187SOL    HW219461   3.397   1.591   6.008
 6188SOL     OW19462   2.139   1.411   5.126
 6188SOL    HW119463   2.196   1.490   5.104
 6188SOL    HW219464   2.101   1.422   5.218
 6189SOL     OW19465   6.695   5.237   0.928
 6189SOL    HW119466   6.606   5.193   0.927
 6189SOL    HW219467   6.763   5.175   0.968
 6190SOL     OW19468   0.601   3.268   3.975
 6190SOL    HW119469   0.505   3.295   3.966
 6190SOL    HW219470   0.649   3.284   3.889
 6191SOL     OW19471   2.978   3.923   0.688
 6191SOL    HW119472   2.970   3.838   0.636
 6191SOL    HW219473   3.073   3.952   0.691
 6192SOL     OW19474   2.988   1.637   1.195
 6192SOL    HW119475   3.022   1.627   1.289
 6192SOL    HW219476   2.898   1.680   1.197
 6193SOL     OW19477   4.232   5.612   6.841
 6193SOL    HW119478   4.254   5.584   6.935
 6193SOL    HW219479   4.171   5.545   6.799
 6194SOL     OW19480   5.510   0.019   6.660
 6194SOL    HW119481   5.451   0.002   6.739
 6194SOL    HW219482   5.604   7.017   6.684
 6195SOL     OW19483   5.480   6.311   6.440
 6195SOL    HW119484   5.475   6.282   6.535
 6195SOL    HW219485   5.484   6.231   6.381
 6196SOL     OW19486   6.028   3.217   2.969
 6196SOL    HW119487   5.999   3.226   3.064
 6196SOL    HW219488   6.040   3.120   2.947
 6197SOL     OW19489   0.793   5.129   1.125
 6197SOL    HW119490   0.720   5.076   1.167
 6197SOL    HW219491   0.841   5.073   1.057
 6198SOL     OW19492   5.497   1.658   6.571
 6198SOL    HW119493   5.490   1.738   6.511
 6198SOL    HW219494   5.586   1.614   6.557
 6199SOL     OW19495   1.738   6.827   6.267
 6199SOL    HW119496   1.749   6.740   6.220
 6199SOL    HW219497   1.694   6.893   6.206
 6200SOL     OW19498   1.701   0.503   0.913
 6200SOL    HW119499   1.677   0.419   0.865
 6200SOL    HW219500   1.763   0.557   0.856
 6201SOL     OW19501   0.188   4.542   3.033
 6201SOL    HW119502   0.159   4.574   2.943
 6201SOL    HW219503   0.287   4.551   3.042
 6202SOL     OW19504   5.955   1.114   2.785
 6202SOL    HW119505   5.889   1.158   2.846
 6202SOL    HW219506   6.044   1.159   2.794
 6203SOL     OW19507   6.077   0.188   1.916
 6203SOL    HW119508   6.163   0.228   1.948
 6203SOL    HW219509   6.026   0.152   1.994
 6204SOL     OW19510   1.209   6.157   4.863
 6204SOL    HW119511   1.288   6.161   4.924
 6204SOL    HW219512   1.207   6.239   4.806
 6205SOL     OW19513   5.569   4.491   3.521
 6205SOL    HW119514   5.573   4.507   3.422
 6205SOL    HW219515   5.607   4.570   3.569
 6206SOL     OW19516   5.635   1.888   3.555
 6206SOL    HW119517   5.572   1.878   3.478
 6206SOL    HW219518   5.689   1.805   3.565
 6207SOL     OW19519   0.497   5.928   4.009
 6207SOL    HW119520   0.559   5.923   3.930
 6207SOL    HW219521   0.518   6.010   4.062
 6208SOL     OW19522   4.764   3.824   5.454
 6208SOL    HW119523   4.802   3.837   5.363
 6208SOL    HW219524   4.732   3.730   5.464
 6209SOL     OW19525   3.694   2.037   1.518
 6209SOL    HW119526   3.726   2.131   1.537
 6209SOL    HW219527   3.641   2.037   1.434
 6210SOL     OW19528   5.712   1.403   4.305
 6210SOL    HW119529   5.795   1.365   4.345
 6210SOL    HW219530   5.690   1.490   4.349
 6211SOL     OW19531   5.912   3.870   5.064
 6211SOL    HW119532   5.953   3.864   4.973
 6211SOL    HW219533   5.827   3.817   5.065
 6212SOL     OW19534   5.594   4.361   4.746
 6212SOL    HW119535   5.575   4.265   4.767
 6212SOL    HW219536   5.510   4.405   4.715
 6213SOL     OW19537   4.274   5.647   0.654
 6213SOL    HW119538   4.308   5.704   0.579
 6213SOL    HW219539   4.174   5.647   0.653
 6214SOL     OW19540   6.269   0.063   0.122
 6214SOL    HW119541   6.216   0.147   0.116
 6214SOL    HW219542   6.277   0.035   0.218
 6215SOL     OW19543   5.733   2.380   4.989
 6215SOL    HW119544   5.756   2.435   5.069
 6215SOL    HW219545   5.661   2.426   4.937
 6216SOL     OW19546   4.454   1.668   4.627
 6216SOL    HW119547   4.472   1.655   4.724
 6216SOL    HW219548   4.541   1.681   4.579
 6217SOL     OW19549   0.917   4.360   2.516
 6217SOL    HW119550   0.913   4.339   2.419
 6217SOL    HW219551   0.996   4.313   2.557
 6218SOL     OW19552   4.481   6.376   0.508
 6218SOL    HW119553   4.397   6.326   0.529
 6218SOL    HW219554   4.559   6.316   0.521
 6219SOL     OW19555   2.070   1.142   6.876
 6219SOL    HW119556   2.088   1.057   6.925
 6219SOL    HW219557   1.975   1.144   6.846
 6220SOL     OW19558   3.320   6.393   0.803
 6220SOL    HW119559   3.232   6.397   0.851
 6220SOL    HW219560   3.391   6.434   0.860
 6221SOL     OW19561   4.992   5.556   5.937
 6221SOL    HW119562   4.893   5.545   5.940
 6221SOL    HW219563   5.035   5.465   5.933
 6222SOL     OW19564   6.753   1.812   2.134
 6222SOL    HW119565   6.799   1.843   2.218
 6222SOL    HW219566   6.654   1.823   2.145
 6223SOL     OW19567   0.037   5.100   4.497
 6223SOL    HW119568   0.059   5.032   4.427
 6223SOL    HW219569   0.029   5.190   4.454
 6224SOL     OW19570   3.755   6.933   0.184
 6224SOL    HW119571   3.806   7.015   0.212
 6224SOL    HW219572   3.752   6.869   0.260
 6225SOL     OW19573   4.914   6.223   6.253
 6225SOL    HW119574   4.859   6.140   6.254
 6225SOL    HW219575   4.961   6.232   6.165
 6226SOL     OW19576   0.845   0.845   4.011
 6226SOL    HW119577   0.755   0.817   3.977
 6226SOL    HW219578   0.908   0.768   4.006
 6227SOL     OW19579   3.160   4.508   5.878
 6227SOL    HW119580   3.156   4.494   5.780
 6227SOL    HW219581   3.099   4.583   5.904
 6228SOL     OW19582   1.090   3.052   3.588
 6228SOL    HW119583   1.188   3.036   3.575
 6228SOL    HW219584   1.070   3.065   3.685
 6229SOL     OW19585   0.636   3.742   4.226
 6229SOL    HW119586   0.711   3.800   4.256
 6229SOL    HW219587   0.589   3.786   4.149
 6230SOL     OW19588   0.495   1.129   1.434
 6230SOL    HW119589   0.573   1.108   1.374
 6230SOL    HW219590   0.521   1.112   1.529
 6231SOL     OW19591   2.300   5.255   5.522
 6231SOL    HW119592   2.341   5.266   5.432
 6231SOL    HW219593   2.316   5.162   5.555
 6232SOL     OW19594   4.448   0.609   6.409
 6232SOL    HW119595   4.385   0.589   6.334
 6232SOL    HW219596   4.428   0.700   6.445
 6233SOL     OW19597   0.121   3.292   1.216
 6233SOL    HW119598   0.024   3.303   1.239
 6233SOL    HW219599   0.173   3.273   1.299
 6234SOL     OW19600   5.052   5.089   4.479
 6234SOL    HW119601   5.047   5.163   4.411
 6234SOL    HW219602   4.960   5.059   4.502
 6235SOL     OW19603   0.109   0.689   2.111
 6235SOL    HW119604   0.180   0.642   2.060
 6235SOL    HW219605   0.100   0.783   2.078
 6236SOL     OW19606   6.675   5.529   1.325
 6236SOL    HW119607   6.688   5.629   1.325
 6236SOL    HW219608   6.748   5.487   1.271
 6237SOL     OW19609   3.260   1.250   2.038
 6237SOL    HW119610   3.342   1.301   2.012
 6237SOL    HW219611   3.193   1.254   1.964
 6238SOL     OW19612   2.253   1.281   3.629
 6238SOL    HW119613   2.161   1.248   3.653
 6238SOL    HW219614   2.289   1.226   3.554
 6239SOL     OW19615   4.810   1.372   4.466
 6239SOL    HW119616   4.900   1.341   4.497
 6239SOL    HW219617   4.738   1.329   4.521
 6240SOL     OW19618   4.087   3.720   3.750
 6240SOL    HW119619   4.094   3.623   3.728
 6240SOL    HW219620   4.067   3.772   3.666
 6241SOL     OW19621   3.491   0.139   3.505
 6241SOL    HW119622   3.574   0.169   3.553
 6241SOL    HW219623   3.501   0.042   3.480
 6242SOL     OW19624   3.043   1.899   3.960
 6242SOL    HW119625   2.945   1.900   3.978
 6242SOL    HW219626   3.070   1.984   3.914
 6243SOL     OW19627   4.414   1.897   6.999
 6243SOL    HW119628   4.363   1.860   0.054
 6243SOL    HW219629   4.351   1.918   6.924
 6244SOL     OW19630   4.482   2.470   1.877
 6244SOL    HW119631   4.437   2.466   1.966
 6244SOL    HW219632   4.472   2.562   1.839
 6245SOL     OW19633   0.201   5.093   2.388
 6245SOL    HW119634   0.246   5.129   2.470
 6245SOL    HW219635   0.216   5.155   2.311
 6246SOL     OW19636   6.962   6.850   5.100
 6246SOL    HW119637   0.029   6.864   5.058
 6246SOL    HW219638   6.971   6.792   5.181
 6247SOL     OW19639   6.409   6.163   3.388
 6247SOL    HW119640   6.416   6.063   3.389
 6247SOL    HW219641   6.433   6.199   3.478
 6248SOL     OW19642   4.008   3.280   5.071
 6248SOL    HW119643   3.980   3.374   5.092
 6248SOL    HW219644   4.062   3.244   5.148
 6249SOL     OW19645   5.329   3.493   2.788
 6249SOL    HW119646   5.337   3.563   2.858
 6249SOL    HW219647   5.276   3.529   2.711
 6250SOL     OW19648   5.204   6.679   6.404
 6250SOL    HW119649   5.108   6.693   6.383
 6250SOL    HW219650   5.256   6.761   6.381
 6251SOL     OW19651   2.715   1.370   4.547
 6251SOL    HW119652   2.748   1.452   4.594
 6251SOL    HW219653   2.724   1.383   4.448
 6252SOL     OW19654   3.250   5.329   7.016
 6252SOL    HW119655   3.218   5.418   0.027
 6252SOL    HW219656   3.298   5.341   6.929
 6253SOL     OW19657   4.041   6.217   3.915
 6253SOL    HW119658   4.012   6.279   3.842
 6253SOL    HW219659   4.045   6.267   4.001
 6254SOL     OW19660   0.410   0.363   1.805
 6254SOL    HW119661   0.381   0.270   1.827
 6254SOL    HW219662   0.508   0.362   1.783
 6255SOL     OW19663   1.243   1.672   0.868
 6255SOL    HW119664   1.300   1.616   0.808
 6255SOL    HW219665   1.147   1.651   0.851
 6256SOL     OW19666   5.998   5.500   1.957
 6256SOL    HW119667   6.049   5.509   2.042
 6256SOL    HW219668   5.951   5.585   1.936
 6257SOL     OW19669   3.827   4.835   1.053
 6257SOL    HW119670   3.838   4.859   1.150
 6257SOL    HW219671   3.846   4.738   1.041
 6258SOL     OW19672   4.376   5.429   4.551
 6258SOL    HW119673   4.285   5.454   4.518
 6258SOL    HW219674   4.436   5.414   4.472
 6259SOL     OW19675   4.343   0.912   5.404
 6259SOL    HW119676   4.284   0.988   5.379
 6259SOL    HW219677   4.287   0.836   5.436
 6260SOL     OW19678   2.340   1.519   0.789
 6260SOL    HW119679   2.248   1.492   0.763
 6260SOL    HW219680   2.357   1.613   0.758
 6261SOL     OW19681   3.374   0.249   0.903
 6261SOL    HW119682   3.454   0.199   0.872
 6261SOL    HW219683   3.291   0.206   0.866
 6262SOL     OW19684   6.232   1.269   2.355
 6262SOL    HW119685   6.280   1.203   2.297
 6262SOL    HW219686   6.238   1.239   2.451
 6263SOL     OW19687   6.320   6.081   6.010
 6263SOL    HW119688   6.270   6.128   6.082
 6263SOL    HW219689   6.418   6.097   6.021
 6264SOL     OW19690   2.264   5.815   0.351
 6264SOL    HW119691   2.340   5.877   0.333
 6264SOL    HW219692   2.212   5.847   0.430
 6265SOL     OW19693   4.243   6.185   5.953
 6265SOL    HW119694   4.161   6.237   5.978
 6265SOL    HW219695   4.301   6.174   6.034
 6266SOL     OW19696   3.914   5.545   2.822
 6266SOL    HW119697   3.917   5.457   2.869
 6266SOL    HW219698   3.900   5.530   2.724
 6267SOL     OW19699   0.760   6.179   4.443
 6267SOL    HW119700   0.819   6.255   4.413
 6267SOL    HW219701   0.746   6.115   4.368
 6268SOL     OW19702   3.085   1.697   0.927
 6268SOL    HW119703   3.028   1.690   1.009
 6268SOL    HW219704   3.169   1.747   0.949
 6269SOL     OW19705   6.965   5.756   6.578
 6269SOL    HW119706   6.873   5.729   6.607
 6269SOL    HW219707   0.005   5.679   6.590
 6270SOL     OW19708   1.761   6.476   0.922
 6270SOL    HW119709   1.706   6.560   0.919
 6270SOL    HW219710   1.813   6.473   1.008
 6271SOL     OW19711   6.920   3.054   5.853
 6271SOL    HW119712   6.900   2.958   5.876
 6271SOL    HW219713   7.005   3.082   5.897
 6272SOL     OW19714   0.186   1.136   6.777
 6272SOL    HW119715   0.088   1.132   6.795
 6272SOL    HW219716   0.232   1.183   6.853
 6273SOL     OW19717   0.337   6.612   2.895
 6273SOL    HW119718   0.379   6.635   2.807
 6273SOL    HW219719   0.351   6.687   2.960
 6274SOL     OW19720   3.001   5.836   3.722
 6274SOL    HW119721   3.021   5.750   3.768
 6274SOL    HW219722   3.068   5.905   3.751
 6275SOL     OW19723   2.681   5.911   6.718
 6275SOL    HW119724   2.725   5.954   6.639
 6275SOL    HW219725   2.743   5.914   6.796
 6276SOL     OW19726   1.744   5.029   2.737
 6276SOL    HW119727   1.756   5.037   2.836
 6276SOL    HW219728   1.741   4.932   2.712
 6277SOL     OW19729   5.066   2.534   1.364
 6277SOL    HW119730   5.088   2.462   1.429
 6277SOL    HW219731   5.037   2.617   1.413
 6278SOL     OW19732   4.692   2.324   0.666
 6278SOL    HW119733   4.646   2.380   0.597
 6278SOL    HW219734   4.713   2.379   0.746
 6279SOL     OW19735   3.183   6.528   1.413
 6279SOL    HW119736   3.177   6.436   1.452
 6279SOL    HW219737   3.200   6.521   1.314
 6280SOL     OW19738   5.044   2.217   6.630
 6280SOL    HW119739   5.039   2.216   6.730
 6280SOL    HW219740   5.126   2.168   6.600
 6281SOL     OW19741   5.080   4.686   5.987
 6281SOL    HW119742   5.002   4.688   6.050
 6281SOL    HW219743   5.132   4.770   5.997
 6282SOL     OW19744   0.636   3.533   5.923
 6282SOL    HW119745   0.645   3.433   5.922
 6282SOL    HW219746   0.581   3.561   6.002
 6283SOL     OW19747   2.533   6.512   4.808
 6283SOL    HW119748   2.628   6.521   4.838
 6283SOL    HW219749   2.494   6.429   4.847
 6284SOL     OW19750   1.705   2.920   5.636
 6284SOL    HW119751   1.704   2.928   5.536
 6284SOL    HW219752   1.618   2.881   5.666
 6285SOL     OW19753   1.386   3.403   2.808
 6285SOL    HW119754   1.416   3.482   2.754
 6285SOL    HW219755   1.466   3.353   2.841
 6286SOL     OW19756   0.663   1.980   6.598
 6286SOL    HW119757   0.696   2.059   6.649
 6286SOL    HW219758   0.602   2.010   6.525
 6287SOL     OW19759   4.117   4.788   4.606
 6287SOL    HW119760   4.116   4.845   4.688
 6287SOL    HW219761   4.054   4.711   4.618
 6288SOL     OW19762   2.871   3.473   5.596
 6288SOL    HW119763   2.789   3.432   5.635
 6288SOL    HW219764   2.927   3.511   5.669
 6289SOL     OW19765   2.082   4.738   4.390
 6289SOL    HW119766   2.165   4.706   4.436
 6289SOL    HW219767   2.030   4.798   4.451
 6290SOL     OW19768   6.099   0.199   3.970
 6290SOL    HW119769   6.021   0.261   3.970
 6290SOL    HW219770   6.112   0.163   3.877
 6291SOL     OW19771   3.663   3.718   2.061
 6291SOL    HW119772   3.699   3.684   2.148
 6291SOL    HW219773   3.700   3.809   2.042
 6292SOL     OW19774   1.487   4.686   4.870
 6292SOL    HW119775   1.478   4.614   4.939
 6292SOL    HW219776   1.565   4.744   4.893
 6293SOL     OW19777   2.882   1.654   6.379
 6293SOL    HW119778   2.827   1.731   6.346
 6293SOL    HW219779   2.973   1.658   6.339
 6294SOL     OW19780   1.960   1.384   2.030
 6294SOL    HW119781   1.870   1.355   1.999
 6294SOL    HW219782   1.996   1.317   2.095
 6295SOL     OW19783   4.345   3.635   6.361
 6295SOL    HW119784   4.336   3.670   6.268
 6295SOL    HW219785   4.405   3.695   6.414
 6296SOL     OW19786   0.488   2.652   6.695
 6296SOL    HW119787   0.558   2.582   6.681
 6296SOL    HW219788   0.496   2.690   6.787
 6297SOL     OW19789   6.586   0.998   3.817
 6297SOL    HW119790   6.597   1.015   3.915
 6297SOL    HW219791   6.492   1.020   3.790
 6298SOL     OW19792   0.039   6.496   0.551
 6298SOL    HW119793   0.139   6.495   0.558
 6298SOL    HW219794   7.022   6.477   0.641
 6299SOL     OW19795   3.962   1.543   4.225
 6299SOL    HW119796   3.900   1.469   4.250
 6299SOL    HW219797   3.989   1.532   4.129
 6300SOL     OW19798   3.003   2.216   0.747
 6300SOL    HW119799   3.101   2.228   0.729
 6300SOL    HW219800   2.955   2.200   0.660
 6301SOL     OW19801   4.060   6.519   6.683
 6301SOL    HW119802   4.059   6.583   6.760
 6301SOL    HW219803   4.140   6.537   6.625
 6302SOL     OW19804   1.408   3.481   6.868
 6302SOL    HW119805   1.426   3.580   6.872
 6302SOL    HW219806   1.351   3.455   6.947
 6303SOL     OW19807   0.026   4.875   4.287
 6303SOL    HW119808   7.017   4.815   4.360
 6303SOL    HW219809   7.004   4.849   4.201
 6304SOL     OW19810   2.840   0.895   4.185
 6304SOL    HW119811   2.915   0.848   4.140
 6304SOL    HW219812   2.874   0.946   4.264
 6305SOL     OW19813   0.786   6.035   6.149
 6305SOL    HW119814   0.690   6.057   6.135
 6305SOL    HW219815   0.841   6.119   6.144
 6306SOL     OW19816   0.413   4.418   4.655
 6306SOL    HW119817   0.362   4.427   4.570
 6306SOL    HW219818   0.406   4.504   4.707
 6307SOL     OW19819   3.903   3.027   2.351
 6307SOL    HW119820   3.844   2.978   2.288
 6307SOL    HW219821   3.861   3.030   2.442
 6308SOL     OW19822   1.214   1.927   0.518
 6308SOL    HW119823   1.267   1.914   0.602
 6308SOL    HW219824   1.254   2.002   0.466
 6309SOL     OW19825   1.889   6.529   4.798
 6309SOL    HW119826   1.935   6.579   4.871
 6309SOL    HW219827   1.791   6.527   4.816
 6310SOL     OW19828   1.013   7.006   3.956
 6310SOL    HW119829   1.014   0.024   3.865
 6310SOL    HW219830   1.025   0.055   4.025
 6311SOL     OW19831   6.485   1.499   6.482
 6311SOL    HW119832   6.444   1.591   6.478
 6311SOL    HW219833   6.495   1.464   6.389
 6312SOL     OW19834   3.117   5.766   0.505
 6312SOL    HW119835   3.057   5.697   0.545
 6312SOL    HW219836   3.135   5.837   0.573
 6313SOL     OW19837   5.721   4.627   3.734
 6313SOL    HW119838   5.766   4.715   3.750
 6313SOL    HW219839   5.786   4.553   3.751
 6314SOL     OW19840   1.780   6.038   2.714
 6314SOL    HW119841   1.785   6.023   2.813
 6314SOL    HW219842   1.685   6.050   2.687
 6315SOL     OW19843   2.266   1.556   3.663
 6315SOL    HW119844   2.206   1.598   3.730
 6315SOL    HW219845   2.240   1.460   3.651
 6316SOL     OW19846   4.366   0.703   5.106
 6316SOL    HW119847   4.322   0.637   5.167
 6316SOL    HW219848   4.465   0.701   5.120
 6317SOL     OW19849   4.706   4.566   2.787
 6317SOL    HW119850   4.758   4.649   2.769
 6317SOL    HW219851   4.622   4.566   2.734
 6318SOL     OW19852   6.381   6.966   6.814
 6318SOL    HW119853   6.452   6.933   6.752
 6318SOL    HW219854   6.379   6.909   6.897
 6319SOL     OW19855   4.671   2.051   4.567
 6319SOL    HW119856   4.590   2.108   4.579
 6319SOL    HW219857   4.662   1.997   4.484
 6320SOL     OW19858   6.703   1.683   5.532
 6320SOL    HW119859   6.618   1.644   5.497
 6320SOL    HW219860   6.702   1.683   5.632
 6321SOL     OW19861   0.265   2.788   0.328
 6321SOL    HW119862   0.189   2.853   0.338
 6321SOL    HW219863   0.260   2.745   0.238
 6322SOL     OW19864   1.775   1.533   3.244
 6322SOL    HW119865   1.830   1.532   3.161
 6322SOL    HW219866   1.678   1.537   3.220
 6323SOL     OW19867   2.280   4.919   0.928
 6323SOL    HW119868   2.188   4.910   0.889
 6323SOL    HW219869   2.331   4.987   0.876
 6324SOL     OW19870   4.682   3.457   1.373
 6324SOL    HW119871   4.779   3.465   1.393
 6324SOL    HW219872   4.650   3.366   1.399
 6325SOL     OW19873   1.522   2.925   3.790
 6325SOL    HW119874   1.617   2.954   3.799
 6325SOL    HW219875   1.517   2.826   3.799
 6326SOL     OW19876   5.214   5.155   5.236
 6326SOL    HW119877   5.299   5.116   5.271
 6326SOL    HW219878   5.217   5.158   5.136
 6327SOL     OW19879   0.684   1.390   3.350
 6327SOL    HW119880   0.771   1.397   3.398
 6327SOL    HW219881   0.614   1.443   3.398
 6328SOL     OW19882   4.913   3.777   5.226
 6328SOL    HW119883   4.856   3.710   5.179
 6328SOL    HW219884   4.951   3.841   5.159
 6329SOL     OW19885   0.927   2.523   5.936
 6329SOL    HW119886   0.939   2.427   5.961
 6329SOL    HW219887   0.925   2.532   5.836
 6330SOL     OW19888   4.646   1.665   3.851
 6330SOL    HW119889   4.668   1.584   3.797
 6330SOL    HW219890   4.657   1.747   3.795
 6331SOL     OW19891   1.075   3.462   3.749
 6331SOL    HW119892   1.100   3.449   3.653
 6331SOL    HW219893   1.128   3.538   3.787
 6332SOL     OW19894   3.443   1.711   0.238
 6332SOL    HW119895   3.479   1.617   0.236
 6332SOL    HW219896   3.352   1.713   0.198
 6333SOL     OW19897   5.697   0.762   0.478
 6333SOL    HW119898   5.612   0.720   0.445
 6333SOL    HW219899   5.765   0.690   0.493
 6334SOL     OW19900   1.837   1.277   1.701
 6334SOL    HW119901   1.762   1.277   1.634
 6334SOL    HW219902   1.859   1.371   1.726
 6335SOL     OW19903   6.933   4.120   6.173
 6335SOL    HW119904   6.993   4.098   6.097
 6335SOL    HW219905   6.842   4.081   6.157
 6336SOL     OW19906   0.467   4.217   5.370
 6336SOL    HW119907   0.486   4.132   5.420
 6336SOL    HW219908   0.402   4.272   5.422
 6337SOL     OW19909   6.017   0.052   5.049
 6337SOL    HW119910   6.108   0.091   5.064
 6337SOL    HW219911   5.981   0.017   5.136
 6338SOL     OW19912   1.342   1.050   3.362
 6338SOL    HW119913   1.375   1.018   3.451
 6338SOL    HW219914   1.386   1.137   3.339
 6339SOL     OW19915   0.097   3.790   3.266
 6339SOL    HW119916   0.100   3.727   3.188
 6339SOL    HW219917   0.034   3.754   3.335
 6340SOL     OW19918   2.851   4.956   0.398
 6340SOL    HW119919   2.816   4.904   0.321
 6340SOL    HW219920   2.807   4.926   0.483
 6341SOL     OW19921   6.868   5.316   1.879
 6341SOL    HW119922   6.873   5.386   1.809
 6341SOL    HW219923   6.925   5.238   1.854
 6342SOL     OW19924   2.174   0.924   1.514
 6342SOL    HW119925   2.168   0.828   1.484
 6342SOL    HW219926   2.092   0.948   1.565
 6343SOL     OW19927   1.341   5.820   0.297
 6343SOL    HW119928   1.433   5.855   0.315
 6343SOL    HW219929   1.283   5.893   0.262
 6344SOL     OW19930   1.122   1.303   4.492
 6344SOL    HW119931   1.061   1.313   4.413
 6344SOL    HW219932   1.142   1.206   4.507
 6345SOL     OW19933   5.808   2.801   2.745
 6345SOL    HW119934   5.829   2.890   2.704
 6345SOL    HW219935   5.879   2.735   2.721
 6346SOL     OW19936   0.425   4.508   4.990
 6346SOL    HW119937   0.331   4.494   4.960
 6346SOL    HW219938   0.448   4.605   4.987
 6347SOL     OW19939   2.092   2.610   3.844
 6347SOL    HW119940   2.052   2.685   3.896
 6347SOL    HW219941   2.019   2.561   3.795
 6348SOL     OW19942   0.974   2.674   6.598
 6348SOL    HW119943   1.013   2.675   6.506
 6348SOL    HW219944   1.045   2.695   6.665
 6349SOL     OW19945   5.771   0.598   0.815
 6349SOL    HW119946   5.842   0.666   0.831
 6349SOL    HW219947   5.812   0.516   0.775
 6350SOL     OW19948   1.073   6.408   1.635
 6350SOL    HW119949   1.007   6.417   1.710
 6350SOL    HW219950   1.136   6.332   1.655
 6351SOL     OW19951   5.963   3.345   1.467
 6351SOL    HW119952   5.911   3.398   1.400
 6351SOL    HW219953   5.904   3.322   1.545
 6352SOL     OW19954   3.920   0.648   4.398
 6352SOL    HW119955   3.849   0.578   4.392
 6352SOL    HW219956   4.009   0.608   4.377
 6353SOL     OW19957   3.628   6.194   5.260
 6353SOL    HW119958   3.607   6.278   5.210
 6353SOL    HW219959   3.645   6.120   5.196
 6354SOL     OW19960   5.063   5.205   2.383
 6354SOL    HW119961   5.140   5.207   2.447
 6354SOL    HW219962   4.981   5.239   2.429
 6355SOL     OW19963   3.614   5.823   1.032
 6355SOL    HW119964   3.607   5.762   1.111
 6355SOL    HW219965   3.532   5.880   1.027
 6356SOL     OW19966   0.290   6.358   6.690
 6356SOL    HW119967   0.233   6.338   6.770
 6356SOL    HW219968   0.274   6.288   6.620
 6357SOL     OW19969   4.647   1.498   3.292
 6357SOL    HW119970   4.701   1.414   3.285
 6357SOL    HW219971   4.707   1.575   3.316
 6358SOL     OW19972   1.145   1.680   4.513
 6358SOL    HW119973   1.054   1.660   4.550
 6358SOL    HW219974   1.207   1.703   4.589
 6359SOL     OW19975   5.846   5.718   1.475
 6359SOL    HW119976   5.795   5.632   1.466
 6359SOL    HW219977   5.944   5.699   1.470
 6360SOL     OW19978   2.161   2.299   0.986
 6360SOL    HW119979   2.116   2.210   0.989
 6360SOL    HW219980   2.251   2.292   1.031
 6361SOL     OW19981   0.519   1.398   1.495
 6361SOL    HW119982   0.474   1.318   1.455
 6361SOL    HW219983   0.609   1.373   1.529
 6362SOL     OW19984   1.669   5.018   0.250
 6362SOL    HW119985   1.588   5.006   0.308
 6362SOL    HW219986   1.648   5.081   0.176
 6363SOL     OW19987   1.371   3.275   2.012
 6363SOL    HW119988   1.462   3.277   1.971
 6363SOL    HW219989   1.379   3.274   2.112
 6364SOL     OW19990   2.737   1.677   3.700
 6364SOL    HW119991   2.747   1.584   3.736
 6364SOL    HW219992   2.676   1.730   3.759
 6365SOL     OW19993   6.293   6.827   2.844
 6365SOL    HW119994   6.207   6.852   2.888
 6365SOL    HW219995   6.353   6.783   2.911
 6366SOL     OW19996   5.580   0.785   5.325
 6366SOL    HW119997   5.483   0.810   5.325
 6366SOL    HW219998   5.615   0.791   5.231
 6367SOL     OW19999   1.265   2.363   3.870
 6367SOL    HW120000   1.246   2.269   3.899
 6367SOL    HW220001   1.285   2.365   3.772
 6368SOL     OW20002   4.935   3.429   4.809
 6368SOL    HW120003   5.021   3.399   4.852
 6368SOL    HW220004   4.880   3.479   4.877
 6369SOL     OW20005   4.375   4.806   0.444
 6369SOL    HW120006   4.290   4.830   0.489
 6369SOL    HW220007   4.434   4.756   0.508
 6370SOL     OW20008   5.790   4.522   4.624
 6370SOL    HW120009   5.813   4.470   4.542
 6370SOL    HW220010   5.736   4.465   4.686
 6371SOL     OW20011   5.619   4.618   1.009
 6371SOL    HW120012   5.701   4.676   1.012
 6371SOL    HW220013   5.611   4.576   0.919
 6372SOL     OW20014   6.709   1.563   1.779
 6372SOL    HW120015   6.742   1.483   1.729
 6372SOL    HW220016   6.612   1.552   1.799
 6373SOL     OW20017   4.975   3.015   2.192
 6373SOL    HW120018   4.884   3.033   2.154
 6373SOL    HW220019   5.045   3.046   2.127
 6374SOL     OW20020   4.843   3.466   6.263
 6374SOL    HW120021   4.769   3.482   6.329
 6374SOL    HW220022   4.931   3.479   6.308
 6375SOL     OW20023   4.910   1.019   2.142
 6375SOL    HW120024   4.914   1.022   2.242
 6375SOL    HW220025   4.815   1.025   2.112
 6376SOL     OW20026   2.768   0.222   0.206
 6376SOL    HW120027   2.686   0.240   0.150
 6376SOL    HW220028   2.777   0.124   0.220
 6377SOL     OW20029   0.074   0.551   6.939
 6377SOL    HW120030   0.060   0.486   6.865
 6377SOL    HW220031   0.147   0.520   6.999
 6378SOL     OW20032   5.765   4.381   2.227
 6378SOL    HW120033   5.844   4.337   2.185
 6378SOL    HW220034   5.797   4.453   2.290
 6379SOL     OW20035   2.026   5.241   6.321
 6379SOL    HW120036   1.975   5.279   6.243
 6379SOL    HW220037   2.063   5.317   6.375
 6380SOL     OW20038   1.382   3.036   5.193
 6380SOL    HW120039   1.446   2.987   5.251
 6380SOL    HW220040   1.417   3.128   5.174
 6381SOL     OW20041   3.546   4.133   0.414
 6381SOL    HW120042   3.636   4.114   0.454
 6381SOL    HW220043   3.557   4.190   0.333
 6382SOL     OW20044   1.632   1.136   0.581
 6382SOL    HW120045   1.671   1.222   0.612
 6382SOL    HW220046   1.551   1.154   0.525
 6383SOL     OW20047   2.441   2.551   2.247
 6383SOL    HW120048   2.522   2.516   2.201
 6383SOL    HW220049   2.426   2.500   2.331
 6384SOL     OW20050   6.553   2.916   2.011
 6384SOL    HW120051   6.513   2.842   1.957
 6384SOL    HW220052   6.521   2.911   2.105
 6385SOL     OW20053   6.583   3.675   0.526
 6385SOL    HW120054   6.610   3.748   0.590
 6385SOL    HW220055   6.569   3.590   0.577
 6386SOL     OW20056   3.145   3.340   0.031
 6386SOL    HW120057   3.205   3.309   0.104
 6386SOL    HW220058   3.051   3.344   0.065
 6387SOL     OW20059   6.783   0.207   6.616
 6387SOL    HW120060   6.774   0.121   6.665
 6387SOL    HW220061   6.709   0.269   6.644
 6388SOL     OW20062   5.730   5.341   1.974
 6388SOL    HW120063   5.792   5.384   1.909
 6388SOL    HW220064   5.776   5.329   2.061
 6389SOL     OW20065   6.754   6.564   0.208
 6389SOL    HW120066   6.749   6.474   0.167
 6389SOL    HW220067   6.800   6.559   0.297
 6390SOL     OW20068   5.289   0.190   6.801
 6390SOL    HW120069   5.305   0.091   6.793
 6390SOL    HW220070   5.377   0.238   6.800
 6391SOL     OW20071   1.706   2.052   4.918
 6391SOL    HW120072   1.652   2.132   4.944
 6391SOL    HW220073   1.717   2.050   4.818
 6392SOL     OW20074   4.473   0.426   4.095
 6392SOL    HW120075   4.464   0.334   4.131
 6392SOL    HW220076   4.400   0.443   4.029
 6393SOL     OW20077   1.695   4.600   0.696
 6393SOL    HW120078   1.710   4.521   0.756
 6393SOL    HW220079   1.638   4.667   0.743
 6394SOL     OW20080   2.178   4.961   1.885
 6394SOL    HW120081   2.272   4.993   1.896
 6394SOL    HW220082   2.166   4.875   1.935
 6395SOL     OW20083   1.913   4.477   4.322
 6395SOL    HW120084   1.933   4.445   4.415
 6395SOL    HW220085   1.917   4.576   4.319
 6396SOL     OW20086   2.158   2.768   5.656
 6396SOL    HW120087   2.059   2.762   5.639
 6396SOL    HW220088   2.205   2.700   5.599
 6397SOL     OW20089   6.375   3.398   4.902
 6397SOL    HW120090   6.431   3.476   4.927
 6397SOL    HW220091   6.289   3.430   4.861
 6398SOL     OW20092   2.024   0.589   2.602
 6398SOL    HW120093   2.056   0.587   2.697
 6398SOL    HW220094   1.954   0.520   2.588
 6399SOL     OW20095   3.117   6.880   0.207
 6399SOL    HW120096   3.188   6.889   0.138
 6399SOL    HW220097   3.110   6.965   0.259
 6400SOL     OW20098   0.443   6.968   2.542
 6400SOL    HW120099   0.541   6.956   2.522
 6400SOL    HW220100   0.416   0.039   2.517
 6401SOL     OW20101   4.003   5.076   2.727
 6401SOL    HW120102   3.920   5.087   2.672
 6401SOL    HW220103   4.059   5.159   2.720
 6402SOL     OW20104   3.186   4.555   5.597
 6402SOL    HW120105   3.193   4.475   5.537
 6402SOL    HW220106   3.224   4.635   5.550
 6403SOL     OW20107   5.232   5.438   5.571
 6403SOL    HW120108   5.149   5.408   5.524
 6403SOL    HW220109   5.215   5.528   5.613
 6404SOL     OW20110   4.722   5.946   0.130
 6404SOL    HW120111   4.648   5.891   0.168
 6404SOL    HW220112   4.727   6.033   0.179
 6405SOL     OW20113   4.403   1.339   2.591
 6405SOL    HW120114   4.338   1.264   2.578
 6405SOL    HW220115   4.496   1.304   2.579
 6406SOL     OW20116   0.328   3.375   2.487
 6406SOL    HW120117   0.299   3.355   2.394
 6406SOL    HW220118   0.262   3.336   2.552
 6407SOL     OW20119   0.571   0.008   2.187
 6407SOL    HW120120   0.622   0.028   2.103
 6407SOL    HW220121   0.592   0.077   2.256
 6408SOL     OW20122   6.843   1.005   1.936
 6408SOL    HW120123   6.755   1.053   1.939
 6408SOL    HW220124   6.910   1.054   1.992
 6409SOL     OW20125   5.614   4.549   3.245
 6409SOL    HW120126   5.666   4.478   3.196
 6409SOL    HW220127   5.518   4.523   3.249
 6410SOL     OW20128   2.136   1.363   0.318
 6410SOL    HW120129   2.177   1.340   0.407
 6410SOL    HW220130   2.045   1.402   0.332
 6411SOL     OW20131   0.511   2.890   2.364
 6411SOL    HW120132   0.537   2.974   2.412
 6411SOL    HW220133   0.417   2.866   2.387
 6412SOL     OW20134   3.836   0.521   6.768
 6412SOL    HW120135   3.914   0.526   6.706
 6412SOL    HW220136   3.792   0.611   6.774
 6413SOL     OW20137   5.136   6.494   3.346
 6413SOL    HW120138   5.165   6.420   3.406
 6413SOL    HW220139   5.039   6.484   3.325
 6414SOL     OW20140   2.859   0.644   0.523
 6414SOL    HW120141   2.766   0.638   0.487
 6414SOL    HW220142   2.881   0.560   0.573
 6415SOL     OW20143   1.010   1.758   3.485
 6415SOL    HW120144   0.990   1.794   3.576
 6415SOL    HW220145   1.108   1.737   3.478
 6416SOL     OW20146   3.225   5.041   0.045
 6416SOL    HW120147   3.295   5.038   0.117
 6416SOL    HW220148   3.195   5.135   0.031
 6417SOL     OW20149   4.445   3.018   6.851
 6417SOL    HW120150   4.471   2.942   6.791
 6417SOL    HW220151   4.384   2.985   6.922
 6418SOL     OW20152   5.128   4.959   0.504
 6418SOL    HW120153   5.113   5.011   0.587
 6418SOL    HW220154   5.165   5.019   0.433
 6419SOL     OW20155   0.798   6.395   0.101
 6419SOL    HW120156   0.797   6.336   0.020
 6419SOL    HW220157   0.789   6.490   0.073
 6420SOL     OW20158   2.675   4.722   3.742
 6420SOL    HW120159   2.727   4.729   3.827
 6420SOL    HW220160   2.734   4.747   3.665
 6421SOL     OW20161   4.900   7.014   1.634
 6421SOL    HW120162   4.883   6.930   1.685
 6421SOL    HW220163   4.813   0.041   1.622
 6422SOL     OW20164   6.990   3.066   4.584
 6422SOL    HW120165   0.021   2.988   4.551
 6422SOL    HW220166   7.005   3.145   4.525
 6423SOL     OW20167   1.022   4.396   4.841
 6423SOL    HW120168   1.027   4.437   4.932
 6423SOL    HW220169   0.927   4.373   4.821
 6424SOL     OW20170   6.935   4.529   5.938
 6424SOL    HW120171   6.895   4.522   5.847
 6424SOL    HW220172   6.869   4.571   6.001
 6425SOL     OW20173   7.021   6.180   4.317
 6425SOL    HW120174   0.060   6.117   4.270
 6425SOL    HW220175   6.976   6.239   4.250
 6426SOL     OW20176   4.768   5.254   4.346
 6426SOL    HW120177   4.756   5.175   4.286
 6426SOL    HW220178   4.683   5.306   4.349
 6427SOL     OW20179   4.118   3.537   3.182
 6427SOL    HW120180   4.116   3.502   3.275
 6427SOL    HW220181   4.112   3.460   3.118
 6428SOL     OW20182   5.655   3.296   0.273
 6428SOL    HW120183   5.592   3.254   0.338
 6428SOL    HW220184   5.604   3.328   0.193
 6429SOL     OW20185   2.209   1.623   5.506
 6429SOL    HW120186   2.257   1.585   5.584
 6429SOL    HW220187   2.272   1.676   5.449
 6430SOL     OW20188   6.087   1.252   5.075
 6430SOL    HW120189   6.138   1.203   5.146
 6430SOL    HW220190   6.096   1.202   4.988
 6431SOL     OW20191   3.548   5.410   2.428
 6431SOL    HW120192   3.467   5.355   2.446
 6431SOL    HW220193   3.606   5.362   2.361
 6432SOL     OW20194   4.969   3.180   5.710
 6432SOL    HW120195   4.870   3.184   5.717
 6432SOL    HW220196   4.996   3.139   5.623
 6433SOL     OW20197   3.665   5.233   5.840
 6433SOL    HW120198   3.595   5.302   5.854
 6433SOL    HW220199   3.734   5.240   5.912
 6434SOL     OW20200   5.595   5.117   5.970
 6434SOL    HW120201   5.618   5.202   6.018
 6434SOL    HW220202   5.611   5.128   5.872
 6435SOL     OW20203   4.843   1.159   1.045
 6435SOL    HW120204   4.768   1.225   1.052
 6435SOL    HW220205   4.878   1.158   0.952
 6436SOL     OW20206   0.345   3.524   3.613
 6436SOL    HW120207   0.314   3.519   3.708
 6436SOL    HW220208   0.313   3.444   3.562
 6437SOL     OW20209   1.457   2.813   5.703
 6437SOL    HW120210   1.415   2.740   5.756
 6437SOL    HW220211   1.445   2.795   5.605
 6438SOL     OW20212   0.548   5.297   0.200
 6438SOL    HW120213   0.560   5.239   0.119
 6438SOL    HW220214   0.486   5.373   0.179
 6439SOL     OW20215   5.508   6.853   2.313
 6439SOL    HW120216   5.562   6.821   2.235
 6439SOL    HW220217   5.568   6.902   2.377
 6440SOL     OW20218   2.717   1.638   5.971
 6440SOL    HW120219   2.706   1.565   6.038
 6440SOL    HW220220   2.682   1.724   6.010
 6441SOL     OW20221   0.333   2.246   1.890
 6441SOL    HW120222   0.267   2.177   1.861
 6441SOL    HW220223   0.414   2.241   1.831
 6442SOL     OW20224   2.436   2.188   4.761
 6442SOL    HW120225   2.454   2.098   4.722
 6442SOL    HW220226   2.487   2.257   4.710
 6443SOL     OW20227   3.732   3.102   6.470
 6443SOL    HW120228   3.803   3.127   6.404
 6443SOL    HW220229   3.757   3.137   6.560
 6444SOL     OW20230   6.962   4.062   4.834
 6444SOL    HW120231   6.989   3.966   4.834
 6444SOL    HW220232   0.016   4.118   4.802
 6445SOL     OW20233   4.030   3.123   3.327
 6445SOL    HW120234   4.104   3.093   3.387
 6445SOL    HW220235   3.942   3.103   3.371
 6446SOL     OW20236   1.278   0.894   0.252
 6446SOL    HW120237   1.291   0.869   0.348
 6446SOL    HW220238   1.213   0.831   0.210
 6447SOL     OW20239   5.619   3.722   1.874
 6447SOL    HW120240   5.608   3.728   1.775
 6447SOL    HW220241   5.576   3.801   1.918
 6448SOL     OW20242   4.473   4.622   1.267
 6448SOL    HW120243   4.533   4.622   1.347
 6448SOL    HW220244   4.488   4.539   1.214
 6449SOL     OW20245   3.669   5.203   0.523
 6449SOL    HW120246   3.597   5.171   0.460
 6449SOL    HW220247   3.645   5.294   0.556
 6450SOL     OW20248   6.204   3.522   6.755
 6450SOL    HW120249   6.177   3.530   6.851
 6450SOL    HW220250   6.187   3.429   6.724
 6451SOL     OW20251   4.396   2.679   1.677
 6451SOL    HW120252   4.313   2.734   1.669
 6451SOL    HW220253   4.475   2.739   1.690
 6452SOL     OW20254   3.916   2.046   5.033
 6452SOL    HW120255   3.933   1.954   5.067
 6452SOL    HW220256   3.981   2.109   5.076
 6453SOL     OW20257   2.012   0.409   2.971
 6453SOL    HW120258   1.962   0.492   2.947
 6453SOL    HW220259   1.953   0.347   3.023
 6454SOL     OW20260   5.108   2.733   4.426
 6454SOL    HW120261   5.046   2.811   4.428
 6454SOL    HW220262   5.108   2.688   4.515
 6455SOL     OW20263   6.861   3.108   3.905
 6455SOL    HW120264   6.831   3.078   3.996
 6455SOL    HW220265   6.801   3.067   3.836
 6456SOL     OW20266   6.556   2.102   2.182
 6456SOL    HW120267   6.647   2.113   2.222
 6456SOL    HW220268   6.527   2.007   2.193
 6457SOL     OW20269   2.478   6.286   2.547
 6457SOL    HW120270   2.450   6.369   2.595
 6457SOL    HW220271   2.400   6.224   2.538
 6458SOL     OW20272   0.135   0.068   4.607
 6458SOL    HW120273   0.075   0.135   4.565
 6458SOL    HW220274   0.160   0.098   4.700
 6459SOL     OW20275   0.258   3.171   3.088
 6459SOL    HW120276   0.306   3.085   3.107
 6459SOL    HW220277   0.323   3.247   3.095
 6460SOL     OW20278   1.765   5.158   6.374
 6460SOL    HW120279   1.854   5.197   6.398
 6460SOL    HW220280   1.766   5.129   6.278
 6461SOL     OW20281   0.717   6.220   0.975
 6461SOL    HW120282   0.737   6.176   0.887
 6461SOL    HW220283   0.801   6.227   1.029
 6462SOL     OW20284   1.950   3.752   5.066
 6462SOL    HW120285   1.934   3.655   5.049
 6462SOL    HW220286   1.951   3.769   5.165
 6463SOL     OW20287   5.036   2.917   1.057
 6463SOL    HW120288   5.030   3.017   1.054
 6463SOL    HW220289   4.952   2.879   1.095
 6464SOL     OW20290   0.620   4.190   3.684
 6464SOL    HW120291   0.552   4.153   3.621
 6464SOL    HW220292   0.691   4.122   3.701
 6465SOL     OW20293   2.869   0.917   3.685
 6465SOL    HW120294   2.873   1.016   3.696
 6465SOL    HW220295   2.788   0.892   3.633
 6466SOL     OW20296   0.057   5.282   6.723
 6466SOL    HW120297   7.022   5.263   6.643
 6466SOL    HW220298   0.018   5.237   6.803
 6467SOL     OW20299   2.142   2.206   6.277
 6467SOL    HW120300   2.135   2.115   6.317
 6467SOL    HW220301   2.171   2.197   6.181
 6468SOL     OW20302   1.703   0.329   1.389
 6468SOL    HW120303   1.736   0.306   1.480
 6468SOL    HW220304   1.606   0.354   1.394
 6469SOL     OW20305   2.287   1.151   1.362
 6469SOL    HW120306   2.226   1.102   1.425
 6469SOL    HW220307   2.379   1.112   1.367
 6470SOL     OW20308   6.501   1.422   0.107
 6470SOL    HW120309   6.436   1.491   0.140
 6470SOL    HW220310   6.528   1.363   0.183
 6471SOL     OW20311   0.149   6.412   5.846
 6471SOL    HW120312   0.112   6.455   5.929
 6471SOL    HW220313   0.243   6.384   5.862
 6472SOL     OW20314   6.865   6.270   2.482
 6472SOL    HW120315   6.833   6.264   2.387
 6472SOL    HW220316   6.804   6.218   2.541
 6473SOL     OW20317   2.572   0.849   3.162
 6473SOL    HW120318   2.526   0.894   3.086
 6473SOL    HW220319   2.659   0.895   3.181
 6474SOL     OW20320   3.664   6.413   3.840
 6474SOL    HW120321   3.662   6.433   3.742
 6474SOL    HW220322   3.606   6.333   3.858
 6475SOL     OW20323   5.606   5.717   3.062
 6475SOL    HW120324   5.657   5.637   3.092
 6475SOL    HW220325   5.638   5.745   2.971
 6476SOL     OW20326   4.697   3.274   6.125
 6476SOL    HW120327   4.763   3.348   6.136
 6476SOL    HW220328   4.657   3.252   6.214
 6477SOL     OW20329   0.422   6.322   0.897
 6477SOL    HW120330   0.508   6.272   0.903
 6477SOL    HW220331   0.365   6.281   0.825
 6478SOL     OW20332   1.795   6.088   1.147
 6478SOL    HW120333   1.766   6.078   1.052
 6478SOL    HW220334   1.715   6.081   1.207
 6479SOL     OW20335   4.691   5.961   3.237
 6479SOL    HW120336   4.709   6.058   3.220
 6479SOL    HW220337   4.678   5.946   3.335
 6480SOL     OW20338   3.619   1.782   5.935
 6480SOL    HW120339   3.536   1.800   5.987
 6480SOL    HW220340   3.630   1.684   5.923
 6481SOL     OW20341   4.243   3.295   1.863
 6481SOL    HW120342   4.253   3.376   1.806
 6481SOL    HW220343   4.277   3.215   1.813
 6482SOL     OW20344   4.986   3.379   5.323
 6482SOL    HW120345   5.039   3.299   5.352
 6482SOL    HW220346   5.030   3.421   5.243
 6483SOL     OW20347   1.959   5.666   5.046
 6483SOL    HW120348   2.015   5.602   5.099
 6483SOL    HW220349   2.011   5.750   5.029
 6484SOL     OW20350   4.256   1.322   3.539
 6484SOL    HW120351   4.314   1.244   3.561
 6484SOL    HW220352   4.289   1.366   3.456
 6485SOL     OW20353   2.381   5.300   4.887
 6485SOL    HW120354   2.305   5.281   4.825
 6485SOL    HW220355   2.412   5.214   4.928
 6486SOL     OW20356   6.890   4.647   2.516
 6486SOL    HW120357   6.958   4.716   2.490
 6486SOL    HW220358   6.918   4.558   2.480
 6487SOL     OW20359   6.564   4.975   3.599
 6487SOL    HW120360   6.567   5.075   3.600
 6487SOL    HW220361   6.605   4.942   3.515
 6488SOL     OW20362   3.452   5.245   4.191
 6488SOL    HW120363   3.473   5.150   4.214
 6488SOL    HW220364   3.369   5.249   4.136
 6489SOL     OW20365   5.545   3.456   4.670
 6489SOL    HW120366   5.636   3.480   4.703
 6489SOL    HW220367   5.481   3.530   4.691
 6490SOL     OW20368   2.037   2.652   0.475
 6490SOL    HW120369   2.019   2.711   0.396
 6490SOL    HW220370   1.951   2.610   0.504
 6491SOL     OW20371   1.733   6.747   1.479
 6491SOL    HW120372   1.785   6.802   1.544
 6491SOL    HW220373   1.673   6.807   1.425
 6492SOL     OW20374   4.016   3.818   4.068
 6492SOL    HW120375   3.933   3.851   4.024
 6492SOL    HW220376   4.083   3.792   3.998
 6493SOL     OW20377   1.148   4.674   3.932
 6493SOL    HW120378   1.101   4.739   3.993
 6493SOL    HW220379   1.084   4.640   3.864
 6494SOL     OW20380   6.147   0.603   1.059
 6494SOL    HW120381   6.157   0.621   0.961
 6494SOL    HW220382   6.051   0.582   1.080
 6495SOL     OW20383   6.963   0.238   3.493
 6495SOL    HW120384   0.014   0.230   3.560
 6495SOL    HW220385   6.910   0.320   3.511
 6496SOL     OW20386   3.300   2.156   1.785
 6496SOL    HW120387   3.320   2.252   1.768
 6496SOL    HW220388   3.383   2.102   1.775
 6497SOL     OW20389   0.146   1.598   1.043
 6497SOL    HW120390   0.207   1.643   0.978
 6497SOL    HW220391   0.199   1.543   1.107
 6498SOL     OW20392   2.322   4.318   4.455
 6498SOL    HW120393   2.347   4.355   4.545
 6498SOL    HW220394   2.376   4.365   4.385
 6499SOL     OW20395   4.814   2.288   3.129
 6499SOL    HW120396   4.815   2.207   3.187
 6499SOL    HW220397   4.749   2.275   3.054
 6500SOL     OW20398   1.312   3.572   3.472
 6500SOL    HW120399   1.390   3.574   3.409
 6500SOL    HW220400   1.255   3.492   3.450
 6501SOL     OW20401   6.206   1.218   3.079
 6501SOL    HW120402   6.127   1.158   3.091
 6501SOL    HW220403   6.213   1.281   3.156
 6502SOL     OW20404   0.606   3.197   1.495
 6502SOL    HW120405   0.597   3.164   1.401
 6502SOL    HW220406   0.623   3.295   1.495
 6503SOL     OW20407   6.719   3.291   5.621
 6503SOL    HW120408   6.738   3.332   5.532
 6503SOL    HW220409   6.630   3.244   5.617
 6504SOL     OW20410   3.445   0.031   6.165
 6504SOL    HW120411   3.518   0.002   6.227
 6504SOL    HW220412   3.370   6.987   6.169
 6505SOL     OW20413   0.210   6.784   0.786
 6505SOL    HW120414   0.294   6.785   0.841
 6505SOL    HW220415   0.193   6.691   0.753
 6506SOL     OW20416   0.522   3.735   2.150
 6506SOL    HW120417   0.570   3.685   2.077
 6506SOL    HW220418   0.489   3.670   2.218
 6507SOL     OW20419   3.984   5.431   0.861
 6507SOL    HW120420   4.026   5.376   0.933
 6507SOL    HW220421   3.945   5.369   0.792
 6508SOL     OW20422   6.703   0.823   3.526
 6508SOL    HW120423   6.649   0.792   3.604
 6508SOL    HW220424   6.703   0.753   3.455
 6509SOL     OW20425   2.461   1.789   0.295
 6509SOL    HW120426   2.416   1.727   0.359
 6509SOL    HW220427   2.442   1.760   0.201
 6510SOL     OW20428   3.138   5.232   5.052
 6510SOL    HW120429   3.215   5.266   5.107
 6510SOL    HW220430   3.053   5.263   5.093
 6511SOL     OW20431   2.868   2.221   0.485
 6511SOL    HW120432   2.906   2.136   0.450
 6511SOL    HW220433   2.772   2.207   0.508
 6512SOL     OW20434   5.070   0.752   0.197
 6512SOL    HW120435   5.166   0.725   0.187
 6512SOL    HW220436   5.017   0.712   0.122
 6513SOL     OW20437   2.727   4.829   3.133
 6513SOL    HW120438   2.673   4.747   3.112
 6513SOL    HW220439   2.670   4.895   3.182
 6514SOL     OW20440   5.058   5.968   5.401
 6514SOL    HW120441   5.031   5.992   5.494
 6514SOL    HW220442   4.983   5.920   5.356
 6515SOL     OW20443   0.555   4.745   2.798
 6515SOL    HW120444   0.497   4.732   2.717
 6515SOL    HW220445   0.560   4.842   2.820
 6516SOL     OW20446   6.319   2.455   2.525
 6516SOL    HW120447   6.412   2.484   2.548
 6516SOL    HW220448   6.256   2.485   2.596
 6517SOL     OW20449   6.416   3.782   0.346
 6517SOL    HW120450   6.478   3.755   0.419
 6517SOL    HW220451   6.334   3.823   0.386
 6518SOL     OW20452   1.008   0.966   2.231
 6518SOL    HW120453   1.095   0.987   2.187
 6518SOL    HW220454   1.021   0.964   2.330
 6519SOL     OW20455   1.489   1.254   3.191
 6519SOL    HW120456   1.454   1.179   3.135
 6519SOL    HW220457   1.422   1.328   3.193
 6520SOL     OW20458   6.520   5.605   0.216
 6520SOL    HW120459   6.487   5.694   0.247
 6520SOL    HW220460   6.520   5.540   0.292
 6521SOL     OW20461   1.652   4.954   4.271
 6521SOL    HW120462   1.573   4.892   4.269
 6521SOL    HW220463   1.663   4.991   4.363
 6522SOL     OW20464   2.652   2.979   5.469
 6522SOL    HW120465   2.612   2.933   5.548
 6522SOL    HW220466   2.587   2.978   5.393
 6523SOL     OW20467   6.412   6.473   0.834
 6523SOL    HW120468   6.338   6.533   0.803
 6523SOL    HW220469   6.375   6.406   0.899
 6524SOL     OW20470   3.130   3.001   1.253
 6524SOL    HW120471   3.059   2.956   1.198
 6524SOL    HW220472   3.149   3.091   1.215
 6525SOL     OW20473   1.475   4.906   3.639
 6525SOL    HW120474   1.416   4.978   3.674
 6525SOL    HW220475   1.449   4.818   3.681
 6526SOL     OW20476   6.808   6.481   0.459
 6526SOL    HW120477   6.903   6.456   0.481
 6526SOL    HW220478   6.764   6.519   0.540
 6527SOL     OW20479   5.730   1.654   0.998
 6527SOL    HW120480   5.821   1.635   0.961
 6527SOL    HW220481   5.735   1.735   1.056
 6528SOL     OW20482   4.604   6.832   0.453
 6528SOL    HW120483   4.583   6.769   0.378
 6528SOL    HW220484   4.662   6.786   0.520
 6529SOL     OW20485   4.768   0.368   1.997
 6529SOL    HW120486   4.690   0.313   1.967
 6529SOL    HW220487   4.769   0.374   2.097
 6530SOL     OW20488   0.592   2.556   3.363
 6530SOL    HW120489   0.578   2.543   3.264
 6530SOL    HW220490   0.503   2.558   3.409
 6531SOL     OW20491   3.765   3.868   3.955
 6531SOL    HW120492   3.686   3.862   4.015
 6531SOL    HW220493   3.757   3.802   3.881
 6532SOL     OW20494   0.817   6.158   0.739
 6532SOL    HW120495   0.860   6.104   0.667
 6532SOL    HW220496   0.878   6.233   0.766
 6533SOL     OW20497   4.640   4.623   1.467
 6533SOL    HW120498   4.667   4.533   1.503
 6533SOL    HW220499   4.623   4.686   1.543
 6534SOL     OW20500   0.035   4.564   3.486
 6534SOL    HW120501   0.068   4.512   3.407
 6534SOL    HW220502   6.971   4.608   3.464
 6535SOL     OW20503   5.325   4.105   5.475
 6535SOL    HW120504   5.262   4.031   5.451
 6535SOL    HW220505   5.307   4.135   5.569
 6536SOL     OW20506   0.324   4.536   5.664
 6536SOL    HW120507   0.267   4.572   5.738
 6536SOL    HW220508   0.362   4.448   5.691
 6537SOL     OW20509   6.843   5.682   3.807
 6537SOL    HW120510   6.927   5.721   3.843
 6537SOL    HW220511   6.846   5.582   3.816
 6538SOL     OW20512   1.061   2.781   4.388
 6538SOL    HW120513   1.064   2.871   4.344
 6538SOL    HW220514   1.054   2.710   4.318
 6539SOL     OW20515   4.268   6.519   6.520
 6539SOL    HW120516   4.311   6.470   6.444
 6539SOL    HW220517   4.300   6.614   6.520
 6540SOL     OW20518   0.132   2.755   5.501
 6540SOL    HW120519   0.049   2.706   5.528
 6540SOL    HW220520   0.111   2.851   5.487
 6541SOL     OW20521   4.435   1.774   5.584
 6541SOL    HW120522   4.444   1.700   5.517
 6541SOL    HW220523   4.462   1.740   5.674
 6542SOL     OW20524   1.692   3.824   2.667
 6542SOL    HW120525   1.695   3.785   2.576
 6542SOL    HW220526   1.758   3.899   2.673
 6543SOL     OW20527   3.776   1.486   4.695
 6543SOL    HW120528   3.838   1.563   4.708
 6543SOL    HW220529   3.826   1.409   4.657
 6544SOL     OW20530   0.432   0.312   0.418
 6544SOL    HW120531   0.476   0.319   0.329
 6544SOL    HW220532   0.351   0.252   0.410
 6545SOL     OW20533   4.815   6.033   0.923
 6545SOL    HW120534   4.886   5.971   0.957
 6545SOL    HW220535   4.727   5.986   0.923
 6546SOL     OW20536   4.672   5.203   5.835
 6546SOL    HW120537   4.573   5.207   5.848
 6546SOL    HW220538   4.705   5.113   5.863
 6547SOL     OW20539   0.764   6.230   5.340
 6547SOL    HW120540   0.845   6.288   5.354
 6547SOL    HW220541   0.790   6.150   5.287
 6548SOL     OW20542   0.872   1.789   6.108
 6548SOL    HW120543   0.863   1.743   6.019
 6548SOL    HW220544   0.814   1.870   6.109
 6549SOL     OW20545   3.541   1.799   2.698
 6549SOL    HW120546   3.605   1.741   2.648
 6549SOL    HW220547   3.452   1.753   2.705
 6550SOL     OW20548   5.924   6.585   2.362
 6550SOL    HW120549   5.874   6.594   2.448
 6550SOL    HW220550   5.904   6.497   2.320
 6551SOL     OW20551   3.164   5.156   0.592
 6551SOL    HW120552   3.126   5.248   0.579
 6551SOL    HW220553   3.219   5.154   0.675
 6552SOL     OW20554   2.271   4.476   6.925
 6552SOL    HW120555   2.304   4.504   7.015
 6552SOL    HW220556   2.174   4.501   6.915
 6553SOL     OW20557   0.718   2.003   3.656
 6553SOL    HW120558   0.690   1.912   3.690
 6553SOL    HW220559   0.711   2.005   3.557
 6554SOL     OW20560   1.512   2.435   3.925
 6554SOL    HW120561   1.560   2.454   3.839
 6554SOL    HW220562   1.425   2.390   3.906
 6555SOL     OW20563   1.430   3.606   4.356
 6555SOL    HW120564   1.515   3.576   4.312
 6555SOL    HW220565   1.452   3.675   4.425
 6556SOL     OW20566   4.954   2.948   2.737
 6556SOL    HW120567   4.962   2.851   2.762
 6556SOL    HW220568   4.884   2.959   2.667
 6557SOL     OW20569   2.210   0.962   2.074
 6557SOL    HW120570   2.140   0.936   2.007
 6557SOL    HW220571   2.177   1.040   2.127
 6558SOL     OW20572   5.478   5.968   1.069
 6558SOL    HW120573   5.511   5.988   1.161
 6558SOL    HW220574   5.426   5.883   1.070
 6559SOL     OW20575   6.983   2.408   6.187
 6559SOL    HW120576   7.004   2.483   6.251
 6559SOL    HW220577   0.008   2.325   6.215
 6560SOL     OW20578   6.206   4.403   6.564
 6560SOL    HW120579   6.305   4.405   6.572
 6560SOL    HW220580   6.180   4.435   6.473
 6561SOL     OW20581   2.540   4.617   0.737
 6561SOL    HW120582   2.602   4.539   0.723
 6561SOL    HW220583   2.529   4.633   0.835
 6562SOL     OW20584   4.829   2.690   1.585
 6562SOL    HW120585   4.834   2.789   1.573
 6562SOL    HW220586   4.902   2.660   1.647
 6563SOL     OW20587   6.506   5.260   5.351
 6563SOL    HW120588   6.441   5.333   5.333
 6563SOL    HW220589   6.463   5.189   5.407
 6564SOL     OW20590   5.410   3.310   2.499
 6564SOL    HW120591   5.419   3.211   2.498
 6564SOL    HW220592   5.367   3.341   2.414
 6565SOL     OW20593   5.318   6.958   2.121
 6565SOL    HW120594   5.349   0.029   2.107
 6565SOL    HW220595   5.378   6.911   2.186
 6566SOL     OW20596   5.249   5.436   3.673
 6566SOL    HW120597   5.225   5.533   3.677
 6566SOL    HW220598   5.276   5.404   3.764
 6567SOL     OW20599   3.541   0.369   2.663
 6567SOL    HW120600   3.557   0.287   2.718
 6567SOL    HW220601   3.528   0.343   2.568
 6568SOL     OW20602   4.804   0.877   0.629
 6568SOL    HW120603   4.792   0.972   0.601
 6568SOL    HW220604   4.887   0.840   0.588
 6569SOL     OW20605   0.897   4.940   4.192
 6569SOL    HW120606   0.874   4.873   4.263
 6569SOL    HW220607   0.922   5.027   4.235
 6570SOL     OW20608   4.278   0.179   2.212
 6570SOL    HW120609   4.325   0.266   2.197
 6570SOL    HW220610   4.219   0.186   2.293
 6571SOL     OW20611   2.729   6.375   3.252
 6571SOL    HW120612   2.702   6.340   3.342
 6571SOL    HW220613   2.827   6.361   3.240
 6572SOL     OW20614   1.665   6.319   3.900
 6572SOL    HW120615   1.658   6.328   3.999
 6572SOL    HW220616   1.584   6.274   3.864
 6573SOL     OW20617   0.201   2.285   2.929
 6573SOL    HW120618   0.164   2.193   2.919
 6573SOL    HW220619   0.227   2.300   3.024
 6574SOL     OW20620   1.477   4.639   2.062
 6574SOL    HW120621   1.542   4.703   2.102
 6574SOL    HW220622   1.384   4.674   2.072
 6575SOL     OW20623   6.880   1.771   3.284
 6575SOL    HW120624   6.791   1.748   3.325
 6575SOL    HW220625   6.880   1.867   3.256
 6576SOL     OW20626   3.747   6.922   1.571
 6576SOL    HW120627   3.787   6.908   1.661
 6576SOL    HW220628   3.647   6.926   1.579
 6577SOL     OW20629   3.480   0.920   4.512
 6577SOL    HW120630   3.472   0.853   4.586
 6577SOL    HW220631   3.389   0.939   4.475
 6578SOL     OW20632   1.569   4.837   0.792
 6578SOL    HW120633   1.474   4.854   0.818
 6578SOL    HW220634   1.608   4.919   0.749
 6579SOL     OW20635   1.175   1.167   3.690
 6579SOL    HW120636   1.119   1.184   3.609
 6579SOL    HW220637   1.126   1.106   3.752
 6580SOL     OW20638   2.651   1.971   0.437
 6580SOL    HW120639   2.602   1.897   0.393
 6580SOL    HW220640   2.602   2.057   0.423
 6581SOL     OW20641   0.730   2.033   1.065
 6581SOL    HW120642   0.809   1.983   1.029
 6581SOL    HW220643   0.753   2.069   1.156
 6582SOL     OW20644   5.331   0.611   3.177
 6582SOL    HW120645   5.323   0.701   3.219
 6582SOL    HW220646   5.388   0.552   3.234
 6583SOL     OW20647   2.995   4.343   0.824
 6583SOL    HW120648   2.961   4.408   0.756
 6583SOL    HW220649   3.019   4.392   0.908
 6584SOL     OW20650   4.245   2.444   6.420
 6584SOL    HW120651   4.207   2.375   6.358
 6584SOL    HW220652   4.243   2.409   6.514
 6585SOL     OW20653   5.717   0.117   1.743
 6585SOL    HW120654   5.704   0.215   1.730
 6585SOL    HW220655   5.646   0.082   1.804
 6586SOL     OW20656   6.601   1.121   6.381
 6586SOL    HW120657   6.698   1.103   6.398
 6586SOL    HW220658   6.545   1.066   6.443
 6587SOL     OW20659   2.902   5.221   4.758
 6587SOL    HW120660   2.847   5.198   4.678
 6587SOL    HW220661   2.843   5.253   4.832
 6588SOL     OW20662   1.000   1.842   0.367
 6588SOL    HW120663   1.094   1.854   0.400
 6588SOL    HW220664   0.970   1.927   0.325
 6589SOL     OW20665   6.475   6.276   1.787
 6589SOL    HW120666   6.562   6.275   1.837
 6589SOL    HW220667   6.407   6.327   1.840
 6590SOL     OW20668   1.260   6.095   4.523
 6590SOL    HW120669   1.347   6.102   4.572
 6590SOL    HW220670   1.236   6.184   4.484
 6591SOL     OW20671   6.187   3.281   3.934
 6591SOL    HW120672   6.221   3.243   4.020
 6591SOL    HW220673   6.264   3.305   3.875
 6592SOL     OW20674   6.359   0.340   4.016
 6592SOL    HW120675   6.303   0.267   3.977
 6592SOL    HW220676   6.371   0.324   4.114
 6593SOL     OW20677   2.222   1.437   1.936
 6593SOL    HW120678   2.248   1.389   1.852
 6593SOL    HW220679   2.127   1.417   1.957
 6594SOL     OW20680   5.340   6.937   6.860
 6594SOL    HW120681   5.329   6.849   6.812
 6594SOL    HW220682   5.339   6.922   6.959
 6595SOL     OW20683   1.027   1.889   5.220
 6595SOL    HW120684   1.006   1.985   5.240
 6595SOL    HW220685   1.096   1.885   5.147
 6596SOL     OW20686   4.943   1.105   2.420
 6596SOL    HW120687   4.960   1.200   2.447
 6596SOL    HW220688   4.930   1.050   2.502
 6597SOL     OW20689   0.996   4.485   0.930
 6597SOL    HW120690   1.065   4.452   0.994
 6597SOL    HW220691   1.001   4.432   0.845
 6598SOL     OW20692   1.052   5.262   3.245
 6598SOL    HW120693   1.074   5.360   3.246
 6598SOL    HW220694   1.133   5.210   3.274
 6599SOL     OW20695   0.473   5.844   6.336
 6599SOL    HW120696   0.421   5.764   6.306
 6599SOL    HW220697   0.493   5.838   6.433
 6600SOL     OW20698   4.771   6.723   4.810
 6600SOL    HW120699   4.853   6.698   4.760
 6600SOL    HW220700   4.711   6.777   4.751
 6601SOL     OW20701   1.333   2.744   1.973
 6601SOL    HW120702   1.428   2.716   1.985
 6601SOL    HW220703   1.298   2.708   1.887
 6602SOL     OW20704   6.873   5.429   1.137
 6602SOL    HW120705   6.868   5.330   1.126
 6602SOL    HW220706   6.917   5.469   1.056
 6603SOL     OW20707   0.190   4.490   2.041
 6603SOL    HW120708   0.254   4.470   1.967
 6603SOL    HW220709   0.219   4.442   2.124
 6604SOL     OW20710   1.547   5.738   3.135
 6604SOL    HW120711   1.640   5.762   3.163
 6604SOL    HW220712   1.545   5.714   3.038
 6605SOL     OW20713   0.098   5.143   1.264
 6605SOL    HW120714   0.030   5.071   1.275
 6605SOL    HW220715   0.182   5.105   1.225
 6606SOL     OW20716   1.520   3.804   2.887
 6606SOL    HW120717   1.525   3.711   2.924
 6606SOL    HW220718   1.566   3.807   2.799
 6607SOL     OW20719   6.219   3.130   4.227
 6607SOL    HW120720   6.310   3.118   4.266
 6607SOL    HW220721   6.177   3.212   4.266
 6608SOL     OW20722   1.131   0.259   5.695
 6608SOL    HW120723   1.042   0.296   5.668
 6608SOL    HW220724   1.164   0.307   5.775
 6609SOL     OW20725   3.888   2.387   0.030
 6609SOL    HW120726   3.904   2.411   6.957
 6609SOL    HW220727   3.799   2.422   0.059
 6610SOL     OW20728   2.839   5.907   1.086
 6610SOL    HW120729   2.814   5.810   1.077
 6610SOL    HW220730   2.834   5.934   1.182
 6611SOL     OW20731   3.103   1.517   4.493
 6611SOL    HW120732   3.132   1.609   4.468
 6611SOL    HW220733   3.172   1.475   4.551
 6612SOL     OW20734   1.004   0.058   0.222
 6612SOL    HW120735   1.082   0.112   0.190
 6612SOL    HW220736   0.940   0.045   0.147
 6613SOL     OW20737   4.735   6.210   0.570
 6613SOL    HW120738   4.766   6.241   0.660
 6613SOL    HW220739   4.684   6.125   0.580
 6614SOL     OW20740   4.204   4.680   1.275
 6614SOL    HW120741   4.299   4.655   1.294
 6614SOL    HW220742   4.200   4.743   1.198
 6615SOL     OW20743   3.396   5.433   5.776
 6615SOL    HW120744   3.315   5.385   5.811
 6615SOL    HW220745   3.440   5.482   5.851
 6616SOL     OW20746   4.115   1.291   0.035
 6616SOL    HW120747   4.099   1.390   0.035
 6616SOL    HW220748   4.175   1.268   0.111
 6617SOL     OW20749   3.333   0.817   3.600
 6617SOL    HW120750   3.259   0.865   3.647
 6617SOL    HW220751   3.374   0.750   3.661
 6618SOL     OW20752   5.841   2.272   4.207
 6618SOL    HW120753   5.839   2.175   4.183
 6618SOL    HW220754   5.927   2.294   4.252
 6619SOL     OW20755   5.130   5.151   3.941
 6619SOL    HW120756   5.120   5.077   4.007
 6619SOL    HW220757   5.040   5.187   3.918
 6620SOL     OW20758   1.104   2.815   3.328
 6620SOL    HW120759   1.042   2.867   3.386
 6620SOL    HW220760   1.088   2.839   3.232
 6621SOL     OW20761   2.995   3.323   3.954
 6621SOL    HW120762   2.939   3.398   3.988
 6621SOL    HW220763   2.976   3.308   3.856
 6622SOL     OW20764   0.167   4.770   1.197
 6622SOL    HW120765   0.179   4.842   1.129
 6622SOL    HW220766   0.128   4.808   1.280
 6623SOL     OW20767   2.870   3.616   3.588
 6623SOL    HW120768   2.790   3.668   3.559
 6623SOL    HW220769   2.932   3.677   3.637
 6624SOL     OW20770   2.719   2.153   2.820
 6624SOL    HW120771   2.760   2.195   2.739
 6624SOL    HW220772   2.792   2.118   2.879
 6625SOL     OW20773   6.856   3.833   5.534
 6625SOL    HW120774   6.864   3.759   5.600
 6625SOL    HW220775   6.790   3.901   5.566
 6626SOL     OW20776   3.243   5.636   5.123
 6626SOL    HW120777   3.280   5.727   5.144
 6626SOL    HW220778   3.271   5.610   5.031
 6627SOL     OW20779   2.611   6.000   4.274
 6627SOL    HW120780   2.609   6.006   4.374
 6627SOL    HW220781   2.629   5.906   4.246
 6628SOL     OW20782   3.662   0.165   3.157
 6628SOL    HW120783   3.592   0.228   3.125
 6628SOL    HW220784   3.741   0.217   3.190
 6629SOL     OW20785   4.662   5.398   5.165
 6629SOL    HW120786   4.582   5.399   5.105
 6629SOL    HW220787   4.729   5.333   5.130
 6630SOL     OW20788   1.582   0.829   0.242
 6630SOL    HW120789   1.680   0.805   0.242
 6630SOL    HW220790   1.568   0.913   0.294
 6631SOL     OW20791   2.335   3.119   6.014
 6631SOL    HW120792   2.323   3.148   5.919
 6631SOL    HW220793   2.410   3.171   6.055
 6632SOL     OW20794   1.180   0.555   6.825
 6632SOL    HW120795   1.234   0.551   6.909
 6632SOL    HW220796   1.145   0.648   6.812
 6633SOL     OW20797   4.243   5.447   6.386
 6633SOL    HW120798   4.280   5.515   6.323
 6633SOL    HW220799   4.315   5.381   6.409
 6634SOL     OW20800   3.190   2.113   4.127
 6634SOL    HW120801   3.287   2.120   4.102
 6634SOL    HW220802   3.133   2.142   4.050
 6635SOL     OW20803   5.028   5.303   5.409
 6635SOL    HW120804   4.979   5.379   5.366
 6635SOL    HW220805   5.092   5.263   5.343
 6636SOL     OW20806   4.254   1.204   0.280
 6636SOL    HW120807   4.333   1.150   0.309
 6636SOL    HW220808   4.266   1.299   0.309
 6637SOL     OW20809   0.010   1.898   7.001
 6637SOL    HW120810   0.103   1.927   7.022
 6637SOL    HW220811   0.011   1.807   6.960
 6638SOL     OW20812   3.279   3.454   3.518
 6638SOL    HW120813   3.310   3.547   3.496
 6638SOL    HW220814   3.344   3.411   3.580
 6639SOL     OW20815   5.135   2.348   1.545
 6639SOL    HW120816   5.193   2.276   1.505
 6639SOL    HW220817   5.183   2.389   1.622
 6640SOL     OW20818   1.442   4.143   4.921
 6640SOL    HW120819   1.430   4.047   4.949
 6640SOL    HW220820   1.415   4.203   4.996
 6641SOL     OW20821   6.102   2.335   0.092
 6641SOL    HW120822   6.068   2.417   0.139
 6641SOL    HW220823   6.202   2.334   0.095
 6642SOL     OW20824   1.315   5.838   6.857
 6642SOL    HW120825   1.379   5.814   6.930
 6642SOL    HW220826   1.260   5.758   6.834
 6643SOL     OW20827   3.092   6.237   6.159
 6643SOL    HW120828   3.153   6.183   6.217
 6643SOL    HW220829   3.040   6.302   6.214
 6644SOL     OW20830   2.086   6.909   4.315
 6644SOL    HW120831   2.179   6.909   4.350
 6644SOL    HW220832   2.066   6.997   4.272
 6645SOL     OW20833   5.062   2.616   6.027
 6645SOL    HW120834   5.128   2.544   6.045
 6645SOL    HW220835   5.031   2.655   6.114
 6646SOL     OW20836   4.240   0.052   5.193
 6646SOL    HW120837   4.322   0.091   5.151
 6646SOL    HW220838   4.196   7.011   5.129
 6647SOL     OW20839   3.841   4.997   0.255
 6647SOL    HW120840   3.768   5.037   0.199
 6647SOL    HW220841   3.892   5.070   0.300
 6648SOL     OW20842   2.964   5.560   5.111
 6648SOL    HW120843   3.061   5.585   5.113
 6648SOL    HW220844   2.950   5.476   5.163
 6649SOL     OW20845   4.490   2.852   5.944
 6649SOL    HW120846   4.550   2.779   5.975
 6649SOL    HW220847   4.541   2.938   5.941
 6650SOL     OW20848   1.770   1.071   5.520
 6650SOL    HW120849   1.859   1.027   5.528
 6650SOL    HW220850   1.765   1.118   5.432
 6651SOL     OW20851   0.110   1.869   5.629
 6651SOL    HW120852   0.168   1.892   5.707
 6651SOL    HW220853   0.043   1.942   5.616
 6652SOL     OW20854   0.103   4.304   0.155
 6652SOL    HW120855   0.120   4.347   0.066
 6652SOL    HW220856   0.183   4.314   0.213
 6653SOL     OW20857   5.659   4.402   6.804
 6653SOL    HW120858   5.649   4.380   6.707
 6653SOL    HW220859   5.644   4.320   6.859
 6654SOL     OW20860   6.338   2.897   3.124
 6654SOL    HW120861   6.284   2.856   3.198
 6654SOL    HW220862   6.378   2.983   3.155
 6655SOL     OW20863   0.162   6.106   1.737
 6655SOL    HW120864   0.081   6.164   1.748
 6655SOL    HW220865   0.239   6.162   1.706
 6656SOL     OW20866   4.083   1.209   2.798
 6656SOL    HW120867   4.122   1.166   2.879
 6656SOL    HW220868   4.126   1.170   2.716
 6657SOL     OW20869   5.250   1.519   4.900
 6657SOL    HW120870   5.297   1.572   4.830
 6657SOL    HW220871   5.152   1.536   4.895
 6658SOL     OW20872   6.832   5.936   5.230
 6658SOL    HW120873   6.818   6.024   5.274
 6658SOL    HW220874   6.832   5.947   5.131
 6659SOL     OW20875   0.815   5.608   1.360
 6659SOL    HW120876   0.818   5.531   1.297
 6659SOL    HW220877   0.743   5.593   1.427
 6660SOL     OW20878   0.152   0.515   4.908
 6660SOL    HW120879   0.065   0.504   4.955
 6660SOL    HW220880   0.217   0.448   4.943
 6661SOL     OW20881   4.195   5.709   3.584
 6661SOL    HW120882   4.279   5.714   3.639
 6661SOL    HW220883   4.166   5.801   3.559
 6662SOL     OW20884   3.386   6.445   2.490
 6662SOL    HW120885   3.322   6.448   2.413
 6662SOL    HW220886   3.404   6.350   2.514
 6663SOL     OW20887   1.371   4.368   5.764
 6663SOL    HW120888   1.308   4.404   5.695
 6663SOL    HW220889   1.465   4.396   5.740
 6664SOL     OW20890   3.334   0.372   1.659
 6664SOL    HW120891   3.406   0.370   1.728
 6664SOL    HW220892   3.358   0.313   1.583
 6665SOL     OW20893   2.424   0.601   6.875
 6665SOL    HW120894   2.503   0.633   6.822
 6665SOL    HW220895   2.409   0.504   6.858
 6666SOL     OW20896   3.677   6.424   5.493
 6666SOL    HW120897   3.585   6.396   5.463
 6666SOL    HW220898   3.722   6.346   5.537
 6667SOL     OW20899   1.530   5.486   6.456
 6667SOL    HW120900   1.553   5.476   6.359
 6667SOL    HW220901   1.508   5.581   6.476
 6668SOL     OW20902   6.761   3.915   0.050
 6668SOL    HW120903   6.782   3.879   6.982
 6668SOL    HW220904   6.696   3.854   0.095
 6669SOL     OW20905   1.730   2.287   3.388
 6669SOL    HW120906   1.738   2.295   3.289
 6669SOL    HW220907   1.728   2.379   3.428
 6670SOL     OW20908   3.369   3.591   0.596
 6670SOL    HW120909   3.325   3.647   0.527
 6670SOL    HW220910   3.381   3.644   0.680
 6671SOL     OW20911   4.747   5.169   0.214
 6671SOL    HW120912   4.797   5.149   0.129
 6671SOL    HW220913   4.664   5.113   0.218
 6672SOL     OW20914   1.291   2.189   0.901
 6672SOL    HW120915   1.366   2.220   0.960
 6672SOL    HW220916   1.230   2.131   0.954
 6673SOL     OW20917   6.564   2.815   4.017
 6673SOL    HW120918   6.592   2.721   3.995
 6673SOL    HW220919   6.467   2.816   4.042
 6674SOL     OW20920   6.844   0.724   0.759
 6674SOL    HW120921   6.782   0.703   0.833
 6674SOL    HW220922   6.938   0.726   0.793
 6675SOL     OW20923   5.093   0.418   0.408
 6675SOL    HW120924   5.061   0.372   0.491
 6675SOL    HW220925   5.173   0.369   0.372
 6676SOL     OW20926   0.901   3.695   4.416
 6676SOL    HW120927   0.993   3.682   4.380
 6676SOL    HW220928   0.880   3.621   4.480
 6677SOL     OW20929   0.546   1.777   6.340
 6677SOL    HW120930   0.528   1.745   6.247
 6677SOL    HW220931   0.611   1.716   6.384
 6678SOL     OW20932   2.921   4.282   6.383
 6678SOL    HW120933   2.855   4.342   6.338
 6678SOL    HW220934   2.956   4.215   6.318
 6679SOL     OW20935   1.643   0.407   3.782
 6679SOL    HW120936   1.684   0.355   3.858
 6679SOL    HW220937   1.716   0.446   3.726
 6680SOL     OW20938   6.500   5.210   1.256
 6680SOL    HW120939   6.495   5.217   1.157
 6680SOL    HW220940   6.453   5.287   1.299
 6681SOL     OW20941   2.702   5.825   1.752
 6681SOL    HW120942   2.609   5.813   1.718
 6681SOL    HW220943   2.750   5.737   1.749
 6682SOL     OW20944   3.164   5.316   5.927
 6682SOL    HW120945   3.083   5.260   5.912
 6682SOL    HW220946   3.188   5.316   6.024
 6683SOL     OW20947   0.012   5.361   5.871
 6683SOL    HW120948   6.942   5.347   5.835
 6683SOL    HW220949   0.012   5.351   5.970
 6684SOL     OW20950   2.562   5.755   0.163
 6684SOL    HW120951   2.487   5.690   0.162
 6684SOL    HW220952   2.612   5.749   0.076
 6685SOL     OW20953   4.915   2.700   0.876
 6685SOL    HW120954   4.981   2.737   0.941
 6685SOL    HW220955   4.951   2.708   0.783
 6686SOL     OW20956   4.895   4.902   5.074
 6686SOL    HW120957   4.980   4.858   5.103
 6686SOL    HW220958   4.834   4.913   5.153
 6687SOL     OW20959   0.160   1.365   1.551
 6687SOL    HW120960   0.081   1.349   1.611
 6687SOL    HW220961   0.135   1.431   1.480
 6688SOL     OW20962   4.164   5.656   0.219
 6688SOL    HW120963   4.196   5.736   0.270
 6688SOL    HW220964   4.235   5.586   0.219
 6689SOL     OW20965   2.963   4.253   5.537
 6689SOL    HW120966   3.034   4.253   5.466
 6689SOL    HW220967   2.963   4.166   5.585
 6690SOL     OW20968   0.533   0.954   0.247
 6690SOL    HW120969   0.610   0.937   0.185
 6690SOL    HW220970   0.548   1.039   0.297
 6691SOL     OW20971   2.736   1.532   2.436
 6691SOL    HW120972   2.814   1.476   2.408
 6691SOL    HW220973   2.742   1.551   2.534
 6692SOL     OW20974   4.404   6.046   2.541
 6692SOL    HW120975   4.431   6.141   2.556
 6692SOL    HW220976   4.327   6.023   2.601
 6693SOL     OW20977   3.362   1.078   5.279
 6693SOL    HW120978   3.303   1.084   5.359
 6693SOL    HW220979   3.439   1.017   5.299
 6694SOL     OW20980   4.261   4.022   1.415
 6694SOL    HW120981   4.282   3.926   1.397
 6694SOL    HW220982   4.323   4.081   1.363
 6695SOL     OW20983   2.533   2.481   0.450
 6695SOL    HW120984   2.570   2.532   0.372
 6695SOL    HW220985   2.451   2.527   0.485
 6696SOL     OW20986   4.114   3.346   4.373
 6696SOL    HW120987   4.131   3.333   4.275
 6696SOL    HW220988   4.109   3.444   4.393
 6697SOL     OW20989   4.653   2.014   2.003
 6697SOL    HW120990   4.752   2.026   2.011
 6697SOL    HW220991   4.608   2.051   2.085
 6698SOL     OW20992   3.710   4.392   1.503
 6698SOL    HW120993   3.641   4.412   1.573
 6698SOL    HW220994   3.801   4.390   1.545
 6699SOL     OW20995   1.248   3.349   5.823
 6699SOL    HW120996   1.337   3.395   5.826
 6699SOL    HW220997   1.189   3.386   5.894
 6700SOL     OW20998   5.779   0.045   0.909
 6700SOL    HW120999   5.688   0.052   0.949
 6700SOL    HW221000   5.787   6.981   0.859
 6701SOL     OW21001   6.047   6.829   1.796
 6701SOL    HW121002   6.021   6.826   1.892
 6701SOL    HW221003   6.146   6.831   1.788
 6702SOL     OW21004   3.527   2.846   1.063
 6702SOL    HW121005   3.600   2.789   1.100
 6702SOL    HW221006   3.453   2.787   1.030
 6703SOL     OW21007   0.243   1.214   0.432
 6703SOL    HW121008   0.215   1.296   0.382
 6703SOL    HW221009   0.206   1.133   0.387
 6704SOL     OW21010   3.515   6.988   5.238
 6704SOL    HW121011   3.447   0.025   5.194
 6704SOL    HW221012   3.482   6.893   5.238
 6705SOL     OW21013   6.955   4.406   2.392
 6705SOL    HW121014   6.980   4.333   2.328
 6705SOL    HW221015   7.009   4.396   2.476
 6706SOL     OW21016   0.252   6.932   1.127
 6706SOL    HW121017   0.258   6.838   1.160
 6706SOL    HW221018   0.156   6.955   1.108
 6707SOL     OW21019   3.863   1.338   2.398
 6707SOL    HW121020   3.963   1.342   2.402
 6707SOL    HW221021   3.828   1.291   2.479
 6708SOL     OW21022   0.763   3.317   6.970
 6708SOL    HW121023   0.720   3.359   0.027
 6708SOL    HW221024   0.852   3.281   6.996
 6709SOL     OW21025   2.243   4.150   2.204
 6709SOL    HW121026   2.313   4.122   2.138
 6709SOL    HW221027   2.197   4.232   2.171
 6710SOL     OW21028   4.605   1.499   0.833
 6710SOL    HW121029   4.525   1.549   0.801
 6710SOL    HW221030   4.585   1.401   0.834
 6711SOL     OW21031   3.585   5.818   5.911
 6711SOL    HW121032   3.575   5.897   5.973
 6711SOL    HW221033   3.497   5.796   5.871
 6712SOL     OW21034   5.346   4.673   1.348
 6712SOL    HW121035   5.278   4.675   1.421
 6712SOL    HW221036   5.410   4.749   1.359
 6713SOL     OW21037   1.312   4.857   4.668
 6713SOL    HW121038   1.383   4.825   4.606
 6713SOL    HW221039   1.307   4.797   4.747
 6714SOL     OW21040   5.410   1.162   1.674
 6714SOL    HW121041   5.425   1.157   1.575
 6714SOL    HW221042   5.320   1.124   1.695
 6715SOL     OW21043   1.712   0.327   6.454
 6715SOL    HW121044   1.749   0.419   6.467
 6715SOL    HW221045   1.627   0.318   6.505
 6716SOL     OW21046   0.432   5.714   2.035
 6716SOL    HW121047   0.427   5.787   2.103
 6716SOL    HW221048   0.521   5.668   2.040
 6717SOL     OW21049   5.658   1.874   5.796
 6717SOL    HW121050   5.691   1.782   5.820
 6717SOL    HW221051   5.681   1.893   5.701
 6718SOL     OW21052   4.875   1.414   0.918
 6718SOL    HW121053   4.781   1.445   0.904
 6718SOL    HW221054   4.914   1.461   0.997
 6719SOL     OW21055   1.657   1.699   0.021
 6719SOL    HW121056   1.741   1.647   0.035
 6719SOL    HW221057   1.578   1.638   0.026
 6720SOL     OW21058   1.510   0.860   6.034
 6720SOL    HW121059   1.442   0.934   6.028
 6720SOL    HW221060   1.464   0.773   6.017
 6721SOL     OW21061   6.403   6.900   1.451
 6721SOL    HW121062   6.351   6.815   1.457
 6721SOL    HW221063   6.359   6.971   1.506
 6722SOL     OW21064   5.353   3.600   0.333
 6722SOL    HW121065   5.374   3.523   0.272
 6722SOL    HW221066   5.422   3.607   0.404
 6723SOL     OW21067   1.238   3.193   5.593
 6723SOL    HW121068   1.323   3.184   5.540
 6723SOL    HW221069   1.259   3.235   5.682
 6724SOL     OW21070   2.115   4.024   4.208
 6724SOL    HW121071   2.076   4.114   4.223
 6724SOL    HW221072   2.060   3.955   4.257
 6725SOL     OW21073   5.062   2.838   3.846
 6725SOL    HW121074   5.081   2.836   3.944
 6725SOL    HW221075   4.968   2.869   3.830
 6726SOL     OW21076   0.586   0.814   5.956
 6726SOL    HW121077   0.679   0.851   5.948
 6726SOL    HW221078   0.589   0.726   6.004
 6727SOL     OW21079   1.558   5.321   5.574
 6727SOL    HW121080   1.468   5.311   5.532
 6727SOL    HW221081   1.618   5.248   5.542
 6728SOL     OW21082   3.967   1.374   3.674
 6728SOL    HW121083   3.911   1.326   3.608
 6728SOL    HW221084   4.059   1.388   3.636
 6729SOL     OW21085   3.913   1.012   2.227
 6729SOL    HW121086   3.988   1.058   2.179
 6729SOL    HW221087   3.913   1.040   2.323
 6730SOL     OW21088   6.586   1.941   0.533
 6730SOL    HW121089   6.649   1.909   0.604
 6730SOL    HW221090   6.518   2.002   0.574
 6731SOL     OW21091   4.247   0.492   6.173
 6731SOL    HW121092   4.250   0.415   6.237
 6731SOL    HW221093   4.242   0.458   6.079
 6732SOL     OW21094   6.840   4.832   5.687
 6732SOL    HW121095   6.906   4.890   5.639
 6732SOL    HW221096   6.848   4.848   5.786
 6733SOL     OW21097   4.737   4.999   5.278
 6733SOL    HW121098   4.690   5.020   5.193
 6733SOL    HW221099   4.707   5.061   5.350
 6734SOL     OW21100   5.882   2.012   4.477
 6734SOL    HW121101   5.879   2.101   4.523
 6734SOL    HW221102   5.920   2.024   4.385
 6735SOL     OW21103   6.173   2.522   3.507
 6735SOL    HW121104   6.193   2.488   3.599
 6735SOL    HW221105   6.176   2.446   3.442
 6736SOL     OW21106   3.975   3.544   0.621
 6736SOL    HW121107   4.011   3.523   0.530
 6736SOL    HW221108   3.877   3.527   0.624
 6737SOL     OW21109   6.555   3.428   0.614
 6737SOL    HW121110   6.619   3.351   0.619
 6737SOL    HW221111   6.468   3.401   0.656
 6738SOL     OW21112   1.910   6.147   4.223
 6738SOL    HW121113   1.971   6.133   4.145
 6738SOL    HW221114   1.955   6.115   4.306
 6739SOL     OW21115   6.937   0.296   5.598
 6739SOL    HW121116   6.846   0.261   5.617
 6739SOL    HW221117   6.943   0.323   5.502
 6740SOL     OW21118   7.013   0.211   2.409
 6740SOL    HW121119   0.042   0.290   2.442
 6740SOL    HW221120   6.933   0.241   2.358
 6741SOL     OW21121   3.645   1.799   0.395
 6741SOL    HW121122   3.554   1.781   0.357
 6741SOL    HW221123   3.704   1.835   0.323
 6742SOL     OW21124   5.969   4.395   3.223
 6742SOL    HW121125   5.941   4.488   3.199
 6742SOL    HW221126   5.937   4.373   3.315
 6743SOL     OW21127   3.941   4.072   0.131
 6743SOL    HW121128   3.977   4.005   0.066
 6743SOL    HW221129   3.889   4.024   0.203
 6744SOL     OW21130   6.173   6.680   5.775
 6744SOL    HW121131   6.173   6.676   5.875
 6744SOL    HW221132   6.226   6.603   5.739
 6745SOL     OW21133   0.079   4.148   5.229
 6745SOL    HW121134   0.103   4.085   5.303
 6745SOL    HW221135   0.162   4.174   5.180
 6746SOL     OW21136   1.054   2.577   3.081
 6746SOL    HW121137   1.131   2.537   3.031
 6746SOL    HW221138   1.024   2.514   3.152
 6747SOL     OW21139   0.949   6.353   5.596
 6747SOL    HW121140   0.909   6.445   5.601
 6747SOL    HW221141   0.977   6.334   5.501
 6748SOL     OW21142   1.804   0.447   5.146
 6748SOL    HW121143   1.829   0.543   5.156
 6748SOL    HW221144   1.879   0.398   5.100
 6749SOL     OW21145   4.381   4.785   2.373
 6749SOL    HW121146   4.361   4.743   2.284
 6749SOL    HW221147   4.459   4.847   2.364
 6750SOL     OW21148   3.573   0.905   5.080
 6750SOL    HW121149   3.626   0.979   5.040
 6750SOL    HW221150   3.585   0.904   5.179
 6751SOL     OW21151   4.631   0.223   4.739
 6751SOL    HW121152   4.687   0.276   4.803
 6751SOL    HW221153   4.542   0.204   4.781
 6752SOL     OW21154   2.005   4.758   2.361
 6752SOL    HW121155   2.015   4.660   2.376
 6752SOL    HW221156   2.050   4.784   2.276
 6753SOL     OW21157   3.923   3.212   6.909
 6753SOL    HW121158   3.983   3.212   6.829
 6753SOL    HW221159   3.956   3.280   6.975
 6754SOL     OW21160   6.137   1.501   0.617
 6754SOL    HW121161   6.049   1.545   0.596
 6754SOL    HW221162   6.193   1.498   0.534
 6755SOL     OW21163   2.930   5.991   6.105
 6755SOL    HW121164   3.001   5.938   6.058
 6755SOL    HW221165   2.955   6.088   6.102
 6756SOL     OW21166   3.772   2.820   6.457
 6756SOL    HW121167   3.808   2.819   6.550
 6756SOL    HW221168   3.766   2.915   6.425
 6757SOL     OW21169   4.208   0.312   1.386
 6757SOL    HW121170   4.303   0.339   1.404
 6757SOL    HW221171   4.206   0.250   1.308
 6758SOL     OW21172   5.560   2.559   3.280
 6758SOL    HW121173   5.605   2.598   3.360
 6758SOL    HW221174   5.475   2.515   3.307
 6759SOL     OW21175   0.595   1.833   2.507
 6759SOL    HW121176   0.583   1.926   2.474
 6759SOL    HW221177   0.506   1.794   2.530
 6760SOL     OW21178   5.179   2.167   4.828
 6760SOL    HW121179   5.089   2.124   4.822
 6760SOL    HW221180   5.246   2.112   4.779
 6761SOL     OW21181   3.597   1.668   5.298
 6761SOL    HW121182   3.526   1.731   5.330
 6761SOL    HW221183   3.568   1.627   5.211
 6762SOL     OW21184   6.700   5.234   4.620
 6762SOL    HW121185   6.737   5.141   4.616
 6762SOL    HW221186   6.712   5.270   4.712
 6763SOL     OW21187   6.036   6.330   4.349
 6763SOL    HW121188   6.063   6.368   4.261
 6763SOL    HW221189   5.937   6.319   4.352
 6764SOL     OW21190   1.148   4.917   1.128
 6764SOL    HW121191   1.103   4.886   1.212
 6764SOL    HW221192   1.130   4.851   1.055
 6765SOL     OW21193   0.201   3.633   2.606
 6765SOL    HW121194   0.200   3.554   2.668
 6765SOL    HW221195   0.136   3.616   2.531
 6766SOL     OW21196   5.686   0.315   1.381
 6766SOL    HW121197   5.769   0.269   1.414
 6766SOL    HW221198   5.619   0.246   1.352
 6767SOL     OW21199   3.133   0.410   0.740
 6767SOL    HW121200   3.141   0.465   0.823
 6767SOL    HW221201   3.196   0.445   0.671
 6768SOL     OW21202   1.650   0.769   6.941
 6768SOL    HW121203   1.748   0.756   6.921
 6768SOL    HW221204   1.637   0.774   0.017
 6769SOL     OW21205   4.600   2.835   1.698
 6769SOL    HW121206   4.678   2.774   1.682
 6769SOL    HW221207   4.626   2.908   1.761
 6770SOL     OW21208   0.155   0.869   1.485
 6770SOL    HW121209   0.100   0.787   1.499
 6770SOL    HW221210   0.165   0.887   1.387
 6771SOL     OW21211   4.706   1.808   3.242
 6771SOL    HW121212   4.650   1.835   3.163
 6771SOL    HW221213   4.803   1.814   3.217
 6772SOL     OW21214   3.575   1.391   3.985
 6772SOL    HW121215   3.624   1.305   3.994
 6772SOL    HW221216   3.574   1.439   4.072
 6773SOL     OW21217   0.316   3.963   1.063
 6773SOL    HW121218   0.372   3.948   1.144
 6773SOL    HW221219   0.308   3.878   1.012
 6774SOL     OW21220   0.751   2.611   6.284
 6774SOL    HW121221   0.693   2.572   6.211
 6774SOL    HW221222   0.694   2.638   6.361
 6775SOL     OW21223   2.125   4.628   0.416
 6775SOL    HW121224   2.090   4.646   0.509
 6775SOL    HW221225   2.123   4.530   0.398
 6776SOL     OW21226   5.952   5.751   0.038
 6776SOL    HW121227   5.944   5.773   6.964
 6776SOL    HW221228   5.899   5.816   0.092
 6777SOL     OW21229   4.810   5.130   6.592
 6777SOL    HW121230   4.848   5.038   6.596
 6777SOL    HW221231   4.855   5.182   6.519
 6778SOL     OW21232   0.368   5.689   3.115
 6778SOL    HW121233   0.327   5.683   3.205
 6778SOL    HW221234   0.389   5.785   3.095
 6779SOL     OW21235   0.063   4.247   6.673
 6779SOL    HW121236   0.023   4.257   6.581
 6779SOL    HW221237   0.155   4.285   6.674
 6780SOL     OW21238   0.713   2.549   1.903
 6780SOL    HW121239   0.727   2.641   1.866
 6780SOL    HW221240   0.623   2.516   1.877
 6781SOL     OW21241   5.932   4.605   5.400
 6781SOL    HW121242   5.952   4.670   5.327
 6781SOL    HW221243   5.916   4.655   5.485
 6782SOL     OW21244   5.868   1.786   2.847
 6782SOL    HW121245   5.843   1.711   2.909
 6782SOL    HW221246   5.911   1.859   2.899
 6783SOL     OW21247   0.349   6.089   6.817
 6783SOL    HW121248   0.301   6.167   6.857
 6783SOL    HW221249   0.288   6.041   6.754
 6784SOL     OW21250   3.656   3.064   0.445
 6784SOL    HW121251   3.561   3.096   0.456
 6784SOL    HW221252   3.657   2.965   0.439
 6785SOL     OW21253   5.619   6.031   1.954
 6785SOL    HW121254   5.637   5.933   1.967
 6785SOL    HW221255   5.703   6.078   1.930
 6786SOL     OW21256   1.678   3.051   6.435
 6786SOL    HW121257   1.584   3.086   6.427
 6786SOL    HW221258   1.740   3.110   6.384
 6787SOL     OW21259   1.263   3.622   1.939
 6787SOL    HW121260   1.234   3.592   2.030
 6787SOL    HW221261   1.355   3.588   1.921
 6788SOL     OW21262   2.917   5.023   0.823
 6788SOL    HW121263   2.847   5.073   0.773
 6788SOL    HW221264   2.876   4.976   0.901
 6789SOL     OW21265   0.157   6.176   3.532
 6789SOL    HW121266   0.240   6.221   3.566
 6789SOL    HW221267   0.112   6.235   3.466
 6790SOL     OW21268   1.469   3.486   0.189
 6790SOL    HW121269   1.410   3.436   0.252
 6790SOL    HW221270   1.472   3.582   0.214
 6791SOL     OW21271   3.800   3.698   6.390
 6791SOL    HW121272   3.789   3.610   6.435
 6791SOL    HW221273   3.798   3.685   6.290
 6792SOL     OW21274   0.286   4.739   0.731
 6792SOL    HW121275   0.276   4.641   0.714
 6792SOL    HW221276   0.356   4.777   0.670
 6793SOL     OW21277   6.136   1.838   0.922
 6793SOL    HW121278   6.095   1.888   0.998
 6793SOL    HW221279   6.065   1.794   0.867
 6794SOL     OW21280   4.594   0.864   4.899
 6794SOL    HW121281   4.624   0.790   4.959
 6794SOL    HW221282   4.528   0.921   4.948
 6795SOL     OW21283   2.835   6.032   7.004
 6795SOL    HW121284   2.811   6.045   0.077
 6795SOL    HW221285   2.909   6.095   6.979
 6796SOL     OW21286   4.147   2.252   3.041
 6796SOL    HW121287   4.063   2.242   2.988
 6796SOL    HW221288   4.127   2.301   3.126
 6797SOL     OW21289   6.942   3.254   2.341
 6797SOL    HW121290   6.927   3.203   2.426
 6797SOL    HW221291   0.000   3.218   2.294
 6798SOL     OW21292   6.487   6.891   2.019
 6798SOL    HW121293   6.432   6.879   2.102
 6798SOL    HW221294   6.584   6.894   2.042
 6799SOL     OW21295   5.363   5.962   1.811
 6799SOL    HW121296   5.299   6.012   1.869
 6799SOL    HW221297   5.455   5.969   1.848
 6800SOL     OW21298   3.136   4.399   0.076
 6800SOL    HW121299   3.095   4.312   0.103
 6800SOL    HW221300   3.064   4.462   0.045
 6801SOL     OW21301   1.356   1.942   2.714
 6801SOL    HW121302   1.409   2.022   2.744
 6801SOL    HW221303   1.343   1.880   2.791
 6802SOL     OW21304   2.033   5.102   2.827
 6802SOL    HW121305   2.004   5.053   2.745
 6802SOL    HW221306   2.111   5.161   2.805
 6803SOL     OW21307   5.190   2.656   0.144
 6803SOL    HW121308   5.099   2.667   0.184
 6803SOL    HW221309   5.247   2.734   0.169
 6804SOL     OW21310   1.621   6.925   3.997
 6804SOL    HW121311   1.583   6.845   3.951
 6804SOL    HW221312   1.600   7.007   3.944
 6805SOL     OW21313   5.004   0.842   4.647
 6805SOL    HW121314   4.984   0.744   4.639
 6805SOL    HW221315   5.103   0.856   4.651
 6806SOL     OW21316   4.692   0.244   5.518
 6806SOL    HW121317   4.789   0.262   5.499
 6806SOL    HW221318   4.657   0.177   5.453
 6807SOL     OW21319   3.278   3.000   0.008
 6807SOL    HW121320   3.189   3.045   7.017
 6807SOL    HW221321   3.348   3.048   6.977
 6808SOL     OW21322   1.932   3.013   4.879
 6808SOL    HW121323   1.945   3.110   4.898
 6808SOL    HW221324   2.021   2.968   4.870
 6809SOL     OW21325   2.216   3.951   6.645
 6809SOL    HW121326   2.290   3.902   6.690
 6809SOL    HW221327   2.135   3.893   6.640
 6810SOL     OW21328   5.459   2.111   2.652
 6810SOL    HW121329   5.452   2.044   2.725
 6810SOL    HW221330   5.462   2.203   2.691
 6811SOL     OW21331   5.168   5.480   1.651
 6811SOL    HW121332   5.088   5.515   1.603
 6811SOL    HW221333   5.185   5.535   1.733
 6812SOL     OW21334   3.643   2.875   2.533
 6812SOL    HW121335   3.601   2.891   2.444
 6812SOL    HW221336   3.680   2.782   2.537
 6813SOL     OW21337   4.712   3.962   1.506
 6813SOL    HW121338   4.784   3.952   1.574
 6813SOL    HW221339   4.627   3.990   1.551
 6814SOL     OW21340   2.356   4.075   0.468
 6814SOL    HW121341   2.258   4.063   0.456
 6814SOL    HW221342   2.381   4.057   0.563
 6815SOL     OW21343   2.350   0.005   1.998
 6815SOL    HW121344   2.303   0.043   1.918
 6815SOL    HW221345   2.408   0.075   2.039
 6816SOL     OW21346   6.426   4.155   1.573
 6816SOL    HW121347   6.384   4.079   1.523
 6816SOL    HW221348   6.448   4.126   1.666
 6817SOL     OW21349   0.344   1.977   5.804
 6817SOL    HW121350   0.416   1.910   5.823
 6817SOL    HW221351   0.290   1.993   5.887
 6818SOL     OW21352   3.292   5.869   2.511
 6818SOL    HW121353   3.388   5.896   2.508
 6818SOL    HW221354   3.240   5.935   2.564
 6819SOL     OW21355   3.084   1.083   4.016
 6819SOL    HW121356   2.994   1.127   4.011
 6819SOL    HW221357   3.155   1.154   4.019
 6820SOL     OW21358   1.696   4.407   3.768
 6820SOL    HW121359   1.612   4.357   3.746
 6820SOL    HW221360   1.696   4.429   3.865
 6821SOL     OW21361   2.420   1.932   4.620
 6821SOL    HW121362   2.321   1.928   4.630
 6821SOL    HW221363   2.455   1.843   4.592
 6822SOL     OW21364   4.888   2.349   6.083
 6822SOL    HW121365   4.790   2.332   6.069
 6822SOL    HW221366   4.904   2.447   6.093
 6823SOL     OW21367   3.050   2.806   1.820
 6823SOL    HW121368   2.970   2.758   1.783
 6823SOL    HW221369   3.022   2.896   1.853
 6824SOL     OW21370   1.325   4.651   6.453
 6824SOL    HW121371   1.351   4.605   6.368
 6824SOL    HW221372   1.313   4.749   6.436
 6825SOL     OW21373   4.694   0.235   4.250
 6825SOL    HW121374   4.639   0.317   4.268
 6825SOL    HW221375   4.782   0.261   4.211
 6826SOL     OW21376   1.087   2.841   3.017
 6826SOL    HW121377   1.067   2.746   3.043
 6826SOL    HW221378   1.155   2.842   2.944
 6827SOL     OW21379   5.856   6.303   5.357
 6827SOL    HW121380   5.921   6.227   5.362
 6827SOL    HW221381   5.769   6.275   5.396
 6828SOL     OW21382   1.806   2.039   1.534
 6828SOL    HW121383   1.820   2.040   1.435
 6828SOL    HW221384   1.885   2.078   1.580
 6829SOL     OW21385   4.984   5.050   3.646
 6829SOL    HW121386   4.996   5.068   3.743
 6829SOL    HW221387   5.071   5.066   3.598
 6830SOL     OW21388   5.472   2.136   4.052
 6830SOL    HW121389   5.480   2.104   4.147
 6830SOL    HW221390   5.422   2.222   4.050
 6831SOL     OW21391   0.027   1.134   5.697
 6831SOL    HW121392   0.069   1.090   5.618
 6831SOL    HW221393   0.097   1.148   5.768
 6832SOL     OW21394   3.035   4.945   2.416
 6832SOL    HW121395   3.083   4.903   2.493
 6832SOL    HW221396   3.087   4.931   2.332
 6833SOL     OW21397   3.906   5.558   0.092
 6833SOL    HW121398   3.989   5.560   0.148
 6833SOL    HW221399   3.902   5.640   0.035
 6834SOL     OW21400   4.166   5.317   2.626
 6834SOL    HW121401   4.225   5.361   2.693
 6834SOL    HW221402   4.149   5.380   2.550
 6835SOL     OW21403   4.069   6.577   4.540
 6835SOL    HW121404   4.097   6.520   4.463
 6835SOL    HW221405   4.023   6.522   4.608
 6836SOL     OW21406   2.968   5.836   6.785
 6836SOL    HW121407   3.018   5.911   6.827
 6836SOL    HW221408   3.027   5.756   6.778
 6837SOL     OW21409   1.066   2.972   2.066
 6837SOL    HW121410   1.152   2.949   2.113
 6837SOL    HW221411   1.064   2.929   1.976
 6838SOL     OW21412   2.712   1.634   0.061
 6838SOL    HW121413   2.677   1.720   0.024
 6838SOL    HW221414   2.649   1.560   0.038
 6839SOL     OW21415   4.168   0.977   1.410
 6839SOL    HW121416   4.178   0.984   1.509
 6839SOL    HW221417   4.074   0.953   1.387
 6840SOL     OW21418   1.101   1.526   6.312
 6840SOL    HW121419   1.054   1.614   6.318
 6840SOL    HW221420   1.161   1.525   6.232
 6841SOL     OW21421   6.695   3.629   6.065
 6841SOL    HW121422   6.695   3.630   6.165
 6841SOL    HW221423   6.722   3.539   6.032
 6842SOL     OW21424   2.258   4.164   3.243
 6842SOL    HW121425   2.315   4.212   3.309
 6842SOL    HW221426   2.257   4.215   3.157
 6843SOL     OW21427   4.046   6.691   0.311
 6843SOL    HW121428   4.056   6.592   0.320
 6843SOL    HW221429   4.010   6.713   0.220
 6844SOL     OW21430   5.443   0.374   5.507
 6844SOL    HW121431   5.361   0.422   5.536
 6844SOL    HW221432   5.479   0.321   5.584
 6845SOL     OW21433   5.159   2.066   2.231
 6845SOL    HW121434   5.193   2.031   2.318
 6845SOL    HW221435   5.227   2.049   2.159
 6846SOL     OW21436   2.243   3.866   0.117
 6846SOL    HW121437   2.202   3.874   0.209
 6846SOL    HW221438   2.250   3.956   0.076
 6847SOL     OW21439   6.902   3.350   3.823
 6847SOL    HW121440   6.884   3.255   3.847
 6847SOL    HW221441   6.944   3.397   3.901
 6848SOL     OW21442   6.259   4.429   3.191
 6848SOL    HW121443   6.263   4.470   3.100
 6848SOL    HW221444   6.166   4.398   3.210
 6849SOL     OW21445   2.851   4.056   6.621
 6849SOL    HW121446   2.910   4.137   6.608
 6849SOL    HW221447   2.779   4.056   6.551
 6850SOL     OW21448   3.916   1.067   4.373
 6850SOL    HW121449   3.961   1.046   4.287
 6850SOL    HW221450   3.842   1.001   4.389
 6851SOL     OW21451   2.212   3.107   3.308
 6851SOL    HW121452   2.202   3.191   3.254
 6851SOL    HW221453   2.176   3.121   3.400
 6852SOL     OW21454   3.206   4.429   0.445
 6852SOL    HW121455   3.150   4.492   0.391
 6852SOL    HW221456   3.243   4.478   0.524
 6853SOL     OW21457   5.085   3.788   6.362
 6853SOL    HW121458   5.096   3.727   6.283
 6853SOL    HW221459   5.151   3.863   6.355
 6854SOL     OW21460   5.579   6.037   6.493
 6854SOL    HW121461   5.630   6.026   6.408
 6854SOL    HW221462   5.524   5.955   6.510
 6855SOL     OW21463   4.195   4.988   3.663
 6855SOL    HW121464   4.227   5.083   3.674
 6855SOL    HW221465   4.237   4.948   3.581
 6856SOL     OW21466   0.240   1.990   6.275
 6856SOL    HW121467   0.288   1.945   6.350
 6856SOL    HW221468   0.222   2.085   6.297
 6857SOL     OW21469   0.580   3.896   4.989
 6857SOL    HW121470   0.636   3.929   4.914
 6857SOL    HW221471   0.602   3.800   5.007
 6858SOL     OW21472   2.148   3.902   1.866
 6858SOL    HW121473   2.222   3.843   1.834
 6858SOL    HW221474   2.098   3.857   1.940
 6859SOL     OW21475   1.626   1.963   2.431
 6859SOL    HW121476   1.636   1.981   2.529
 6859SOL    HW221477   1.570   1.882   2.417
 6860SOL     OW21478   0.980   6.456   1.364
 6860SOL    HW121479   0.982   6.363   1.328
 6860SOL    HW221480   1.028   6.458   1.452
 6861SOL     OW21481   6.459   3.014   5.908
 6861SOL    HW121482   6.394   2.963   5.963
 6861SOL    HW221483   6.544   3.027   5.959
 6862SOL     OW21484   0.856   4.234   4.444
 6862SOL    HW121485   0.812   4.277   4.366
 6862SOL    HW221486   0.942   4.282   4.464
 6863SOL     OW21487   5.821   1.283   5.337
 6863SOL    HW121488   5.792   1.311   5.245
 6863SOL    HW221489   5.855   1.363   5.386
 6864SOL     OW21490   1.027   3.780   5.997
 6864SOL    HW121491   0.967   3.750   5.922
 6864SOL    HW221492   1.111   3.818   5.960
 6865SOL     OW21493   2.496   0.011   3.460
 6865SOL    HW121494   2.406   7.011   3.499
 6865SOL    HW221495   2.483   0.070   3.380
 6866SOL     OW21496   1.298   4.799   0.284
 6866SOL    HW121497   1.364   4.793   0.360
 6866SOL    HW221498   1.348   4.805   0.198
 6867SOL     OW21499   2.352   3.693   6.470
 6867SOL    HW121500   2.437   3.739   6.495
 6867SOL    HW221501   2.373   3.614   6.412
 6868SOL     OW21502   2.896   5.535   3.622
 6868SOL    HW121503   2.977   5.580   3.587
 6868SOL    HW221504   2.815   5.590   3.600
 6869SOL     OW21505   3.565   1.072   6.130
 6869SOL    HW121506   3.547   1.004   6.200
 6869SOL    HW221507   3.605   1.154   6.171
 6870SOL     OW21508   6.120   2.180   0.456
 6870SOL    HW121509   6.193   2.178   0.525
 6870SOL    HW221510   6.064   2.262   0.468
 6871SOL     OW21511   6.541   3.500   2.530
 6871SOL    HW121512   6.572   3.569   2.464
 6871SOL    HW221513   6.490   3.545   2.603
 6872SOL     OW21514   1.807   3.951   0.995
 6872SOL    HW121515   1.725   3.915   1.040
 6872SOL    HW221516   1.822   3.902   0.909
 6873SOL     OW21517   0.970   4.371   3.201
 6873SOL    HW121518   0.929   4.432   3.133
 6873SOL    HW221519   1.042   4.317   3.158
 6874SOL     OW21520   5.563   6.698   3.311
 6874SOL    HW121521   5.569   6.641   3.229
 6874SOL    HW221522   5.488   6.666   3.369
 6875SOL     OW21523   2.732   1.308   0.429
 6875SOL    HW121524   2.828   1.296   0.403
 6875SOL    HW221525   2.709   1.244   0.503
 6876SOL     OW21526   5.171   5.251   3.491
 6876SOL    HW121527   5.258   5.205   3.471
 6876SOL    HW221528   5.185   5.318   3.565
 6877SOL     OW21529   0.845   3.371   1.594
 6877SOL    HW121530   0.855   3.351   1.496
 6877SOL    HW221531   0.932   3.354   1.641
 6878SOL     OW21532   1.916   0.724   4.840
 6878SOL    HW121533   1.883   0.818   4.833
 6878SOL    HW221534   2.003   0.723   4.888
 6879SOL     OW21535   1.501   1.108   1.115
 6879SOL    HW121536   1.498   1.076   1.020
 6879SOL    HW221537   1.506   1.208   1.116
 6880SOL     OW21538   1.552   5.343   0.212
 6880SOL    HW121539   1.496   5.277   0.263
 6880SOL    HW221540   1.524   5.436   0.237
 6881SOL     OW21541   0.491   2.833   0.473
 6881SOL    HW121542   0.511   2.742   0.510
 6881SOL    HW221543   0.414   2.826   0.409
 6882SOL     OW21544   2.337   6.192   6.750
 6882SOL    HW121545   2.240   6.211   6.766
 6882SOL    HW221546   2.353   6.094   6.756
 6883SOL     OW21547   4.592   0.294   1.145
 6883SOL    HW121548   4.664   0.302   1.076
 6883SOL    HW221549   4.517   0.355   1.122
 6884SOL     OW21550   1.753   3.927   3.250
 6884SOL    HW121551   1.794   3.837   3.237
 6884SOL    HW221552   1.825   3.997   3.244
 6885SOL     OW21553   6.042   5.393   4.635
 6885SOL    HW121554   6.138   5.423   4.634
 6885SOL    HW221555   5.982   5.472   4.628
 6886SOL     OW21556   4.910   2.802   0.265
 6886SOL    HW121557   4.910   2.895   0.303
 6886SOL    HW221558   4.874   2.738   0.333
 6887SOL     OW21559   5.819   5.604   6.047
 6887SOL    HW121560   5.821   5.703   6.034
 6887SOL    HW221561   5.903   5.563   6.009
 6888SOL     OW21562   5.866   4.402   6.574
 6888SOL    HW121563   5.938   4.339   6.545
 6888SOL    HW221564   5.903   4.466   6.641
 6889SOL     OW21565   0.075   2.799   6.100
 6889SOL    HW121566   0.111   2.786   6.192
 6889SOL    HW221567   0.144   2.771   6.033
 6890SOL     OW21568   4.521   4.614   3.420
 6890SOL    HW121569   4.518   4.527   3.469
 6890SOL    HW221570   4.461   4.680   3.465
 6891SOL     OW21571   1.963   1.447   1.331
 6891SOL    HW121572   1.983   1.486   1.241
 6891SOL    HW221573   2.047   1.408   1.369
 6892SOL     OW21574   3.276   1.073   4.376
 6892SOL    HW121575   3.273   1.166   4.340
 6892SOL    HW221576   3.185   1.032   4.372
 6893SOL     OW21577   6.307   3.102   0.688
 6893SOL    HW121578   6.228   3.075   0.743
 6893SOL    HW221579   6.301   3.200   0.667
 6894SOL     OW21580   6.167   4.852   0.500
 6894SOL    HW121581   6.205   4.766   0.535
 6894SOL    HW221582   6.165   4.849   0.400
 6895SOL     OW21583   0.717   6.646   2.436
 6895SOL    HW121584   0.621   6.634   2.462
 6895SOL    HW221585   0.749   6.563   2.390
 6896SOL     OW21586   4.717   1.321   4.973
 6896SOL    HW121587   4.813   1.339   4.954
 6896SOL    HW221588   4.702   1.319   5.072
 6897SOL     OW21589   4.875   2.708   5.143
 6897SOL    HW121590   4.798   2.702   5.207
 6897SOL    HW221591   4.842   2.693   5.050
 6898SOL     OW21592   1.472   6.251   1.492
 6898SOL    HW121593   1.510   6.262   1.584
 6898SOL    HW221594   1.546   6.257   1.425
 6899SOL     OW21595   6.130   5.965   2.094
 6899SOL    HW121596   6.195   5.902   2.050
 6899SOL    HW221597   6.181   6.038   2.140
 6900SOL     OW21598   6.471   3.648   4.968
 6900SOL    HW121599   6.388   3.690   5.004
 6900SOL    HW221600   6.539   3.639   5.041
 6901SOL     OW21601   4.986   5.036   6.908
 6901SOL    HW121602   5.010   4.939   6.915
 6901SOL    HW221603   5.034   5.077   6.831
 6902SOL     OW21604   0.510   6.046   6.130
 6902SOL    HW121605   0.498   6.014   6.224
 6902SOL    HW221606   0.477   5.976   6.066
 6903SOL     OW21607   1.000   6.015   4.505
 6903SOL    HW121608   0.918   6.057   4.542
 6903SOL    HW221609   1.079   6.042   4.560
 6904SOL     OW21610   6.975   0.415   6.459
 6904SOL    HW121611   7.008   0.469   6.382
 6904SOL    HW221612   6.952   0.322   6.428
 6905SOL     OW21613   5.243   6.096   5.844
 6905SOL    HW121614   5.310   6.164   5.814
 6905SOL    HW221615   5.182   6.073   5.768
 6906SOL     OW21616   3.127   0.914   3.780
 6906SOL    HW121617   3.050   0.903   3.717
 6906SOL    HW221618   3.104   0.983   3.849
 6907SOL     OW21619   5.639   1.966   0.899
 6907SOL    HW121620   5.557   1.910   0.912
 6907SOL    HW221621   5.644   2.036   0.970
 6908SOL     OW21622   3.144   5.407   0.421
 6908SOL    HW121623   3.168   5.454   0.336
 6908SOL    HW221624   3.211   5.430   0.492
 6909SOL     OW21625   5.666   4.720   1.905
 6909SOL    HW121626   5.722   4.671   1.838
 6909SOL    HW221627   5.569   4.707   1.883
 6910SOL     OW21628   1.238   2.663   2.672
 6910SOL    HW121629   1.178   2.617   2.738
 6910SOL    HW221630   1.183   2.704   2.599
 6911SOL     OW21631   1.770   6.248   5.860
 6911SOL    HW121632   1.781   6.239   5.761
 6911SOL    HW221633   1.735   6.163   5.898
 6912SOL     OW21634   2.636   3.828   6.954
 6912SOL    HW121635   2.587   3.816   0.018
 6912SOL    HW221636   2.588   3.778   6.882
 6913SOL     OW21637   4.789   6.072   5.998
 6913SOL    HW121638   4.760   6.090   5.904
 6913SOL    HW221639   4.888   6.085   6.005
 6914SOL     OW21640   6.037   2.846   2.210
 6914SOL    HW121641   6.123   2.863   2.258
 6914SOL    HW221642   6.056   2.806   2.120
 6915SOL     OW21643   6.674   3.480   3.721
 6915SOL    HW121644   6.602   3.505   3.785
 6915SOL    HW221645   6.754   3.448   3.772
 6916SOL     OW21646   5.013   5.997   6.509
 6916SOL    HW121647   4.994   6.081   6.560
 6916SOL    HW221648   4.934   5.974   6.452
 6917SOL     OW21649   3.900   6.657   1.847
 6917SOL    HW121650   3.835   6.623   1.779
 6917SOL    HW221651   3.987   6.607   1.836
 6918SOL     OW21652   2.403   3.652   0.623
 6918SOL    HW121653   2.342   3.702   0.684
 6918SOL    HW221654   2.358   3.568   0.593
 6919SOL     OW21655   5.560   6.120   3.763
 6919SOL    HW121656   5.621   6.104   3.685
 6919SOL    HW221657   5.499   6.041   3.774
 6920SOL     OW21658   6.218   1.369   6.277
 6920SOL    HW121659   6.123   1.341   6.287
 6920SOL    HW221660   6.266   1.356   6.363
 6921SOL     OW21661   4.445   0.140   4.160
 6921SOL    HW121662   4.520   0.138   4.226
 6921SOL    HW221663   4.403   0.049   4.155
 6922SOL     OW21664   1.993   4.726   6.324
 6922SOL    HW121665   2.011   4.763   6.233
 6922SOL    HW221666   1.905   4.762   6.357
 6923SOL     OW21667   6.029   6.845   2.087
 6923SOL    HW121668   6.084   6.828   2.168
 6923SOL    HW221669   5.993   6.939   2.090
 6924SOL     OW21670   3.357   5.567   2.205
 6924SOL    HW121671   3.405   5.534   2.286
 6924SOL    HW221672   3.289   5.636   2.232
 6925SOL     OW21673   5.841   6.661   5.350
 6925SOL    HW121674   5.801   6.571   5.331
 6925SOL    HW221675   5.805   6.696   5.436
 6926SOL     OW21676   3.260   2.357   0.336
 6926SOL    HW121677   3.309   2.425   0.282
 6926SOL    HW221678   3.304   2.268   0.325
 6927SOL     OW21679   4.680   0.265   0.640
 6927SOL    HW121680   4.646   0.317   0.562
 6927SOL    HW221681   4.626   0.182   0.652
 6928SOL     OW21682   3.779   5.346   6.985
 6928SOL    HW121683   3.796   5.339   6.887
 6928SOL    HW221684   3.821   5.430   7.020
 6929SOL     OW21685   5.479   4.995   2.271
 6929SOL    HW121686   5.450   5.082   2.231
 6929SOL    HW221687   5.401   4.932   2.273
 6930SOL     OW21688   0.343   6.783   1.452
 6930SOL    HW121689   0.258   6.804   1.501
 6930SOL    HW221690   0.406   6.859   1.462
 6931SOL     OW21691   3.103   3.415   1.063
 6931SOL    HW121692   3.037   3.439   1.134
 6931SOL    HW221693   3.093   3.478   0.986
 6932SOL     OW21694   4.189   6.883   6.725
 6932SOL    HW121695   4.189   6.797   6.776
 6932SOL    HW221696   4.281   6.922   6.725
 6933SOL     OW21697   3.573   5.542   5.954
 6933SOL    HW121698   3.578   5.503   6.047
 6933SOL    HW221699   3.589   5.640   5.958
 6934SOL     OW21700   4.792   5.198   6.959
 6934SOL    HW121701   4.845   5.116   6.939
 6934SOL    HW221702   4.742   5.225   6.877
 6935SOL     OW21703   3.990   5.943   1.316
 6935SOL    HW121704   3.953   5.956   1.408
 6935SOL    HW221705   4.023   6.031   1.280
 6936SOL     OW21706   0.273   1.687   5.497
 6936SOL    HW121707   0.357   1.724   5.538
 6936SOL    HW221708   0.196   1.747   5.520
 6937SOL     OW21709   5.586   5.106   0.224
 6937SOL    HW121710   5.494   5.070   0.208
 6937SOL    HW221711   5.640   5.099   0.139
 6938SOL     OW21712   2.703   1.390   4.972
 6938SOL    HW121713   2.656   1.420   5.055
 6938SOL    HW221714   2.795   1.430   4.970
 6939SOL     OW21715   5.639   3.278   3.391
 6939SOL    HW121716   5.585   3.226   3.325
 6939SOL    HW221717   5.650   3.371   3.359
 6940SOL     OW21718   2.470   5.915   0.889
 6940SOL    HW121719   2.448   5.883   0.797
 6940SOL    HW221720   2.524   5.999   0.883
 6941SOL     OW21721   3.533   3.810   2.696
 6941SOL    HW121722   3.557   3.719   2.730
 6941SOL    HW221723   3.522   3.807   2.596
 6942SOL     OW21724   6.111   5.567   2.439
 6942SOL    HW121725   6.081   5.479   2.476
 6942SOL    HW221726   6.086   5.639   2.503
 6943SOL     OW21727   4.499   4.459   6.489
 6943SOL    HW121728   4.520   4.557   6.482
 6943SOL    HW221729   4.539   4.422   6.572
 6944SOL     OW21730   1.120   4.142   5.102
 6944SOL    HW121731   1.090   4.235   5.124
 6944SOL    HW221732   1.052   4.098   5.043
 6945SOL     OW21733   5.310   1.459   1.219
 6945SOL    HW121734   5.370   1.537   1.201
 6945SOL    HW221735   5.357   1.394   1.278
 6946SOL     OW21736   5.104   6.314   3.105
 6946SOL    HW121737   5.058   6.382   3.162
 6946SOL    HW221738   5.114   6.349   3.012
 6947SOL     OW21739   6.383   4.394   4.993
 6947SOL    HW121740   6.474   4.410   5.032
 6947SOL    HW221741   6.360   4.297   4.999
 6948SOL     OW21742   0.076   4.440   6.890
 6948SOL    HW121743   0.028   4.370   6.836
 6948SOL    HW221744   0.022   4.524   6.891
 6949SOL     OW21745   2.468   1.865   3.582
 6949SOL    HW121746   2.561   1.889   3.553
 6949SOL    HW221747   2.403   1.915   3.525
 6950SOL     OW21748   0.361   1.192   4.483
 6950SOL    HW121749   0.360   1.263   4.553
 6950SOL    HW221750   0.430   1.123   4.506
 6951SOL     OW21751   0.844   4.665   6.898
 6951SOL    HW121752   0.876   4.571   6.908
 6951SOL    HW221753   0.751   4.673   6.934
 6952SOL     OW21754   5.304   5.406   4.197
 6952SOL    HW121755   5.316   5.348   4.116
 6952SOL    HW221756   5.384   5.396   4.256
 6953SOL     OW21757   6.326   1.792   1.133
 6953SOL    HW121758   6.398   1.861   1.135
 6953SOL    HW221759   6.262   1.812   1.059
 6954SOL     OW21760   6.931   4.649   6.824
 6954SOL    HW121761   6.850   4.590   6.825
 6954SOL    HW221762   6.908   4.736   6.780
 6955SOL     OW21763   4.888   6.478   3.244
 6955SOL    HW121764   4.859   6.558   3.193
 6955SOL    HW221765   4.808   6.424   3.270
 6956SOL     OW21766   5.627   5.210   2.388
 6956SOL    HW121767   5.593   5.126   2.344
 6956SOL    HW221768   5.686   5.186   2.465
 6957SOL     OW21769   6.176   5.453   5.044
 6957SOL    HW121770   6.099   5.420   4.989
 6957SOL    HW221771   6.193   5.389   5.119
 6958SOL     OW21772   3.196   3.680   2.737
 6958SOL    HW121773   3.117   3.735   2.764
 6958SOL    HW221774   3.185   3.651   2.642
 6959SOL     OW21775   1.574   4.063   3.055
 6959SOL    HW121776   1.597   4.009   3.136
 6959SOL    HW221777   1.547   4.002   2.981
 6960SOL     OW21778   3.760   4.476   6.905
 6960SOL    HW121779   3.844   4.424   6.887
 6960SOL    HW221780   3.706   4.428   6.974
 6961SOL     OW21781   4.609   2.360   5.359
 6961SOL    HW121782   4.561   2.297   5.420
 6961SOL    HW221783   4.546   2.395   5.290
 6962SOL     OW21784   2.317   6.279   6.483
 6962SOL    HW121785   2.332   6.237   6.573
 6962SOL    HW221786   2.224   6.317   6.479
 6963SOL     OW21787   6.218   5.915   0.348
 6963SOL    HW121788   6.293   5.981   0.354
 6963SOL    HW221789   6.248   5.835   0.297
 6964SOL     OW21790   2.115   1.382   5.433
 6964SOL    HW121791   2.125   1.461   5.493
 6964SOL    HW221792   2.180   1.312   5.459
 6965SOL     OW21793   1.284   1.400   0.439
 6965SOL    HW121794   1.343   1.321   0.423
 6965SOL    HW221795   1.306   1.472   0.374
 6966SOL     OW21796   1.217   6.152   1.560
 6966SOL    HW121797   1.207   6.060   1.597
 6966SOL    HW221798   1.313   6.179   1.562
 6967SOL     OW21799   4.181   1.194   6.817
 6967SOL    HW121800   4.129   1.237   6.743
 6967SOL    HW221801   4.142   1.220   6.905
 6968SOL     OW21802   4.280   0.015   3.167
 6968SOL    HW121803   4.274   0.066   3.253
 6968SOL    HW221804   4.200   0.038   3.110
 6969SOL     OW21805   2.255   2.346   2.123
 6969SOL    HW121806   2.270   2.420   2.188
 6969SOL    HW221807   2.159   2.344   2.096
 6970SOL     OW21808   3.869   5.049   4.962
 6970SOL    HW121809   3.778   5.048   4.921
 6970SOL    HW221810   3.888   5.141   4.997
 6971SOL     OW21811   6.291   4.113   0.307
 6971SOL    HW121812   6.260   4.175   0.235
 6971SOL    HW221813   6.387   4.132   0.328
 6972SOL     OW21814   5.423   4.281   1.322
 6972SOL    HW121815   5.431   4.361   1.262
 6972SOL    HW221816   5.514   4.248   1.346
 6973SOL     OW21817   1.387   2.215   2.833
 6973SOL    HW121818   1.456   2.245   2.767
 6973SOL    HW221819   1.405   2.259   2.922
 6974SOL     OW21820   3.909   3.893   2.774
 6974SOL    HW121821   3.981   3.925   2.713
 6974SOL    HW221822   3.950   3.861   2.860
 6975SOL     OW21823   2.976   5.683   4.351
 6975SOL    HW121824   2.921   5.715   4.428
 6975SOL    HW221825   3.020   5.762   4.307
 6976SOL     OW21826   4.688   4.116   5.936
 6976SOL    HW121827   4.607   4.173   5.947
 6976SOL    HW221828   4.728   4.131   5.846
 6977SOL     OW21829   4.679   4.893   2.350
 6977SOL    HW121830   4.717   4.806   2.381
 6977SOL    HW221831   4.683   4.898   2.250
 6978SOL     OW21832   0.559   3.308   1.067
 6978SOL    HW121833   0.470   3.264   1.052
 6978SOL    HW221834   0.548   3.385   1.130
 6979SOL     OW21835   1.158   3.955   2.518
 6979SOL    HW121836   1.228   3.914   2.458
 6979SOL    HW221837   1.201   4.017   2.582
 6980SOL     OW21838   1.837   5.164   2.986
 6980SOL    HW121839   1.910   5.130   2.928
 6980SOL    HW221840   1.875   5.213   3.065
 6981SOL     OW21841   4.280   2.659   6.977
 6981SOL    HW121842   4.224   2.700   6.904
 6981SOL    HW221843   4.233   2.669   0.042
 6982SOL     OW21844   1.078   0.684   2.417
 6982SOL    HW121845   0.985   0.702   2.450
 6982SOL    HW221846   1.079   0.690   2.317
 6983SOL     OW21847   6.256   0.889   4.165
 6983SOL    HW121848   6.235   0.791   4.160
 6983SOL    HW221849   6.220   0.926   4.250
 6984SOL     OW21850   1.435   2.749   3.338
 6984SOL    HW121851   1.493   2.831   3.332
 6984SOL    HW221852   1.348   2.773   3.380
 6985SOL     OW21853   5.510   3.222   6.353
 6985SOL    HW121854   5.440   3.272   6.302
 6985SOL    HW221855   5.554   3.155   6.293
 6986SOL     OW21856   4.979   4.660   5.339
 6986SOL    HW121857   5.029   4.712   5.269
 6986SOL    HW221858   5.039   4.639   5.415
 6987SOL     OW21859   0.248   0.801   6.824
 6987SOL    HW121860   0.269   0.874   6.760
 6987SOL    HW221861   0.174   0.745   6.788
 6988SOL     OW21862   2.495   1.401   6.625
 6988SOL    HW121863   2.578   1.455   6.610
 6988SOL    HW221864   2.425   1.430   6.560
 6989SOL     OW21865   0.592   4.067   2.710
 6989SOL    HW121866   0.576   4.166   2.706
 6989SOL    HW221867   0.526   4.020   2.652
 6990SOL     OW21868   3.834   3.784   0.324
 6990SOL    HW121869   3.791   3.788   0.234
 6990SOL    HW221870   3.763   3.779   0.395
 6991SOL     OW21871   5.719   3.383   2.513
 6991SOL    HW121872   5.726   3.354   2.418
 6991SOL    HW221873   5.703   3.303   2.571
 6992SOL     OW21874   0.827   5.312   0.255
 6992SOL    HW121875   0.730   5.336   0.249
 6992SOL    HW221876   0.840   5.246   0.329
 6993SOL     OW21877   4.110   2.146   1.665
 6993SOL    HW121878   4.170   2.175   1.740
 6993SOL    HW221879   4.151   2.170   1.578
 6994SOL     OW21880   2.937   1.319   3.091
 6994SOL    HW121881   2.856   1.355   3.137
 6994SOL    HW221882   2.913   1.236   3.040
 6995SOL     OW21883   6.782   4.267   1.010
 6995SOL    HW121884   6.873   4.226   1.012
 6995SOL    HW221885   6.724   4.225   1.080
 6996SOL     OW21886   0.814   1.258   6.643
 6996SOL    HW121887   0.795   1.339   6.699
 6996SOL    HW221888   0.792   1.176   6.696
 6997SOL     OW21889   6.236   6.274   6.218
 6997SOL    HW121890   6.306   6.345   6.231
 6997SOL    HW221891   6.165   6.308   6.157
 6998SOL     OW21892   6.956   1.039   0.659
 6998SOL    HW121893   6.982   1.119   0.605
 6998SOL    HW221894   6.955   0.959   0.600
 6999SOL     OW21895   6.811   2.980   6.616
 6999SOL    HW121896   6.775   3.074   6.621
 6999SOL    HW221897   6.737   2.918   6.591
 7000SOL     OW21898   0.136   5.639   3.328
 7000SOL    HW121899   0.181   5.653   3.416
 7000SOL    HW221900   0.145   5.543   3.301
 7001SOL     OW21901   6.408   1.935   4.535
 7001SOL    HW121902   6.464   1.866   4.490
 7001SOL    HW221903   6.444   1.954   4.626
 7002SOL     OW21904   0.985   5.476   2.819
 7002SOL    HW121905   0.900   5.444   2.862
 7002SOL    HW221906   0.971   5.487   2.721
 7003SOL     OW21907   0.476   4.238   0.593
 7003SOL    HW121908   0.427   4.208   0.675
 7003SOL    HW221909   0.447   4.183   0.515
 7004SOL     OW21910   1.692   6.974   0.284
 7004SOL    HW121911   1.761   6.932   0.343
 7004SOL    HW221912   1.685   6.921   0.199
 7005SOL     OW21913   1.192   5.519   0.463
 7005SOL    HW121914   1.140   5.482   0.387
 7005SOL    HW221915   1.153   5.606   0.491
 7006SOL     OW21916   0.550   0.278   3.931
 7006SOL    HW121917   0.562   0.179   3.926
 7006SOL    HW221918   0.536   0.305   4.027
 7007SOL     OW21919   2.119   0.379   6.119
 7007SOL    HW121920   2.061   0.315   6.068
 7007SOL    HW221921   2.211   0.377   6.082
 7008SOL     OW21922   5.657   3.531   3.322
 7008SOL    HW121923   5.618   3.513   3.231
 7008SOL    HW221924   5.623   3.619   3.355
 7009SOL     OW21925   5.122   6.180   2.757
 7009SOL    HW121926   5.141   6.154   2.662
 7009SOL    HW221927   5.196   6.145   2.816
 7010SOL     OW21928   4.995   3.439   2.463
 7010SOL    HW121929   4.949   3.466   2.379
 7010SOL    HW221930   4.955   3.354   2.498
 7011SOL     OW21931   2.701   6.703   6.216
 7011SOL    HW121932   2.753   6.766   6.275
 7011SOL    HW221933   2.641   6.647   6.273
 7012SOL     OW21934   6.924   2.991   0.104
 7012SOL    HW121935   6.917   3.078   0.055
 7012SOL    HW221936   6.858   2.990   0.180
 7013SOL     OW21937   3.186   2.781   0.178
 7013SOL    HW121938   3.094   2.780   0.218
 7013SOL    HW221939   3.190   2.852   0.108
 7014SOL     OW21940   5.437   3.316   0.839
 7014SOL    HW121941   5.391   3.244   0.788
 7014SOL    HW221942   5.425   3.300   0.937
 7015SOL     OW21943   5.893   6.360   1.187
 7015SOL    HW121944   5.818   6.420   1.214
 7015SOL    HW221945   5.888   6.274   1.239
 7016SOL     OW21946   3.499   5.410   0.890
 7016SOL    HW121947   3.401   5.394   0.873
 7016SOL    HW221948   3.551   5.332   0.856
 7017SOL     OW21949   5.825   4.346   5.708
 7017SOL    HW121950   5.909   4.314   5.663
 7017SOL    HW221951   5.759   4.272   5.711
 7018SOL     OW21952   5.244   3.849   4.722
 7018SOL    HW121953   5.160   3.841   4.776
 7018SOL    HW221954   5.225   3.902   4.639
 7019SOL     OW21955   4.193   5.467   2.149
 7019SOL    HW121956   4.257   5.539   2.177
 7019SOL    HW221957   4.108   5.475   2.200
 7020SOL     OW21958   0.710   2.504   6.635
 7020SOL    HW121959   0.805   2.532   6.621
 7020SOL    HW221960   0.693   2.418   6.587
 7021SOL     OW21961   0.654   2.117   4.706
 7021SOL    HW121962   0.700   2.036   4.667
 7021SOL    HW221963   0.626   2.178   4.632
 7022SOL     OW21964   2.896   2.792   0.677
 7022SOL    HW121965   2.979   2.839   0.647
 7022SOL    HW221966   2.867   2.727   0.606
 7023SOL     OW21967   0.261   1.336   1.050
 7023SOL    HW121968   0.256   1.366   0.955
 7023SOL    HW221969   0.346   1.286   1.064
 7024SOL     OW21970   3.172   3.539   4.815
 7024SOL    HW121971   3.221   3.570   4.734
 7024SOL    HW221972   3.076   3.567   4.809
 7025SOL     OW21973   3.167   0.574   0.970
 7025SOL    HW121974   3.131   0.659   0.932
 7025SOL    HW221975   3.263   0.587   0.995
 7026SOL     OW21976   3.315   2.697   0.953
 7026SOL    HW121977   3.282   2.654   1.037
 7026SOL    HW221978   3.239   2.740   0.905
 7027SOL     OW21979   3.351   4.885   2.707
 7027SOL    HW121980   3.263   4.865   2.750
 7027SOL    HW221981   3.340   4.888   2.608
 7028SOL     OW21982   3.296   0.060   3.238
 7028SOL    HW121983   3.244   0.052   3.152
 7028SOL    HW221984   3.339   0.150   3.241
 7029SOL     OW21985   3.287   3.702   3.424
 7029SOL    HW121986   3.361   3.735   3.366
 7029SOL    HW221987   3.238   3.780   3.464
 7030SOL     OW21988   6.617   0.598   4.937
 7030SOL    HW121989   6.570   0.548   5.009
 7030SOL    HW221990   6.551   0.652   4.885
 7031SOL     OW21991   4.781   6.497   0.433
 7031SOL    HW121992   4.869   6.456   0.410
 7031SOL    HW221993   4.729   6.515   0.349
 7032SOL     OW21994   4.594   5.268   4.098
 7032SOL    HW121995   4.564   5.279   4.003
 7032SOL    HW221996   4.632   5.177   4.111
 7033SOL     OW21997   1.751   1.699   5.480
 7033SOL    HW121998   1.682   1.769   5.500
 7033SOL    HW221999   1.842   1.736   5.500
 7034SOL     OW22000   6.346   0.908   2.691
 7034SOL    HW122001   6.406   0.988   2.687
 7034SOL    HW222002   6.291   0.911   2.774
 7035SOL     OW22003   2.558   1.062   1.337
 7035SOL    HW122004   2.597   1.153   1.349
 7035SOL    HW222005   2.537   1.047   1.241
 7036SOL     OW22006   6.453   1.620   2.039
 7036SOL    HW122007   6.439   1.711   2.078
 7036SOL    HW222008   6.404   1.614   1.951
 7037SOL     OW22009   1.242   0.410   5.899
 7037SOL    HW122010   1.340   0.412   5.880
 7037SOL    HW222011   1.222   0.475   5.973
 7038SOL     OW22012   1.484   3.747   0.356
 7038SOL    HW122013   1.545   3.736   0.435
 7038SOL    HW222014   1.538   3.767   0.275
 7039SOL     OW22015   0.010   6.802   2.229
 7039SOL    HW122016   6.937   6.785   2.253
 7039SOL    HW222017   0.023   6.899   2.210
 7040SOL     OW22018   5.885   2.702   4.681
 7040SOL    HW122019   5.977   2.690   4.719
 7040SOL    HW222020   5.818   2.706   4.755
 7041SOL     OW22021   1.331   6.842   4.194
 7041SOL    HW122022   1.420   6.884   4.211
 7041SOL    HW222023   1.313   6.841   4.096
 7042SOL     OW22024   5.444   5.495   5.405
 7042SOL    HW122025   5.447   5.591   5.375
 7042SOL    HW222026   5.374   5.485   5.476
 7043SOL     OW22027   1.712   5.673   0.921
 7043SOL    HW122028   1.741   5.700   1.013
 7043SOL    HW222029   1.774   5.602   0.886
 7044SOL     OW22030   5.582   6.248   5.084
 7044SOL    HW122031   5.571   6.310   5.162
 7044SOL    HW222032   5.665   6.194   5.096
 7045SOL     OW22033   6.361   5.605   1.679
 7045SOL    HW122034   6.421   5.683   1.692
 7045SOL    HW222035   6.356   5.552   1.764
 7046SOL     OW22036   1.635   1.450   3.933
 7046SOL    HW122037   1.722   1.411   3.964
 7046SOL    HW222038   1.633   1.547   3.954
 7047SOL     OW22039   1.042   6.312   0.808
 7047SOL    HW122040   1.121   6.280   0.756
 7047SOL    HW222041   1.045   6.274   0.900
 7048SOL     OW22042   0.301   6.262   3.913
 7048SOL    HW122043   0.277   6.173   3.952
 7048SOL    HW222044   0.373   6.304   3.968
 7049SOL     OW22045   3.757   1.183   3.902
 7049SOL    HW122046   3.713   1.148   3.819
 7049SOL    HW222047   3.840   1.131   3.920
 7050SOL     OW22048   4.191   4.346   0.621
 7050SOL    HW122049   4.159   4.373   0.711
 7050SOL    HW222050   4.113   4.329   0.561
 7051SOL     OW22051   1.197   1.595   1.757
 7051SOL    HW122052   1.105   1.632   1.744
 7051SOL    HW222053   1.265   1.661   1.724
 7052SOL     OW22054   4.449   1.645   2.898
 7052SOL    HW122055   4.358   1.660   2.937
 7052SOL    HW222056   4.458   1.698   2.814
 7053SOL     OW22057   1.239   3.776   3.171
 7053SOL    HW122058   1.230   3.680   3.196
 7053SOL    HW222059   1.207   3.833   3.246
 7054SOL     OW22060   5.221   0.605   6.681
 7054SOL    HW122061   5.140   0.551   6.705
 7054SOL    HW222062   5.276   0.555   6.615
 7055SOL     OW22063   2.621   0.657   0.400
 7055SOL    HW122064   2.644   0.622   0.309
 7055SOL    HW222065   2.524   0.680   0.403
 7056SOL     OW22066   6.798   4.780   0.830
 7056SOL    HW122067   6.738   4.751   0.755
 7056SOL    HW222068   6.764   4.742   0.916
 7057SOL     OW22069   2.844   5.523   4.868
 7057SOL    HW122070   2.871   5.541   4.962
 7057SOL    HW222071   2.925   5.505   4.813
 7058SOL     OW22072   6.346   2.657   6.116
 7058SOL    HW122073   6.432   2.708   6.123
 7058SOL    HW222074   6.318   2.652   6.021
 7059SOL     OW22075   1.998   6.793   5.200
 7059SOL    HW122076   1.941   6.867   5.164
 7059SOL    HW222077   1.976   6.778   5.297
 7060SOL     OW22078   3.120   2.176   1.128
 7060SOL    HW122079   3.022   2.166   1.111
 7060SOL    HW222080   3.134   2.203   1.223
 7061SOL     OW22081   1.126   1.056   1.295
 7061SOL    HW122082   1.141   1.042   1.197
 7061SOL    HW222083   1.193   1.003   1.347
 7062SOL     OW22084   3.151   0.520   3.890
 7062SOL    HW122085   3.057   0.505   3.860
 7062SOL    HW222086   3.160   0.496   3.987
 7063SOL     OW22087   6.623   1.292   1.310
 7063SOL    HW122088   6.565   1.334   1.379
 7063SOL    HW222089   6.717   1.324   1.321
 7064SOL     OW22090   3.052   1.316   5.128
 7064SOL    HW122091   3.067   1.391   5.192
 7064SOL    HW222092   3.134   1.303   5.073
 7065SOL     OW22093   3.928   5.585   5.176
 7065SOL    HW122094   3.884   5.551   5.259
 7065SOL    HW222095   4.021   5.614   5.198
 7066SOL     OW22096   3.436   0.353   1.169
 7066SOL    HW122097   3.412   0.307   1.083
 7066SOL    HW222098   3.451   0.451   1.151
 7067SOL     OW22099   2.160   3.718   6.286
 7067SOL    HW122100   2.214   3.699   6.368
 7067SOL    HW222101   2.210   3.780   6.226
 7068SOL     OW22102   5.334   4.121   4.449
 7068SOL    HW122103   5.347   4.150   4.544
 7068SOL    HW222104   5.423   4.115   4.404
 7069SOL     OW22105   5.131   0.738   5.808
 7069SOL    HW122106   5.081   0.720   5.723
 7069SOL    HW222107   5.136   0.836   5.823
 7070SOL     OW22108   0.444   0.439   5.741
 7070SOL    HW122109   0.451   0.497   5.659
 7070SOL    HW222110   0.381   0.364   5.723
 7071SOL     OW22111   4.829   6.210   6.541
 7071SOL    HW122112   4.731   6.234   6.536
 7071SOL    HW222113   4.862   6.188   6.449
 7072SOL     OW22114   0.791   3.830   6.210
 7072SOL    HW122115   0.879   3.807   6.168
 7072SOL    HW222116   0.776   3.928   6.204
 7073SOL     OW22117   4.849   1.712   4.021
 7073SOL    HW122118   4.887   1.643   4.082
 7073SOL    HW222119   4.793   1.668   3.951
 7074SOL     OW22120   5.608   3.918   2.989
 7074SOL    HW122121   5.541   3.971   3.041
 7074SOL    HW222122   5.681   3.978   2.957
 7075SOL     OW22123   2.368   5.479   3.197
 7075SOL    HW122124   2.315   5.432   3.268
 7075SOL    HW222125   2.450   5.519   3.238
 7076SOL     OW22126   5.514   2.450   1.499
 7076SOL    HW122127   5.459   2.385   1.448
 7076SOL    HW222128   5.559   2.403   1.576
 7077SOL     OW22129   3.628   6.190   1.560
 7077SOL    HW122130   3.533   6.168   1.585
 7077SOL    HW222131   3.628   6.254   1.483
 7078SOL     OW22132   6.482   0.572   6.928
 7078SOL    HW122133   6.525   0.661   6.910
 7078SOL    HW222134   6.495   0.512   6.848
 7079SOL     OW22135   1.707   5.586   4.734
 7079SOL    HW122136   1.759   5.572   4.650
 7079SOL    HW222137   1.717   5.680   4.765
 7080SOL     OW22138   3.926   1.942   6.184
 7080SOL    HW122139   3.876   1.954   6.098
 7080SOL    HW222140   3.961   2.030   6.215
 7081SOL     OW22141   2.634   6.840   0.419
 7081SOL    HW122142   2.629   6.791   0.506
 7081SOL    HW222143   2.573   6.920   0.422
 7082SOL     OW22144   0.543   3.915   2.376
 7082SOL    HW122145   0.529   3.867   2.462
 7082SOL    HW222146   0.509   3.860   2.300
 7083SOL     OW22147   5.293   2.534   3.390
 7083SOL    HW122148   5.343   2.568   3.469
 7083SOL    HW222149   5.197   2.520   3.413
 7084SOL     OW22150   0.884   5.093   0.020
 7084SOL    HW122151   0.800   5.125   0.065
 7084SOL    HW222152   0.963   5.117   0.076
 7085SOL     OW22153   0.778   4.262   2.108
 7085SOL    HW122154   0.699   4.220   2.153
 7085SOL    HW222155   0.767   4.255   2.009
 7086SOL     OW22156   5.397   0.919   3.747
 7086SOL    HW122157   5.331   0.945   3.676
 7086SOL    HW222158   5.378   0.969   3.831
 7087SOL     OW22159   4.664   2.456   3.371
 7087SOL    HW122160   4.671   2.555   3.363
 7087SOL    HW222161   4.711   2.413   3.294
 7088SOL     OW22162   6.386   2.299   5.041
 7088SOL    HW122163   6.465   2.301   4.980
 7088SOL    HW222164   6.303   2.287   4.988
 7089SOL     OW22165   2.360   5.500   1.380
 7089SOL    HW122166   2.424   5.570   1.349
 7089SOL    HW222167   2.409   5.416   1.403
 7090SOL     OW22168   4.230   3.258   1.111
 7090SOL    HW122169   4.220   3.317   1.191
 7090SOL    HW222170   4.186   3.170   1.128
 7091SOL     OW22171   0.320   6.645   0.372
 7091SOL    HW122172   0.399   6.668   0.315
 7091SOL    HW222173   0.300   6.720   0.435
 7092SOL     OW22174   4.467   6.979   6.692
 7092SOL    HW122175   4.499   0.048   6.664
 7092SOL    HW222176   4.492   6.963   6.788
 7093SOL     OW22177   3.656   2.766   0.488
 7093SOL    HW122178   3.640   2.689   0.426
 7093SOL    HW222179   3.607   2.752   0.573
 7094SOL     OW22180   3.953   0.244   5.318
 7094SOL    HW122181   3.986   0.328   5.274
 7094SOL    HW222182   3.854   0.251   5.332
 7095SOL     OW22183   2.536   4.942   4.568
 7095SOL    HW122184   2.574   5.025   4.607
 7095SOL    HW222185   2.447   4.924   4.609
 7096SOL     OW22186   6.575   0.225   1.098
 7096SOL    HW122187   6.552   0.140   1.145
 7096SOL    HW222188   6.568   0.301   1.162
 7097SOL     OW22189   4.567   1.578   2.558
 7097SOL    HW122190   4.494   1.511   2.564
 7097SOL    HW222191   4.536   1.665   2.597
 7098SOL     OW22192   1.092   1.035   3.252
 7098SOL    HW122193   1.117   1.014   3.157
 7098SOL    HW222194   1.175   1.047   3.306
 7099SOL     OW22195   3.491   1.783   4.472
 7099SOL    HW122196   3.455   1.695   4.503
 7099SOL    HW222197   3.565   1.767   4.406
 7100SOL     OW22198   6.907   4.025   1.312
 7100SOL    HW122199   6.965   4.035   1.394
 7100SOL    HW222200   6.880   3.930   1.302
 7101SOL     OW22201   2.518   5.707   4.648
 7101SOL    HW122202   2.562   5.718   4.737
 7101SOL    HW222203   2.427   5.667   4.661
 7102SOL     OW22204   5.385   1.441   2.432
 7102SOL    HW122205   5.474   1.484   2.447
 7102SOL    HW222206   5.314   1.512   2.429
 7103SOL     OW22207   4.899   3.667   3.821
 7103SOL    HW122208   4.855   3.723   3.751
 7103SOL    HW222209   4.883   3.571   3.802
 7104SOL     OW22210   4.965   2.966   4.381
 7104SOL    HW122211   4.909   2.988   4.461
 7104SOL    HW222212   4.917   2.993   4.298
 7105SOL     OW22213   2.886   3.387   2.961
 7105SOL    HW122214   2.869   3.353   3.054
 7105SOL    HW222215   2.848   3.479   2.951
 7106SOL     OW22216   3.419   1.561   2.551
 7106SOL    HW122217   3.490   1.505   2.509
 7106SOL    HW222218   3.401   1.641   2.495
 7107SOL     OW22219   3.814   0.609   6.297
 7107SOL    HW122220   3.902   0.649   6.323
 7107SOL    HW222221   3.780   0.552   6.371
 7108SOL     OW22222   4.075   0.394   2.052
 7108SOL    HW122223   4.128   0.427   2.130
 7108SOL    HW222224   4.120   0.422   1.967
 7109SOL     OW22225   3.186   5.584   6.755
 7109SOL    HW122226   3.185   5.516   6.682
 7109SOL    HW222227   3.277   5.626   6.761
 7110SOL     OW22228   2.712   6.449   5.046
 7110SOL    HW122229   2.688   6.354   5.065
 7110SOL    HW222230   2.733   6.496   5.132
 7111SOL     OW22231   6.527   0.801   5.197
 7111SOL    HW122232   6.492   0.751   5.118
 7111SOL    HW222233   6.518   0.899   5.181
 7112SOL     OW22234   1.245   4.878   5.230
 7112SOL    HW122235   1.338   4.900   5.200
 7112SOL    HW222236   1.179   4.930   5.177
 7113SOL     OW22237   3.182   6.470   4.503
 7113SOL    HW122238   3.232   6.552   4.533
 7113SOL    HW222239   3.101   6.497   4.451
 7114SOL     OW22240   5.955   3.928   1.263
 7114SOL    HW122241   5.944   4.023   1.234
 7114SOL    HW222242   5.865   3.889   1.283
 7115SOL     OW22243   5.621   2.967   5.747
 7115SOL    HW122244   5.604   2.869   5.746
 7115SOL    HW222245   5.544   3.014   5.792
 7116SOL     OW22246   0.260   4.020   4.643
 7116SOL    HW122247   0.331   3.985   4.583
 7116SOL    HW222248   0.255   3.963   4.725
 7117SOL     OW22249   5.236   6.722   2.960
 7117SOL    HW122250   5.190   6.726   2.871
 7117SOL    HW222251   5.193   6.787   3.022
 7118SOL     OW22252   4.343   4.437   6.283
 7118SOL    HW122253   4.407   4.446   6.359
 7118SOL    HW222254   4.319   4.340   6.272
 7119SOL     OW22255   3.383   6.192   5.763
 7119SOL    HW122256   3.400   6.140   5.679
 7119SOL    HW222257   3.466   6.243   5.787
 7120SOL     OW22258   4.334   1.329   0.855
 7120SOL    HW122259   4.326   1.229   0.856
 7120SOL    HW222260   4.365   1.361   0.945
 7121SOL     OW22261   1.217   5.623   2.577
 7121SOL    HW122262   1.274   5.543   2.555
 7121SOL    HW222263   1.267   5.682   2.641
 7122SOL     OW22264   3.572   2.121   6.955
 7122SOL    HW122265   3.655   2.151   7.001
 7122SOL    HW222266   3.596   2.072   6.871
 7123SOL     OW22267   5.818   4.848   5.854
 7123SOL    HW122268   5.870   4.924   5.894
 7123SOL    HW222269   5.725   4.849   5.890
 7124SOL     OW22270   1.795   3.192   1.096
 7124SOL    HW122271   1.777   3.206   1.193
 7124SOL    HW222272   1.861   3.118   1.085
 7125SOL     OW22273   0.431   6.818   2.125
 7125SOL    HW122274   0.473   6.908   2.141
 7125SOL    HW222275   0.367   6.798   2.199
 7126SOL     OW22276   3.636   5.714   1.276
 7126SOL    HW122277   3.667   5.791   1.331
 7126SOL    HW222278   3.604   5.640   1.336
 7127SOL     OW22279   2.584   6.348   6.475
 7127SOL    HW122280   2.635   6.315   6.554
 7127SOL    HW222281   2.492   6.308   6.475
 7128SOL     OW22282   3.084   4.148   0.186
 7128SOL    HW122283   2.988   4.122   0.196
 7128SOL    HW222284   3.128   4.149   0.276
 7129SOL     OW22285   0.599   0.259   0.132
 7129SOL    HW122286   0.646   0.239   0.046
 7129SOL    HW222287   0.652   0.327   0.184
 7130SOL     OW22288   3.059   6.925   4.187
 7130SOL    HW122289   3.059   6.880   4.276
 7130SOL    HW222290   2.996   6.877   4.125
 7131SOL     OW22291   2.315   1.312   1.686
 7131SOL    HW122292   2.375   1.346   1.614
 7131SOL    HW222293   2.330   1.214   1.699
 7132SOL     OW22294   4.992   4.187   1.040
 7132SOL    HW122295   4.994   4.087   1.041
 7132SOL    HW222296   4.904   4.218   1.004
 7133SOL     OW22297   4.920   6.022   3.062
 7133SOL    HW122298   4.933   5.970   3.146
 7133SOL    HW222299   4.937   5.962   2.983
 7134SOL     OW22300   5.187   5.237   6.862
 7134SOL    HW122301   5.256   5.167   6.878
 7134SOL    HW222302   5.221   5.325   6.896
 7135SOL     OW22303   1.833   3.664   1.489
 7135SOL    HW122304   1.828   3.569   1.459
 7135SOL    HW222305   1.928   3.694   1.490
 7136SOL     OW22306   1.065   2.587   2.105
 7136SOL    HW122307   1.151   2.540   2.125
 7136SOL    HW222308   1.083   2.666   2.046
 7137SOL     OW22309   2.818   1.048   1.817
 7137SOL    HW122310   2.801   1.147   1.824
 7137SOL    HW222311   2.746   1.006   1.762
 7138SOL     OW22312   0.391   3.242   0.241
 7138SOL    HW122313   0.373   3.224   0.338
 7138SOL    HW222314   0.363   3.335   0.219
 7139SOL     OW22315   5.911   6.350   0.904
 7139SOL    HW122316   5.993   6.303   0.873
 7139SOL    HW222317   5.913   6.360   1.003
 7140SOL     OW22318   6.879   4.176   6.939
 7140SOL    HW122319   6.848   4.082   6.940
 7140SOL    HW222320   6.949   4.189   7.010
 7141SOL     OW22321   3.118   0.817   0.859
 7141SOL    HW122322   3.030   0.848   0.824
 7141SOL    HW222323   3.190   0.880   0.829
 7142SOL     OW22324   4.387   0.098   4.821
 7142SOL    HW122325   4.356   0.006   4.800
 7142SOL    HW222326   4.315   0.164   4.799
 7143SOL     OW22327   2.622   3.270   6.334
 7143SOL    HW122328   2.715   3.307   6.333
 7143SOL    HW222329   2.568   3.314   6.263
 7144SOL     OW22330   6.844   0.941   6.308
 7144SOL    HW122331   6.818   0.955   6.213
 7144SOL    HW222332   6.774   0.886   6.354
 7145SOL     OW22333   5.668   1.740   6.173
 7145SOL    HW122334   5.628   1.681   6.102
 7145SOL    HW222335   5.686   1.685   6.255
 7146SOL     OW22336   0.997   2.167   5.343
 7146SOL    HW122337   0.973   2.146   5.438
 7146SOL    HW222338   1.001   2.266   5.331
 7147SOL     OW22339   6.254   6.302   1.952
 7147SOL    HW122340   6.252   6.346   2.041
 7147SOL    HW222341   6.161   6.295   1.915
 7148SOL     OW22342   6.774   6.952   1.314
 7148SOL    HW122343   6.684   6.970   1.275
 7148SOL    HW222344   6.778   6.859   1.349
 7149SOL     OW22345   5.597   4.488   5.670
 7149SOL    HW122346   5.591   4.500   5.571
 7149SOL    HW222347   5.692   4.469   5.695
 7150SOL     OW22348   2.917   2.427   0.059
 7150SOL    HW122349   2.974   2.346   0.072
 7150SOL    HW222350   2.822   2.405   0.079
 7151SOL     OW22351   5.440   1.403   6.923
 7151SOL    HW122352   5.525   1.454   6.913
 7151SOL    HW222353   5.451   1.311   6.885
 7152SOL     OW22354   4.789   0.534   5.753
 7152SOL    HW122355   4.886   0.512   5.759
 7152SOL    HW222356   4.757   0.565   5.843
 7153SOL     OW22357   3.417   6.096   0.431
 7153SOL    HW122358   3.415   6.005   0.391
 7153SOL    HW222359   3.510   6.117   0.461
 7154SOL     OW22360   4.322   1.131   2.323
 7154SOL    HW122361   4.412   1.168   2.347
 7154SOL    HW222362   4.254   1.204   2.328
 7155SOL     OW22363   1.419   0.273   2.022
 7155SOL    HW122364   1.426   0.270   2.122
 7155SOL    HW222365   1.363   0.351   1.995
 7156SOL     OW22366   6.515   3.755   5.652
 7156SOL    HW122367   6.517   3.662   5.688
 7156SOL    HW222368   6.479   3.817   5.721
 7157SOL     OW22369   0.489   4.374   5.831
 7157SOL    HW122370   0.549   4.404   5.757
 7157SOL    HW222371   0.458   4.281   5.812
 7158SOL     OW22372   5.202   6.970   4.007
 7158SOL    HW122373   5.182   7.015   4.094
 7158SOL    HW222374   5.189   0.013   3.932
 7159SOL     OW22375   0.445   6.330   2.733
 7159SOL    HW122376   0.521   6.391   2.708
 7159SOL    HW222377   0.417   6.350   2.827
 7160SOL     OW22378   5.983   0.070   3.239
 7160SOL    HW122379   6.006   0.001   3.307
 7160SOL    HW222380   6.005   0.036   3.148
 7161SOL     OW22381   3.654   4.108   2.418
 7161SOL    HW122382   3.610   4.157   2.493
 7161SOL    HW222383   3.684   4.018   2.449
 7162SOL     OW22384   0.624   6.387   1.191
 7162SOL    HW122385   0.664   6.340   1.112
 7162SOL    HW222386   0.534   6.422   1.167
 7163SOL     OW22387   6.740   0.824   1.061
 7163SOL    HW122388   6.647   0.787   1.065
 7163SOL    HW222389   6.744   0.909   1.114
 7164SOL     OW22390   0.987   0.852   6.962
 7164SOL    HW122391   1.018   0.947   6.953
 7164SOL    HW222392   0.940   0.824   6.879
 7165SOL     OW22393   6.028   2.116   0.212
 7165SOL    HW122394   6.047   2.192   0.150
 7165SOL    HW222395   6.064   2.136   0.302
 7166SOL     OW22396   6.669   5.960   6.092
 7166SOL    HW122397   6.619   5.913   6.165
 7166SOL    HW222398   6.766   5.963   6.114
 7167SOL     OW22399   6.922   2.669   5.292
 7167SOL    HW122400   6.890   2.583   5.252
 7167SOL    HW222401   6.970   2.722   5.223
 7168SOL     OW22402   1.869   1.966   2.292
 7168SOL    HW122403   1.929   2.011   2.358
 7168SOL    HW222404   1.778   1.955   2.332
 7169SOL     OW22405   1.645   4.677   5.306
 7169SOL    HW122406   1.578   4.618   5.262
 7169SOL    HW222407   1.734   4.664   5.262
 7170SOL     OW22408   3.598   1.728   1.298
 7170SOL    HW122409   3.648   1.642   1.302
 7170SOL    HW222410   3.510   1.718   1.343
 7171SOL     OW22411   6.909   3.672   0.884
 7171SOL    HW122412   6.899   3.681   0.785
 7171SOL    HW222413   7.006   3.670   0.907
 7172SOL     OW22414   0.630   2.381   3.551
 7172SOL    HW122415   0.680   2.419   3.628
 7172SOL    HW222416   0.610   2.454   3.485
 7173SOL     OW22417   4.701   5.478   5.918
 7173SOL    HW122418   4.621   5.524   5.958
 7173SOL    HW222419   4.671   5.423   5.840
 7174SOL     OW22420   6.546   4.398   2.232
 7174SOL    HW122421   6.505   4.328   2.174
 7174SOL    HW222422   6.610   4.453   2.178
 7175SOL     OW22423   6.531   3.871   5.406
 7175SOL    HW122424   6.530   3.825   5.494
 7175SOL    HW222425   6.578   3.959   5.414
 7176SOL     OW22426   0.031   1.206   6.133
 7176SOL    HW122427   0.110   1.262   6.159
 7176SOL    HW222428   7.015   1.241   6.048
 7177SOL     OW22429   1.422   6.209   3.792
 7177SOL    HW122430   1.341   6.214   3.734
 7177SOL    HW222431   1.395   6.183   3.885
 7178SOL     OW22432   1.452   6.937   4.931
 7178SOL    HW122433   1.500   6.972   5.011
 7178SOL    HW222434   1.377   6.999   4.907
 7179SOL     OW22435   4.086   5.002   6.007
 7179SOL    HW122436   4.081   4.903   5.998
 7179SOL    HW222437   4.096   5.044   5.917
 7180SOL     OW22438   1.886   3.010   1.735
 7180SOL    HW122439   1.935   3.007   1.648
 7180SOL    HW222440   1.849   3.102   1.749
 7181SOL     OW22441   2.120   1.414   6.832
 7181SOL    HW122442   2.114   1.440   6.736
 7181SOL    HW222443   2.127   1.314   6.839
 7182SOL     OW22444   1.617   1.189   3.828
 7182SOL    HW122445   1.575   1.238   3.904
 7182SOL    HW222446   1.686   1.125   3.864
 7183SOL     OW22447   1.447   7.014   2.172
 7183SOL    HW122448   1.437   6.915   2.177
 7183SOL    HW222449   1.452   0.029   2.265
 7184SOL     OW22450   6.546   0.732   3.737
 7184SOL    HW122451   6.571   0.820   3.777
 7184SOL    HW222452   6.534   0.664   3.810
 7185SOL     OW22453   4.212   0.624   4.047
 7185SOL    HW122454   4.141   0.685   4.012
 7185SOL    HW222455   4.267   0.672   4.115
 7186SOL     OW22456   6.215   0.736   6.973
 7186SOL    HW122457   6.227   0.817   0.007
 7186SOL    HW222458   6.269   0.661   7.011
 7187SOL     OW22459   3.674   3.653   3.820
 7187SOL    HW122460   3.718   3.565   3.837
 7187SOL    HW222461   3.579   3.650   3.851
 7188SOL     OW22462   4.476   4.637   7.000
 7188SOL    HW122463   4.530   4.555   6.983
 7188SOL    HW222464   4.417   4.623   0.057
 7189SOL     OW22465   6.871   2.585   5.807
 7189SOL    HW122466   6.942   2.516   5.825
 7189SOL    HW222467   6.872   2.609   5.710
 7190SOL     OW22468   6.000   5.160   6.783
 7190SOL    HW122469   5.928   5.230   6.785
 7190SOL    HW222470   5.988   5.099   6.861
 7191SOL     OW22471   6.811   4.925   2.733
 7191SOL    HW122472   6.847   4.857   2.797
 7191SOL    HW222473   6.859   5.012   2.746
 7192SOL     OW22474   2.549   3.928   5.569
 7192SOL    HW122475   2.480   3.858   5.586
 7192SOL    HW222476   2.508   4.004   5.518
 7193SOL     OW22477   3.350   1.780   3.170
 7193SOL    HW122478   3.361   1.849   3.098
 7193SOL    HW222479   3.360   1.689   3.130
 7194SOL     OW22480   3.002   2.388   6.326
 7194SOL    HW122481   3.006   2.460   6.396
 7194SOL    HW222482   2.934   2.320   6.352
 7195SOL     OW22483   0.705   4.196   5.203
 7195SOL    HW122484   0.715   4.261   5.127
 7195SOL    HW222485   0.610   4.195   5.233
 7196SOL     OW22486   3.482   3.964   1.980
 7196SOL    HW122487   3.481   3.979   2.079
 7196SOL    HW222488   3.396   3.998   1.941
 7197SOL     OW22489   3.315   4.322   6.595
 7197SOL    HW122490   3.350   4.313   6.502
 7197SOL    HW222491   3.296   4.231   6.632
 7198SOL     OW22492   0.780   0.832   1.900
 7198SOL    HW122493   0.695   0.810   1.851
 7198SOL    HW222494   0.844   0.876   1.838
 7199SOL     OW22495   5.950   1.747   2.560
 7199SOL    HW122496   5.924   1.659   2.519
 7199SOL    HW222497   5.908   1.756   2.650
 7200SOL     OW22498   0.755   2.627   0.245
 7200SOL    HW122499   0.832   2.677   0.285
 7200SOL    HW222500   0.693   2.691   0.201
 7201SOL     OW22501   6.081   5.468   3.810
 7201SOL    HW122502   6.109   5.536   3.877
 7201SOL    HW222503   6.041   5.513   3.731
 7202SOL     OW22504   4.398   6.459   5.778
 7202SOL    HW122505   4.318   6.399   5.768
 7202SOL    HW222506   4.372   6.554   5.761
 7203SOL     OW22507   0.279   1.495   1.292
 7203SOL    HW122508   0.321   1.461   1.376
 7203SOL    HW222509   0.304   1.435   1.216
 7204SOL     OW22510   6.638   0.805   2.402
 7204SOL    HW122511   6.725   0.802   2.353
 7204SOL    HW222512   6.565   0.770   2.342
 7205SOL     OW22513   2.895   1.898   4.244
 7205SOL    HW122514   2.943   1.960   4.182
 7205SOL    HW222515   2.851   1.950   4.317
 7206SOL     OW22516   1.857   4.107   6.803
 7206SOL    HW122517   1.956   4.121   6.800
 7206SOL    HW222518   1.837   4.009   6.811
 7207SOL     OW22519   2.066   0.991   3.548
 7207SOL    HW122520   2.085   1.057   3.476
 7207SOL    HW222521   2.009   0.918   3.512
 7208SOL     OW22522   3.266   0.683   4.200
 7208SOL    HW122523   3.210   0.743   4.143
 7208SOL    HW222524   3.226   0.591   4.202
 7209SOL     OW22525   3.323   1.129   1.626
 7209SOL    HW122526   3.224   1.111   1.634
 7209SOL    HW222527   3.369   1.093   1.707
 7210SOL     OW22528   3.191   1.162   3.417
 7210SOL    HW122529   3.261   1.171   3.346
 7210SOL    HW222530   3.135   1.245   3.420
 7211SOL     OW22531   4.475   6.224   5.616
 7211SOL    HW122532   4.516   6.215   5.526
 7211SOL    HW222533   4.457   6.321   5.635
 7212SOL     OW22534   0.538   5.232   5.604
 7212SOL    HW122535   0.540   5.203   5.700
 7212SOL    HW222536   0.457   5.289   5.589
 7213SOL     OW22537   4.042   1.963   6.970
 7213SOL    HW122538   4.119   1.939   6.912
 7213SOL    HW222539   4.054   1.921   0.038
 7214SOL     OW22540   5.934   6.976   6.523
 7214SOL    HW122541   5.950   0.037   6.470
 7214SOL    HW222542   5.885   6.909   6.467
 7215SOL     OW22543   6.356   1.480   2.571
 7215SOL    HW122544   6.328   1.494   2.476
 7215SOL    HW222545   6.359   1.382   2.591
 7216SOL     OW22546   4.451   6.829   3.196
 7216SOL    HW122547   4.401   6.747   3.226
 7216SOL    HW222548   4.385   6.900   3.171
 7217SOL     OW22549   0.871   2.995   3.076
 7217SOL    HW122550   0.919   3.078   3.048
 7217SOL    HW222551   0.936   2.920   3.083
 7218SOL     OW22552   6.407   2.864   4.548
 7218SOL    HW122553   6.313   2.895   4.534
 7218SOL    HW222554   6.408   2.766   4.566
 7219SOL     OW22555   2.935   6.240   2.841
 7219SOL    HW122556   2.841   6.262   2.868
 7219SOL    HW222557   2.993   6.235   2.922
 7220SOL     OW22558   6.457   4.570   3.721
 7220SOL    HW122559   6.382   4.504   3.724
 7220SOL    HW222560   6.493   4.576   3.628
 7221SOL     OW22561   4.017   5.337   3.834
 7221SOL    HW122562   4.006   5.277   3.755
 7221SOL    HW222563   4.105   5.385   3.827
 7222SOL     OW22564   6.655   6.130   4.101
 7222SOL    HW122565   6.692   6.038   4.091
 7222SOL    HW222566   6.571   6.138   4.047
 7223SOL     OW22567   0.197   4.202   1.193
 7223SOL    HW122568   0.184   4.251   1.278
 7223SOL    HW222569   0.201   4.103   1.211
 7224SOL     OW22570   4.341   2.059   2.614
 7224SOL    HW122571   4.437   2.084   2.601
 7224SOL    HW222572   4.283   2.134   2.582
 7225SOL     OW22573   1.428   5.551   0.359
 7225SOL    HW122574   1.347   5.505   0.393
 7225SOL    HW222575   1.429   5.646   0.391
 7226SOL     OW22576   0.101   6.337   0.332
 7226SOL    HW122577   0.052   6.374   0.411
 7226SOL    HW222578   0.197   6.362   0.338
 7227SOL     OW22579   1.829   1.390   2.379
 7227SOL    HW122580   1.809   1.297   2.347
 7227SOL    HW222581   1.909   1.388   2.438
 7228SOL     OW22582   6.403   3.283   2.065
 7228SOL    HW122583   6.349   3.324   2.139
 7228SOL    HW222584   6.344   3.223   2.011
 7229SOL     OW22585   6.475   1.261   5.283
 7229SOL    HW122586   6.442   1.192   5.218
 7229SOL    HW222587   6.498   1.216   5.370
 7230SOL     OW22588   2.245   4.891   4.627
 7230SOL    HW122589   2.254   4.793   4.610
 7230SOL    HW222590   2.155   4.921   4.597
 7231SOL     OW22591   4.380   2.658   5.775
 7231SOL    HW122592   4.458   2.613   5.730
 7231SOL    HW222593   4.412   2.735   5.829
 7232SOL     OW22594   4.771   6.443   3.756
 7232SOL    HW122595   4.816   6.384   3.688
 7232SOL    HW222596   4.789   6.539   3.733
 7233SOL     OW22597   0.505   1.405   4.918
 7233SOL    HW122598   0.503   1.340   4.994
 7233SOL    HW222599   0.422   1.461   4.920
 7234SOL     OW22600   5.039   4.348   3.472
 7234SOL    HW122601   5.127   4.301   3.481
 7234SOL    HW222602   5.043   4.435   3.522
 7235SOL     OW22603   6.274   6.414   1.332
 7235SOL    HW122604   6.274   6.446   1.427
 7235SOL    HW222605   6.272   6.315   1.330
 7236SOL     OW22606   1.378   3.621   2.638
 7236SOL    HW122607   1.423   3.710   2.624
 7236SOL    HW222608   1.280   3.635   2.647
 7237SOL     OW22609   5.846   1.002   0.602
 7237SOL    HW122610   5.754   1.036   0.583
 7237SOL    HW222611   5.908   1.079   0.618
 7238SOL     OW22612   4.063   3.468   7.004
 7238SOL    HW122613   4.059   3.533   0.057
 7238SOL    HW222614   4.096   3.514   6.922
 7239SOL     OW22615   6.207   2.110   2.242
 7239SOL    HW122616   6.264   2.094   2.162
 7239SOL    HW222617   6.262   2.099   2.325
 7240SOL     OW22618   6.931   1.598   0.353
 7240SOL    HW122619   6.845   1.592   0.302
 7240SOL    HW222620   6.990   1.666   0.309
 7241SOL     OW22621   2.299   0.919   2.411
 7241SOL    HW122622   2.363   0.992   2.390
 7241SOL    HW222623   2.206   0.948   2.387
 7242SOL     OW22624   6.926   4.339   4.659
 7242SOL    HW122625   6.979   4.295   4.732
 7242SOL    HW222626   6.985   4.353   4.579
 7243SOL     OW22627   5.704   4.664   6.522
 7243SOL    HW122628   5.683   4.610   6.603
 7243SOL    HW222629   5.633   4.650   6.453
 7244SOL     OW22630   6.922   5.980   0.350
 7244SOL    HW122631   6.976   6.017   0.274
 7244SOL    HW222632   6.875   6.055   0.396
 7245SOL     OW22633   0.949   3.298   0.808
 7245SOL    HW122634   1.038   3.340   0.825
 7245SOL    HW222635   0.920   3.320   0.715
 7246SOL     OW22636   4.672   6.751   3.337
 7246SOL    HW122637   4.582   6.779   3.304
 7246SOL    HW222638   4.729   6.725   3.259
 7247SOL     OW22639   3.317   3.906   4.777
 7247SOL    HW122640   3.400   3.906   4.834
 7247SOL    HW222641   3.336   3.858   4.691
 7248SOL     OW22642   3.069   1.501   5.334
 7248SOL    HW122643   3.127   1.575   5.300
 7248SOL    HW222644   3.123   1.443   5.395
 7249SOL     OW22645   4.326   5.094   2.522
 7249SOL    HW122646   4.350   5.104   2.426
 7249SOL    HW222647   4.269   5.170   2.551
 7250SOL     OW22648   5.452   5.047   5.044
 7250SOL    HW122649   5.522   5.068   4.975
 7250SOL    HW222650   5.494   5.009   5.125
 7251SOL     OW22651   0.259   6.246   5.405
 7251SOL    HW122652   0.189   6.224   5.337
 7251SOL    HW222653   0.343   6.272   5.359
 7252SOL     OW22654   3.472   4.129   2.238
 7252SOL    HW122655   3.543   4.106   2.305
 7252SOL    HW222656   3.476   4.227   2.219
 7253SOL     OW22657   2.625   5.408   4.779
 7253SOL    HW122658   2.696   5.455   4.830
 7253SOL    HW222659   2.540   5.407   4.833
 7254SOL     OW22660   5.779   3.145   4.250
 7254SOL    HW122661   5.748   3.171   4.158
 7254SOL    HW222662   5.754   3.217   4.315
 7255SOL     OW22663   4.960   3.663   6.887
 7255SOL    HW122664   4.982   3.719   6.967
 7255SOL    HW222665   5.007   3.575   6.894
 7256SOL     OW22666   3.340   0.011   4.723
 7256SOL    HW122667   3.244   0.040   4.727
 7256SOL    HW222668   3.399   0.088   4.745
 7257SOL     OW22669   0.756   1.395   4.409
 7257SOL    HW122670   0.752   1.490   4.441
 7257SOL    HW222671   0.664   1.359   4.399
 7258SOL     OW22672   5.677   2.712   2.522
 7258SOL    HW122673   5.699   2.756   2.609
 7258SOL    HW222674   5.626   2.775   2.464
 7259SOL     OW22675   1.530   4.122   2.565
 7259SOL    HW122676   1.534   4.023   2.556
 7259SOL    HW222677   1.621   4.161   2.550
 7260SOL     OW22678   5.621   3.266   0.616
 7260SOL    HW122679   5.554   3.304   0.681
 7260SOL    HW222680   5.712   3.300   0.638
 7261SOL     OW22681   6.689   4.164   0.183
 7261SOL    HW122682   6.769   4.180   0.241
 7261SOL    HW222683   6.708   4.088   0.121
 7262SOL     OW22684   5.859   1.258   4.830
 7262SOL    HW122685   5.814   1.293   4.913
 7262SOL    HW222686   5.944   1.308   4.815
 7263SOL     OW22687   0.061   5.857   0.014
 7263SOL    HW122688   0.082   5.939   0.068
 7263SOL    HW222689   7.000   5.873   6.983
 7264SOL     OW22690   5.999   1.235   0.637
 7264SOL    HW122691   6.001   1.255   0.735
 7264SOL    HW222692   6.089   1.252   0.597
 7265SOL     OW22693   3.720   6.961   5.421
 7265SOL    HW122694   3.642   6.977   5.360
 7265SOL    HW222695   3.746   6.865   5.418
 7266SOL     OW22696   0.616   0.795   3.515
 7266SOL    HW122697   0.557   0.835   3.585
 7266SOL    HW222698   0.605   0.696   3.514
 7267SOL     OW22699   6.585   4.601   4.736
 7267SOL    HW122700   6.606   4.653   4.818
 7267SOL    HW222701   6.539   4.660   4.670
 7268SOL     OW22702   6.208   6.888   4.531
 7268SOL    HW122703   6.284   6.887   4.466
 7268SOL    HW222704   6.132   6.834   4.495
 7269SOL     OW22705   2.601   4.645   4.828
 7269SOL    HW122706   2.643   4.616   4.914
 7269SOL    HW222707   2.665   4.701   4.776
 7270SOL     OW22708   0.819   1.211   4.627
 7270SOL    HW122709   0.811   1.113   4.611
 7270SOL    HW222710   0.812   1.260   4.540
 7271SOL     OW22711   0.818   4.661   2.855
 7271SOL    HW122712   0.729   4.705   2.845
 7271SOL    HW222713   0.817   4.573   2.806
 7272SOL     OW22714   6.637   4.450   1.835
 7272SOL    HW122715   6.631   4.415   1.742
 7272SOL    HW222716   6.673   4.543   1.834
 7273SOL     OW22717   1.023   2.444   5.334
 7273SOL    HW122718   0.934   2.489   5.335
 7273SOL    HW222719   1.053   2.428   5.428
 7274SOL     OW22720   0.613   4.639   0.038
 7274SOL    HW122721   0.615   4.729   0.082
 7274SOL    HW222722   0.522   4.622   0.000
 7275SOL     OW22723   0.418   6.792   3.329
 7275SOL    HW122724   0.328   6.825   3.357
 7275SOL    HW222725   0.417   6.772   3.231
 7276SOL     OW22726   5.549   6.800   4.451
 7276SOL    HW122727   5.558   6.753   4.539
 7276SOL    HW222728   5.456   6.788   4.416
 7277SOL     OW22729   4.931   0.184   6.548
 7277SOL    HW122730   4.881   0.242   6.484
 7277SOL    HW222731   4.871   0.109   6.578
 7278SOL     OW22732   3.503   2.817   2.092
 7278SOL    HW122733   3.579   2.790   2.034
 7278SOL    HW222734   3.417   2.799   2.045
 7279SOL     OW22735   3.407   6.367   6.084
 7279SOL    HW122736   3.468   6.357   6.163
 7279SOL    HW222737   3.459   6.354   6.000
 7280SOL     OW22738   4.873   1.229   6.012
 7280SOL    HW122739   4.951   1.185   5.967
 7280SOL    HW222740   4.823   1.162   6.065
 7281SOL     OW22741   4.946   1.507   6.092
 7281SOL    HW122742   5.029   1.556   6.064
 7281SOL    HW222743   4.954   1.411   6.066
 7282SOL     OW22744   5.816   5.307   2.219
 7282SOL    HW122745   5.740   5.287   2.280
 7282SOL    HW222746   5.897   5.256   2.248
 7283SOL     OW22747   1.928   0.791   3.750
 7283SOL    HW122748   2.022   0.776   3.719
 7283SOL    HW222749   1.878   0.705   3.747
 7284SOL     OW22750   0.074   3.020   4.869
 7284SOL    HW122751   0.039   3.050   4.780
 7284SOL    HW222752   0.156   3.072   4.891
 7285SOL     OW22753   5.397   5.159   1.978
 7285SOL    HW122754   5.416   5.242   1.925
 7285SOL    HW222755   5.479   5.102   1.981
 7286SOL     OW22756   2.103   3.610   1.563
 7286SOL    HW122757   2.133   3.652   1.477
 7286SOL    HW222758   2.138   3.664   1.640
 7287SOL     OW22759   5.985   1.817   6.460
 7287SOL    HW122760   5.974   1.804   6.361
 7287SOL    HW222761   5.903   1.783   6.507
 7288SOL     OW22762   3.125   6.030   6.880
 7288SOL    HW122763   3.083   6.120   6.868
 7288SOL    HW222764   3.120   6.004   6.976
 7289SOL     OW22765   5.043   1.787   3.741
 7289SOL    HW122766   5.090   1.781   3.653
 7289SOL    HW222767   5.000   1.699   3.762
 7290SOL     OW22768   3.005   5.363   3.978
 7290SOL    HW122769   2.975   5.440   4.035
 7290SOL    HW222770   2.960   5.369   3.889
 7291SOL     OW22771   2.789   5.248   2.320
 7291SOL    HW122772   2.707   5.303   2.303
 7291SOL    HW222773   2.773   5.187   2.398
 7292SOL     OW22774   2.703   6.901   4.577
 7292SOL    HW122775   2.727   6.805   4.564
 7292SOL    HW222776   2.632   6.927   4.512
 7293SOL     OW22777   1.528   2.393   5.650
 7293SOL    HW122778   1.551   2.386   5.553
 7293SOL    HW222779   1.434   2.363   5.665
 7294SOL     OW22780   3.447   5.604   0.475
 7294SOL    HW122781   3.402   5.594   0.386
 7294SOL    HW222782   3.501   5.688   0.476
 7295SOL     OW22783   5.960   0.157   1.396
 7295SOL    HW122784   5.942   0.131   1.491
 7295SOL    HW222785   6.045   0.209   1.391
 7296SOL     OW22786   4.021   4.989   2.177
 7296SOL    HW122787   4.061   4.923   2.241
 7296SOL    HW222788   3.922   4.975   2.172
 7297SOL     OW22789   5.346   6.993   1.575
 7297SOL    HW122790   5.265   0.023   1.549
 7297SOL    HW222791   5.376   7.021   1.666
 7298SOL     OW22792   6.064   3.679   4.376
 7298SOL    HW122793   5.989   3.682   4.442
 7298SOL    HW222794   6.053   3.600   4.316
 7299SOL     OW22795   6.260   3.766   6.576
 7299SOL    HW122796   6.259   3.724   6.667
 7299SOL    HW222797   6.343   3.739   6.528
 7300SOL     OW22798   4.437   4.777   1.043
 7300SOL    HW122799   4.450   4.731   1.131
 7300SOL    HW222800   4.353   4.831   1.046
 7301SOL     OW22801   6.678   0.768   6.615
 7301SOL    HW122802   6.746   0.695   6.612
 7301SOL    HW222803   6.626   0.769   6.530
 7302SOL     OW22804   5.077   1.128   6.298
 7302SOL    HW122805   4.978   1.135   6.314
 7302SOL    HW222806   5.125   1.194   6.356
 7303SOL     OW22807   3.848   1.392   0.515
 7303SOL    HW122808   3.853   1.293   0.504
 7303SOL    HW222809   3.753   1.420   0.529
 7304SOL     OW22810   3.455   4.212   5.536
 7304SOL    HW122811   3.506   4.271   5.473
 7304SOL    HW222812   3.489   4.118   5.528
 7305SOL     OW22813   5.401   1.480   0.147
 7305SOL    HW122814   5.324   1.544   0.152
 7305SOL    HW222815   5.422   1.462   0.051
 7306SOL     OW22816   4.707   4.863   1.636
 7306SOL    HW122817   4.674   4.893   1.546
 7306SOL    HW222818   4.766   4.934   1.675
 7307SOL     OW22819   4.397   6.828   2.490
 7307SOL    HW122820   4.321   6.827   2.555
 7307SOL    HW222821   4.365   6.868   2.403
 7308SOL     OW22822   6.506   1.488   4.398
 7308SOL    HW122823   6.433   1.478   4.466
 7308SOL    HW222824   6.582   1.428   4.421
 7309SOL     OW22825   4.837   5.960   1.389
 7309SOL    HW122826   4.928   5.921   1.404
 7309SOL    HW222827   4.845   6.047   1.340
 7310SOL     OW22828   2.887   5.180   1.772
 7310SOL    HW122829   2.823   5.141   1.838
 7310SOL    HW222830   2.859   5.153   1.679
 7311SOL     OW22831   2.776   2.114   1.954
 7311SOL    HW122832   2.820   2.199   1.980
 7311SOL    HW222833   2.779   2.104   1.854
 7312SOL     OW22834   6.751   1.654   5.833
 7312SOL    HW122835   6.732   1.621   5.926
 7312SOL    HW222836   6.844   1.627   5.807
 7313SOL     OW22837   4.393   2.810   6.639
 7313SOL    HW122838   4.315   2.830   6.699
 7313SOL    HW222839   4.360   2.772   6.553
 7314SOL     OW22840   0.357   3.524   4.147
 7314SOL    HW122841   0.348   3.614   4.191
 7314SOL    HW222842   0.418   3.467   4.201
 7315SOL     OW22843   6.890   0.234   4.926
 7315SOL    HW122844   6.846   0.281   4.849
 7315SOL    HW222845   6.948   0.299   4.975
 7316SOL     OW22846   3.516   3.942   5.471
 7316SOL    HW122847   3.584   3.921   5.400
 7316SOL    HW222848   3.490   3.857   5.517
 7317SOL     OW22849   3.446   0.902   3.931
 7317SOL    HW122850   3.469   0.979   3.871
 7317SOL    HW222851   3.442   0.934   4.025
 7318SOL     OW22852   2.101   2.034   1.504
 7318SOL    HW122853   2.149   2.013   1.589
 7318SOL    HW222854   2.163   2.080   1.441
 7319SOL     OW22855   6.213   4.875   6.542
 7319SOL    HW122856   6.257   4.862   6.453
 7319SOL    HW222857   6.118   4.845   6.536
 7320SOL     OW22858   6.984   2.837   1.753
 7320SOL    HW122859   6.943   2.755   1.715
 7320SOL    HW222860   6.935   2.864   1.836
 7321SOL     OW22861   3.239   1.134   4.758
 7321SOL    HW122862   3.202   1.129   4.850
 7321SOL    HW222863   3.167   1.112   4.692
 7322SOL     OW22864   0.569   3.730   2.902
 7322SOL    HW122865   0.665   3.741   2.931
 7322SOL    HW222866   0.522   3.817   2.911
 7323SOL     OW22867   2.151   3.329   3.147
 7323SOL    HW122868   2.101   3.394   3.204
 7323SOL    HW222869   2.134   3.350   3.051
 7324SOL     OW22870   5.589   6.559   3.007
 7324SOL    HW122871   5.667   6.511   3.047
 7324SOL    HW222872   5.507   6.539   3.061
 7325SOL     OW22873   2.961   6.281   6.874
 7325SOL    HW122874   2.968   6.337   6.957
 7325SOL    HW222875   2.875   6.301   6.828
 7326SOL     OW22876   3.131   6.601   5.668
 7326SOL    HW122877   3.092   6.509   5.658
 7326SOL    HW222878   3.097   6.643   5.752
 7327SOL     OW22879   1.176   2.993   5.822
 7327SOL    HW122880   1.144   2.898   5.823
 7327SOL    HW222881   1.276   2.994   5.824
 7328SOL     OW22882   2.616   0.303   7.019
 7328SOL    HW122883   2.518   0.312   7.002
 7328SOL    HW222884   2.651   0.220   6.975
 7329SOL     OW22885   4.348   3.065   1.436
 7329SOL    HW122886   4.350   2.999   1.361
 7329SOL    HW222887   4.255   3.103   1.444
 7330SOL     OW22888   3.727   1.456   0.115
 7330SOL    HW122889   3.797   1.523   0.141
 7330SOL    HW222890   3.656   1.454   0.186
 7331SOL     OW22891   5.272   0.576   1.357
 7331SOL    HW122892   5.364   0.572   1.320
 7331SOL    HW222893   5.231   0.665   1.336
 7332SOL     OW22894   3.521   5.389   1.229
 7332SOL    HW122895   3.591   5.449   1.191
 7332SOL    HW222896   3.543   5.294   1.207
 7333SOL     OW22897   1.074   4.955   2.566
 7333SOL    HW122898   1.112   4.950   2.474
 7333SOL    HW222899   1.082   5.049   2.600
 7334SOL     OW22900   3.962   6.632   4.199
 7334SOL    HW122901   3.896   6.560   4.217
 7334SOL    HW222902   3.943   6.673   4.109
 7335SOL     OW22903   1.901   2.428   3.046
 7335SOL    HW122904   1.821   2.471   3.004
 7335SOL    HW222905   1.953   2.497   3.096
 7336SOL     OW22906   1.832   0.146   3.644
 7336SOL    HW122907   1.788   0.157   3.555
 7336SOL    HW222908   1.762   0.142   3.715
 7337SOL     OW22909   5.885   2.979   2.423
 7337SOL    HW122910   5.960   3.046   2.424
 7337SOL    HW222911   5.906   2.908   2.356
 7338SOL     OW22912   6.290   3.086   0.200
 7338SOL    HW122913   6.319   3.016   0.136
 7338SOL    HW222914   6.369   3.140   0.230
 7339SOL     OW22915   0.445   5.355   4.631
 7339SOL    HW122916   0.446   5.447   4.590
 7339SOL    HW222917   0.539   5.322   4.640
 7340SOL     OW22918   1.870   0.103   6.629
 7340SOL    HW122919   1.958   0.149   6.644
 7340SOL    HW222920   1.814   0.156   6.565
 7341SOL     OW22921   6.551   2.648   0.146
 7341SOL    HW122922   6.580   2.637   0.241
 7341SOL    HW222923   6.616   2.602   0.085
 7342SOL     OW22924   6.718   6.818   2.223
 7342SOL    HW122925   6.698   6.909   2.259
 7342SOL    HW222926   6.742   6.825   2.126
 7343SOL     OW22927   5.071   2.962   0.772
 7343SOL    HW122928   4.989   3.018   0.783
 7343SOL    HW222929   5.060   2.901   0.694
 7344SOL     OW22930   1.366   6.533   5.927
 7344SOL    HW122931   1.365   6.618   5.980
 7344SOL    HW222932   1.333   6.551   5.834
 7345SOL     OW22933   3.427   5.215   6.082
 7345SOL    HW122934   3.521   5.239   6.109
 7345SOL    HW222935   3.369   5.213   6.163
 7346SOL     OW22936   4.831   4.803   2.760
 7346SOL    HW122937   4.770   4.872   2.721
 7346SOL    HW222938   4.925   4.821   2.731
 7347SOL     OW22939   5.879   2.138   6.438
 7347SOL    HW122940   5.889   2.225   6.390
 7347SOL    HW222941   5.968   2.096   6.452
 7348SOL     OW22942   6.918   4.284   1.552
 7348SOL    HW122943   6.974   4.325   1.480
 7348SOL    HW222944   6.975   4.260   1.630
 7349SOL     OW22945   3.915   1.817   2.120
 7349SOL    HW122946   3.849   1.879   2.078
 7349SOL    HW222947   4.004   1.829   2.077
 7350SOL     OW22948   3.213   0.433   4.571
 7350SOL    HW122949   3.183   0.347   4.530
 7350SOL    HW222950   3.156   0.508   4.535
 7351SOL     OW22951   3.236   4.975   3.902
 7351SOL    HW122952   3.324   4.932   3.879
 7351SOL    HW222953   3.242   5.074   3.884
 7352SOL     OW22954   6.676   2.600   3.884
 7352SOL    HW122955   6.701   2.510   3.848
 7352SOL    HW222956   6.702   2.671   3.819
 7353SOL     OW22957   6.108   0.293   6.258
 7353SOL    HW122958   6.160   0.276   6.174
 7353SOL    HW222959   6.052   0.213   6.279
 7354SOL     OW22960   0.328   1.780   2.951
 7354SOL    HW122961   0.293   1.801   3.042
 7354SOL    HW222962   0.424   1.807   2.945
 7355SOL     OW22963   2.401   2.053   0.215
 7355SOL    HW122964   2.431   1.967   0.256
 7355SOL    HW222965   2.441   2.062   0.124
 7356SOL     OW22966   4.311   4.021   5.947
 7356SOL    HW122967   4.277   4.008   6.040
 7356SOL    HW222968   4.300   3.936   5.895
 7357SOL     OW22969   5.180   5.775   2.539
 7357SOL    HW122970   5.161   5.859   2.589
 7357SOL    HW222971   5.162   5.696   2.598
 7358SOL     OW22972   5.795   0.970   3.329
 7358SOL    HW122973   5.771   0.958   3.425
 7358SOL    HW222974   5.756   0.896   3.275
 7359SOL     OW22975   4.726   0.215   1.368
 7359SOL    HW122976   4.664   0.253   1.300
 7359SOL    HW222977   4.750   0.121   1.343
 7360SOL     OW22978   3.080   3.431   5.052
 7360SOL    HW122979   3.129   3.348   5.081
 7360SOL    HW222980   3.114   3.460   4.962
 7361SOL     OW22981   5.857   0.691   3.363
 7361SOL    HW122982   5.919   0.616   3.384
 7361SOL    HW222983   5.900   0.778   3.389
 7362SOL     OW22984   3.312   4.868   6.871
 7362SOL    HW122985   3.269   4.932   6.935
 7362SOL    HW222986   3.348   4.790   6.922
 7363SOL     OW22987   3.614   0.700   0.517
 7363SOL    HW122988   3.706   0.720   0.551
 7363SOL    HW222989   3.550   0.695   0.593
 7364SOL     OW22990   5.801   6.766   1.305
 7364SOL    HW122991   5.865   6.736   1.375
 7364SOL    HW222992   5.847   6.765   1.216
 7365SOL     OW22993   5.321   4.998   2.718
 7365SOL    HW122994   5.414   4.972   2.690
 7365SOL    HW222995   5.325   5.079   2.777
 7366SOL     OW22996   1.863   0.517   4.023
 7366SOL    HW122997   1.960   0.534   4.037
 7366SOL    HW222998   1.821   0.488   4.110
 7367SOL     OW22999   4.189   0.238   6.854
 7367SOL    HW123000   4.101   0.192   6.844
 7367SOL    HW223001   4.212   0.246   6.951
 7368SOL     OW23002   3.588   3.784   3.380
 7368SOL    HW123003   3.634   3.872   3.372
 7368SOL    HW223004   3.580   3.742   3.289
 7369SOL     OW23005   5.249   2.059   0.455
 7369SOL    HW123006   5.209   1.988   0.514
 7369SOL    HW223007   5.348   2.062   0.470
 7370SOL     OW23008   1.539   1.142   4.565
 7370SOL    HW123009   1.552   1.043   4.566
 7370SOL    HW223010   1.492   1.170   4.649
 7371SOL     OW23011   3.618   1.019   3.718
 7371SOL    HW123012   3.544   1.053   3.659
 7371SOL    HW223013   3.684   0.967   3.662
 7372SOL     OW23014   5.566   1.188   5.393
 7372SOL    HW123015   5.566   1.249   5.473
 7372SOL    HW223016   5.657   1.190   5.350
 7373SOL     OW23017   5.815   3.617   4.517
 7373SOL    HW123018   5.809   3.572   4.606
 7373SOL    HW223019   5.782   3.711   4.525
 7374SOL     OW23020   6.620   2.479   5.234
 7374SOL    HW123021   6.600   2.573   5.205
 7374SOL    HW223022   6.552   2.417   5.194
 7375SOL     OW23023   1.626   3.579   2.169
 7375SOL    HW123024   1.659   3.612   2.080
 7375SOL    HW223025   1.688   3.508   2.203
 7376SOL     OW23026   6.703   3.481   0.338
 7376SOL    HW123027   6.712   3.387   0.372
 7376SOL    HW223028   6.663   3.538   0.410
 7377SOL     OW23029   2.253   6.125   1.333
 7377SOL    HW123030   2.290   6.134   1.241
 7377SOL    HW223031   2.213   6.213   1.361
 7378SOL     OW23032   1.211   5.336   4.409
 7378SOL    HW123033   1.124   5.335   4.359
 7378SOL    HW223034   1.219   5.253   4.464
 7379SOL     OW23035   3.733   0.979   1.402
 7379SOL    HW123036   3.652   0.959   1.458
 7379SOL    HW223037   3.782   1.056   1.441
 7380SOL     OW23038   5.109   4.058   1.981
 7380SOL    HW123039   5.021   4.013   1.964
 7380SOL    HW223040   5.134   4.046   2.077
 7381SOL     OW23041   3.653   0.803   1.151
 7381SOL    HW123042   3.647   0.747   1.233
 7381SOL    HW223043   3.698   0.890   1.173
 7382SOL     OW23044   6.408   1.024   6.202
 7382SOL    HW123045   6.495   1.036   6.251
 7382SOL    HW223046   6.332   1.040   6.265
 7383SOL     OW23047   2.176   0.237   0.878
 7383SOL    HW123048   2.156   0.187   0.793
 7383SOL    HW223049   2.118   0.318   0.883
 7384SOL     OW23050   6.827   6.754   0.919
 7384SOL    HW123051   6.758   6.689   0.950
 7384SOL    HW223052   6.870   6.720   0.835
 7385SOL     OW23053   5.933   4.072   2.831
 7385SOL    HW123054   5.946   4.067   2.930
 7385SOL    HW223055   6.002   4.134   2.792
 7386SOL     OW23056   5.523   3.444   6.937
 7386SOL    HW123057   5.575   3.483   6.861
 7386SOL    HW223058   5.568   3.360   6.968
 7387SOL     OW23059   6.712   5.746   5.359
 7387SOL    HW123060   6.767   5.814   5.310
 7387SOL    HW223061   6.620   5.782   5.373
 7388SOL     OW23062   2.285   5.015   3.398
 7388SOL    HW123063   2.286   4.922   3.434
 7388SOL    HW223064   2.275   5.080   3.474
 7389SOL     OW23065   5.830   2.570   0.236
 7389SOL    HW123066   5.766   2.620   0.294
 7389SOL    HW223067   5.848   2.623   0.153
 7390SOL     OW23068   2.253   2.846   3.374
 7390SOL    HW123069   2.246   2.941   3.343
 7390SOL    HW223070   2.194   2.833   3.454
 7391SOL     OW23071   3.547   3.650   3.151
 7391SOL    HW123072   3.478   3.658   3.079
 7391SOL    HW223073   3.637   3.672   3.115
 7392SOL     OW23074   3.121   6.391   6.658
 7392SOL    HW123075   3.050   6.370   6.725
 7392SOL    HW223076   3.097   6.475   6.610
 7393SOL     OW23077   5.726   5.201   4.011
 7393SOL    HW123078   5.734   5.214   4.110
 7393SOL    HW223079   5.660   5.128   3.991
 7394SOL     OW23080   2.987   1.989   5.768
 7394SOL    HW123081   2.987   1.902   5.817
 7394SOL    HW223082   2.937   1.979   5.682
 7395SOL     OW23083   2.333   6.109   1.070
 7395SOL    HW123084   2.309   6.056   0.988
 7395SOL    HW223085   2.427   6.088   1.096
 7396SOL     OW23086   2.427   5.077   2.382
 7396SOL    HW123087   2.490   5.025   2.323
 7396SOL    HW223088   2.348   5.106   2.328
 7397SOL     OW23089   6.060   4.220   3.902
 7397SOL    HW123090   6.062   4.121   3.888
 7397SOL    HW223091   5.984   4.259   3.851
 7398SOL     OW23092   2.780   4.759   2.461
 7398SOL    HW123093   2.736   4.734   2.547
 7398SOL    HW223094   2.825   4.848   2.471
 7399SOL     OW23095   5.313   2.105   5.839
 7399SOL    HW123096   5.334   2.007   5.831
 7399SOL    HW223097   5.256   2.120   5.919
 7400SOL     OW23098   5.328   2.991   5.482
 7400SOL    HW123099   5.307   2.971   5.578
 7400SOL    HW223100   5.392   2.923   5.447
 7401SOL     OW23101   1.504   3.095   4.025
 7401SOL    HW123102   1.567   3.065   4.097
 7401SOL    HW223103   1.495   3.023   3.956
 7402SOL     OW23104   3.706   5.630   4.334
 7402SOL    HW123105   3.678   5.707   4.392
 7402SOL    HW223106   3.626   5.575   4.311
 7403SOL     OW23107   1.756   3.948   4.498
 7403SOL    HW123108   1.709   3.947   4.410
 7403SOL    HW223109   1.835   4.009   4.494
 7404SOL     OW23110   3.454   3.588   1.033
 7404SOL    HW123111   3.429   3.640   1.115
 7404SOL    HW223112   3.456   3.490   1.055
 7405SOL     OW23113   3.625   6.791   3.643
 7405SOL    HW123114   3.696   6.855   3.673
 7405SOL    HW223115   3.579   6.752   3.723
 7406SOL     OW23116   1.107   1.860   5.485
 7406SOL    HW123117   1.090   1.786   5.421
 7406SOL    HW223118   1.145   1.938   5.436
 7407SOL     OW23119   0.833   5.892   5.652
 7407SOL    HW123120   0.874   5.822   5.593
 7407SOL    HW223121   0.774   5.951   5.597
 7408SOL     OW23122   4.299   5.199   5.198
 7408SOL    HW123123   4.357   5.216   5.278
 7408SOL    HW223124   4.203   5.200   5.226
 7409SOL     OW23125   6.725   3.636   1.312
 7409SOL    HW123126   6.705   3.673   1.402
 7409SOL    HW223127   6.807   3.679   1.275
 7410SOL     OW23128   0.214   0.782   1.135
 7410SOL    HW123129   0.216   0.835   1.050
 7410SOL    HW223130   0.130   0.728   1.139
 7411SOL     OW23131   2.426   2.066   5.163
 7411SOL    HW123132   2.419   2.008   5.082
 7411SOL    HW223133   2.339   2.112   5.179
 7412SOL     OW23134   3.765   6.861   0.474
 7412SOL    HW123135   3.789   6.785   0.533
 7412SOL    HW223136   3.816   6.943   0.503
 7413SOL     OW23137   4.948   0.136   2.980
 7413SOL    HW123138   4.903   0.086   2.906
 7413SOL    HW223139   4.879   0.167   3.045
 7414SOL     OW23140   3.292   1.301   4.227
 7414SOL    HW123141   3.364   1.370   4.234
 7414SOL    HW223142   3.252   1.303   4.135
 7415SOL     OW23143   3.881   6.648   6.531
 7415SOL    HW123144   3.929   6.722   6.484
 7415SOL    HW223145   3.947   6.592   6.581
 7416SOL     OW23146   1.425   0.829   1.712
 7416SOL    HW123147   1.491   0.895   1.675
 7416SOL    HW223148   1.452   0.736   1.685
 7417SOL     OW23149   0.172   0.990   2.660
 7417SOL    HW123150   0.196   0.998   2.563
 7417SOL    HW223151   0.177   1.080   2.703
 7418SOL     OW23152   1.306   4.415   6.032
 7418SOL    HW123153   1.344   4.394   5.942
 7418SOL    HW223154   1.245   4.341   6.061
 7419SOL     OW23155   6.935   4.071   4.091
 7419SOL    HW123156   6.837   4.051   4.101
 7419SOL    HW223157   6.962   4.059   3.996
 7420SOL     OW23158   0.350   0.070   1.855
 7420SOL    HW123159   0.405   7.018   1.817
 7420SOL    HW223160   0.254   0.043   1.857
 7421SOL     OW23161   5.614   3.603   1.282
 7421SOL    HW123162   5.615   3.592   1.382
 7421SOL    HW223163   5.626   3.699   1.259
 7422SOL     OW23164   5.311   2.725   2.398
 7422SOL    HW123165   5.344   2.683   2.314
 7422SOL    HW223166   5.326   2.663   2.475
 7423SOL     OW23167   5.035   1.996   5.636
 7423SOL    HW123168   5.014   2.027   5.729
 7423SOL    HW223169   5.127   1.957   5.634
 7424SOL     OW23170   0.211   2.336   3.616
 7424SOL    HW123171   0.119   2.300   3.631
 7424SOL    HW223172   0.278   2.264   3.637
 7425SOL     OW23173   5.688   0.709   1.072
 7425SOL    HW123174   5.614   0.775   1.081
 7425SOL    HW223175   5.762   0.747   1.017
 7426SOL     OW23176   4.027   3.127   5.824
 7426SOL    HW123177   3.939   3.174   5.830
 7426SOL    HW223178   4.100   3.195   5.814
 7427SOL     OW23179   3.070   0.970   3.267
 7427SOL    HW123180   3.109   1.045   3.321
 7427SOL    HW223181   3.105   0.975   3.173
 7428SOL     OW23182   4.353   6.241   4.827
 7428SOL    HW123183   4.317   6.306   4.895
 7428SOL    HW223184   4.409   6.173   4.873
 7429SOL     OW23185   0.990   6.808   2.915
 7429SOL    HW123186   0.977   6.861   2.831
 7429SOL    HW223187   0.958   6.860   2.993
 7430SOL     OW23188   6.624   5.338   2.574
 7430SOL    HW123189   6.721   5.327   2.554
 7430SOL    HW223190   6.608   5.430   2.611
 7431SOL     OW23191   1.524   1.620   3.166
 7431SOL    HW123192   1.463   1.564   3.110
 7431SOL    HW223193   1.474   1.700   3.199
 7432SOL     OW23194   2.426   1.030   3.390
 7432SOL    HW123195   2.517   1.058   3.420
 7432SOL    HW223196   2.431   0.993   3.298
 7433SOL     OW23197   2.712   0.032   6.542
 7433SOL    HW123198   2.660   6.972   6.565
 7433SOL    HW223199   2.654   0.112   6.553
 7434SOL     OW23200   3.863   6.957   4.261
 7434SOL    HW123201   3.833   6.862   4.266
 7434SOL    HW223202   3.786   7.014   4.233
 7435SOL     OW23203   5.269   4.069   2.853
 7435SOL    HW123204   5.301   4.144   2.795
 7435SOL    HW223205   5.213   4.106   2.928
 7436SOL     OW23206   5.354   2.758   6.067
 7436SOL    HW123207   5.391   2.723   6.153
 7436SOL    HW223208   5.296   2.838   6.085
 7437SOL     OW23209   2.912   0.383   0.589
 7437SOL    HW123210   3.000   0.392   0.636
 7437SOL    HW223211   2.839   0.370   0.656
 7438SOL     OW23212   2.007   0.537   0.149
 7438SOL    HW123213   1.975   0.466   0.085
 7438SOL    HW223214   2.104   0.554   0.134
 7439SOL     OW23215   1.080   4.602   6.569
 7439SOL    HW123216   1.044   4.681   6.618
 7439SOL    HW223217   1.178   4.614   6.552
 7440SOL     OW23218   5.776   3.706   4.085
 7440SOL    HW123219   5.748   3.646   4.160
 7440SOL    HW223220   5.717   3.692   4.006
 7441SOL     OW23221   5.789   5.665   0.652
 7441SOL    HW123222   5.806   5.739   0.587
 7441SOL    HW223223   5.702   5.680   0.697
 7442SOL     OW23224   5.385   0.858   5.615
 7442SOL    HW123225   5.353   0.908   5.695
 7442SOL    HW223226   5.470   0.810   5.637
 7443SOL     OW23227   0.872   1.262   2.476
 7443SOL    HW123228   0.928   1.181   2.492
 7443SOL    HW223229   0.867   1.280   2.377
 7444SOL     OW23230   1.485   6.530   0.119
 7444SOL    HW123231   1.471   6.542   0.020
 7444SOL    HW223232   1.401   6.495   0.160
 7445SOL     OW23233   3.495   5.854   1.682
 7445SOL    HW123234   3.445   5.909   1.615
 7445SOL    HW223235   3.467   5.879   1.774
 7446SOL     OW23236   5.300   4.551   0.028
 7446SOL    HW123237   5.278   4.550   0.126
 7446SOL    HW223238   5.304   4.457   7.016
 7447SOL     OW23239   0.320   4.314   0.313
 7447SOL    HW123240   0.266   4.287   0.393
 7447SOL    HW223241   0.391   4.379   0.342
 7448SOL     OW23242   4.453   6.023   6.848
 7448SOL    HW123243   4.508   5.956   6.798
 7448SOL    HW223244   4.356   6.000   6.841
 7449SOL     OW23245   6.720   4.544   5.736
 7449SOL    HW123246   6.762   4.631   5.712
 7449SOL    HW223247   6.675   4.505   5.656
 7450SOL     OW23248   5.666   2.205   5.294
 7450SOL    HW123249   5.675   2.203   5.394
 7450SOL    HW223250   5.702   2.121   5.255
 7451SOL     OW23251   4.624   4.312   3.150
 7451SOL    HW123252   4.720   4.314   3.179
 7451SOL    HW223253   4.565   4.303   3.230
 7452SOL     OW23254   5.956   5.450   5.864
 7452SOL    HW123255   5.964   5.470   5.766
 7452SOL    HW223256   6.026   5.383   5.890
 7453SOL     OW23257   3.880   5.733   5.895
 7453SOL    HW123258   3.804   5.775   5.845
 7453SOL    HW223259   3.865   5.742   5.993
 7454SOL     OW23260   4.192   2.086   1.188
 7454SOL    HW123261   4.274   2.091   1.131
 7454SOL    HW223262   4.211   2.033   1.270
 7455SOL     OW23263   6.625   2.263   2.814
 7455SOL    HW123264   6.598   2.236   2.721
 7455SOL    HW223265   6.696   2.333   2.810
 7456SOL     OW23266   2.639   2.028   6.531
 7456SOL    HW123267   2.575   2.060   6.461
 7456SOL    HW223268   2.607   1.941   6.567
 7457SOL     OW23269   1.738   1.144   2.274
 7457SOL    HW123270   1.653   1.182   2.238
 7457SOL    HW223271   1.775   1.077   2.209
 7458SOL     OW23272   1.768   5.357   5.304
 7458SOL    HW123273   1.726   5.409   5.379
 7458SOL    HW223274   1.702   5.346   5.230
 7459SOL     OW23275   5.758   0.383   2.461
 7459SOL    HW123276   5.829   0.406   2.528
 7459SOL    HW223277   5.670   0.372   2.509
 7460SOL     OW23278   1.684   6.266   1.339
 7460SOL    HW123279   1.770   6.227   1.307
 7460SOL    HW223280   1.703   6.339   1.405
 7461SOL     OW23281   2.181   4.166   5.475
 7461SOL    HW123282   2.178   4.145   5.573
 7461SOL    HW223283   2.268   4.133   5.437
 7462SOL     OW23284   1.354   4.124   0.782
 7462SOL    HW123285   1.348   4.196   0.713
 7462SOL    HW223286   1.364   4.166   0.872
 7463SOL     OW23287   4.211   4.918   1.082
 7463SOL    HW123288   4.161   4.953   1.161
 7463SOL    HW223289   4.163   4.944   0.998
 7464SOL     OW23290   5.767   6.742   5.600
 7464SOL    HW123291   5.689   6.680   5.610
 7464SOL    HW223292   5.810   6.757   5.690
 7465SOL     OW23293   1.975   4.495   6.976
 7465SOL    HW123294   1.909   4.470   0.024
 7465SOL    HW223295   2.025   4.577   7.005
 7466SOL     OW23296   0.353   0.724   5.280
 7466SOL    HW123297   0.412   0.701   5.203
 7466SOL    HW223298   0.258   0.709   5.255
 7467SOL     OW23299   0.925   3.670   4.992
 7467SOL    HW123300   0.989   3.731   4.945
 7467SOL    HW223301   0.968   3.635   5.076
 7468SOL     OW23302   6.004   3.257   5.606
 7468SOL    HW123303   5.931   3.325   5.618
 7468SOL    HW223304   5.968   3.166   5.626
 7469SOL     OW23305   0.371   1.670   0.845
 7469SOL    HW123306   0.468   1.689   0.827
 7469SOL    HW223307   0.333   1.617   0.769
 7470SOL     OW23308   5.675   2.614   3.579
 7470SOL    HW123309   5.675   2.600   3.678
 7470SOL    HW223310   5.766   2.645   3.550
 7471SOL     OW23311   3.962   6.068   6.248
 7471SOL    HW123312   3.930   6.133   6.318
 7471SOL    HW223313   4.046   6.024   6.280
 7472SOL     OW23314   6.498   0.250   6.130
 7472SOL    HW123315   6.435   0.327   6.116
 7472SOL    HW223316   6.574   0.279   6.188
 7473SOL     OW23317   3.384   5.979   3.713
 7473SOL    HW123318   3.357   5.927   3.632
 7473SOL    HW223319   3.464   5.936   3.754
 7474SOL     OW23320   5.980   1.847   6.859
 7474SOL    HW123321   6.058   1.847   6.921
 7474SOL    HW223322   5.900   1.883   6.907
 7475SOL     OW23323   5.027   1.718   0.925
 7475SOL    HW123324   4.968   1.723   0.845
 7475SOL    HW223325   5.021   1.803   0.978
 7476SOL     OW23326   1.996   0.322   3.359
 7476SOL    HW123327   2.013   0.268   3.276
 7476SOL    HW223328   2.043   0.280   3.436
 7477SOL     OW23329   1.090   3.252   5.272
 7477SOL    HW123330   1.093   3.156   5.298
 7477SOL    HW223331   1.019   3.299   5.325
 7478SOL     OW23332   0.410   1.029   5.606
 7478SOL    HW123333   0.417   1.118   5.651
 7478SOL    HW223334   0.371   1.040   5.515
 7479SOL     OW23335   5.247   2.777   1.022
 7479SOL    HW123336   5.166   2.832   1.043
 7479SOL    HW223337   5.248   2.695   1.080
 7480SOL     OW23338   3.639   4.914   2.706
 7480SOL    HW123339   3.685   4.908   2.617
 7480SOL    HW223340   3.561   4.852   2.707
 7481SOL     OW23341   0.068   3.726   6.739
 7481SOL    HW123342   7.015   3.707   6.676
 7481SOL    HW223343   0.072   3.824   6.757
 7482SOL     OW23344   5.337   1.874   2.806
 7482SOL    HW123345   5.247   1.897   2.769
 7482SOL    HW223346   5.332   1.872   2.906
 7483SOL     OW23347   4.731   2.167   5.747
 7483SOL    HW123348   4.705   2.113   5.667
 7483SOL    HW223349   4.658   2.163   5.815
 7484SOL     OW23350   2.931   0.124   4.075
 7484SOL    HW123351   3.009   0.076   4.114
 7484SOL    HW223352   2.926   0.216   4.113
 7485SOL     OW23353   3.595   6.653   6.431
 7485SOL    HW123354   3.517   6.698   6.475
 7485SOL    HW223355   3.670   6.644   6.496
 7486SOL     OW23356   2.645   6.175   0.828
 7486SOL    HW123357   2.581   6.241   0.867
 7486SOL    HW223358   2.730   6.176   0.881
 7487SOL     OW23359   3.662   6.196   4.522
 7487SOL    HW123360   3.720   6.267   4.482
 7487SOL    HW223361   3.711   6.153   4.599
 7488SOL     OW23362   0.815   5.598   4.329
 7488SOL    HW123363   0.816   5.645   4.241
 7488SOL    HW223364   0.872   5.648   4.394
 7489SOL     OW23365   5.609   3.088   6.595
 7489SOL    HW123366   5.561   3.007   6.627
 7489SOL    HW223367   5.575   3.115   6.505
 7490SOL     OW23368   1.171   2.890   2.484
 7490SOL    HW123369   1.258   2.915   2.528
 7490SOL    HW223370   1.141   2.965   2.425
 7491SOL     OW23371   4.210   3.789   0.124
 7491SOL    HW123372   4.243   3.812   0.032
 7491SOL    HW223373   4.286   3.754   0.179
 7492SOL     OW23374   1.320   0.252   4.197
 7492SOL    HW123375   1.335   0.184   4.269
 7492SOL    HW223376   1.405   0.268   4.148
 7493SOL     OW23377   6.588   4.710   5.007
 7493SOL    HW123378   6.587   4.613   5.032
 7493SOL    HW223379   6.674   4.751   5.037
 7494SOL     OW23380   6.590   1.142   1.957
 7494SOL    HW123381   6.627   1.233   1.979
 7494SOL    HW223382   6.514   1.153   1.893
 7495SOL     OW23383   1.427   3.306   4.817
 7495SOL    HW123384   1.494   3.232   4.820
 7495SOL    HW223385   1.353   3.287   4.882
 7496SOL     OW23386   5.702   4.081   2.306
 7496SOL    HW123387   5.741   4.169   2.277
 7496SOL    HW223388   5.711   4.073   2.405
 7497SOL     OW23389   6.763   6.687   1.402
 7497SOL    HW123390   6.819   6.643   1.332
 7497SOL    HW223391   6.718   6.618   1.458
 7498SOL     OW23392   3.070   6.228   3.074
 7498SOL    HW123393   3.160   6.184   3.076
 7498SOL    HW223394   3.072   6.310   3.131
 7499SOL     OW23395   2.917   1.453   3.997
 7499SOL    HW123396   2.865   1.461   3.912
 7499SOL    HW223397   2.898   1.532   4.055
 7500SOL     OW23398   3.969   0.771   2.972
 7500SOL    HW123399   3.974   0.691   3.032
 7500SOL    HW223400   3.967   0.854   3.028
 7501SOL     OW23401   6.553   2.632   5.553
 7501SOL    HW123402   6.620   2.607   5.483
 7501SOL    HW223403   6.577   2.720   5.594
 7502SOL     OW23404   4.350   0.723   4.254
 7502SOL    HW123405   4.446   0.704   4.233
 7502SOL    HW223406   4.336   0.719   4.353
 7503SOL     OW23407   1.923   5.482   2.261
 7503SOL    HW123408   1.976   5.565   2.280
 7503SOL    HW223409   1.889   5.444   2.347
 7504SOL     OW23410   5.916   6.379   4.873
 7504SOL    HW123411   5.878   6.438   4.801
 7504SOL    HW223412   5.878   6.287   4.864
 7505SOL     OW23413   0.104   6.591   4.943
 7505SOL    HW123414   0.138   6.685   4.945
 7505SOL    HW223415   0.158   6.537   4.878
 7506SOL     OW23416   3.787   1.842   3.874
 7506SOL    HW123417   3.793   1.934   3.833
 7506SOL    HW223418   3.877   1.798   3.869
 7507SOL     OW23419   6.059   4.598   5.672
 7507SOL    HW123420   6.009   4.683   5.660
 7507SOL    HW223421   6.147   4.617   5.716
 7508SOL     OW23422   2.724   5.905   0.327
 7508SOL    HW123423   2.805   5.850   0.307
 7508SOL    HW223424   2.647   5.872   0.272
 7509SOL     OW23425   5.938   4.928   2.239
 7509SOL    HW123426   5.955   4.854   2.174
 7509SOL    HW223427   6.022   4.948   2.290
 7510SOL     OW23428   3.190   3.744   2.462
 7510SOL    HW123429   3.290   3.737   2.457
 7510SOL    HW223430   3.148   3.680   2.398
 7511SOL     OW23431   4.809   6.830   4.110
 7511SOL    HW123432   4.763   6.746   4.137
 7511SOL    HW223433   4.805   6.839   4.010
 7512SOL     OW23434   3.868   1.106   0.484
 7512SOL    HW123435   3.844   1.031   0.422
 7512SOL    HW223436   3.802   1.109   0.559
 7513SOL     OW23437   1.406   2.128   2.336
 7513SOL    HW123438   1.441   2.183   2.260
 7513SOL    HW223439   1.480   2.071   2.373
 7514SOL     OW23440   1.302   6.176   1.915
 7514SOL    HW123441   1.397   6.155   1.936
 7514SOL    HW223442   1.295   6.269   1.879
 7515SOL     OW23443   0.873   4.834   5.154
 7515SOL    HW123444   0.784   4.843   5.109
 7515SOL    HW223445   0.941   4.888   5.105
 7516SOL     OW23446   1.525   6.137   5.361
 7516SOL    HW123447   1.475   6.223   5.348
 7516SOL    HW223448   1.605   6.154   5.418
 7517SOL     OW23449   1.153   1.812   6.054
 7517SOL    HW123450   1.065   1.776   6.086
 7517SOL    HW223451   1.157   1.806   5.954
 7518SOL     OW23452   4.837   2.080   4.129
 7518SOL    HW123453   4.779   2.032   4.195
 7518SOL    HW223454   4.790   2.163   4.098
 7519SOL     OW23455   3.752   6.040   4.254
 7519SOL    HW123456   3.653   6.054   4.259
 7519SOL    HW223457   3.788   6.025   4.346
 7520SOL     OW23458   1.756   1.808   0.468
 7520SOL    HW123459   1.774   1.885   0.407
 7520SOL    HW223460   1.666   1.818   0.510
 7521SOL     OW23461   3.862   1.486   5.404
 7521SOL    HW123462   3.956   1.474   5.437
 7521SOL    HW223463   3.848   1.581   5.378
 7522SOL     OW23464   1.739   0.203   3.405
 7522SOL    HW123465   1.810   0.273   3.404
 7522SOL    HW223466   1.759   0.134   3.336
 7523SOL     OW23467   5.557   0.844   0.718
 7523SOL    HW123468   5.626   0.797   0.661
 7523SOL    HW223469   5.539   0.789   0.800
 7524SOL     OW23470   0.755   3.304   4.479
 7524SOL    HW123471   0.848   3.329   4.504
 7524SOL    HW223472   0.709   3.383   4.438
 7525SOL     OW23473   3.851   5.518   6.256
 7525SOL    HW123474   3.898   5.485   6.339
 7525SOL    HW223475   3.919   5.558   6.194
 7526SOL     OW23476   2.372   3.773   1.212
 7526SOL    HW123477   2.283   3.788   1.256
 7526SOL    HW223478   2.427   3.711   1.268
 7527SOL     OW23479   3.912   5.163   3.203
 7527SOL    HW123480   3.899   5.256   3.237
 7527SOL    HW223481   3.872   5.098   3.267
 7528SOL     OW23482   6.859   2.811   5.957
 7528SOL    HW123483   6.926   2.775   6.022
 7528SOL    HW223484   6.823   2.736   5.901
 7529SOL     OW23485   6.000   3.490   4.151
 7529SOL    HW123486   6.023   3.456   4.060
 7529SOL    HW223487   6.036   3.427   4.220
 7530SOL     OW23488   0.779   2.209   1.645
 7530SOL    HW123489   0.682   2.181   1.645
 7530SOL    HW223490   0.788   2.296   1.692
 7531SOL     OW23491   4.015   2.201   3.984
 7531SOL    HW123492   4.008   2.151   3.897
 7531SOL    HW223493   3.929   2.191   4.034
 7532SOL     OW23494   4.824   5.302   6.356
 7532SOL    HW123495   4.818   5.319   6.258
 7532SOL    HW223496   4.920   5.310   6.385
 7533SOL     OW23497   4.437   4.371   1.610
 7533SOL    HW123498   4.359   4.369   1.548
 7533SOL    HW223499   4.427   4.300   1.679
 7534SOL     OW23500   4.118   6.954   4.912
 7534SOL    HW123501   4.048   7.001   4.966
 7534SOL    HW223502   4.136   7.006   4.828
 7535SOL     OW23503   0.739   6.636   4.141
 7535SOL    HW123504   0.729   6.640   4.241
 7535SOL    HW223505   0.657   6.593   4.102
 7536SOL     OW23506   5.763   6.320   4.406
 7536SOL    HW123507   5.716   6.332   4.494
 7536SOL    HW223508   5.758   6.224   4.379
 7537SOL     OW23509   2.167   6.491   2.793
 7537SOL    HW123510   2.262   6.501   2.765
 7537SOL    HW223511   2.161   6.498   2.893
 7538SOL     OW23512   0.629   3.808   0.673
 7538SOL    HW123513   0.674   3.895   0.655
 7538SOL    HW223514   0.534   3.811   0.642
 7539SOL     OW23515   6.721   0.350   4.754
 7539SOL    HW123516   6.724   0.449   4.768
 7539SOL    HW223517   6.727   0.330   4.656
 7540SOL     OW23518   5.720   5.190   2.992
 7540SOL    HW123519   5.783   5.250   3.041
 7540SOL    HW223520   5.681   5.124   3.056
 7541SOL     OW23521   2.757   3.941   5.765
 7541SOL    HW123522   2.739   3.871   5.835
 7541SOL    HW223523   2.696   3.926   5.687
 7542SOL     OW23524   5.908   5.627   4.590
 7542SOL    HW123525   5.817   5.590   4.606
 7542SOL    HW223526   5.902   5.724   4.568
 7543SOL     OW23527   2.704   0.985   6.475
 7543SOL    HW123528   2.734   1.062   6.532
 7543SOL    HW223529   2.655   0.919   6.531
 7544SOL     OW23530   6.618   1.444   4.059
 7544SOL    HW123531   6.712   1.477   4.068
 7544SOL    HW223532   6.554   1.518   4.080
 7545SOL     OW23533   1.709   5.369   5.817
 7545SOL    HW123534   1.669   5.296   5.872
 7545SOL    HW223535   1.686   5.354   5.720
 7546SOL     OW23536   2.324   2.732   2.069
 7546SOL    HW123537   2.336   2.668   2.146
 7546SOL    HW223538   2.396   2.717   2.002
 7547SOL     OW23539   4.089   0.261   1.624
 7547SOL    HW123540   3.999   0.264   1.580
 7547SOL    HW223541   4.160   0.282   1.556
 7548SOL     OW23542   3.921   3.126   6.260
 7548SOL    HW123543   3.943   3.213   6.215
 7548SOL    HW223544   3.946   3.050   6.201
 7549SOL     OW23545   5.455   1.378   4.467
 7549SOL    HW123546   5.495   1.443   4.531
 7549SOL    HW223547   5.523   1.351   4.399
 7550SOL     OW23548   2.829   5.024   4.470
 7550SOL    HW123549   2.754   5.060   4.526
 7550SOL    HW223550   2.825   5.064   4.379
 7551SOL     OW23551   6.709   2.495   6.245
 7551SOL    HW123552   6.779   2.424   6.251
 7551SOL    HW223553   6.751   2.584   6.263
 7552SOL     OW23554   2.470   6.875   5.180
 7552SOL    HW123555   2.474   6.911   5.087
 7552SOL    HW223556   2.519   6.936   5.242
 7553SOL     OW23557   5.551   6.410   5.385
 7553SOL    HW123558   5.553   6.311   5.399
 7553SOL    HW223559   5.456   6.441   5.380
 7554SOL     OW23560   4.608   1.225   0.855
 7554SOL    HW123561   4.605   1.135   0.897
 7554SOL    HW223562   4.648   1.218   0.764
 7555SOL     OW23563   4.521   5.418   4.317
 7555SOL    HW123564   4.533   5.368   4.231
 7555SOL    HW223565   4.567   5.506   4.311
 7556SOL     OW23566   0.674   6.634   1.784
 7556SOL    HW123567   0.671   6.541   1.820
 7556SOL    HW223568   0.655   6.632   1.686
 7557SOL     OW23569   4.912   7.022   0.995
 7557SOL    HW123570   4.933   6.938   0.944
 7557SOL    HW223571   4.833   7.007   1.054
 7558SOL     OW23572   0.886   1.822   3.986
 7558SOL    HW123573   0.908   1.819   3.888
 7558SOL    HW223574   0.941   1.754   4.034
 7559SOL     OW23575   2.883   1.935   5.235
 7559SOL    HW123576   2.958   1.878   5.200
 7559SOL    HW223577   2.899   2.030   5.208
 7560SOL     OW23578   1.301   1.529   6.133
 7560SOL    HW123579   1.330   1.574   6.049
 7560SOL    HW223580   1.380   1.512   6.191
 7561SOL     OW23581   6.107   1.643   5.691
 7561SOL    HW123582   6.088   1.617   5.596
 7561SOL    HW223583   6.021   1.648   5.742
 7562SOL     OW23584   1.943   5.677   3.642
 7562SOL    HW123585   2.027   5.639   3.680
 7562SOL    HW223586   1.936   5.774   3.668
 7563SOL     OW23587   3.843   5.735   2.152
 7563SOL    HW123588   3.793   5.667   2.098
 7563SOL    HW223589   3.941   5.723   2.138
 7564SOL     OW23590   3.833   1.768   5.348
 7564SOL    HW123591   3.746   1.721   5.331
 7564SOL    HW223592   3.815   1.853   5.397
 7565SOL     OW23593   6.347   3.755   5.980
 7565SOL    HW123594   6.269   3.766   5.919
 7565SOL    HW223595   6.324   3.793   6.070
 7566SOL     OW23596   4.195   4.755   1.542
 7566SOL    HW123597   4.219   4.716   1.452
 7566SOL    HW223598   4.131   4.694   1.588
 7567SOL     OW23599   0.822   6.951   4.220
 7567SOL    HW123600   0.817   6.940   4.121
 7567SOL    HW223601   0.744   7.005   4.252
 7568SOL     OW23602   6.114   5.620   1.274
 7568SOL    HW123603   6.115   5.551   1.346
 7568SOL    HW223604   6.129   5.711   1.315
 7569SOL     OW23605   4.895   3.359   0.351
 7569SOL    HW123606   4.959   3.406   0.290
 7569SOL    HW223607   4.858   3.424   0.418
 7570SOL     OW23608   0.510   3.602   2.396
 7570SOL    HW123609   0.530   3.634   2.488
 7570SOL    HW223610   0.435   3.536   2.399
 7571SOL     OW23611   5.043   2.277   2.417
 7571SOL    HW123612   4.982   2.301   2.342
 7571SOL    HW223613   5.081   2.185   2.402
 7572SOL     OW23614   4.586   0.446   3.554
 7572SOL    HW123615   4.511   0.453   3.489
 7572SOL    HW223616   4.641   0.365   3.534
 7573SOL     OW23617   3.925   6.394   5.778
 7573SOL    HW123618   3.961   6.357   5.864
 7573SOL    HW223619   3.880   6.481   5.795
 7574SOL     OW23620   0.878   2.684   3.744
 7574SOL    HW123621   0.860   2.701   3.841
 7574SOL    HW223622   0.971   2.714   3.722
 7575SOL     OW23623   0.235   6.651   2.297
 7575SOL    HW123624   0.223   6.562   2.253
 7575SOL    HW223625   0.150   6.704   2.291
 7576SOL     OW23626   5.055   2.736   0.628
 7576SOL    HW123627   4.980   2.724   0.564
 7576SOL    HW223628   5.135   2.684   0.598
 7577SOL     OW23629   1.082   0.133   0.532
 7577SOL    HW123630   1.006   0.080   0.571
 7577SOL    HW223631   1.139   0.073   0.476
 7578SOL     OW23632   6.456   5.898   3.333
 7578SOL    HW123633   6.465   5.861   3.240
 7578SOL    HW223634   6.377   5.858   3.377
 7579SOL     OW23635   0.785   1.480   6.811
 7579SOL    HW123636   0.863   1.539   6.790
 7579SOL    HW223637   0.731   1.521   6.884
 7580SOL     OW23638   2.047   4.893   3.850
 7580SOL    HW123639   1.955   4.925   3.828
 7580SOL    HW223640   2.048   4.793   3.852
 7581SOL     OW23641   6.863   0.843   2.233
 7581SOL    HW123642   6.884   0.755   2.191
 7581SOL    HW223643   6.912   0.915   2.185
 7582SOL     OW23644   2.436   1.741   6.429
 7582SOL    HW123645   2.485   1.741   6.516
 7582SOL    HW223646   2.482   1.802   6.365
 7583SOL     OW23647   5.105   2.869   3.088
 7583SOL    HW123648   5.111   2.954   3.035
 7583SOL    HW223649   5.172   2.871   3.162
 7584SOL     OW23650   0.449   1.110   3.238
 7584SOL    HW123651   0.411   1.018   3.224
 7584SOL    HW223652   0.440   1.163   3.154
 7585SOL     OW23653   0.967   1.240   6.288
 7585SOL    HW123654   0.934   1.190   6.209
 7585SOL    HW223655   0.942   1.337   6.280
 7586SOL     OW23656   1.641   0.629   2.439
 7586SOL    HW123657   1.664   0.705   2.378
 7586SOL    HW223658   1.696   0.636   2.523
 7587SOL     OW23659   4.054   0.516   0.732
 7587SOL    HW123660   4.070   0.446   0.802
 7587SOL    HW223661   4.140   0.564   0.713
 7588SOL     OW23662   2.527   2.625   4.601
 7588SOL    HW123663   2.593   2.573   4.547
 7588SOL    HW223664   2.504   2.573   4.684
 7589SOL     OW23665   0.598   0.352   2.640
 7589SOL    HW123666   0.612   0.389   2.548
 7589SOL    HW223667   0.595   0.427   2.707
 7590SOL     OW23668   6.507   0.806   0.142
 7590SOL    HW123669   6.540   0.793   0.048
 7590SOL    HW223670   6.412   0.836   0.140
 7591SOL     OW23671   3.810   2.931   4.636
 7591SOL    HW123672   3.868   2.975   4.705
 7591SOL    HW223673   3.740   2.876   4.681
 7592SOL     OW23674   6.614   6.832   4.384
 7592SOL    HW123675   6.703   6.794   4.411
 7592SOL    HW223676   6.575   6.776   4.312
 7593SOL     OW23677   0.561   1.451   5.344
 7593SOL    HW123678   0.552   1.542   5.305
 7593SOL    HW223679   0.545   1.383   5.272
 7594SOL     OW23680   0.346   4.097   6.963
 7594SOL    HW123681   0.403   4.020   6.992
 7594SOL    HW223682   0.401   4.180   6.961
 7595SOL     OW23683   1.134   3.859   6.748
 7595SOL    HW123684   1.187   3.943   6.745
 7595SOL    HW223685   1.180   3.792   6.806
 7596SOL     OW23686   2.948   1.669   5.836
 7596SOL    HW123687   3.003   1.704   5.912
 7596SOL    HW223688   2.852   1.670   5.861
 7597SOL     OW23689   1.452   4.917   1.512
 7597SOL    HW123690   1.537   4.871   1.488
 7597SOL    HW223691   1.433   4.989   1.445
 7598SOL     OW23692   5.946   0.880   2.321
 7598SOL    HW123693   5.893   0.808   2.367
 7598SOL    HW223694   6.041   0.850   2.309
 7599SOL     OW23695   3.311   3.965   1.250
 7599SOL    HW123696   3.296   3.932   1.344
 7599SOL    HW223697   3.227   3.955   1.198
 7600SOL     OW23698   1.742   6.699   4.186
 7600SOL    HW123699   1.671   6.678   4.254
 7600SOL    HW223700   1.708   6.679   4.095
 7601SOL     OW23701   3.240   6.682   2.216
 7601SOL    HW123702   3.157   6.673   2.271
 7601SOL    HW223703   3.226   6.752   2.146
 7602SOL     OW23704   0.632   1.197   0.796
 7602SOL    HW123705   0.651   1.192   0.894
 7602SOL    HW223706   0.607   1.290   0.772
 7603SOL     OW23707   3.819   0.481   6.059
 7603SOL    HW123708   3.848   0.549   5.992
 7603SOL    HW223709   3.845   0.511   6.151
 7604SOL     OW23710   0.733   2.300   5.098
 7604SOL    HW123711   0.826   2.277   5.127
 7604SOL    HW223712   0.732   2.321   5.001
 7605SOL     OW23713   2.087   6.241   6.842
 7605SOL    HW123714   2.003   6.191   6.821
 7605SOL    HW223715   2.066   6.338   6.854
 7606SOL     OW23716   6.860   1.139   2.945
 7606SOL    HW123717   6.882   1.139   2.847
 7606SOL    HW223718   6.831   1.231   2.972
 7607SOL     OW23719   1.970   6.146   5.659
 7607SOL    HW123720   2.011   6.202   5.731
 7607SOL    HW223721   1.957   6.053   5.692
 7608SOL     OW23722   5.966   2.378   6.351
 7608SOL    HW123723   5.965   2.350   6.255
 7608SOL    HW223724   6.015   2.465   6.360
 7609SOL     OW23725   1.836   1.827   5.006
 7609SOL    HW123726   1.798   1.735   5.005
 7609SOL    HW223727   1.765   1.893   4.981
 7610SOL     OW23728   4.175   5.440   4.216
 7610SOL    HW123729   4.076   5.431   4.217
 7610SOL    HW223730   4.215   5.371   4.277
 7611SOL     OW23731   4.792   2.935   0.559
 7611SOL    HW123732   4.699   2.899   0.563
 7611SOL    HW223733   4.808   2.995   0.637
 7612SOL     OW23734   4.190   1.800   2.893
 7612SOL    HW123735   4.108   1.823   2.842
 7612SOL    HW223736   4.182   1.836   2.986
 7613SOL     OW23737   0.795   1.235   1.085
 7613SOL    HW123738   0.818   1.209   1.178
 7613SOL    HW223739   0.820   1.161   1.022
 7614SOL     OW23740   5.357   3.684   6.999
 7614SOL    HW123741   5.412   3.759   0.013
 7614SOL    HW223742   5.417   3.608   6.973
 7615SOL     OW23743   5.936   3.232   4.913
 7615SOL    HW123744   5.884   3.157   4.874
 7615SOL    HW223745   5.882   3.276   4.985
 7616SOL     OW23746   6.301   0.221   3.284
 7616SOL    HW123747   6.401   0.213   3.285
 7616SOL    HW223748   6.272   0.252   3.193
 7617SOL     OW23749   6.231   4.023   3.556
 7617SOL    HW123750   6.298   3.995   3.624
 7617SOL    HW223751   6.266   4.103   3.506
 7618SOL     OW23752   2.174   2.846   0.608
 7618SOL    HW123753   2.099   2.868   0.671
 7618SOL    HW223754   2.152   2.761   0.560
 7619SOL     OW23755   1.660   1.551   4.515
 7619SOL    HW123756   1.578   1.564   4.460
 7619SOL    HW223757   1.707   1.468   4.487
 7620SOL     OW23758   3.579   5.116   1.213
 7620SOL    HW123759   3.620   5.088   1.300
 7620SOL    HW223760   3.541   5.036   1.167
 7621SOL     OW23761   6.186   4.018   0.018
 7621SOL    HW123762   6.102   3.983   7.000
 7621SOL    HW223763   6.237   3.942   0.059
 7622SOL     OW23764   3.224   3.872   1.517
 7622SOL    HW123765   3.136   3.849   1.476
 7622SOL    HW223766   3.260   3.792   1.565
 7623SOL     OW23767   5.109   4.176   1.654
 7623SOL    HW123768   5.180   4.240   1.625
 7623SOL    HW223769   5.129   4.145   1.747
 7624SOL     OW23770   1.109   3.689   2.599
 7624SOL    HW123771   1.097   3.765   2.535
 7624SOL    HW223772   1.061   3.608   2.565
 7625SOL     OW23773   5.261   0.642   1.668
 7625SOL    HW123774   5.244   0.594   1.582
 7625SOL    HW223775   5.260   0.741   1.651
 7626SOL     OW23776   4.762   0.320   6.385
 7626SOL    HW123777   4.728   0.404   6.426
 7626SOL    HW223778   4.687   0.255   6.372
 7627SOL     OW23779   4.093   3.189   6.690
 7627SOL    HW123780   4.185   3.218   6.716
 7627SOL    HW223781   4.091   3.170   6.591
 7628SOL     OW23782   3.546   2.473   0.469
 7628SOL    HW123783   3.495   2.397   0.430
 7628SOL    HW223784   3.641   2.445   0.486
 7629SOL     OW23785   5.506   2.361   2.749
 7629SOL    HW123786   5.484   2.385   2.843
 7629SOL    HW223787   5.605   2.345   2.741
 7630SOL     OW23788   1.077   6.628   4.327
 7630SOL    HW123789   1.167   6.670   4.316
 7630SOL    HW223790   1.058   6.568   4.250
 7631SOL     OW23791   0.928   0.419   5.692
 7631SOL    HW123792   0.862   0.450   5.624
 7631SOL    HW223793   0.901   0.453   5.782
 7632SOL     OW23794   4.350   5.970   0.094
 7632SOL    HW123795   4.401   5.990   0.178
 7632SOL    HW223796   4.411   5.979   0.015
 7633SOL     OW23797   6.186   1.272   1.440
 7633SOL    HW123798   6.101   1.308   1.478
 7633SOL    HW223799   6.168   1.228   1.353
 7634SOL     OW23800   6.928   2.142   6.913
 7634SOL    HW123801   6.994   2.210   6.881
 7634SOL    HW223802   6.976   2.069   6.961
 7635SOL     OW23803   2.198   3.281   5.771
 7635SOL    HW123804   2.241   3.215   5.709
 7635SOL    HW223805   2.264   3.353   5.793
 7636SOL     OW23806   0.145   3.636   4.523
 7636SOL    HW123807   0.136   3.536   4.530
 7636SOL    HW223808   0.067   3.679   4.569
 7637SOL     OW23809   1.210   5.252   4.949
 7637SOL    HW123810   1.269   5.253   4.869
 7637SOL    HW223811   1.160   5.338   4.956
 7638SOL     OW23812   0.397   5.976   1.478
 7638SOL    HW123813   0.431   5.901   1.421
 7638SOL    HW223814   0.355   5.939   1.560
 7639SOL     OW23815   1.641   1.107   0.165
 7639SOL    HW123816   1.662   1.019   0.125
 7639SOL    HW223817   1.543   1.126   0.155
 7640SOL     OW23818   3.169   1.146   0.998
 7640SOL    HW123819   3.164   1.227   1.056
 7640SOL    HW223820   3.085   1.136   0.946
 7641SOL     OW23821   0.420   3.960   4.108
 7641SOL    HW123822   0.423   4.040   4.048
 7641SOL    HW223823   0.449   3.879   4.057
 7642SOL     OW23824   5.612   0.837   3.145
 7642SOL    HW123825   5.590   0.742   3.163
 7642SOL    HW223826   5.575   0.863   3.055
 7643SOL     OW23827   5.206   3.483   4.172
 7643SOL    HW123828   5.232   3.394   4.207
 7643SOL    HW223829   5.112   3.479   4.136
 7644SOL     OW23830   5.171   3.546   1.288
 7644SOL    HW123831   5.173   3.635   1.241
 7644SOL    HW223832   5.264   3.510   1.295
 7645SOL     OW23833   3.462   4.667   7.013
 7645SOL    HW123834   3.419   4.641   0.077
 7645SOL    HW223835   3.433   4.603   6.942
 7646SOL     OW23836   6.359   1.465   0.459
 7646SOL    HW123837   6.378   1.536   0.391
 7646SOL    HW223838   6.437   1.402   0.463
 7647SOL     OW23839   0.398   2.320   4.027
 7647SOL    HW123840   0.372   2.271   4.110
 7647SOL    HW223841   0.394   2.258   3.949
 7648SOL     OW23842   2.416   2.333   1.912
 7648SOL    HW123843   2.414   2.236   1.888
 7648SOL    HW223844   2.343   2.353   1.977
 7649SOL     OW23845   4.047   1.261   6.567
 7649SOL    HW123846   3.956   1.263   6.609
 7649SOL    HW223847   4.059   1.343   6.510
 7650SOL     OW23848   4.420   2.553   0.452
 7650SOL    HW123849   4.425   2.539   0.551
 7650SOL    HW223850   4.325   2.546   0.422
 7651SOL     OW23851   3.598   4.834   6.585
 7651SOL    HW123852   3.595   4.753   6.643
 7651SOL    HW223853   3.574   4.809   6.491
 7652SOL     OW23854   1.269   0.561   3.878
 7652SOL    HW123855   1.330   0.518   3.811
 7652SOL    HW223856   1.233   0.491   3.939
 7653SOL     OW23857   1.934   0.828   6.560
 7653SOL    HW123858   1.997   0.905   6.564
 7653SOL    HW223859   1.919   0.803   6.464
 7654SOL     OW23860   6.116   2.029   6.129
 7654SOL    HW123861   6.055   1.951   6.144
 7654SOL    HW223862   6.158   2.056   6.215
 7655SOL     OW23863   3.653   1.615   3.777
 7655SOL    HW123864   3.709   1.684   3.823
 7655SOL    HW223865   3.661   1.528   3.826
 7656SOL     OW23866   6.381   4.172   6.911
 7656SOL    HW123867   6.320   4.116   6.966
 7656SOL    HW223868   6.442   4.224   6.970
 7657SOL     OW23869   1.091   4.127   4.603
 7657SOL    HW123870   1.015   4.190   4.621
 7657SOL    HW223871   1.065   4.036   4.635
 7658SOL     OW23872   2.425   0.797   1.075
 7658SOL    HW123873   2.469   0.885   1.095
 7658SOL    HW223874   2.436   0.736   1.154
 7659SOL     OW23875   4.971   3.946   5.653
 7659SOL    HW123876   4.884   3.909   5.620
 7659SOL    HW223877   5.045   3.882   5.635
 7660SOL     OW23878   6.764   5.335   5.369
 7660SOL    HW123879   6.672   5.309   5.338
 7660SOL    HW223880   6.827   5.260   5.349
 7661SOL     OW23881   3.991   1.445   5.117
 7661SOL    HW123882   4.007   1.535   5.156
 7661SOL    HW223883   4.070   1.386   5.135
 7662SOL     OW23884   6.761   6.115   1.349
 7662SOL    HW123885   6.663   6.099   1.340
 7662SOL    HW223886   6.790   6.183   1.282
 7663SOL     OW23887   0.279   5.364   5.058
 7663SOL    HW123888   0.249   5.330   5.147
 7663SOL    HW223889   0.273   5.463   5.057
 7664SOL     OW23890   3.842   2.046   2.530
 7664SOL    HW123891   3.744   2.063   2.515
 7664SOL    HW223892   3.880   2.119   2.587
 7665SOL     OW23893   3.750   0.717   5.710
 7665SOL    HW123894   3.784   0.623   5.705
 7665SOL    HW223895   3.822   0.781   5.684
 7666SOL     OW23896   5.300   4.294   3.511
 7666SOL    HW123897   5.367   4.220   3.516
 7666SOL    HW223898   5.318   4.361   3.583
 7667SOL     OW23899   4.438   6.342   2.594
 7667SOL    HW123900   4.453   6.427   2.544
 7667SOL    HW223901   4.492   6.343   2.678
 7668SOL     OW23902   2.046   5.529   0.914
 7668SOL    HW123903   2.111   5.526   0.838
 7668SOL    HW223904   2.073   5.599   0.979
 7669SOL     OW23905   2.107   1.034   6.595
 7669SOL    HW123906   2.083   1.086   6.513
 7669SOL    HW223907   2.085   1.088   6.677
 7670SOL     OW23908   0.647   0.190   1.107
 7670SOL    HW123909   0.678   0.226   1.019
 7670SOL    HW223910   0.694   0.104   1.126
 7671SOL     OW23911   3.269   6.782   0.892
 7671SOL    HW123912   3.178   6.777   0.849
 7671SOL    HW223913   3.337   6.807   0.823
 7672SOL     OW23914   4.871   4.471   2.114
 7672SOL    HW123915   4.876   4.532   2.035
 7672SOL    HW223916   4.960   4.468   2.160
 7673SOL     OW23917   1.488   6.350   4.823
 7673SOL    HW123918   1.567   6.343   4.885
 7673SOL    HW223919   1.439   6.436   4.841
 7674SOL     OW23920   4.729   6.154   4.629
 7674SOL    HW123921   4.799   6.102   4.579
 7674SOL    HW223922   4.773   6.226   4.682
 7675SOL     OW23923   5.216   6.101   3.247
 7675SOL    HW123924   5.285   6.160   3.289
 7675SOL    HW223925   5.149   6.158   3.199
 7676SOL     OW23926   3.711   2.897   5.459
 7676SOL    HW123927   3.638   2.887   5.392
 7676SOL    HW223928   3.746   2.991   5.458
 7677SOL     OW23929   6.453   4.560   6.827
 7677SOL    HW123930   6.529   4.573   6.892
 7677SOL    HW223931   6.476   4.487   6.763
 7678SOL     OW23932   2.623   1.476   5.214
 7678SOL    HW123933   2.574   1.482   5.301
 7678SOL    HW223934   2.698   1.542   5.213
 7679SOL     OW23935   3.634   5.844   4.840
 7679SOL    HW123936   3.591   5.759   4.810
 7679SOL    HW223937   3.723   5.825   4.882
 7680SOL     OW23938   1.982   0.164   4.317
 7680SOL    HW123939   2.067   0.158   4.371
 7680SOL    HW223940   1.918   0.226   4.363
 7681SOL     OW23941   2.207   2.889   6.118
 7681SOL    HW123942   2.270   2.844   6.182
 7681SOL    HW223943   2.253   2.967   6.076
 7682SOL     OW23944   3.036   0.892   2.861
 7682SOL    HW123945   3.131   0.859   2.860
 7682SOL    HW223946   2.975   0.818   2.835
 7683SOL     OW23947   0.315   4.520   4.415
 7683SOL    HW123948   0.285   4.452   4.349
 7683SOL    HW223949   0.360   4.596   4.368
 7684SOL     OW23950   5.054   3.117   1.438
 7684SOL    HW123951   5.012   3.088   1.523
 7684SOL    HW223952   5.153   3.104   1.444
 7685SOL     OW23953   2.363   0.516   0.581
 7685SOL    HW123954   2.442   0.569   0.611
 7685SOL    HW223955   2.307   0.491   0.660
 7686SOL     OW23956   6.752   6.657   5.191
 7686SOL    HW123957   6.800   6.573   5.167
 7686SOL    HW223958   6.739   6.713   5.109
 7687SOL     OW23959   5.614   3.888   6.153
 7687SOL    HW123960   5.566   3.943   6.222
 7687SOL    HW223961   5.634   3.798   6.190
 7688SOL     OW23962   6.736   3.795   6.311
 7688SOL    HW123963   6.705   3.835   6.225
 7688SOL    HW223964   6.829   3.761   6.300
 7689SOL     OW23965   4.643   1.076   2.108
 7689SOL    HW123966   4.632   0.977   2.098
 7689SOL    HW223967   4.644   1.119   2.018
 7690SOL     OW23968   6.178   5.200   2.191
 7690SOL    HW123969   6.249   5.256   2.235
 7690SOL    HW223970   6.219   5.144   2.120
 7691SOL     OW23971   4.879   3.092   3.825
 7691SOL    HW123972   4.841   3.009   3.867
 7691SOL    HW223973   4.864   3.090   3.726
 7692SOL     OW23974   3.049   6.638   2.448
 7692SOL    HW123975   3.045   6.568   2.520
 7692SOL    HW223976   3.001   6.720   2.480
 7693SOL     OW23977   2.759   0.728   1.738
 7693SOL    HW123978   2.696   0.800   1.709
 7693SOL    HW223979   2.793   0.748   1.830
 7694SOL     OW23980   4.446   1.220   5.853
 7694SOL    HW123981   4.421   1.167   5.772
 7694SOL    HW223982   4.544   1.242   5.850
 7695SOL     OW23983   4.568   0.179   3.451
 7695SOL    HW123984   4.472   0.207   3.460
 7695SOL    HW223985   4.576   0.082   3.471
 7696SOL     OW23986   2.008   2.772   5.963
 7696SOL    HW123987   2.020   2.693   6.022
 7696SOL    HW223988   2.068   2.846   5.993
 7697SOL     OW23989   5.651   0.067   3.477
 7697SOL    HW123990   5.693   0.154   3.451
 7697SOL    HW223991   5.581   0.084   3.547
 7698SOL     OW23992   6.193   3.133   1.136
 7698SOL    HW123993   6.283   3.173   1.151
 7698SOL    HW223994   6.141   3.133   1.221
 7699SOL     OW23995   4.627   5.873   5.526
 7699SOL    HW123996   4.595   5.831   5.611
 7699SOL    HW223997   4.692   5.811   5.481
 7700SOL     OW23998   5.238   5.708   1.885
 7700SOL    HW123999   5.274   5.679   1.974
 7700SOL    HW224000   5.258   5.805   1.872
 7701SOL     OW24001   1.412   2.382   6.226
 7701SOL    HW124002   1.465   2.444   6.284
 7701SOL    HW224003   1.322   2.422   6.208
 7702SOL     OW24004   4.816   0.049   4.661
 7702SOL    HW124005   4.770   6.984   4.645
 7702SOL    HW224006   4.755   0.110   4.711
 7703SOL     OW24007   0.021   7.011   5.398
 7703SOL    HW124008   0.079   7.021   5.317
 7703SOL    HW224009   6.970   6.946   5.379
 7704SOL     OW24010   0.941   1.611   4.710
 7704SOL    HW124011   0.855   1.628   4.661
 7704SOL    HW224012   0.928   1.628   4.807
 7705SOL     OW24013   1.224   5.099   7.007
 7705SOL    HW124014   1.322   5.117   7.007
 7705SOL    HW224015   1.200   5.045   0.066
 7706SOL     OW24016   3.776   3.116   2.609
 7706SOL    HW124017   3.812   3.067   2.688
 7706SOL    HW224018   3.702   3.062   2.567
 7707SOL     OW24019   6.792   3.866   6.793
 7707SOL    HW124020   6.703   3.841   6.758
 7707SOL    HW224021   6.844   3.914   6.722
 7708SOL     OW24022   1.923   0.742   4.222
 7708SOL    HW124023   1.957   0.834   4.202
 7708SOL    HW224024   1.940   0.721   4.319
 7709SOL     OW24025   0.182   4.744   1.490
 7709SOL    HW124026   0.088   4.724   1.464
 7709SOL    HW224027   0.207   4.692   1.571
 7710SOL     OW24028   6.680   2.855   0.995
 7710SOL    HW124029   6.734   2.939   0.999
 7710SOL    HW224030   6.587   2.877   0.964
 7711SOL     OW24031   0.154   4.482   4.898
 7711SOL    HW124032   0.076   4.471   4.959
 7711SOL    HW224033   0.126   4.535   4.817
 7712SOL     OW24034   0.032   5.111   5.606
 7712SOL    HW124035   0.094   5.048   5.652
 7712SOL    HW224036   0.056   5.205   5.631
 7713SOL     OW24037   1.560   4.419   0.083
 7713SOL    HW124038   1.648   4.391   0.121
 7713SOL    HW224039   1.562   4.517   0.062
 7714SOL     OW24040   6.152   1.811   4.548
 7714SOL    HW124041   6.225   1.854   4.494
 7714SOL    HW224042   6.066   1.857   4.529
 7715SOL     OW24043   3.676   3.272   5.184
 7715SOL    HW124044   3.637   3.271   5.092
 7715SOL    HW224045   3.756   3.332   5.186
 7716SOL     OW24046   0.956   6.698   6.002
 7716SOL    HW124047   0.950   6.708   6.101
 7716SOL    HW224048   1.004   6.777   5.964
 7717SOL     OW24049   0.110   2.621   6.350
 7717SOL    HW124050   0.206   2.593   6.340
 7717SOL    HW224051   0.091   2.642   6.446
 7718SOL     OW24052   0.448   3.491   2.823
 7718SOL    HW124053   0.486   3.584   2.824
 7718SOL    HW224054   0.475   3.444   2.907
 7719SOL     OW24055   1.601   5.340   5.091
 7719SOL    HW124056   1.514   5.299   5.119
 7719SOL    HW224057   1.589   5.391   5.007
 7720SOL     OW24058   4.519   1.263   6.400
 7720SOL    HW124059   4.465   1.340   6.434
 7720SOL    HW224060   4.520   1.190   6.468
 7721SOL     OW24061   6.963   7.020   2.560
 7721SOL    HW124062   6.985   0.064   2.488
 7721SOL    HW224063   7.021   6.939   2.549
 7722SOL     OW24064   0.780   5.754   4.054
 7722SOL    HW124065   0.745   5.661   4.044
 7722SOL    HW224066   0.844   5.774   3.979
 7723SOL     OW24067   4.724   3.604   6.782
 7723SOL    HW124068   4.798   3.634   6.842
 7723SOL    HW224069   4.748   3.625   6.687
 7724SOL     OW24070   2.062   3.686   1.009
 7724SOL    HW124071   2.035   3.737   1.092
 7724SOL    HW224072   2.053   3.588   1.026
 7725SOL     OW24073   5.694   2.573   4.547
 7725SOL    HW124074   5.778   2.618   4.578
 7725SOL    HW224075   5.676   2.598   4.452
 7726SOL     OW24076   1.488   3.530   6.504
 7726SOL    HW124077   1.545   3.448   6.510
 7726SOL    HW224078   1.410   3.521   6.565
 7727SOL     OW24079   4.091   1.154   2.105
 7727SOL    HW124080   4.157   1.145   2.030
 7727SOL    HW224081   4.052   1.246   2.105
 7728SOL     OW24082   2.091   4.205   4.709
 7728SOL    HW124083   2.167   4.263   4.739
 7728SOL    HW224084   2.100   4.114   4.751
 7729SOL     OW24085   6.569   1.324   2.920
 7729SOL    HW124086   6.526   1.268   2.990
 7729SOL    HW224087   6.543   1.420   2.931
 7730SOL     OW24088   6.718   4.488   5.357
 7730SOL    HW124089   6.670   4.555   5.414
 7730SOL    HW224090   6.816   4.492   5.377
 7731SOL     OW24091   6.877   7.019   6.154
 7731SOL    HW124092   6.806   6.966   6.109
 7731SOL    HW224093   6.841   0.033   6.240
 7732SOL     OW24094   3.688   0.073   6.542
 7732SOL    HW124095   3.678   0.003   6.471
 7732SOL    HW224096   3.603   0.078   6.595
 7733SOL     OW24097   6.602   5.357   1.783
 7733SOL    HW124098   6.672   5.328   1.848
 7733SOL    HW224099   6.562   5.276   1.738
 7734SOL     OW24100   3.337   4.150   4.048
 7734SOL    HW124101   3.304   4.198   3.968
 7734SOL    HW224102   3.436   4.134   4.040
 7735SOL     OW24103   0.611   6.710   1.101
 7735SOL    HW124104   0.703   6.675   1.087
 7735SOL    HW224105   0.552   6.679   1.027
 7736SOL     OW24106   1.355   2.567   0.122
 7736SOL    HW124107   1.276   2.628   0.113
 7736SOL    HW224108   1.381   2.560   0.218
 7737SOL     OW24109   4.645   4.425   6.987
 7737SOL    HW124110   4.729   4.478   6.996
 7737SOL    HW224111   4.638   4.390   6.894
 7738SOL     OW24112   2.077   0.420   5.378
 7738SOL    HW124113   2.097   0.505   5.427
 7738SOL    HW224114   1.992   0.381   5.412
 7739SOL     OW24115   1.933   2.226   0.438
 7739SOL    HW124116   1.887   2.313   0.420
 7739SOL    HW224117   2.017   2.243   0.490
 7740SOL     OW24118   2.089   0.384   5.012
 7740SOL    HW124119   2.145   0.460   5.045
 7740SOL    HW224120   2.056   0.405   4.920
 7741SOL     OW24121   0.569   4.881   5.924
 7741SOL    HW124122   0.593   4.836   5.839
 7741SOL    HW224123   0.653   4.908   5.972
 7742SOL     OW24124   4.666   2.296   4.030
 7742SOL    HW124125   4.683   2.373   3.969
 7742SOL    HW224126   4.573   2.304   4.068
 7743SOL     OW24127   4.024   1.678   6.229
 7743SOL    HW124128   4.054   1.615   6.158
 7743SOL    HW224129   3.969   1.751   6.188
 7744SOL     OW24130   1.431   6.711   4.604
 7744SOL    HW124131   1.526   6.715   4.635
 7744SOL    HW224132   1.403   6.615   4.593
 7745SOL     OW24133   3.168   6.879   1.158
 7745SOL    HW124134   3.199   6.859   1.065
 7745SOL    HW224135   3.068   6.885   1.160
 7746SOL     OW24136   0.740   5.614   1.799
 7746SOL    HW124137   0.687   5.614   1.715
 7746SOL    HW224138   0.695   5.556   1.867
 7747SOL     OW24139   0.152   5.789   0.959
 7747SOL    HW124140   0.055   5.814   0.954
 7747SOL    HW224141   0.207   5.872   0.964
 7748SOL     OW24142   4.465   1.794   6.065
 7748SOL    HW124143   4.384   1.853   6.058
 7748SOL    HW224144   4.458   1.740   6.149
 7749SOL     OW24145   3.731   4.007   3.295
 7749SOL    HW124146   3.655   4.057   3.256
 7749SOL    HW224147   3.813   4.022   3.241
 7750SOL     OW24148   5.431   4.731   5.688
 7750SOL    HW124149   5.466   4.754   5.597
 7750SOL    HW224150   5.452   4.636   5.709
 7751SOL     OW24151   6.986   1.809   4.466
 7751SOL    HW124152   6.945   1.744   4.402
 7751SOL    HW224153   6.918   1.877   4.493
 7752SOL     OW24154   6.143   5.229   5.205
 7752SOL    HW124155   6.124   5.241   5.303
 7752SOL    HW224156   6.205   5.152   5.192
 7753SOL     OW24157   2.748   0.758   5.164
 7753SOL    HW124158   2.745   0.708   5.251
 7753SOL    HW224159   2.658   0.752   5.120
 7754SOL     OW24160   6.427   0.999   1.344
 7754SOL    HW124161   6.346   0.963   1.298
 7754SOL    HW224162   6.504   1.001   1.280
 7755SOL     OW24163   1.258   5.954   5.258
 7755SOL    HW124164   1.202   6.012   5.198
 7755SOL    HW224165   1.219   5.955   5.350
 7756SOL     OW24166   3.917   5.707   3.043
 7756SOL    HW124167   3.905   5.643   2.966
 7756SOL    HW224168   3.852   5.782   3.033
 7757SOL     OW24169   3.638   6.596   5.765
 7757SOL    HW124170   3.594   6.633   5.683
 7757SOL    HW224171   3.594   6.509   5.788
 7758SOL     OW24172   3.042   2.641   6.467
 7758SOL    HW124173   3.129   2.593   6.460
 7758SOL    HW224174   3.050   2.732   6.425
 7759SOL     OW24175   1.966   1.205   5.071
 7759SOL    HW124176   2.005   1.114   5.058
 7759SOL    HW224177   2.037   1.268   5.102
 7760SOL     OW24178   4.939   1.523   3.642
 7760SOL    HW124179   4.945   1.534   3.543
 7760SOL    HW224180   4.843   1.513   3.668
 7761SOL     OW24181   4.246   0.133   6.468
 7761SOL    HW124182   4.270   0.164   6.376
 7761SOL    HW224183   4.158   0.085   6.465
 7762SOL     OW24184   1.804   2.373   0.820
 7762SOL    HW124185   1.859   2.437   0.874
 7762SOL    HW224186   1.728   2.339   0.876
 7763SOL     OW24187   2.553   2.413   1.273
 7763SOL    HW124188   2.536   2.463   1.188
 7763SOL    HW224189   2.471   2.362   1.299
 7764SOL     OW24190   4.120   3.634   2.470
 7764SOL    HW124191   4.098   3.546   2.427
 7764SOL    HW224192   4.118   3.625   2.569
 7765SOL     OW24193   0.100   1.833   2.178
 7765SOL    HW124194   0.024   1.865   2.234
 7765SOL    HW224195   0.084   1.857   2.082
 7766SOL     OW24196   0.079   3.898   0.096
 7766SOL    HW124197   7.006   3.873   0.107
 7766SOL    HW224198   0.091   3.946   0.010
 7767SOL     OW24199   5.742   4.108   5.480
 7767SOL    HW124200   5.738   4.196   5.435
 7767SOL    HW224201   5.837   4.075   5.480
 7768SOL     OW24202   4.097   5.822   2.037
 7768SOL    HW124203   4.066   5.747   1.978
 7768SOL    HW224204   4.196   5.831   2.030
 7769SOL     OW24205   6.420   1.962   1.727
 7769SOL    HW124206   6.321   1.953   1.714
 7769SOL    HW224207   6.466   1.958   1.638
 7770SOL     OW24208   3.487   5.600   1.523
 7770SOL    HW124209   3.423   5.673   1.545
 7770SOL    HW224210   3.580   5.629   1.547
 7771SOL     OW24211   2.038   1.459   4.859
 7771SOL    HW124212   2.036   1.559   4.868
 7771SOL    HW224213   2.047   1.418   4.949
 7772SOL     OW24214   5.455   1.024   4.890
 7772SOL    HW124215   5.404   0.955   4.839
 7772SOL    HW224216   5.441   1.114   4.848
 7773SOL     OW24217   4.122   4.416   5.357
 7773SOL    HW124218   4.179   4.435   5.277
 7773SOL    HW224219   4.092   4.503   5.398
 7774SOL     OW24220   4.784   1.693   6.770
 7774SOL    HW124221   4.812   1.705   6.675
 7774SOL    HW224222   4.787   1.595   6.793
 7775SOL     OW24223   3.011   6.809   2.010
 7775SOL    HW124224   3.083   6.876   2.027
 7775SOL    HW224225   2.945   6.809   2.085
 7776SOL     OW24226   3.987   4.024   0.879
 7776SOL    HW124227   3.924   3.970   0.934
 7776SOL    HW224228   4.050   3.963   0.832
 7777SOL     OW24229   1.469   0.639   6.746
 7777SOL    HW124230   1.518   0.684   6.821
 7777SOL    HW224231   1.461   0.541   6.766
 7778SOL     OW24232   5.066   0.889   1.346
 7778SOL    HW124233   5.105   0.974   1.311
 7778SOL    HW224234   5.069   0.819   1.275
 7779SOL     OW24235   3.727   3.333   0.297
 7779SOL    HW124236   3.730   3.370   0.390
 7779SOL    HW224237   3.742   3.234   0.300
 7780SOL     OW24238   0.976   0.044   4.904
 7780SOL    HW124239   0.933   7.001   4.967
 7780SOL    HW224240   1.002   7.019   4.820
 7781SOL     OW24241   1.475   4.940   5.101
 7781SOL    HW124242   1.541   4.866   5.084
 7781SOL    HW224243   1.421   4.956   5.018
 7782SOL     OW24244   3.371   4.447   6.881
 7782SOL    HW124245   3.347   4.462   6.785
 7782SOL    HW224246   3.364   4.350   6.903
 7783SOL     OW24247   3.169   5.148   6.453
 7783SOL    HW124248   3.247   5.089   6.430
 7783SOL    HW224249   3.144   5.202   6.372
 7784SOL     OW24250   6.918   2.817   6.793
 7784SOL    HW124251   6.855   2.860   6.728
 7784SOL    HW224252   6.940   2.881   6.866
 7785SOL     OW24253   2.149   5.984   4.338
 7785SOL    HW124254   2.197   6.041   4.405
 7785SOL    HW224255   2.151   5.889   4.369
 7786SOL     OW24256   3.073   3.981   4.621
 7786SOL    HW124257   3.146   3.965   4.688
 7786SOL    HW224258   3.016   4.057   4.653
 7787SOL     OW24259   2.934   2.192   5.198
 7787SOL    HW124260   2.860   2.252   5.169
 7787SOL    HW224261   3.019   2.220   5.153
 7788SOL     OW24262   0.507   1.313   0.491
 7788SOL    HW124263   0.416   1.281   0.514
 7788SOL    HW224264   0.548   1.357   0.572
 7789SOL     OW24265   1.837   0.142   1.145
 7789SOL    HW124266   1.760   0.129   1.207
 7789SOL    HW224267   1.923   0.131   1.194
 7790SOL     OW24268   6.365   3.820   2.817
 7790SOL    HW124269   6.380   3.914   2.846
 7790SOL    HW224270   6.395   3.809   2.722
 7791SOL     OW24271   1.188   4.518   4.625
 7791SOL    HW124272   1.141   4.514   4.713
 7791SOL    HW224273   1.279   4.477   4.634
 7792SOL     OW24274   2.352   5.423   6.088
 7792SOL    HW124275   2.346   5.402   5.991
 7792SOL    HW224276   2.359   5.338   6.140
 7793SOL     OW24277   0.838   0.788   6.767
 7793SOL    HW124278   0.846   0.772   6.669
 7793SOL    HW224279   0.774   0.722   6.807
 7794SOL     OW24280   5.432   5.841   3.676
 7794SOL    HW124281   5.510   5.822   3.617
 7794SOL    HW224282   5.348   5.809   3.633
 7795SOL     OW24283   1.988   5.184   5.342
 7795SOL    HW124284   1.923   5.258   5.329
 7795SOL    HW224285   2.012   5.144   5.253
 7796SOL     OW24286   3.825   3.420   3.891
 7796SOL    HW124287   3.886   3.475   3.948
 7796SOL    HW224288   3.796   3.339   3.942
 7797SOL     OW24289   1.089   0.236   3.080
 7797SOL    HW124290   1.006   0.264   3.128
 7797SOL    HW224291   1.095   0.285   2.992
 7798SOL     OW24292   4.281   6.019   6.581
 7798SOL    HW124293   4.292   6.103   6.633
 7798SOL    HW224294   4.301   5.941   6.640
 7799SOL     OW24295   6.404   4.621   1.362
 7799SOL    HW124296   6.437   4.606   1.268
 7799SOL    HW224297   6.307   4.596   1.368
 7800SOL     OW24298   0.834   5.871   2.202
 7800SOL    HW124299   0.897   5.825   2.265
 7800SOL    HW224300   0.772   5.929   2.254
 7801SOL     OW24301   3.805   2.571   6.346
 7801SOL    HW124302   3.777   2.666   6.355
 7801SOL    HW224303   3.900   2.567   6.315
 7802SOL     OW24304   5.732   2.178   1.076
 7802SOL    HW124305   5.707   2.248   1.142
 7802SOL    HW224306   5.771   2.221   0.995
 7803SOL     OW24307   3.784   4.298   5.623
 7803SOL    HW124308   3.747   4.354   5.549
 7803SOL    HW224309   3.806   4.356   5.702
 7804SOL     OW24310   5.081   1.913   6.456
 7804SOL    HW124311   5.105   1.904   6.553
 7804SOL    HW224312   4.984   1.897   6.444
 7805SOL     OW24313   5.300   3.977   2.228
 7805SOL    HW124314   5.396   3.952   2.212
 7805SOL    HW224315   5.265   3.924   2.305
 7806SOL     OW24316   4.931   3.024   6.674
 7806SOL    HW124317   4.855   3.018   6.609
 7806SOL    HW224318   4.906   3.086   6.749
 7807SOL     OW24319   0.325   3.910   6.518
 7807SOL    HW124320   0.252   3.842   6.525
 7807SOL    HW224321   0.286   3.998   6.488
 7808SOL     OW24322   0.830   1.653   4.949
 7808SOL    HW124323   0.785   1.742   4.936
 7808SOL    HW224324   0.767   1.580   4.926
 7809SOL     OW24325   2.141   5.728   5.527
 7809SOL    HW124326   2.126   5.631   5.509
 7809SOL    HW224327   2.229   5.756   5.489
 7810SOL     OW24328   2.435   1.198   6.796
 7810SOL    HW124329   2.450   1.258   6.874
 7810SOL    HW224330   2.462   1.245   6.712
 7811SOL     OW24331   0.160   4.227   4.755
 7811SOL    HW124332   0.209   4.314   4.759
 7811SOL    HW224333   0.208   4.164   4.694
 7812SOL     OW24334   0.535   1.599   3.519
 7812SOL    HW124335   0.461   1.659   3.548
 7812SOL    HW224336   0.613   1.610   3.581
 7813SOL     OW24337   6.309   2.530   0.736
 7813SOL    HW124338   6.277   2.595   0.667
 7813SOL    HW224339   6.339   2.581   0.817
 7814SOL     OW24340   1.977   3.479   3.839
 7814SOL    HW124341   1.995   3.380   3.836
 7814SOL    HW224342   1.880   3.496   3.824
 7815SOL     OW24343   6.890   1.564   6.096
 7815SOL    HW124344   6.942   1.606   6.171
 7815SOL    HW224345   6.792   1.580   6.110
 7816SOL     OW24346   0.963   3.718   5.329
 7816SOL    HW124347   0.960   3.817   5.312
 7816SOL    HW224348   1.041   3.697   5.387
 7817SOL     OW24349   5.371   3.608   4.853
 7817SOL    HW124350   5.404   3.621   4.947
 7817SOL    HW224351   5.342   3.696   4.816
 7818SOL     OW24352   4.989   5.405   2.629
 7818SOL    HW124353   4.915   5.454   2.676
 7818SOL    HW224354   4.983   5.308   2.651
 7819SOL     OW24355   6.747   1.320   1.630
 7819SOL    HW124356   6.810   1.304   1.553
 7819SOL    HW224357   6.672   1.254   1.625
 7820SOL     OW24358   1.964   0.019   6.149
 7820SOL    HW124359   2.058   7.011   6.141
 7820SOL    HW224360   1.919   6.993   6.224
 7821SOL     OW24361   2.762   5.651   1.150
 7821SOL    HW124362   2.790   5.650   1.054
 7821SOL    HW224363   2.821   5.590   1.203
 7822SOL     OW24364   1.432   5.894   5.490
 7822SOL    HW124365   1.444   5.953   5.410
 7822SOL    HW224366   1.514   5.839   5.504
 7823SOL     OW24367   1.502   4.120   5.286
 7823SOL    HW124368   1.424   4.080   5.334
 7823SOL    HW224369   1.572   4.050   5.273
 7824SOL     OW24370   0.597   3.458   5.498
 7824SOL    HW124371   0.666   3.460   5.426
 7824SOL    HW224372   0.628   3.398   5.572
 7825SOL     OW24373   3.097   0.993   6.454
 7825SOL    HW124374   3.133   0.963   6.366
 7825SOL    HW224375   3.166   0.979   6.525
 7826SOL     OW24376   0.683   3.059   6.085
 7826SOL    HW124377   0.613   3.090   6.021
 7826SOL    HW224378   0.773   3.061   6.041
 7827SOL     OW24379   6.666   5.528   4.737
 7827SOL    HW124380   6.719   5.443   4.734
 7827SOL    HW224381   6.681   5.579   4.653
 7828SOL     OW24382   0.470   4.949   0.021
 7828SOL    HW124383   0.387   4.959   6.989
 7828SOL    HW224384   0.448   4.910   0.110
 7829SOL     OW24385   3.660   3.474   0.600
 7829SOL    HW124386   3.569   3.496   0.565
 7829SOL    HW224387   3.657   3.384   0.644
 7830SOL     OW24388   2.415   5.428   3.857
 7830SOL    HW124389   2.336   5.457   3.802
 7830SOL    HW224390   2.469   5.362   3.805
 7831SOL     OW24391   1.508   0.355   6.839
 7831SOL    HW124392   1.504   0.325   6.744
 7831SOL    HW224393   1.601   0.386   6.860
 7832SOL     OW24394   6.139   0.962   4.418
 7832SOL    HW124395   6.124   0.902   4.497
 7832SOL    HW224396   6.052   0.997   4.386
 7833SOL     OW24397   1.540   0.701   3.089
 7833SOL    HW124398   1.559   0.603   3.083
 7833SOL    HW224399   1.575   0.746   3.007
 7834SOL     OW24400   6.103   3.325   5.359
 7834SOL    HW124401   6.018   3.376   5.345
 7834SOL    HW224402   6.119   3.313   5.457
 7835SOL     OW24403   4.308   2.416   5.602
 7835SOL    HW124404   4.304   2.412   5.503
 7835SOL    HW224405   4.400   2.445   5.630
 7836SOL     OW24406   3.225   3.432   3.910
 7836SOL    HW124407   3.143   3.375   3.902
 7836SOL    HW224408   3.306   3.374   3.905
 7837SOL     OW24409   0.250   5.699   0.207
 7837SOL    HW124410   0.178   5.748   0.158
 7837SOL    HW224411   0.262   5.740   0.298
 7838SOL     OW24412   4.564   5.842   2.713
 7838SOL    HW124413   4.664   5.849   2.705
 7838SOL    HW224414   4.521   5.913   2.657
 7839SOL     OW24415   6.299   2.771   4.052
 7839SOL    HW124416   6.249   2.725   3.978
 7839SOL    HW224417   6.234   2.805   4.120
 7840SOL     OW24418   1.844   3.263   4.214
 7840SOL    HW124419   1.881   3.238   4.125
 7840SOL    HW224420   1.913   3.312   4.267
 7841SOL     OW24421   3.444   1.741   6.740
 7841SOL    HW124422   3.539   1.714   6.758
 7841SOL    HW224423   3.419   1.817   6.800
 7842SOL     OW24424   0.973   0.828   1.689
 7842SOL    HW124425   0.983   0.916   1.642
 7842SOL    HW224426   0.927   0.763   1.629
 7843SOL     OW24427   0.121   6.181   3.250
 7843SOL    HW124428   0.152   6.086   3.244
 7843SOL    HW224429   0.113   6.220   3.158
 7844SOL     OW24430   3.746   0.762   2.481
 7844SOL    HW124431   3.662   0.789   2.436
 7844SOL    HW224432   3.725   0.712   2.565
 7845SOL     OW24433   0.017   2.932   0.594
 7845SOL    HW124434   6.940   2.927   0.591
 7845SOL    HW224435   0.056   2.846   0.562
 7846SOL     OW24436   1.053   1.215   0.140
 7846SOL    HW124437   1.106   1.180   0.063
 7846SOL    HW224438   1.066   1.156   0.220
 7847SOL     OW24439   5.617   4.393   6.490
 7847SOL    HW124440   5.713   4.409   6.513
 7847SOL    HW224441   5.605   4.299   6.458
 7848SOL     OW24442   3.711   4.533   0.796
 7848SOL    HW124443   3.729   4.436   0.815
 7848SOL    HW224444   3.643   4.568   0.861
 7849SOL     OW24445   4.473   5.139   7.001
 7849SOL    HW124446   4.481   5.239   6.998
 7849SOL    HW224447   4.510   5.106   0.066
 7850SOL     OW24448   0.127   1.454   4.121
 7850SOL    HW124449   0.189   1.387   4.080
 7850SOL    HW224450   0.082   1.413   4.201
 7851SOL     OW24451   0.054   4.556   1.011
 7851SOL    HW124452   0.076   4.644   1.053
 7851SOL    HW224453   0.018   4.571   0.919
 7852SOL     OW24454   1.278   2.672   6.813
 7852SOL    HW124455   1.327   2.588   6.838
 7852SOL    HW224456   1.342   2.738   6.773
 7853SOL     OW24457   4.189   2.895   1.708
 7853SOL    HW124458   4.117   2.879   1.775
 7853SOL    HW224459   4.234   2.982   1.728
 7854SOL     OW24460   4.885   1.914   6.915
 7854SOL    HW124461   4.808   1.918   6.979
 7854SOL    HW224462   4.850   1.906   6.821
 7855SOL     OW24463   5.088   6.740   4.171
 7855SOL    HW124464   4.994   6.774   4.172
 7855SOL    HW224465   5.142   6.793   4.106
 7856SOL     OW24466   1.975   6.911   4.563
 7856SOL    HW124467   1.959   6.814   4.575
 7856SOL    HW224468   2.008   6.928   4.470
 7857SOL     OW24469   6.101   4.526   1.278
 7857SOL    HW124470   6.111   4.431   1.306
 7857SOL    HW224471   6.008   4.557   1.297
 7858SOL     OW24472   6.920   4.621   6.435
 7858SOL    HW124473   6.898   4.554   6.505
 7858SOL    HW224474   6.919   4.713   6.475
 7859SOL     OW24475   5.153   1.833   0.583
 7859SOL    HW124476   5.187   1.797   0.496
 7859SOL    HW224477   5.226   1.829   0.652
 7860SOL     OW24478   2.877   1.594   4.670
 7860SOL    HW124479   2.860   1.547   4.756
 7860SOL    HW224480   2.931   1.536   4.610
 7861SOL     OW24481   2.131   6.586   0.240
 7861SOL    HW124482   2.163   6.611   0.331
 7861SOL    HW224483   2.194   6.621   0.171
 7862SOL     OW24484   1.718   5.855   0.001
 7862SOL    HW124485   1.671   5.935   6.987
 7862SOL    HW224486   1.790   5.827   6.961
 7863SOL     OW24487   1.260   3.968   3.572
 7863SOL    HW124488   1.217   4.050   3.609
 7863SOL    HW224489   1.334   3.939   3.632
 7864SOL     OW24490   2.209   6.386   5.319
 7864SOL    HW124491   2.277   6.353   5.254
 7864SOL    HW224492   2.121   6.397   5.273
 7865SOL     OW24493   5.660   4.154   3.244
 7865SOL    HW124494   5.741   4.186   3.194
 7865SOL    HW224495   5.583   4.145   3.180
 7866SOL     OW24496   0.807   1.225   5.956
 7866SOL    HW124497   0.832   1.240   5.860
 7866SOL    HW224498   0.815   1.312   6.006
 7867SOL     OW24499   4.539   5.060   3.572
 7867SOL    HW124500   4.493   5.139   3.612
 7867SOL    HW224501   4.586   5.009   3.644
 7868SOL     OW24502   2.830   6.393   1.423
 7868SOL    HW124503   2.829   6.472   1.484
 7868SOL    HW224504   2.915   6.342   1.436
 7869SOL     OW24505   5.684   4.638   6.941
 7869SOL    HW124506   5.743   4.699   6.887
 7869SOL    HW224507   5.658   4.559   6.886
 7870SOL     OW24508   5.794   6.059   4.313
 7870SOL    HW124509   5.874   6.007   4.282
 7870SOL    HW224510   5.711   6.015   4.278
 7871SOL     OW24511   4.959   1.399   0.178
 7871SOL    HW124512   4.956   1.428   0.274
 7871SOL    HW224513   5.029   1.329   0.167
 7872SOL     OW24514   1.439   5.579   3.490
 7872SOL    HW124515   1.495   5.661   3.505
 7872SOL    HW224516   1.482   5.500   3.534
 7873SOL     OW24517   4.884   1.986   0.373
 7873SOL    HW124518   4.834   2.048   0.433
 7873SOL    HW224519   4.861   1.891   0.397
 7874SOL     OW24520   6.043   2.744   0.706
 7874SOL    HW124521   6.077   2.693   0.785
 7874SOL    HW224522   5.969   2.805   0.735
 7875SOL     OW24523   5.928   4.507   5.928
 7875SOL    HW124524   5.993   4.575   5.894
 7875SOL    HW224525   5.889   4.457   5.850
 7876SOL     OW24526   0.792   0.371   4.069
 7876SOL    HW124527   0.707   0.374   4.122
 7876SOL    HW224528   0.850   0.448   4.096
 7877SOL     OW24529   6.917   2.570   3.317
 7877SOL    HW124530   6.909   2.498   3.248
 7877SOL    HW224531   6.857   2.646   3.292
 7878SOL     OW24532   4.136   5.455   3.199
 7878SOL    HW124533   4.040   5.469   3.224
 7878SOL    HW224534   4.166   5.530   3.139
 7879SOL     OW24535   2.993   4.833   3.173
 7879SOL    HW124536   2.999   4.861   3.269
 7879SOL    HW224537   2.897   4.823   3.146
 7880SOL     OW24538   1.211   4.746   2.094
 7880SOL    HW124539   1.142   4.677   2.073
 7880SOL    HW224540   1.189   4.832   2.048
 7881SOL     OW24541   4.848   4.142   3.583
 7881SOL    HW124542   4.892   4.217   3.534
 7881SOL    HW224543   4.787   4.179   3.654
 7882SOL     OW24544   1.198   3.423   0.014
 7882SOL    HW124545   1.184   3.371   6.952
 7882SOL    HW224546   1.188   3.362   0.093
 7883SOL     OW24547   0.674   0.942   5.099
 7883SOL    HW124548   0.624   0.872   5.048
 7883SOL    HW224549   0.615   0.979   5.171
 7884SOL     OW24550   1.200   2.696   4.620
 7884SOL    HW124551   1.292   2.728   4.598
 7884SOL    HW224552   1.136   2.731   4.551
 7885SOL     OW24553   6.508   6.395   6.595
 7885SOL    HW124554   6.575   6.413   6.666
 7885SOL    HW224555   6.416   6.411   6.631
 7886SOL     OW24556   5.305   4.457   0.679
 7886SOL    HW124557   5.229   4.466   0.615
 7886SOL    HW224558   5.356   4.542   0.684
 7887SOL     OW24559   4.840   2.890   5.994
 7887SOL    HW124560   4.817   2.852   6.084
 7887SOL    HW224561   4.774   2.961   5.970
 7888SOL     OW24562   5.291   6.542   4.561
 7888SOL    HW124563   5.336   6.553   4.650
 7888SOL    HW224564   5.310   6.451   4.524
 7889SOL     OW24565   0.229   4.907   2.670
 7889SOL    HW124566   0.145   4.915   2.616
 7889SOL    HW224567   0.216   4.951   2.759
 7890SOL     OW24568   2.041   2.864   2.494
 7890SOL    HW124569   2.133   2.897   2.514
 7890SOL    HW224570   2.021   2.783   2.549
 7891SOL     OW24571   1.139   4.668   2.783
 7891SOL    HW124572   1.229   4.710   2.783
 7891SOL    HW224573   1.148   4.569   2.774
 7892SOL     OW24574   2.116   2.548   6.156
 7892SOL    HW124575   2.111   2.455   6.118
 7892SOL    HW224576   2.209   2.566   6.187
 7893SOL     OW24577   5.991   6.388   1.828
 7893SOL    HW124578   6.018   6.427   1.740
 7893SOL    HW224579   5.925   6.450   1.872
 7894SOL     OW24580   2.732   7.010   1.783
 7894SOL    HW124581   2.638   6.992   1.812
 7894SOL    HW224582   2.784   6.925   1.783
 7895SOL     OW24583   6.791   1.350   3.131
 7895SOL    HW124584   6.824   1.425   3.073
 7895SOL    HW224585   6.822   1.365   3.225
 7896SOL     OW24586   4.339   1.452   6.490
 7896SOL    HW124587   4.334   1.501   6.576
 7896SOL    HW224588   4.249   1.454   6.445
 7897SOL     OW24589   2.927   2.990   6.562
 7897SOL    HW124590   3.001   2.950   6.507
 7897SOL    HW224591   2.961   3.009   6.654
 7898SOL     OW24592   4.754   2.089   3.290
 7898SOL    HW124593   4.706   2.003   3.308
 7898SOL    HW224594   4.827   2.101   3.357
 7899SOL     OW24595   4.642   1.503   3.018
 7899SOL    HW124596   4.573   1.561   2.974
 7899SOL    HW224597   4.638   1.517   3.117
 7900SOL     OW24598   1.237   5.186   0.773
 7900SOL    HW124599   1.296   5.193   0.691
 7900SOL    HW224600   1.262   5.257   0.837
 7901SOL     OW24601   5.802   5.365   0.986
 7901SOL    HW124602   5.742   5.334   1.059
 7901SOL    HW224603   5.831   5.287   0.931
 7902SOL     OW24604   4.737   4.952   5.915
 7902SOL    HW124605   4.763   4.912   5.827
 7902SOL    HW224606   4.676   4.890   5.964
 7903SOL     OW24607   0.214   2.640   0.080
 7903SOL    HW124608   0.237   2.717   0.021
 7903SOL    HW224609   0.269   2.560   0.053
 7904SOL     OW24610   6.360   1.515   2.301
 7904SOL    HW124611   6.404   1.544   2.216
 7904SOL    HW224612   6.361   1.415   2.307
 7905SOL     OW24613   2.703   2.191   1.331
 7905SOL    HW124614   2.665   2.151   1.414
 7905SOL    HW224615   2.663   2.281   1.315
 7906SOL     OW24616   0.466   5.104   0.396
 7906SOL    HW124617   0.500   5.178   0.337
 7906SOL    HW224618   0.372   5.123   0.423
 7907SOL     OW24619   5.859   3.064   2.117
 7907SOL    HW124620   5.939   3.013   2.149
 7907SOL    HW224621   5.783   3.000   2.102
 7908SOL     OW24622   6.163   1.582   3.003
 7908SOL    HW124623   6.130   1.594   3.096
 7908SOL    HW224624   6.149   1.487   2.975
 7909SOL     OW24625   4.335   5.791   5.154
 7909SOL    HW124626   4.364   5.796   5.059
 7909SOL    HW224627   4.345   5.881   5.197
 7910SOL     OW24628   5.989   3.613   6.279
 7910SOL    HW124629   6.054   3.556   6.229
 7910SOL    HW224630   6.024   3.706   6.286
 7911SOL     OW24631   6.999   5.121   6.934
 7911SOL    HW124632   0.050   5.067   6.975
 7911SOL    HW224633   6.928   5.137   7.002
 7912SOL     OW24634   0.073   5.456   5.581
 7912SOL    HW124635   0.057   5.478   5.677
 7912SOL    HW224636   7.017   5.485   5.526
 7913SOL     OW24637   1.086   6.061   6.613
 7913SOL    HW124638   1.132   5.984   6.567
 7913SOL    HW224639   1.137   6.145   6.594
 7914SOL     OW24640   6.757   3.482   1.984
 7914SOL    HW124641   6.677   3.465   1.926
 7914SOL    HW224642   6.828   3.527   1.929
 7915SOL     OW24643   4.345   1.011   2.079
 7915SOL    HW124644   4.297   1.067   2.146
 7915SOL    HW224645   4.441   1.037   2.076
 7916SOL     OW24646   4.977   3.614   5.456
 7916SOL    HW124647   4.977   3.687   5.387
 7916SOL    HW224648   4.992   3.526   5.411
 7917SOL     OW24649   3.343   4.151   3.765
 7917SOL    HW124650   3.336   4.197   3.677
 7917SOL    HW224651   3.437   4.155   3.798
 7918SOL     OW24652   6.582   2.425   2.357
 7918SOL    HW124653   6.661   2.456   2.410
 7918SOL    HW224654   6.609   2.350   2.298
 7919SOL     OW24655   6.187   4.783   1.961
 7919SOL    HW124656   6.234   4.785   2.049
 7919SOL    HW224657   6.202   4.869   1.913
 7920SOL     OW24658   0.481   6.508   2.135
 7920SOL    HW124659   0.419   6.580   2.166
 7920SOL    HW224660   0.428   6.431   2.100
 7921SOL     OW24661   2.902   6.203   2.091
 7921SOL    HW124662   2.823   6.190   2.150
 7921SOL    HW224663   2.955   6.118   2.089
 7922SOL     OW24664   0.827   4.908   6.069
 7922SOL    HW124665   0.868   4.999   6.071
 7922SOL    HW224666   0.878   4.850   6.006
 7923SOL     OW24667   0.581   1.861   2.906
 7923SOL    HW124668   0.583   1.930   2.978
 7923SOL    HW224669   0.672   1.851   2.866
 7924SOL     OW24670   2.511   1.210   3.687
 7924SOL    HW124671   2.464   1.135   3.733
 7924SOL    HW224672   2.446   1.285   3.672
 7925SOL     OW24673   0.558   1.187   6.480
 7925SOL    HW124674   0.634   1.125   6.463
 7925SOL    HW224675   0.484   1.138   6.526
 7926SOL     OW24676   3.486   6.824   1.845
 7926SOL    HW124677   3.433   6.909   1.849
 7926SOL    HW224678   3.555   6.831   1.773
 7927SOL     OW24679   4.915   4.478   4.224
 7927SOL    HW124680   4.930   4.536   4.304
 7927SOL    HW224681   4.978   4.401   4.226
 7928SOL     OW24682   1.003   4.831   6.745
 7928SOL    HW124683   0.981   4.928   6.753
 7928SOL    HW224684   0.944   4.778   6.807
 7929SOL     OW24685   3.960   3.818   4.325
 7929SOL    HW124686   3.990   3.819   4.230
 7929SOL    HW224687   4.024   3.764   4.379
 7930SOL     OW24688   5.397   6.143   4.148
 7930SOL    HW124689   5.403   6.242   4.151
 7930SOL    HW224690   5.351   6.115   4.064
 7931SOL     OW24691   2.131   3.199   0.201
 7931SOL    HW124692   2.146   3.184   0.103
 7931SOL    HW224693   2.210   3.163   0.251
 7932SOL     OW24694   3.059   6.696   0.717
 7932SOL    HW124695   3.073   6.759   0.641
 7932SOL    HW224696   3.012   6.742   0.791
 7933SOL     OW24697   1.294   1.058   6.090
 7933SOL    HW124698   1.284   1.144   6.040
 7933SOL    HW224699   1.303   1.077   6.187
 7934SOL     OW24700   3.984   2.862   5.646
 7934SOL    HW124701   3.931   2.805   5.709
 7934SOL    HW224702   4.004   2.950   5.689
 7935SOL     OW24703   5.117   5.871   1.487
 7935SOL    HW124704   5.148   5.965   1.499
 7935SOL    HW224705   5.092   5.832   1.576
 7936SOL     OW24706   4.207   5.922   2.711
 7936SOL    HW124707   4.110   5.934   2.732
 7936SOL    HW224708   4.243   5.846   2.764
 7937SOL     OW24709   6.499   0.214   5.869
 7937SOL    HW124710   6.423   0.149   5.877
 7937SOL    HW224711   6.537   0.231   5.960
 7938SOL     OW24712   6.112   4.926   4.502
 7938SOL    HW124713   6.156   4.888   4.583
 7938SOL    HW224714   6.132   5.024   4.496
 7939SOL     OW24715   0.478   6.794   4.266
 7939SOL    HW124716   0.400   6.837   4.311
 7939SOL    HW224717   0.563   6.823   4.311
 7940SOL     OW24718   1.829   6.283   0.515
 7940SOL    HW124719   1.746   6.279   0.459
 7940SOL    HW224720   1.904   6.238   0.466
 7941SOL     OW24721   0.042   0.587   0.578
 7941SOL    HW124722   0.023   0.658   0.510
 7941SOL    HW224723   6.979   0.545   0.607
 7942SOL     OW24724   1.445   1.395   1.129
 7942SOL    HW124725   1.507   1.453   1.077
 7942SOL    HW224726   1.360   1.383   1.078
 7943SOL     OW24727   5.820   1.918   0.198
 7943SOL    HW124728   5.765   1.942   0.118
 7943SOL    HW224729   5.895   1.983   0.208
 7944SOL     OW24730   6.927   3.470   2.550
 7944SOL    HW124731   6.928   3.395   2.484
 7944SOL    HW224732   6.893   3.437   2.638
 7945SOL     OW24733   5.487   6.810   1.162
 7945SOL    HW124734   5.477   6.769   1.071
 7945SOL    HW224735   5.467   6.740   1.231
 7946SOL     OW24736   1.422   1.908   6.103
 7946SOL    HW124737   1.474   1.892   6.187
 7946SOL    HW224738   1.330   1.870   6.114
 7947SOL     OW24739   4.433   4.979   5.913
 7947SOL    HW124740   4.388   4.937   5.992
 7947SOL    HW224741   4.488   5.057   5.944
 7948SOL     OW24742   0.767   5.061   6.295
 7948SOL    HW124743   0.778   5.000   6.216
 7948SOL    HW224744   0.827   5.030   6.369
 7949SOL     OW24745   6.641   3.981   4.068
 7949SOL    HW124746   6.638   3.909   4.138
 7949SOL    HW224747   6.552   4.026   4.062
 7950SOL     OW24748   3.494   4.987   4.252
 7950SOL    HW124749   3.578   4.933   4.255
 7950SOL    HW224750   3.417   4.930   4.277
 7951SOL     OW24751   3.354   3.736   0.836
 7951SOL    HW124752   3.414   3.807   0.797
 7951SOL    HW224753   3.403   3.689   0.909
 7952SOL     OW24754   5.131   5.132   0.246
 7952SOL    HW124755   5.211   5.112   0.189
 7952SOL    HW224756   5.140   5.224   0.284
 7953SOL     OW24757   2.200   3.022   2.998
 7953SOL    HW124758   2.225   3.068   3.084
 7953SOL    HW224759   2.196   2.924   3.013
 7954SOL     OW24760   5.238   5.203   4.709
 7954SOL    HW124761   5.182   5.168   4.634
 7954SOL    HW224762   5.231   5.143   4.788
 7955SOL     OW24763   1.496   0.269   6.247
 7955SOL    HW124764   1.559   0.346   6.250
 7955SOL    HW224765   1.525   0.200   6.314
 7956SOL     OW24766   6.194   0.306   3.515
 7956SOL    HW124767   6.243   0.246   3.578
 7956SOL    HW224768   6.211   0.277   3.421
 7957SOL     OW24769   0.781   2.589   0.881
 7957SOL    HW124770   0.837   2.552   0.955
 7957SOL    HW224771   0.694   2.622   0.918
 7958SOL     OW24772   1.929   5.466   3.423
 7958SOL    HW124773   1.986   5.519   3.486
 7958SOL    HW224774   1.841   5.446   3.467
 7959SOL     OW24775   4.645   5.099   0.642
 7959SOL    HW124776   4.654   5.194   0.672
 7959SOL    HW224777   4.700   5.085   0.560
 7960SOL     OW24778   2.222   2.703   0.945
 7960SOL    HW124779   2.313   2.664   0.955
 7960SOL    HW224780   2.225   2.779   0.881
 7961SOL     OW24781   1.686   5.652   0.195
 7961SOL    HW124782   1.728   5.677   0.283
 7961SOL    HW224783   1.699   5.727   0.130
 7962SOL     OW24784   1.693   6.938   2.065
 7962SOL    HW124785   1.733   6.904   2.150
 7962SOL    HW224786   1.601   6.973   2.084
 7963SOL     OW24787   0.767   6.582   4.735
 7963SOL    HW124788   0.806   6.627   4.655
 7963SOL    HW224789   0.784   6.637   4.816
 7964SOL     OW24790   6.297   5.727   3.486
 7964SOL    HW124791   6.291   5.641   3.435
 7964SOL    HW224792   6.326   5.708   3.580
 7965SOL     OW24793   5.721   1.803   0.652
 7965SOL    HW124794   5.755   1.869   0.584
 7965SOL    HW224795   5.690   1.852   0.733
 7966SOL     OW24796   6.705   6.475   3.501
 7966SOL    HW124797   6.794   6.511   3.472
 7966SOL    HW224798   6.633   6.514   3.444
 7967SOL     OW24799   2.748   0.019   3.202
 7967SOL    HW124800   2.807   0.048   3.278
 7967SOL    HW224801   2.804   0.005   3.121
 7968SOL     OW24802   2.048   0.662   1.157
 7968SOL    HW124803   1.978   0.683   1.226
 7968SOL    HW224804   2.049   0.563   1.141
 7969SOL     OW24805   3.332   1.774   3.446
 7969SOL    HW124806   3.244   1.729   3.462
 7969SOL    HW224807   3.348   1.781   3.347
 7970SOL     OW24808   0.397   5.009   3.151
 7970SOL    HW124809   0.431   4.918   3.175
 7970SOL    HW224810   0.370   5.058   3.234
 7971SOL     OW24811   2.730   1.558   1.816
 7971SOL    HW124812   2.669   1.603   1.881
 7971SOL    HW224813   2.818   1.606   1.814
 7972SOL     OW24814   0.434   5.276   1.680
 7972SOL    HW124815   0.396   5.355   1.728
 7972SOL    HW224816   0.437   5.198   1.742
 7973SOL     OW24817   4.652   2.114   2.598
 7973SOL    HW124818   4.695   2.025   2.588
 7973SOL    HW224819   4.722   2.185   2.610
 7974SOL     OW24820   5.660   6.923   3.906
 7974SOL    HW124821   5.576   6.937   3.959
 7974SOL    HW224822   5.660   6.831   3.868
 7975SOL     OW24823   2.176   0.846   2.878
 7975SOL    HW124824   2.252   0.843   2.943
 7975SOL    HW224825   2.212   0.851   2.785
 7976SOL     OW24826   0.758   6.309   6.214
 7976SOL    HW124827   0.664   6.329   6.242
 7976SOL    HW224828   0.780   6.361   6.132
 7977SOL     OW24829   4.761   6.445   1.402
 7977SOL    HW124830   4.855   6.420   1.427
 7977SOL    HW224831   4.699   6.417   1.476
 7978SOL     OW24832   3.786   2.516   6.034
 7978SOL    HW124833   3.725   2.502   6.112
 7978SOL    HW224834   3.820   2.428   6.002
 7979SOL     OW24835   4.656   6.953   4.321
 7979SOL    HW124836   4.709   6.931   4.239
 7979SOL    HW224837   4.702   0.003   4.372
 7980SOL     OW24838   2.516   0.502   2.005
 7980SOL    HW124839   2.568   0.469   2.084
 7980SOL    HW224840   2.442   0.562   2.037
 7981SOL     OW24841   1.091   6.140   3.200
 7981SOL    HW124842   1.152   6.173   3.128
 7981SOL    HW224843   1.144   6.092   3.269
 7982SOL     OW24844   0.207   2.164   0.549
 7982SOL    HW124845   0.123   2.190   0.502
 7982SOL    HW224846   0.206   2.065   0.567
 7983SOL     OW24847   4.588   2.580   2.271
 7983SOL    HW124848   4.593   2.671   2.228
 7983SOL    HW224849   4.670   2.564   2.325
 7984SOL     OW24850   0.142   0.451   0.332
 7984SOL    HW124851   0.097   0.369   0.368
 7984SOL    HW224852   0.091   0.532   0.360
 7985SOL     OW24853   0.251   1.110   1.304
 7985SOL    HW124854   0.247   1.078   1.209
 7985SOL    HW224855   0.346   1.112   1.334
 7986SOL     OW24856   4.593   2.749   0.050
 7986SOL    HW124857   4.685   2.774   0.019
 7986SOL    HW224858   4.535   2.830   0.053
 7987SOL     OW24859   0.822   2.661   4.462
 7987SOL    HW124860   0.910   2.701   4.436
 7987SOL    HW224861   0.777   2.624   4.381
 7988SOL     OW24862   2.912   2.247   5.760
 7988SOL    HW124863   2.922   2.156   5.800
 7988SOL    HW224864   2.947   2.247   5.667
 7989SOL     OW24865   3.550   3.425   5.478
 7989SOL    HW124866   3.506   3.401   5.392
 7989SOL    HW224867   3.525   3.519   5.503
 7990SOL     OW24868   2.136   2.576   4.876
 7990SOL    HW124869   2.081   2.531   4.946
 7990SOL    HW224870   2.194   2.508   4.831
 7991SOL     OW24871   0.551   3.010   4.822
 7991SOL    HW124872   0.584   3.058   4.741
 7991SOL    HW224873   0.608   3.033   4.901
 7992SOL     OW24874   2.175   0.820   0.552
 7992SOL    HW124875   2.089   0.859   0.520
 7992SOL    HW224876   2.172   0.807   0.651
 7993SOL     OW24877   2.116   6.722   6.191
 7993SOL    HW124878   2.141   6.746   6.097
 7993SOL    HW224879   2.024   6.682   6.192
 7994SOL     OW24880   5.779   0.638   4.361
 7994SOL    HW124881   5.786   0.548   4.403
 7994SOL    HW224882   5.764   0.707   4.432
 7995SOL     OW24883   4.656   5.894   3.500
 7995SOL    HW124884   4.560   5.921   3.512
 7995SOL    HW224885   4.664   5.794   3.510
 7996SOL     OW24886   3.974   0.844   5.314
 7996SOL    HW124887   3.933   0.933   5.330
 7996SOL    HW224888   3.986   0.830   5.216
 7997SOL     OW24889   5.440   2.647   2.157
 7997SOL    HW124890   5.361   2.697   2.123
 7997SOL    HW224891   5.418   2.549   2.161
 7998SOL     OW24892   5.965   4.746   6.551
 7998SOL    HW124893   5.868   4.725   6.540
 7998SOL    HW224894   6.002   4.693   6.628
 7999SOL     OW24895   1.310   0.372   5.510
 7999SOL    HW124896   1.229   0.354   5.566
 7999SOL    HW224897   1.391   0.333   5.554
 8000SOL     OW24898   5.536   0.202   5.792
 8000SOL    HW124899   5.546   0.103   5.799
 8000SOL    HW224900   5.612   0.247   5.838
 8001SOL     OW24901   2.380   6.395   0.913
 8001SOL    HW124902   2.296   6.413   0.861
 8001SOL    HW224903   2.357   6.358   1.003
 8002SOL     OW24904   5.268   2.874   5.750
 8002SOL    HW124905   5.182   2.842   5.790
 8002SOL    HW224906   5.309   2.944   5.809
 8003SOL     OW24907   3.942   5.733   3.833
 8003SOL    HW124908   3.950   5.787   3.917
 8003SOL    HW224909   3.926   5.794   3.756
 8004SOL     OW24910   1.297   4.109   2.726
 8004SOL    HW124911   1.371   4.094   2.660
 8004SOL    HW224912   1.318   4.062   2.812
 8005SOL     OW24913   2.793   0.578   2.363
 8005SOL    HW124914   2.751   0.520   2.292
 8005SOL    HW224915   2.876   0.534   2.396
 8006SOL     OW24916   3.539   6.476   0.977
 8006SOL    HW124917   3.599   6.471   0.898
 8006SOL    HW224918   3.571   6.548   1.039
 8007SOL     OW24919   0.295   1.225   4.094
 8007SOL    HW124920   0.393   1.225   4.114
 8007SOL    HW224921   0.249   1.158   4.151
 8008SOL     OW24922   6.083   5.304   0.599
 8008SOL    HW124923   6.039   5.214   0.595
 8008SOL    HW224924   6.028   5.365   0.656
 8009SOL     OW24925   6.719   0.049   4.000
 8009SOL    HW124926   6.683   6.978   4.002
 8009SOL    HW224927   6.771   0.063   3.916
 8010SOL     OW24928   1.615   2.896   6.866
 8010SOL    HW124929   1.518   2.918   6.876
 8010SOL    HW224930   1.646   2.921   6.775
 8011SOL     OW24931   2.328   2.432   0.822
 8011SOL    HW124932   2.378   2.478   0.895
 8011SOL    HW224933   2.249   2.384   0.860
 8012SOL     OW24934   2.951   0.066   3.379
 8012SOL    HW124935   2.965   0.144   3.441
 8012SOL    HW224936   3.016   7.016   3.402
 8013SOL     OW24937   5.948   5.388   4.879
 8013SOL    HW124938   5.996   5.397   4.791
 8013SOL    HW224939   5.942   5.291   4.904
 8014SOL     OW24940   2.020   0.506   6.799
 8014SOL    HW124941   2.055   0.457   6.879
 8014SOL    HW224942   2.086   0.498   6.724
 8015SOL     OW24943   1.669   2.040   6.655
 8015SOL    HW124944   1.677   2.013   6.751
 8015SOL    HW224945   1.705   2.132   6.643
 8016SOL     OW24946   3.737   6.694   1.420
 8016SOL    HW124947   3.817   6.676   1.363
 8016SOL    HW224948   3.735   6.791   1.444
 8017SOL     OW24949   5.673   4.186   5.114
 8017SOL    HW124950   5.773   4.194   5.117
 8017SOL    HW224951   5.644   4.112   5.175
 8018SOL     OW24952   5.308   2.587   4.318
 8018SOL    HW124953   5.367   2.643   4.376
 8018SOL    HW224954   5.212   2.604   4.341
 8019SOL     OW24955   2.352   5.149   1.640
 8019SOL    HW124956   2.413   5.209   1.590
 8019SOL    HW224957   2.259   5.160   1.606
 8020SOL     OW24958   5.849   6.438   6.276
 8020SOL    HW124959   5.803   6.380   6.343
 8020SOL    HW224960   5.782   6.474   6.211
 8021SOL     OW24961   0.427   0.656   0.780
 8021SOL    HW124962   0.390   0.607   0.701
 8021SOL    HW224963   0.393   0.750   0.780
 8022SOL     OW24964   4.427   5.739   3.255
 8022SOL    HW124965   4.515   5.757   3.211
 8022SOL    HW224966   4.441   5.685   3.338
 8023SOL     OW24967   6.346   6.773   3.552
 8023SOL    HW124968   6.266   6.713   3.556
 8023SOL    HW224969   6.409   6.750   3.626
 8024SOL     OW24970   4.910   5.463   4.514
 8024SOL    HW124971   4.840   5.479   4.583
 8024SOL    HW224972   4.891   5.377   4.466
 8025SOL     OW24973   3.225   6.241   0.265
 8025SOL    HW124974   3.287   6.185   0.320
 8025SOL    HW224975   3.250   6.337   0.274
 8026SOL     OW24976   1.961   2.870   0.810
 8026SOL    HW124977   1.901   2.798   0.845
 8026SOL    HW224978   1.924   2.907   0.726
 8027SOL     OW24979   5.339   3.404   5.662
 8027SOL    HW124980   5.300   3.496   5.668
 8027SOL    HW224981   5.286   3.342   5.719
 8028SOL     OW24982   5.300   5.339   0.332
 8028SOL    HW124983   5.392   5.351   0.294
 8028SOL    HW224984   5.308   5.319   0.430
 8029SOL     OW24985   3.006   4.642   0.386
 8029SOL    HW124986   2.973   4.613   0.476
 8029SOL    HW224987   3.020   4.741   0.386
 8030SOL     OW24988   5.707   3.774   0.068
 8030SOL    HW124989   5.625   3.797   0.120
 8030SOL    HW224990   5.747   3.857   0.029
 8031SOL     OW24991   3.516   6.081   1.284
 8031SOL    HW124992   3.496   6.134   1.202
 8031SOL    HW224993   3.607   6.042   1.278
 8032SOL     OW24994   4.792   4.727   5.569
 8032SOL    HW124995   4.869   4.694   5.623
 8032SOL    HW224996   4.712   4.739   5.628
 8033SOL     OW24997   6.213   2.256   0.758
 8033SOL    HW124998   6.146   2.244   0.831
 8033SOL    HW224999   6.225   2.353   0.738
 8034SOL     OW25000   6.130   1.126   4.795
 8034SOL    HW125001   6.119   1.189   4.718
 8034SOL    HW225002   6.061   1.054   4.789
 8035SOL     OW25003   5.625   6.247   0.324
 8035SOL    HW125004   5.534   6.271   0.358
 8035SOL    HW225005   5.694   6.298   0.375
 8036SOL     OW25006   2.041   4.586   1.424
 8036SOL    HW125007   1.955   4.607   1.378
 8036SOL    HW225008   2.023   4.553   1.517
 8037SOL     OW25009   2.070   3.441   1.114
 8037SOL    HW125010   2.086   3.342   1.121
 8037SOL    HW225011   2.009   3.470   1.187
 8038SOL     OW25012   6.841   1.322   3.870
 8038SOL    HW125013   6.859   1.393   3.938
 8038SOL    HW225014   6.790   1.248   3.912
 8039SOL     OW25015   2.997   6.799   4.767
 8039SOL    HW125016   2.917   6.742   4.745
 8039SOL    HW225017   3.007   6.871   4.698
 8040SOL     OW25018   6.483   5.700   1.155
 8040SOL    HW125019   6.539   5.619   1.137
 8040SOL    HW225020   6.523   5.779   1.109
 8041SOL     OW25021   4.048   2.121   0.641
 8041SOL    HW125022   3.994   2.141   0.559
 8041SOL    HW225023   4.135   2.080   0.614
 8042SOL     OW25024   2.620   3.829   0.790
 8042SOL    HW125025   2.521   3.843   0.800
 8042SOL    HW225026   2.636   3.755   0.724
 8043SOL     OW25027   2.472   0.181   1.227
 8043SOL    HW125028   2.392   0.136   1.265
 8043SOL    HW225029   2.552   0.159   1.283
 8044SOL     OW25030   3.296   4.106   1.646
 8044SOL    HW125031   3.278   4.011   1.620
 8044SOL    HW225032   3.258   4.123   1.738
 8045SOL     OW25033   6.444   2.970   3.540
 8045SOL    HW125034   6.438   3.023   3.624
 8045SOL    HW225035   6.387   2.889   3.548
 8046SOL     OW25036   0.101   5.352   6.135
 8046SOL    HW125037   0.155   5.271   6.157
 8046SOL    HW225038   0.067   5.393   6.219
 8047SOL     OW25039   2.739   6.346   4.069
 8047SOL    HW125040   2.747   6.416   3.998
 8047SOL    HW225041   2.654   6.296   4.057
 8048SOL     OW25042   6.590   0.758   6.128
 8048SOL    HW125043   6.680   0.722   6.154
 8048SOL    HW225044   6.567   0.724   6.037
 8049SOL     OW25045   1.523   6.131   0.590
 8049SOL    HW125046   1.509   6.181   0.505
 8049SOL    HW225047   1.565   6.191   0.658
 8050SOL     OW25048   0.865   3.138   1.004
 8050SOL    HW125049   0.894   3.203   0.934
 8050SOL    HW225050   0.781   3.092   0.974
 8051SOL     OW25051   3.574   1.820   4.049
 8051SOL    HW125052   3.504   1.809   3.977
 8051SOL    HW225053   3.664   1.809   4.008
 8052SOL     OW25054   3.393   1.956   2.964
 8052SOL    HW125055   3.378   2.037   3.021
 8052SOL    HW225056   3.387   1.982   2.868
 8053SOL     OW25057   3.871   3.416   1.862
 8053SOL    HW125058   3.846   3.421   1.766
 8053SOL    HW225059   3.904   3.506   1.893
 8054SOL     OW25060   4.326   5.939   4.099
 8054SOL    HW125061   4.277   5.857   4.128
 8054SOL    HW225062   4.395   5.913   4.031
 8055SOL     OW25063   1.116   6.814   5.023
 8055SOL    HW125064   1.192   6.879   5.018
 8055SOL    HW225065   1.152   6.721   5.030
 8056SOL     OW25066   4.230   1.390   2.988
 8056SOL    HW125067   4.315   1.338   2.979
 8056SOL    HW225068   4.190   1.404   2.897
 8057SOL     OW25069   3.759   0.216   3.579
 8057SOL    HW125070   3.834   0.217   3.513
 8057SOL    HW225071   3.787   0.264   3.662
 8058SOL     OW25072   2.080   0.046   3.404
 8058SOL    HW125073   2.113   0.075   3.493
 8058SOL    HW225074   2.146   0.071   3.333
 8059SOL     OW25075   2.586   1.203   4.147
 8059SOL    HW125076   2.513   1.233   4.086
 8059SOL    HW225077   2.617   1.280   4.202
 8060SOL     OW25078   0.730   1.907   4.944
 8060SOL    HW125079   0.825   1.915   4.916
 8060SOL    HW225080   0.709   1.979   5.011
 8061SOL     OW25081   6.835   5.963   1.718
 8061SOL    HW125082   6.740   5.986   1.696
 8061SOL    HW225083   6.852   5.983   1.815
 8062SOL     OW25084   2.041   3.426   2.195
 8062SOL    HW125085   2.108   3.444   2.268
 8062SOL    HW225086   2.054   3.493   2.122
 8063SOL     OW25087   2.639   3.349   6.982
 8063SOL    HW125088   2.706   3.401   6.928
 8063SOL    HW225089   2.567   3.410   7.013
 8064SOL     OW25090   6.197   3.154   6.897
 8064SOL    HW125091   6.155   3.064   6.893
 8064SOL    HW225092   6.142   3.213   6.957
 8065SOL     OW25093   4.502   6.854   6.252
 8065SOL    HW125094   4.485   6.944   6.210
 8065SOL    HW225095   4.543   6.793   6.185
 8066SOL     OW25096   2.576   0.410   1.746
 8066SOL    HW125097   2.676   0.413   1.741
 8066SOL    HW225098   2.547   0.400   1.841
 8067SOL     OW25099   4.932   1.992   2.051
 8067SOL    HW125100   4.949   2.015   1.955
 8067SOL    HW225101   4.993   2.046   2.110
 8068SOL     OW25102   0.009   4.438   4.013
 8068SOL    HW125103   7.012   4.395   4.102
 8068SOL    HW225104   0.107   4.433   3.994
 8069SOL     OW25105   1.354   6.054   2.493
 8069SOL    HW125106   1.289   6.043   2.568
 8069SOL    HW225107   1.325   6.131   2.435
 8070SOL     OW25108   3.659   0.057   2.310
 8070SOL    HW125109   3.633   0.041   2.214
 8070SOL    HW225110   3.758   0.044   2.320
 8071SOL     OW25111   3.590   6.369   0.584
 8071SOL    HW125112   3.532   6.396   0.508
 8071SOL    HW225113   3.605   6.270   0.581
 8072SOL     OW25114   5.378   0.950   2.600
 8072SOL    HW125115   5.416   0.965   2.691
 8072SOL    HW225116   5.425   1.009   2.534
 8073SOL     OW25117   4.563   6.828   5.934
 8073SOL    HW125118   4.612   6.741   5.934
 8073SOL    HW225119   4.467   6.812   5.912
 8074SOL     OW25120   3.347   3.938   6.927
 8074SOL    HW125121   3.294   3.887   6.994
 8074SOL    HW225122   3.390   3.873   6.863
 8075SOL     OW25123   5.639   2.072   2.918
 8075SOL    HW125124   5.719   2.089   2.976
 8075SOL    HW225125   5.646   2.128   2.835
 8076SOL     OW25126   5.013   2.685   6.269
 8076SOL    HW125127   5.061   2.762   6.226
 8076SOL    HW225128   5.037   2.681   6.366
 8077SOL     OW25129   1.467   0.568   0.254
 8077SOL    HW125130   1.449   0.532   0.345
 8077SOL    HW225131   1.503   0.661   0.261
 8078SOL     OW25132   5.768   3.495   0.423
 8078SOL    HW125133   5.719   3.422   0.374
 8078SOL    HW225134   5.703   3.555   0.468
 8079SOL     OW25135   0.621   1.695   1.657
 8079SOL    HW125136   0.530   1.733   1.638
 8079SOL    HW225137   0.626   1.670   1.754
 8080SOL     OW25138   3.404   5.370   0.222
 8080SOL    HW125139   3.409   5.304   0.297
 8080SOL    HW225140   3.358   5.329   0.144
 8081SOL     OW25141   6.103   1.392   5.336
 8081SOL    HW125142   6.071   1.475   5.381
 8081SOL    HW225143   6.042   1.368   5.261
 8082SOL     OW25144   6.139   3.389   4.376
 8082SOL    HW125145   6.223   3.428   4.415
 8082SOL    HW225146   6.092   3.335   4.446
 8083SOL     OW25147   5.516   2.007   4.295
 8083SOL    HW125148   5.583   1.948   4.341
 8083SOL    HW225149   5.429   1.958   4.289
 8084SOL     OW25150   6.971   6.886   1.104
 8084SOL    HW125151   6.929   6.825   1.037
 8084SOL    HW225152   6.903   6.952   1.137
 8085SOL     OW25153   6.493   1.888   0.803
 8085SOL    HW125154   6.510   1.904   0.900
 8085SOL    HW225155   6.428   1.813   0.792
 8086SOL     OW25156   3.158   6.288   5.893
 8086SOL    HW125157   3.250   6.259   5.866
 8086SOL    HW225158   3.136   6.250   5.982
 8087SOL     OW25159   2.744   3.102   0.790
 8087SOL    HW125160   2.831   3.069   0.827
 8087SOL    HW225161   2.708   3.174   0.850
 8088SOL     OW25162   4.609   0.418   2.496
 8088SOL    HW125163   4.536   0.486   2.502
 8088SOL    HW225164   4.594   0.346   2.563
 8089SOL     OW25165   5.884   3.115   0.275
 8089SOL    HW125166   5.920   3.099   0.366
 8089SOL    HW225167   5.796   3.163   0.282
 8090SOL     OW25168   4.478   2.455   5.103
 8090SOL    HW125169   4.379   2.452   5.089
 8090SOL    HW225170   4.524   2.408   5.027
 8091SOL     OW25171   2.992   4.993   5.909
 8091SOL    HW125172   3.031   5.051   5.839
 8091SOL    HW225173   2.893   5.009   5.915
 8092SOL     OW25174   6.969   2.037   3.913
 8092SOL    HW125175   6.972   2.112   3.847
 8092SOL    HW225176   0.030   2.038   3.969
 8093SOL     OW25177   5.335   5.700   0.999
 8093SOL    HW125178   5.309   5.637   1.071
 8093SOL    HW225179   5.276   5.686   0.919
 8094SOL     OW25180   1.265   4.173   4.322
 8094SOL    HW125181   1.221   4.105   4.264
 8094SOL    HW225182   1.300   4.129   4.405
 8095SOL     OW25183   6.139   3.641   4.640
 8095SOL    HW125184   6.107   3.550   4.668
 8095SOL    HW225185   6.109   3.659   4.547
 8096SOL     OW25186   3.684   0.437   0.472
 8096SOL    HW125187   3.661   0.533   0.460
 8096SOL    HW225188   3.777   0.429   0.510
 8097SOL     OW25189   4.370   1.087   4.648
 8097SOL    HW125190   4.433   1.022   4.605
 8097SOL    HW225191   4.420   1.170   4.671
 8098SOL     OW25192   2.975   1.050   4.385
 8098SOL    HW125193   2.951   1.025   4.479
 8098SOL    HW225194   2.979   1.149   4.377
 8099SOL     OW25195   4.907   6.419   4.590
 8099SOL    HW125196   4.852   6.411   4.507
 8099SOL    HW225197   4.963   6.501   4.585
 8100SOL     OW25198   0.376   5.986   0.917
 8100SOL    HW125199   0.402   6.047   0.843
 8100SOL    HW225200   0.458   5.947   0.959
 8101SOL     OW25201   0.653   5.312   2.680
 8101SOL    HW125202   0.638   5.408   2.699
 8101SOL    HW225203   0.752   5.293   2.677
 8102SOL     OW25204   0.317   6.962   6.507
 8102SOL    HW125205   0.343   6.923   6.419
 8102SOL    HW225206   0.359   6.910   6.581
 8103SOL     OW25207   2.539   1.775   2.368
 8103SOL    HW125208   2.615   1.726   2.409
 8103SOL    HW225209   2.523   1.860   2.419
 8104SOL     OW25210   2.556   5.869   6.041
 8104SOL    HW125211   2.530   5.793   6.100
 8104SOL    HW225212   2.537   5.956   6.087
 8105SOL     OW25213   2.065   2.458   2.812
 8105SOL    HW125214   2.155   2.495   2.835
 8105SOL    HW225215   2.026   2.412   2.892
 8106SOL     OW25216   0.306   4.219   5.084
 8106SOL    HW125217   0.315   4.305   5.033
 8106SOL    HW225218   0.371   4.152   5.047
 8107SOL     OW25219   1.260   5.506   6.515
 8107SOL    HW125220   1.236   5.472   6.424
 8107SOL    HW225221   1.356   5.484   6.534
 8108SOL     OW25222   2.001   3.479   5.185
 8108SOL    HW125223   2.095   3.504   5.206
 8108SOL    HW225224   1.998   3.386   5.147
 8109SOL     OW25225   1.177   5.683   5.290
 8109SOL    HW125226   1.172   5.779   5.261
 8109SOL    HW225227   1.262   5.643   5.256
 8110SOL     OW25228   1.416   4.450   0.911
 8110SOL    HW125229   1.437   4.357   0.942
 8110SOL    HW225230   1.337   4.485   0.962
 8111SOL     OW25231   3.075   5.873   4.165
 8111SOL    HW125232   3.122   5.872   4.077
 8111SOL    HW225233   2.978   5.894   4.150
 8112SOL     OW25234   4.104   1.050   5.002
 8112SOL    HW125235   4.081   1.056   4.905
 8112SOL    HW225236   4.080   0.960   5.037
 8113SOL     OW25237   4.060   2.780   6.306
 8113SOL    HW125238   4.060   2.694   6.256
 8113SOL    HW225239   4.020   2.852   6.249
 8114SOL     OW25240   3.270   3.664   1.670
 8114SOL    HW125241   3.176   3.643   1.693
 8114SOL    HW225242   3.330   3.640   1.747
 8115SOL     OW25243   3.875   2.100   0.878
 8115SOL    HW125244   3.796   2.050   0.844
 8115SOL    HW225245   3.943   2.107   0.805
 8116SOL     OW25246   5.039   1.080   5.639
 8116SOL    HW125247   5.093   1.161   5.663
 8116SOL    HW225248   4.999   1.041   5.722
 8117SOL     OW25249   2.598   1.852   6.015
 8117SOL    HW125250   2.614   1.879   5.920
 8117SOL    HW225251   2.502   1.869   6.038
 8118SOL     OW25252   1.224   2.324   4.220
 8118SOL    HW125253   1.287   2.261   4.176
 8118SOL    HW225254   1.269   2.412   4.234
 8119SOL     OW25255   1.208   5.963   1.761
 8119SOL    HW125256   1.288   5.926   1.715
 8119SOL    HW225257   1.233   6.047   1.810
 8120SOL     OW25258   4.723   4.104   1.808
 8120SOL    HW125259   4.652   4.142   1.867
 8120SOL    HW225260   4.693   4.017   1.771
 8121SOL     OW25261   6.725   6.809   3.228
 8121SOL    HW125262   6.650   6.798   3.163
 8121SOL    HW225263   6.747   6.906   3.237
 8122SOL     OW25264   0.448   5.723   1.711
 8122SOL    HW125265   0.371   5.770   1.668
 8122SOL    HW225266   0.506   5.789   1.759
 8123SOL     OW25267   0.592   5.591   0.380
 8123SOL    HW125268   0.585   5.585   0.280
 8123SOL    HW225269   0.510   5.553   0.421
 8124SOL     OW25270   0.845   6.295   3.013
 8124SOL    HW125271   0.930   6.339   2.983
 8124SOL    HW225272   0.781   6.365   3.044
 8125SOL     OW25273   5.787   5.531   2.579
 8125SOL    HW125274   5.701   5.528   2.630
 8125SOL    HW225275   5.798   5.621   2.537
 8126SOL     OW25276   6.703   4.521   2.655
 8126SOL    HW125277   6.765   4.589   2.617
 8126SOL    HW225278   6.677   4.456   2.583
 8127SOL     OW25279   3.514   4.595   0.994
 8127SOL    HW125280   3.427   4.573   1.039
 8127SOL    HW225281   3.525   4.695   0.993
 8128SOL     OW25282   3.535   2.160   5.362
 8128SOL    HW125283   3.472   2.228   5.399
 8128SOL    HW225284   3.625   2.202   5.349
 8129SOL     OW25285   4.982   6.143   6.794
 8129SOL    HW125286   4.922   6.070   6.825
 8129SOL    HW225287   4.927   6.214   6.750
 8130SOL     OW25288   0.897   6.617   0.491
 8130SOL    HW125289   0.951   6.546   0.444
 8130SOL    HW225290   0.924   6.621   0.587
 8131SOL     OW25291   1.407   1.160   0.408
 8131SOL    HW125292   1.401   1.146   0.309
 8131SOL    HW225293   1.357   1.087   0.454
 8132SOL     OW25294   6.147   4.254   2.819
 8132SOL    HW125295   6.235   4.209   2.807
 8132SOL    HW225296   6.153   4.320   2.893
 8133SOL     OW25297   0.673   5.654   2.120
 8133SOL    HW125298   0.723   5.738   2.144
 8133SOL    HW225299   0.661   5.599   2.202
 8134SOL     OW25300   1.991   2.788   2.222
 8134SOL    HW125301   2.018   2.812   2.315
 8134SOL    HW225302   1.999   2.869   2.163
 8135SOL     OW25303   3.850   6.133   2.487
 8135SOL    HW125304   3.948   6.153   2.487
 8135SOL    HW225305   3.831   6.058   2.425
 8136SOL     OW25306   2.764   6.086   1.691
 8136SOL    HW125307   2.748   5.993   1.723
 8136SOL    HW225308   2.677   6.136   1.688
 8137SOL     OW25309   3.519   3.276   4.954
 8137SOL    HW125310   3.551   3.183   4.933
 8137SOL    HW225311   3.421   3.273   4.972
 8138SOL     OW25312   5.278   0.604   3.816
 8138SOL    HW125313   5.363   0.579   3.862
 8138SOL    HW225314   5.209   0.631   3.883
 8139SOL     OW25315   1.880   3.282   4.598
 8139SOL    HW125316   1.964   3.265   4.649
 8139SOL    HW225317   1.837   3.366   4.632
 8140SOL     OW25318   4.586   1.224   1.185
 8140SOL    HW125319   4.517   1.280   1.139
 8140SOL    HW225320   4.549   1.133   1.203
 8141SOL     OW25321   6.152   0.243   5.622
 8141SOL    HW125322   6.064   0.269   5.583
 8141SOL    HW225323   6.217   0.318   5.608
 8142SOL     OW25324   2.377   5.443   0.635
 8142SOL    HW125325   2.454   5.464   0.575
 8142SOL    HW225326   2.323   5.369   0.594
 8143SOL     OW25327   5.881   4.731   0.651
 8143SOL    HW125328   5.977   4.754   0.637
 8143SOL    HW225329   5.823   4.805   0.618
 8144SOL     OW25330   0.854   5.544   0.470
 8144SOL    HW125331   0.755   5.534   0.467
 8144SOL    HW225332   0.895   5.457   0.500
 8145SOL     OW25333   5.605   5.824   0.154
 8145SOL    HW125334   5.590   5.761   0.230
 8145SOL    HW225335   5.521   5.830   0.099
 8146SOL     OW25336   6.630   6.556   4.635
 8146SOL    HW125337   6.703   6.596   4.691
 8146SOL    HW225338   6.542   6.565   4.683
 8147SOL     OW25339   1.767   0.845   6.050
 8147SOL    HW125340   1.669   0.866   6.050
 8147SOL    HW225341   1.794   0.812   5.959
 8148SOL     OW25342   4.623   3.955   0.580
 8148SOL    HW125343   4.594   3.966   0.675
 8148SOL    HW225344   4.586   4.029   0.524
 8149SOL     OW25345   0.914   0.365   5.277
 8149SOL    HW125346   0.893   0.297   5.347
 8149SOL    HW225347   0.867   0.451   5.300
 8150SOL     OW25348   0.374   3.837   0.652
 8150SOL    HW125349   0.304   3.771   0.628
 8150SOL    HW225350   0.338   3.930   0.641
 8151SOL     OW25351   6.504   5.796   3.094
 8151SOL    HW125352   6.478   5.700   3.107
 8151SOL    HW225353   6.595   5.801   3.053
 8152SOL     OW25354   5.036   1.544   2.718
 8152SOL    HW125355   5.076   1.541   2.627
 8152SOL    HW225356   5.068   1.465   2.771
 8153SOL     OW25357   0.342   1.773   2.253
 8153SOL    HW125358   0.403   1.850   2.235
 8153SOL    HW225359   0.250   1.795   2.221
 8154SOL     OW25360   1.660   1.221   2.724
 8154SOL    HW125361   1.671   1.135   2.675
 8154SOL    HW225362   1.737   1.234   2.787
 8155SOL     OW25363   1.626   4.808   3.893
 8155SOL    HW125364   1.689   4.798   3.817
 8155SOL    HW225365   1.535   4.776   3.866
 8156SOL     OW25366   0.727   4.056   0.592
 8156SOL    HW125367   0.710   4.124   0.663
 8156SOL    HW225368   0.780   4.097   0.518
 8157SOL     OW25369   6.746   4.371   4.890
 8157SOL    HW125370   6.779   4.421   4.811
 8157SOL    HW225371   6.723   4.278   4.864
 8158SOL     OW25372   6.020   5.697   6.755
 8158SOL    HW125373   6.079   5.616   6.757
 8158SOL    HW225374   5.973   5.702   6.667
 8159SOL     OW25375   2.806   0.178   5.266
 8159SOL    HW125376   2.887   0.175   5.324
 8159SOL    HW225377   2.805   0.263   5.213
 8160SOL     OW25378   5.447   1.504   2.011
 8160SOL    HW125379   5.543   1.482   1.996
 8160SOL    HW225380   5.410   1.445   2.083
 8161SOL     OW25381   6.348   2.736   1.987
 8161SOL    HW125382   6.254   2.703   2.000
 8161SOL    HW225383   6.374   2.724   1.891
 8162SOL     OW25384   0.682   5.515   5.135
 8162SOL    HW125385   0.621   5.527   5.213
 8162SOL    HW225386   0.777   5.518   5.167
 8163SOL     OW25387   4.518   4.720   5.731
 8163SOL    HW125388   4.494   4.628   5.760
 8163SOL    HW225389   4.500   4.784   5.806
 8164SOL     OW25390   5.451   1.499   0.717
 8164SOL    HW125391   5.411   1.508   0.626
 8164SOL    HW225392   5.409   1.565   0.779
 8165SOL     OW25393   0.771   1.529   6.495
 8165SOL    HW125394   0.708   1.574   6.558
 8165SOL    HW225395   0.782   1.433   6.522
 8166SOL     OW25396   1.654   1.905   5.257
 8166SOL    HW125397   1.627   2.001   5.249
 8166SOL    HW225398   1.754   1.900   5.261
 8167SOL     OW25399   1.862   2.985   3.378
 8167SOL    HW125400   1.868   3.011   3.475
 8167SOL    HW225401   1.937   2.923   3.356
 8168SOL     OW25402   1.866   0.363   2.570
 8168SOL    HW125403   1.888   0.328   2.478
 8168SOL    HW225404   1.934   0.331   2.635
 8169SOL     OW25405   4.838   3.646   0.826
 8169SOL    HW125406   4.908   3.656   0.755
 8169SOL    HW225407   4.859   3.567   0.883
 8170SOL     OW25408   6.792   5.086   2.445
 8170SOL    HW125409   6.846   5.090   2.361
 8170SOL    HW225410   6.811   5.167   2.500
 8171SOL     OW25411   2.499   1.717   0.950
 8171SOL    HW125412   2.512   1.727   1.049
 8171SOL    HW225413   2.427   1.650   0.932
 8172SOL     OW25414   1.599   2.602   0.950
 8172SOL    HW125415   1.630   2.545   1.026
 8172SOL    HW225416   1.501   2.593   0.938
 8173SOL     OW25417   5.715   0.790   1.489
 8173SOL    HW125418   5.751   0.698   1.472
 8173SOL    HW225419   5.712   0.807   1.587
 8174SOL     OW25420   2.543   6.449   3.662
 8174SOL    HW125421   2.477   6.519   3.636
 8174SOL    HW225422   2.498   6.380   3.718
 8175SOL     OW25423   1.061   2.033   6.281
 8175SOL    HW125424   1.053   1.946   6.234
 8175SOL    HW225425   1.053   2.108   6.215
 8176SOL     OW25426   2.771   4.551   0.254
 8176SOL    HW125427   2.853   4.556   0.311
 8176SOL    HW225428   2.690   4.560   0.311
 8177SOL     OW25429   3.184   1.324   3.968
 8177SOL    HW125430   3.218   1.368   3.884
 8177SOL    HW225431   3.102   1.372   3.999
 8178SOL     OW25432   2.875   6.476   1.106
 8178SOL    HW125433   2.779   6.454   1.122
 8178SOL    HW225434   2.920   6.494   1.194
 8179SOL     OW25435   5.631   0.728   3.640
 8179SOL    HW125436   5.700   0.790   3.601
 8179SOL    HW225437   5.547   0.779   3.657
 8180SOL     OW25438   5.048   5.885   0.367
 8180SOL    HW125439   5.033   5.959   0.302
 8180SOL    HW225440   5.146   5.864   0.372
 8181SOL     OW25441   0.017   0.262   6.816
 8181SOL    HW125442   6.965   0.314   6.855
 8181SOL    HW225443   7.015   0.165   6.813
 8182SOL     OW25444   3.099   3.670   4.052
 8182SOL    HW125445   3.007   3.635   4.068
 8182SOL    HW225446   3.153   3.598   4.007
 8183SOL     OW25447   6.877   0.526   5.728
 8183SOL    HW125448   6.914   0.449   5.677
 8183SOL    HW225449   6.940   0.603   5.722
 8184SOL     OW25450   6.834   5.984   6.343
 8184SOL    HW125451   6.786   6.063   6.382
 8184SOL    HW225452   6.932   6.005   6.336
 8185SOL     OW25453   0.073   6.294   5.609
 8185SOL    HW125454   0.097   6.292   5.707
 8185SOL    HW225455   0.151   6.261   5.555
 8186SOL     OW25456   1.856   5.431   0.318
 8186SOL    HW125457   1.938   5.379   0.342
 8186SOL    HW225458   1.822   5.479   0.399
 8187SOL     OW25459   1.536   6.992   5.205
 8187SOL    HW125460   1.491   0.059   5.195
 8187SOL    HW225461   1.601   6.996   5.281
 8188SOL     OW25462   1.851   2.819   2.752
 8188SOL    HW125463   1.898   2.906   2.767
 8188SOL    HW225464   1.903   2.764   2.687
 8189SOL     OW25465   5.794   5.086   3.630
 8189SOL    HW125466   5.868   5.141   3.591
 8189SOL    HW225467   5.830   5.024   3.699
 8190SOL     OW25468   6.389   4.109   2.875
 8190SOL    HW125469   6.344   4.098   2.964
 8190SOL    HW225470   6.483   4.139   2.888
 8191SOL     OW25471   4.200   5.314   1.399
 8191SOL    HW125472   4.173   5.220   1.421
 8191SOL    HW225473   4.119   5.371   1.392
 8192SOL     OW25474   0.640   5.848   3.238
 8192SOL    HW125475   0.672   5.913   3.307
 8192SOL    HW225476   0.583   5.895   3.170
 8193SOL     OW25477   0.873   4.508   4.041
 8193SOL    HW125478   0.883   4.607   4.030
 8193SOL    HW225479   0.861   4.466   3.951
 8194SOL     OW25480   4.605   0.164   1.897
 8194SOL    HW125481   4.610   0.154   1.797
 8194SOL    HW225482   4.521   0.122   1.930
 8195SOL     OW25483   6.450   0.213   4.289
 8195SOL    HW125484   6.372   0.193   4.349
 8195SOL    HW225485   6.528   0.156   4.315
 8196SOL     OW25486   4.630   1.198   1.886
 8196SOL    HW125487   4.601   1.143   1.808
 8196SOL    HW225488   4.690   1.272   1.855
 8197SOL     OW25489   3.667   1.895   3.026
 8197SOL    HW125490   3.569   1.912   3.041
 8197SOL    HW225491   3.695   1.814   3.078
 8198SOL     OW25492   1.419   5.877   1.620
 8198SOL    HW125493   1.514   5.909   1.617
 8198SOL    HW225494   1.384   5.865   1.528
 8199SOL     OW25495   5.718   2.790   0.401
 8199SOL    HW125496   5.817   2.803   0.413
 8199SOL    HW225497   5.670   2.863   0.451
 8200SOL     OW25498   4.544   3.470   0.708
 8200SOL    HW125499   4.463   3.413   0.724
 8200SOL    HW225500   4.515   3.565   0.695
 8201SOL     OW25501   6.211   6.865   5.595
 8201SOL    HW125502   6.212   6.805   5.516
 8201SOL    HW225503   6.207   6.810   5.679
 8202SOL     OW25504   0.912   6.344   1.877
 8202SOL    HW125505   0.817   6.374   1.886
 8202SOL    HW225506   0.919   6.249   1.906
 8203SOL     OW25507   1.765   3.622   1.140
 8203SOL    HW125508   1.709   3.671   1.207
 8203SOL    HW225509   1.842   3.578   1.186
 8204SOL     OW25510   2.668   2.711   0.812
 8204SOL    HW125511   2.605   2.738   0.739
 8204SOL    HW225512   2.758   2.751   0.795
 8205SOL     OW25513   1.195   4.142   6.948
 8205SOL    HW125514   1.236   4.224   6.987
 8205SOL    HW225515   1.234   4.061   6.992
 8206SOL     OW25516   3.052   0.909   1.170
 8206SOL    HW125517   3.107   0.919   1.088
 8206SOL    HW225518   3.021   0.999   1.201
 8207SOL     OW25519   3.662   3.926   4.341
 8207SOL    HW125520   3.761   3.940   4.342
 8207SOL    HW225521   3.616   4.013   4.323
 8208SOL     OW25522   1.860   0.818   0.187
 8208SOL    HW125523   1.927   0.889   0.165
 8208SOL    HW225524   1.909   0.733   0.210
 8209SOL     OW25525   6.273   1.569   4.598
 8209SOL    HW125526   6.328   1.579   4.681
 8209SOL    HW225527   6.211   1.646   4.589
 8210SOL     OW25528   2.013   2.592   6.652
 8210SOL    HW125529   2.056   2.519   6.599
 8210SOL    HW225530   2.011   2.567   6.749
 8211SOL     OW25531   3.873   4.954   1.569
 8211SOL    HW125532   3.863   4.855   1.577
 8211SOL    HW225533   3.783   4.997   1.575
 8212SOL     OW25534   1.678   2.732   3.225
 8212SOL    HW125535   1.699   2.718   3.128
 8212SOL    HW225536   1.600   2.675   3.251
 8213SOL     OW25537   6.563   4.932   1.278
 8213SOL    HW125538   6.556   5.031   1.289
 8213SOL    HW225539   6.584   4.889   1.366
 8214SOL     OW25540   5.442   3.719   3.675
 8214SOL    HW125541   5.518   3.671   3.718
 8214SOL    HW225542   5.362   3.659   3.671
 8215SOL     OW25543   3.615   5.023   2.940
 8215SOL    HW125544   3.598   4.992   2.847
 8215SOL    HW225545   3.713   5.015   2.960
 8216SOL     OW25546   5.607   4.141   4.153
 8216SOL    HW125547   5.547   4.214   4.184
 8216SOL    HW225548   5.557   4.082   4.089
 8217SOL     OW25549   1.924   5.934   0.705
 8217SOL    HW125550   1.935   5.888   0.793
 8217SOL    HW225551   1.844   5.897   0.658
 8218SOL     OW25552   6.373   2.380   0.177
 8218SOL    HW125553   6.405   2.468   0.141
 8218SOL    HW225554   6.427   2.306   0.138
 8219SOL     OW25555   5.750   1.982   6.961
 8219SOL    HW125556   5.664   1.937   6.937
 8219SOL    HW225557   5.737   2.081   6.964
 8220SOL     OW25558   4.156   3.770   1.705
 8220SOL    HW125559   4.076   3.740   1.756
 8220SOL    HW225560   4.173   3.867   1.724
 8221SOL     OW25561   5.171   5.591   2.732
 8221SOL    HW125562   5.116   5.516   2.693
 8221SOL    HW225563   5.251   5.552   2.779
 8222SOL     OW25564   6.578   2.204   1.894
 8222SOL    HW125565   6.649   2.145   1.855
 8222SOL    HW225566   6.567   2.183   1.991
 8223SOL     OW25567   0.359   5.396   5.945
 8223SOL    HW125568   0.264   5.398   5.977
 8223SOL    HW225569   0.393   5.302   5.947
 8224SOL     OW25570   1.576   3.016   3.400
 8224SOL    HW125571   1.576   3.112   3.429
 8224SOL    HW225572   1.667   2.978   3.411
 8225SOL     OW25573   4.957   1.390   0.478
 8225SOL    HW125574   5.039   1.339   0.504
 8225SOL    HW225575   4.927   1.446   0.555
 8226SOL     OW25576   4.284   0.284   0.541
 8226SOL    HW125577   4.288   0.373   0.586
 8226SOL    HW225578   4.241   0.217   0.603
 8227SOL     OW25579   6.138   3.344   2.700
 8227SOL    HW125580   6.106   3.438   2.691
 8227SOL    HW225581   6.122   3.312   2.793
 8228SOL     OW25582   0.123   2.897   4.453
 8228SOL    HW125583   0.189   2.856   4.517
 8228SOL    HW225584   0.105   2.832   4.379
 8229SOL     OW25585   3.615   5.460   0.624
 8229SOL    HW125586   3.554   5.512   0.563
 8229SOL    HW225587   3.638   5.516   0.703
 8230SOL     OW25588   5.099   0.090   4.190
 8230SOL    HW125589   5.125   0.186   4.179
 8230SOL    HW225590   4.999   0.083   4.198
 8231SOL     OW25591   4.581   5.853   0.892
 8231SOL    HW125592   4.596   5.779   0.958
 8231SOL    HW225593   4.483   5.864   0.876
 8232SOL     OW25594   3.038   1.845   6.587
 8232SOL    HW125595   3.109   1.789   6.543
 8232SOL    HW225596   2.977   1.883   6.517
 8233SOL     OW25597   0.562   5.542   6.694
 8233SOL    HW125598   0.639   5.605   6.681
 8233SOL    HW225599   0.513   5.568   6.777
 8234SOL     OW25600   3.664   2.542   0.079
 8234SOL    HW125601   3.679   2.618   0.015
 8234SOL    HW225602   3.578   2.557   0.128
 8235SOL     OW25603   4.646   2.321   0.251
 8235SOL    HW125604   4.661   2.417   0.277
 8235SOL    HW225605   4.734   2.275   0.241
 8236SOL     OW25606   5.904   2.443   1.099
 8236SOL    HW125607   5.860   2.417   1.185
 8236SOL    HW225608   5.837   2.489   1.040
 8237SOL     OW25609   4.014   5.952   5.592
 8237SOL    HW125610   3.951   5.876   5.579
 8237SOL    HW225611   4.001   5.990   5.684
 8238SOL     OW25612   1.756   1.119   6.339
 8238SOL    HW125613   1.699   1.037   6.324
 8238SOL    HW225614   1.742   1.183   6.263
 8239SOL     OW25615   6.949   1.460   6.528
 8239SOL    HW125616   6.984   1.553   6.529
 8239SOL    HW225617   6.921   1.433   6.620
 8240SOL     OW25618   3.568   4.106   3.535
 8240SOL    HW125619   3.600   4.021   3.578
 8240SOL    HW225620   3.602   4.185   3.586
 8241SOL     OW25621   4.482   6.729   1.095
 8241SOL    HW125622   4.549   6.664   1.132
 8241SOL    HW225623   4.530   6.808   1.056
 8242SOL     OW25624   0.755   3.941   5.741
 8242SOL    HW125625   0.739   3.962   5.644
 8242SOL    HW225626   0.798   4.019   5.786
 8243SOL     OW25627   0.929   3.492   4.630
 8243SOL    HW125628   0.859   3.454   4.689
 8243SOL    HW225629   1.014   3.440   4.640
 8244SOL     OW25630   1.382   5.883   4.809
 8244SOL    HW125631   1.307   5.947   4.823
 8244SOL    HW225632   1.348   5.799   4.768
 8245SOL     OW25633   4.154   3.133   0.730
 8245SOL    HW125634   4.113   3.112   0.641
 8245SOL    HW225635   4.082   3.137   0.799
 8246SOL     OW25636   5.095   4.010   5.375
 8246SOL    HW125637   5.114   4.102   5.341
 8246SOL    HW225638   4.996   3.998   5.383
 8247SOL     OW25639   1.070   6.704   1.648
 8247SOL    HW125640   1.151   6.709   1.589
 8247SOL    HW225641   0.992   6.670   1.595
 8248SOL     OW25642   7.013   4.181   3.468
 8248SOL    HW125643   0.036   4.250   3.524
 8248SOL    HW225644   0.049   4.159   3.389
 8249SOL     OW25645   1.463   5.279   3.475
 8249SOL    HW125646   1.509   5.343   3.413
 8249SOL    HW225647   1.465   5.187   3.436
 8250SOL     OW25648   3.951   3.826   2.320
 8250SOL    HW125649   3.867   3.830   2.374
 8250SOL    HW225650   4.015   3.763   2.363
 8251SOL     OW25651   5.993   1.512   5.087
 8251SOL    HW125652   5.910   1.537   5.037
 8251SOL    HW225653   6.037   1.434   5.043
 8252SOL     OW25654   1.298   3.364   4.310
 8252SOL    HW125655   1.364   3.434   4.335
 8252SOL    HW225656   1.334   3.274   4.334
 8253SOL     OW25657   3.019   2.665   5.747
 8253SOL    HW125658   2.950   2.719   5.699
 8253SOL    HW225659   3.055   2.718   5.824
 8254SOL     OW25660   3.943   6.317   3.669
 8254SOL    HW125661   3.912   6.264   3.591
 8254SOL    HW225662   4.000   6.393   3.638
 8255SOL     OW25663   4.517   5.335   3.408
 8255SOL    HW125664   4.514   5.293   3.318
 8255SOL    HW225665   4.426   5.365   3.435
 8256SOL     OW25666   6.834   1.916   4.094
 8256SOL    HW125667   6.878   1.941   4.008
 8256SOL    HW225668   6.840   1.993   4.158
 8257SOL     OW25669   6.699   4.482   4.050
 8257SOL    HW125670   6.709   4.446   3.957
 8257SOL    HW225671   6.610   4.456   4.086
 8258SOL     OW25672   4.663   1.943   0.057
 8258SOL    HW125673   4.573   1.925   0.017
 8258SOL    HW225674   4.655   1.955   0.156
 8259SOL     OW25675   3.846   1.466   1.776
 8259SOL    HW125676   3.877   1.371   1.789
 8259SOL    HW225677   3.825   1.507   1.864
 8260SOL     OW25678   2.723   6.169   0.238
 8260SOL    HW125679   2.794   6.225   0.279
 8260SOL    HW225680   2.706   6.088   0.295
 8261SOL     OW25681   5.360   1.185   1.386
 8261SOL    HW125682   5.272   1.152   1.419
 8261SOL    HW225683   5.370   1.162   1.289
 8262SOL     OW25684   0.906   2.396   0.488
 8262SOL    HW125685   0.834   2.372   0.554
 8262SOL    HW225686   0.898   2.493   0.465
 8263SOL     OW25687   5.977   0.878   0.195
 8263SOL    HW125688   6.028   0.951   0.149
 8263SOL    HW225689   5.879   0.900   0.193
 8264SOL     OW25690   2.219   4.587   2.762
 8264SOL    HW125691   2.165   4.503   2.766
 8264SOL    HW225692   2.228   4.617   2.667
 8265SOL     OW25693   1.930   1.001   1.638
 8265SOL    HW125694   1.905   1.097   1.654
 8265SOL    HW225695   1.858   0.957   1.583
 8266SOL     OW25696   3.627   0.521   3.106
 8266SOL    HW125697   3.605   0.545   3.011
 8266SOL    HW225698   3.725   0.533   3.122
 8267SOL     OW25699   0.790   3.485   1.111
 8267SOL    HW125700   0.710   3.465   1.054
 8267SOL    HW225701   0.778   3.573   1.157
 8268SOL     OW25702   3.330   5.768   5.784
 8268SOL    HW125703   3.333   5.775   5.684
 8268SOL    HW225704   3.254   5.708   5.810
 8269SOL     OW25705   5.739   1.827   1.270
 8269SOL    HW125706   5.721   1.741   1.317
 8269SOL    HW225707   5.657   1.883   1.270
 8270SOL     OW25708   3.238   6.407   3.979
 8270SOL    HW125709   3.250   6.390   3.881
 8270SOL    HW225710   3.310   6.470   4.011
 8271SOL     OW25711   6.894   2.226   1.774
 8271SOL    HW125712   6.981   2.274   1.765
 8271SOL    HW225713   6.911   2.130   1.798
 8272SOL     OW25714   3.462   1.167   3.557
 8272SOL    HW125715   3.514   1.241   3.515
 8272SOL    HW225716   3.365   1.177   3.533
 8273SOL     OW25717   2.086   6.768   1.205
 8273SOL    HW125718   2.116   6.688   1.153
 8273SOL    HW225719   2.165   6.817   1.241
 8274SOL     OW25720   5.088   4.654   3.325
 8274SOL    HW125721   4.997   4.625   3.355
 8274SOL    HW225722   5.132   4.578   3.276
 8275SOL     OW25723   4.642   2.355   6.484
 8275SOL    HW125724   4.742   2.365   6.481
 8275SOL    HW225725   4.614   2.331   6.577
 8276SOL     OW25726   0.531   2.150   3.016
 8276SOL    HW125727   0.495   2.241   3.037
 8276SOL    HW225728   0.508   2.125   2.922
 8277SOL     OW25729   6.535   0.358   6.749
 8277SOL    HW125730   6.467   0.306   6.800
 8277SOL    HW225731   6.509   0.362   6.653
 8278SOL     OW25732   1.588   2.786   0.167
 8278SOL    HW125733   1.541   2.806   0.081
 8278SOL    HW225734   1.668   2.846   0.176
 8279SOL     OW25735   6.742   6.577   3.959
 8279SOL    HW125736   6.774   6.513   4.029
 8279SOL    HW225737   6.696   6.526   3.886
 8280SOL     OW25738   2.682   2.254   6.008
 8280SOL    HW125739   2.768   2.307   6.010
 8280SOL    HW225740   2.688   2.185   5.936
 8281SOL     OW25741   6.088   5.472   2.193
 8281SOL    HW125742   6.068   5.374   2.200
 8281SOL    HW225743   6.082   5.513   2.284
 8282SOL     OW25744   5.381   2.277   5.598
 8282SOL    HW125745   5.331   2.192   5.618
 8282SOL    HW225746   5.324   2.337   5.542
 8283SOL     OW25747   1.895   3.794   5.389
 8283SOL    HW125748   1.973   3.778   5.449
 8283SOL    HW225749   1.879   3.893   5.382
 8284SOL     OW25750   6.546   4.390   1.588
 8284SOL    HW125751   6.508   4.298   1.577
 8284SOL    HW225752   6.471   4.456   1.596
 8285SOL     OW25753   3.577   3.769   4.140
 8285SOL    HW125754   3.582   3.845   4.206
 8285SOL    HW225755   3.481   3.754   4.115
 8286SOL     OW25756   6.902   2.088   6.118
 8286SOL    HW125757   6.849   2.072   6.201
 8286SOL    HW225758   6.890   2.011   6.056
 8287SOL     OW25759   0.957   5.561   4.735
 8287SOL    HW125760   1.038   5.531   4.787
 8287SOL    HW225761   0.918   5.643   4.778
 8288SOL     OW25762   2.959   2.065   2.980
 8288SOL    HW125763   3.012   2.049   3.063
 8288SOL    HW225764   3.017   2.052   2.900
 8289SOL     OW25765   0.072   6.106   0.143
 8289SOL    HW125766   0.165   6.142   0.138
 8289SOL    HW225767   0.006   6.179   0.127
 8290SOL     OW25768   6.752   2.897   0.602
 8290SOL    HW125769   6.746   2.805   0.642
 8290SOL    HW225770   6.692   2.959   0.653
 8291SOL     OW25771   4.320   0.169   1.050
 8291SOL    HW125772   4.416   0.181   1.073
 8291SOL    HW225773   4.275   0.116   1.122
 8292SOL     OW25774   3.298   6.720   6.364
 8292SOL    HW125775   3.271   6.624   6.367
 8292SOL    HW225776   3.309   6.755   6.457
 8293SOL     OW25777   5.130   5.551   4.845
 8293SOL    HW125778   5.181   5.625   4.888
 8293SOL    HW225779   5.138   5.558   4.746
 8294SOL     OW25780   5.523   2.646   0.292
 8294SOL    HW125781   5.457   2.719   0.272
 8294SOL    HW225782   5.592   2.681   0.356
 8295SOL     OW25783   5.088   3.667   0.391
 8295SOL    HW125784   5.187   3.673   0.379
 8295SOL    HW225785   5.068   3.630   0.482
 8296SOL     OW25786   1.459   5.722   0.062
 8296SOL    HW125787   1.407   5.740   0.145
 8296SOL    HW225788   1.547   5.681   0.086
 8297SOL     OW25789   0.582   2.561   3.071
 8297SOL    HW125790   0.506   2.534   3.011
 8297SOL    HW225791   0.669   2.534   3.029
 8298SOL     OW25792   4.586   1.412   1.652
 8298SOL    HW125793   4.684   1.393   1.652
 8298SOL    HW225794   4.563   1.465   1.734
 8299SOL     OW25795   6.745   2.359   1.583
 8299SOL    HW125796   6.779   2.316   1.500
 8299SOL    HW225797   6.772   2.305   1.662
 8300SOL     OW25798   0.518   4.671   3.288
 8300SOL    HW125799   0.591   4.632   3.343
 8300SOL    HW225800   0.447   4.708   3.347
 8301SOL     OW25801   3.455   3.126   6.843
 8301SOL    HW125802   3.463   3.073   6.758
 8301SOL    HW225803   3.518   3.089   6.911
 8302SOL     OW25804   5.637   5.643   6.258
 8302SOL    HW125805   5.580   5.720   6.230
 8302SOL    HW225806   5.684   5.605   6.178
 8303SOL     OW25807   0.105   0.714   5.194
 8303SOL    HW125808   0.073   0.793   5.246
 8303SOL    HW225809   0.071   0.720   5.100
 8304SOL     OW25810   0.286   3.449   6.599
 8304SOL    HW125811   0.360   3.516   6.603
 8304SOL    HW225812   0.227   3.460   6.679
 8305SOL     OW25813   2.854   5.988   3.503
 8305SOL    HW125814   2.923   5.941   3.557
 8305SOL    HW225815   2.804   6.052   3.561
 8306SOL     OW25816   1.058   3.470   4.118
 8306SOL    HW125817   1.125   3.412   4.073
 8306SOL    HW225818   0.972   3.419   4.130
 8307SOL     OW25819   2.651   5.893   1.321
 8307SOL    HW125820   2.678   5.806   1.281
 8307SOL    HW225821   2.602   5.877   1.407
 8308SOL     OW25822   3.991   6.573   2.945
 8308SOL    HW125823   3.919   6.610   2.887
 8308SOL    HW225824   4.062   6.643   2.958
 8309SOL     OW25825   5.149   6.079   2.477
 8309SOL    HW125826   5.095   6.162   2.463
 8309SOL    HW225827   5.137   6.018   2.398
 8310SOL     OW25828   6.902   4.213   0.317
 8310SOL    HW125829   6.975   4.206   0.249
 8310SOL    HW225830   6.929   4.165   0.400
 8311SOL     OW25831   6.572   0.353   0.844
 8311SOL    HW125832   6.560   0.316   0.937
 8311SOL    HW225833   6.562   0.280   0.777
 8312SOL     OW25834   5.490   6.730   1.416
 8312SOL    HW125835   5.524   6.759   1.506
 8312SOL    HW225836   5.398   6.691   1.427
 8313SOL     OW25837   3.460   0.836   2.679
 8313SOL    HW125838   3.493   0.929   2.661
 8313SOL    HW225839   3.420   0.798   2.596
 8314SOL     OW25840   6.530   6.834   3.040
 8314SOL    HW125841   6.465   6.891   3.091
 8314SOL    HW225842   6.580   6.891   2.975
 8315SOL     OW25843   4.764   4.379   6.414
 8315SOL    HW125844   4.686   4.428   6.454
 8315SOL    HW225845   4.847   4.402   6.463
 8316SOL     OW25846   2.231   5.071   6.651
 8316SOL    HW125847   2.140   5.105   6.673
 8316SOL    HW225848   2.295   5.148   6.646
 8317SOL     OW25849   2.130   4.412   2.178
 8317SOL    HW125850   2.215   4.456   2.148
 8317SOL    HW225851   2.055   4.444   2.121
 8318SOL     OW25852   3.839   1.494   5.709
 8318SOL    HW125853   3.771   1.434   5.751
 8318SOL    HW225854   3.794   1.580   5.682
 8319SOL     OW25855   3.515   0.680   4.666
 8319SOL    HW125856   3.496   0.640   4.577
 8319SOL    HW225857   3.520   0.607   4.735
 8320SOL     OW25858   3.530   4.415   1.711
 8320SOL    HW125859   3.576   4.342   1.761
 8320SOL    HW225860   3.548   4.503   1.756
 8321SOL     OW25861   0.748   0.777   1.503
 8321SOL    HW125862   0.706   0.781   1.413
 8321SOL    HW225863   0.681   0.746   1.570
 8322SOL     OW25864   6.392   6.852   0.078
 8322SOL    HW125865   6.351   6.942   0.090
 8322SOL    HW225866   6.353   6.788   0.145
 8323SOL     OW25867   1.593   2.100   1.713
 8323SOL    HW125868   1.669   2.089   1.650
 8323SOL    HW225869   1.559   2.194   1.708
 8324SOL     OW25870   6.594   0.822   2.093
 8324SOL    HW125871   6.679   0.794   2.048
 8324SOL    HW225872   6.612   0.899   2.155
 8325SOL     OW25873   3.564   2.978   3.847
 8325SOL    HW125874   3.575   3.072   3.812
 8325SOL    HW225875   3.642   2.956   3.905
 8326SOL     OW25876   3.835   3.398   5.737
 8326SOL    HW125877   3.858   3.401   5.640
 8326SOL    HW225878   3.744   3.359   5.749
 8327SOL     OW25879   4.952   2.094   5.877
 8327SOL    HW125880   4.871   2.135   5.836
 8327SOL    HW225881   5.013   2.166   5.912
 8328SOL     OW25882   2.710   2.429   5.184
 8328SOL    HW125883   2.755   2.499   5.239
 8328SOL    HW225884   2.678   2.355   5.244
 8329SOL     OW25885   0.045   2.896   5.120
 8329SOL    HW125886   0.060   2.937   5.030
 8329SOL    HW225887   0.108   2.819   5.133
 8330SOL     OW25888   2.799   6.712   6.794
 8330SOL    HW125889   2.705   6.678   6.800
 8330SOL    HW225890   2.838   6.719   6.886
 8331SOL     OW25891   2.565   0.294   0.389
 8331SOL    HW125892   2.646   0.262   0.340
 8331SOL    HW225893   2.521   0.367   0.336
 8332SOL     OW25894   5.268   6.005   2.938
 8332SOL    HW125895   5.236   6.044   3.025
 8332SOL    HW225896   5.241   5.909   2.933
 8333SOL     OW25897   0.834   5.805   6.346
 8333SOL    HW125898   0.798   5.840   6.259
 8333SOL    HW225899   0.843   5.881   6.411
 8334SOL     OW25900   5.983   1.509   3.705
 8334SOL    HW125901   6.076   1.505   3.670
 8334SOL    HW225902   5.979   1.468   3.796
 8335SOL     OW25903   5.252   6.755   5.720
 8335SOL    HW125904   5.287   6.687   5.656
 8335SOL    HW225905   5.164   6.790   5.688
 8336SOL     OW25906   0.599   1.949   2.172
 8336SOL    HW125907   0.664   2.014   2.133
 8336SOL    HW225908   0.549   1.992   2.246
 8337SOL     OW25909   0.465   6.537   2.459
 8337SOL    HW125910   0.395   6.579   2.402
 8337SOL    HW225911   0.464   6.438   2.447
 8338SOL     OW25912   1.609   5.030   0.584
 8338SOL    HW125913   1.707   5.011   0.578
 8338SOL    HW225914   1.595   5.126   0.607
 8339SOL     OW25915   5.569   1.262   2.703
 8339SOL    HW125916   5.619   1.340   2.741
 8339SOL    HW225917   5.472   1.270   2.725
 8340SOL     OW25918   5.216   3.346   0.409
 8340SOL    HW125919   5.283   3.415   0.383
 8340SOL    HW225920   5.129   3.365   0.363
 8341SOL     OW25921   2.130   6.398   0.824
 8341SOL    HW125922   2.107   6.305   0.853
 8341SOL    HW225923   2.100   6.411   0.729
 8342SOL     OW25924   4.233   0.944   0.708
 8342SOL    HW125925   4.184   1.031   0.718
 8342SOL    HW225926   4.247   0.904   0.799
 8343SOL     OW25927   1.844   5.382   6.157
 8343SOL    HW125928   1.769   5.398   6.222
 8343SOL    HW225929   1.808   5.382   6.064
 8344SOL     OW25930   3.705   6.676   5.388
 8344SOL    HW125931   3.694   6.585   5.430
 8344SOL    HW225932   3.621   6.702   5.342
 8345SOL     OW25933   6.200   1.271   2.806
 8345SOL    HW125934   6.213   1.267   2.905
 8345SOL    HW225935   6.282   1.238   2.760
 8346SOL     OW25936   2.941   5.393   1.935
 8346SOL    HW125937   3.039   5.388   1.953
 8346SOL    HW225938   2.909   5.303   1.903
 8347SOL     OW25939   3.596   5.836   4.508
 8347SOL    HW125940   3.590   5.760   4.572
 8347SOL    HW225941   3.514   5.893   4.514
 8348SOL     OW25942   1.855   0.353   0.019
 8348SOL    HW125943   1.844   0.268   6.989
 8348SOL    HW225944   1.764   0.388   0.045
 8349SOL     OW25945   5.807   5.107   1.800
 8349SOL    HW125946   5.905   5.123   1.806
 8349SOL    HW225947   5.770   5.093   1.892
 8350SOL     OW25948   6.035   0.842   4.672
 8350SOL    HW125949   5.985   0.858   4.758
 8350SOL    HW225950   6.132   0.831   4.692
 8351SOL     OW25951   3.383   6.043   2.835
 8351SOL    HW125952   3.419   6.120   2.781
 8351SOL    HW225953   3.306   6.002   2.787
 8352SOL     OW25954   0.277   6.596   1.718
 8352SOL    HW125955   0.250   6.665   1.786
 8352SOL    HW225956   0.337   6.639   1.650
 8353SOL     OW25957   0.082   3.579   2.037
 8353SOL    HW125958   0.140   3.498   2.039
 8353SOL    HW225959   0.035   3.585   1.949
 8354SOL     OW25960   2.549   0.915   0.349
 8354SOL    HW125961   2.635   0.879   0.385
 8354SOL    HW225962   2.568   0.982   0.278
 8355SOL     OW25963   3.029   0.948   0.175
 8355SOL    HW125964   2.959   0.967   0.107
 8355SOL    HW225965   3.024   0.852   0.202
 8356SOL     OW25966   2.274   5.309   6.900
 8356SOL    HW125967   2.199   5.353   6.851
 8356SOL    HW225968   2.243   5.282   6.992
 8357SOL     OW25969   5.073   5.263   4.272
 8357SOL    HW125970   5.156   5.319   4.277
 8357SOL    HW225971   5.009   5.303   4.207
 8358SOL     OW25972   2.323   2.787   5.875
 8358SOL    HW125973   2.238   2.806   5.826
 8358SOL    HW225974   2.330   2.848   5.954
 8359SOL     OW25975   4.436   5.166   3.867
 8359SOL    HW125976   4.422   5.085   3.925
 8359SOL    HW225977   4.374   5.238   3.895
 8360SOL     OW25978   4.726   0.286   3.225
 8360SOL    HW125979   4.688   0.236   3.146
 8360SOL    HW225980   4.686   0.250   3.309
 8361SOL     OW25981   1.920   0.742   2.412
 8361SOL    HW125982   1.984   0.699   2.476
 8361SOL    HW225983   1.936   0.704   2.320
 8362SOL     OW25984   2.603   2.644   0.243
 8362SOL    HW125985   2.641   2.731   0.212
 8362SOL    HW225986   2.599   2.580   0.166
 8363SOL     OW25987   0.336   3.225   0.513
 8363SOL    HW125988   0.354   3.318   0.543
 8363SOL    HW225989   0.354   3.161   0.588
 8364SOL     OW25990   6.409   4.184   3.872
 8364SOL    HW125991   6.422   4.139   3.784
 8364SOL    HW225992   6.376   4.277   3.858
 8365SOL     OW25993   2.210   3.376   6.071
 8365SOL    HW125994   2.114   3.396   6.055
 8365SOL    HW225995   2.228   3.279   6.052
 8366SOL     OW25996   2.743   6.507   2.899
 8366SOL    HW125997   2.704   6.417   2.882
 8366SOL    HW225998   2.835   6.497   2.936
 8367SOL     OW25999   5.615   5.432   3.896
 8367SOL    HW126000   5.520   5.431   3.928
 8367SOL    HW226001   5.670   5.371   3.952
 8368SOL     OW26002   3.168   5.057   6.736
 8368SOL    HW126003   3.169   5.093   6.642
 8368SOL    HW226004   3.241   4.988   6.745
 8369SOL     OW26005   2.346   1.371   1.055
 8369SOL    HW126006   2.361   1.417   0.967
 8369SOL    HW226007   2.434   1.346   1.095
 8370SOL     OW26008   1.196   1.580   6.581
 8370SOL    HW126009   1.150   1.566   6.494
 8370SOL    HW226010   1.128   1.589   6.654
 8371SOL     OW26011   2.049   3.308   0.789
 8371SOL    HW126012   2.140   3.302   0.829
 8371SOL    HW226013   2.021   3.218   0.756
 8372SOL     OW26014   0.338   0.586   1.901
 8372SOL    HW126015   0.372   0.581   1.994
 8372SOL    HW226016   0.353   0.499   1.854
 8373SOL     OW26017   1.673   6.576   5.189
 8373SOL    HW126018   1.631   6.623   5.111
 8373SOL    HW226019   1.669   6.634   5.270
 8374SOL     OW26020   6.529   6.853   6.634
 8374SOL    HW126021   6.616   6.891   6.666
 8374SOL    HW226022   6.492   6.912   6.561
 8375SOL     OW26023   3.330   0.589   6.470
 8375SOL    HW126024   3.381   0.505   6.453
 8375SOL    HW226025   3.264   0.575   6.544
 8376SOL     OW26026   3.537   0.163   4.845
 8376SOL    HW126027   3.591   0.148   4.928
 8376SOL    HW226028   3.471   0.237   4.860
 8377SOL     OW26029   5.800   4.361   1.023
 8377SOL    HW126030   5.710   4.397   0.997
 8377SOL    HW226031   5.868   4.389   0.956
 8378SOL     OW26032   5.028   2.520   3.790
 8378SOL    HW126033   5.082   2.591   3.745
 8378SOL    HW226034   4.938   2.514   3.747
 8379SOL     OW26035   6.021   2.445   2.096
 8379SOL    HW126036   5.934   2.488   2.121
 8379SOL    HW226037   6.076   2.432   2.179
 8380SOL     OW26038   4.556   1.731   3.502
 8380SOL    HW126039   4.610   1.781   3.570
 8380SOL    HW226040   4.599   1.739   3.412
 8381SOL     OW26041   1.694   5.526   4.409
 8381SOL    HW126042   1.662   5.620   4.393
 8381SOL    HW226043   1.615   5.466   4.421
 8382SOL     OW26044   1.572   3.079   2.478
 8382SOL    HW126045   1.514   3.121   2.409
 8382SOL    HW226046   1.516   3.051   2.556
 8383SOL     OW26047   3.193   2.353   6.556
 8383SOL    HW126048   3.148   2.270   6.588
 8383SOL    HW226049   3.260   2.329   6.485
 8384SOL     OW26050   0.718   6.712   2.147
 8384SOL    HW126051   0.635   6.764   2.165
 8384SOL    HW226052   0.707   6.618   2.180
 8385SOL     OW26053   5.049   1.938   1.082
 8385SOL    HW126054   4.988   2.012   1.052
 8385SOL    HW226055   5.016   1.899   1.167
 8386SOL     OW26056   1.227   4.596   2.476
 8386SOL    HW126057   1.279   4.543   2.543
 8386SOL    HW226058   1.284   4.670   2.441
 8387SOL     OW26059   0.129   2.284   1.154
 8387SOL    HW126060   0.217   2.240   1.172
 8387SOL    HW226061   0.144   2.368   1.102
 8388SOL     OW26062   1.277   6.873   2.491
 8388SOL    HW126063   1.358   6.816   2.481
 8388SOL    HW226064   1.211   6.826   2.549
 8389SOL     OW26065   4.833   2.502   2.405
 8389SOL    HW126066   4.898   2.567   2.443
 8389SOL    HW226067   4.797   2.444   2.478
 8390SOL     OW26068   5.162   1.279   5.799
 8390SOL    HW126069   5.180   1.271   5.897
 8390SOL    HW226070   5.102   1.357   5.783
 8391SOL     OW26071   6.871   0.143   1.461
 8391SOL    HW126072   6.967   0.136   1.487
 8391SOL    HW226073   6.837   0.053   1.434
 8392SOL     OW26074   5.213   2.771   4.877
 8392SOL    HW126075   5.278   2.789   4.950
 8392SOL    HW226076   5.195   2.856   4.827
 8393SOL     OW26077   5.504   0.539   1.226
 8393SOL    HW126078   5.528   0.461   1.285
 8393SOL    HW226079   5.588   0.589   1.202
 8394SOL     OW26080   5.444   3.489   1.987
 8394SOL    HW126081   5.501   3.518   2.063
 8394SOL    HW226082   5.453   3.554   1.911
 8395SOL     OW26083   1.648   1.427   4.778
 8395SOL    HW126084   1.551   1.426   4.805
 8395SOL    HW226085   1.661   1.494   4.706
 8396SOL     OW26086   4.190   5.739   4.216
 8396SOL    HW126087   4.218   5.644   4.226
 8396SOL    HW226088   4.093   5.748   4.237
 8397SOL     OW26089   6.062   1.502   2.697
 8397SOL    HW126090   6.112   1.421   2.727
 8397SOL    HW226091   6.100   1.583   2.742
 8398SOL     OW26092   4.501   2.238   6.289
 8398SOL    HW126093   4.545   2.282   6.367
 8398SOL    HW226094   4.515   2.139   6.295
 8399SOL     OW26095   7.003   4.949   0.930
 8399SOL    HW126096   6.944   4.898   0.868
 8399SOL    HW226097   0.076   4.932   0.905
 8400SOL     OW26098   1.623   1.992   4.650
 8400SOL    HW126099   1.627   1.897   4.619
 8400SOL    HW226100   1.546   2.038   4.606
 8401SOL     OW26101   2.843   6.953   6.036
 8401SOL    HW126102   2.858   0.011   6.094
 8401SOL    HW226103   2.805   6.879   6.092
 8402SOL     OW26104   3.525   0.519   6.049
 8402SOL    HW126105   3.619   0.486   6.058
 8402SOL    HW226106   3.522   0.593   5.982
 8403SOL     OW26107   6.011   4.725   4.750
 8403SOL    HW126108   5.937   4.675   4.705
 8403SOL    HW226109   6.084   4.662   4.775
 8404SOL     OW26110   0.938   1.871   6.593
 8404SOL    HW126111   0.844   1.903   6.606
 8404SOL    HW226112   0.950   1.839   6.499
 8405SOL     OW26113   4.277   0.361   5.915
 8405SOL    HW126114   4.292   0.395   5.823
 8405SOL    HW226115   4.202   0.294   5.914
 8406SOL     OW26116   5.025   0.321   6.230
 8406SOL    HW126117   5.053   0.399   6.173
 8406SOL    HW226118   4.933   0.338   6.266
 8407SOL     OW26119   3.518   6.925   4.226
 8407SOL    HW126120   3.469   6.840   4.202
 8407SOL    HW226121   3.575   6.954   4.150
 8408SOL     OW26122   3.671   1.507   1.565
 8408SOL    HW126123   3.727   1.469   1.638
 8408SOL    HW226124   3.655   1.604   1.582
 8409SOL     OW26125   4.308   2.344   2.077
 8409SOL    HW126126   4.363   2.362   2.158
 8409SOL    HW226127   4.219   2.308   2.104
 8410SOL     OW26128   6.705   1.825   1.658
 8410SOL    HW126129   6.641   1.849   1.586
 8410SOL    HW226130   6.686   1.733   1.691
 8411SOL     OW26131   1.509   5.521   0.799
 8411SOL    HW126132   1.443   5.590   0.770
 8411SOL    HW226133   1.588   5.567   0.840
 8412SOL     OW26134   2.822   2.242   6.450
 8412SOL    HW126135   2.781   2.171   6.508
 8412SOL    HW226136   2.756   2.316   6.437
 8413SOL     OW26137   4.266   5.739   4.711
 8413SOL    HW126138   4.298   5.694   4.795
 8413SOL    HW226139   4.244   5.669   4.642
 8414SOL     OW26140   1.242   0.463   1.082
 8414SOL    HW126141   1.162   0.506   1.039
 8414SOL    HW226142   1.297   0.534   1.126
 8415SOL     OW26143   2.645   1.616   5.520
 8415SOL    HW126144   2.716   1.685   5.510
 8415SOL    HW226145   2.684   1.534   5.561
 8416SOL     OW26146   6.481   1.592   5.415
 8416SOL    HW126147   6.439   1.518   5.468
 8416SOL    HW226148   6.409   1.646   5.371
 8417SOL     OW26149   1.394   3.536   5.439
 8417SOL    HW126150   1.482   3.581   5.460
 8417SOL    HW226151   1.405   3.437   5.445
 8418SOL     OW26152   0.640   6.090   2.294
 8418SOL    HW126153   0.611   6.107   2.388
 8418SOL    HW226154   0.724   6.142   2.275
 8419SOL     OW26155   4.280   1.708   4.228
 8419SOL    HW126156   4.261   1.801   4.262
 8419SOL    HW226157   4.239   1.641   4.290
 8420SOL     OW26158   3.075   0.339   1.568
 8420SOL    HW126159   3.075   0.239   1.576
 8420SOL    HW226160   3.164   0.375   1.595
 8421SOL     OW26161   4.682   6.672   6.139
 8421SOL    HW126162   4.699   6.631   6.229
 8421SOL    HW226163   4.662   6.599   6.073
 8422SOL     OW26164   5.150   2.197   3.395
 8422SOL    HW126165   5.137   2.294   3.374
 8422SOL    HW226166   5.247   2.179   3.408
 8423SOL     OW26167   6.927   5.016   6.384
 8423SOL    HW126168   6.899   4.975   6.298
 8423SOL    HW226169   7.007   4.968   6.420
 8424SOL     OW26170   2.746   0.683   4.396
 8424SOL    HW126171   2.782   0.591   4.412
 8424SOL    HW226172   2.788   0.722   4.314
 8425SOL     OW26173   3.255   3.974   2.647
 8425SOL    HW126174   3.238   3.902   2.580
 8425SOL    HW226175   3.168   4.017   2.671
 8426SOL     OW26176   3.982   3.121   2.070
 8426SOL    HW126177   4.046   3.196   2.086
 8426SOL    HW226178   3.949   3.085   2.157
 8427SOL     OW26179   3.257   3.885   3.661
 8427SOL    HW126180   3.269   3.977   3.698
 8427SOL    HW226181   3.346   3.841   3.650
 8428SOL     OW26182   6.495   7.015   1.223
 8428SOL    HW126183   6.494   6.960   1.306
 8428SOL    HW226184   6.402   7.022   1.186
 8429SOL     OW26185   2.585   5.960   5.368
 8429SOL    HW126186   2.666   5.923   5.323
 8429SOL    HW226187   2.611   6.001   5.456
 8430SOL     OW26188   4.385   6.876   4.734
 8430SOL    HW126189   4.425   6.833   4.815
 8430SOL    HW226190   4.323   6.811   4.690
 8431SOL     OW26191   2.360   3.489   6.282
 8431SOL    HW126192   2.441   3.510   6.227
 8431SOL    HW226193   2.289   3.452   6.222
 8432SOL     OW26194   6.303   5.006   6.081
 8432SOL    HW126195   6.393   5.048   6.092
 8432SOL    HW226196   6.303   4.949   6.000
 8433SOL     OW26197   5.288   2.231   0.899
 8433SOL    HW126198   5.215   2.298   0.905
 8433SOL    HW226199   5.373   2.276   0.871
 8434SOL     OW26200   2.533   5.699   5.099
 8434SOL    HW126201   2.610   5.648   5.136
 8434SOL    HW226202   2.557   5.736   5.010
 8435SOL     OW26203   5.431   1.616   2.730
 8435SOL    HW126204   5.377   1.700   2.735
 8435SOL    HW226205   5.491   1.621   2.650
 8436SOL     OW26206   2.300   5.603   2.573
 8436SOL    HW126207   2.208   5.586   2.608
 8436SOL    HW226208   2.299   5.681   2.511
 8437SOL     OW26209   1.348   4.841   2.378
 8437SOL    HW126210   1.428   4.894   2.407
 8437SOL    HW226211   1.374   4.781   2.302
 8438SOL     OW26212   0.968   4.211   2.300
 8438SOL    HW126213   0.892   4.226   2.237
 8438SOL    HW226214   0.979   4.113   2.317
 8439SOL     OW26215   5.836   4.910   2.833
 8439SOL    HW126216   5.829   4.952   2.923
 8439SOL    HW226217   5.856   4.812   2.844
 8440SOL     OW26218   2.114   1.823   3.139
 8440SOL    HW126219   2.114   1.791   3.044
 8440SOL    HW226220   2.095   1.921   3.141
 8441SOL     OW26221   6.630   1.637   5.137
 8441SOL    HW126222   6.605   1.619   5.233
 8441SOL    HW226223   6.623   1.552   5.085
 8442SOL     OW26224   3.429   1.428   6.606
 8442SOL    HW126225   3.446   1.425   6.508
 8442SOL    HW226226   3.509   1.465   6.653
 8443SOL     OW26227   1.088   3.948   3.337
 8443SOL    HW126228   0.989   3.935   3.344
 8443SOL    HW226229   1.128   3.943   3.428
 8444SOL     OW26230   5.434   5.096   4.442
 8444SOL    HW126231   5.477   5.184   4.421
 8444SOL    HW226232   5.475   5.058   4.524
 8445SOL     OW26233   4.590   6.027   6.452
 8445SOL    HW126234   4.567   6.109   6.504
 8445SOL    HW226235   4.610   5.952   6.516
 8446SOL     OW26236   0.303   5.203   4.823
 8446SOL    HW126237   0.317   5.276   4.889
 8446SOL    HW226238   0.348   5.227   4.737
 8447SOL     OW26239   3.832   2.095   3.286
 8447SOL    HW126240   3.830   2.018   3.350
 8447SOL    HW226241   3.799   2.178   3.333
 8448SOL     OW26242   3.289   6.036   3.111
 8448SOL    HW126243   3.327   6.055   3.021
 8448SOL    HW226244   3.326   5.949   3.145
 8449SOL     OW26245   2.136   2.270   3.421
 8449SOL    HW126246   2.188   2.325   3.486
 8449SOL    HW226247   2.067   2.216   3.470
 8450SOL     OW26248   0.231   1.736   6.790
 8450SOL    HW126249   0.138   1.705   6.808
 8450SOL    HW226250   0.288   1.719   6.870
 8451SOL     OW26251   4.456   2.566   0.708
 8451SOL    HW126252   4.378   2.587   0.767
 8451SOL    HW226253   4.541   2.573   0.760
 8452SOL     OW26254   4.863   1.779   5.607
 8452SOL    HW126255   4.800   1.797   5.531
 8452SOL    HW226256   4.936   1.847   5.605
 8453SOL     OW26257   0.134   6.159   0.571
 8453SOL    HW126258   0.074   6.093   0.616
 8453SOL    HW226259   0.100   6.178   0.479
 8454SOL     OW26260   6.528   3.943   6.784
 8454SOL    HW126261   6.466   4.011   6.824
 8454SOL    HW226262   6.513   3.854   6.828
 8455SOL     OW26263   6.971   1.752   2.682
 8455SOL    HW126264   6.898   1.696   2.642
 8455SOL    HW226265   6.978   1.732   2.780
 8456SOL     OW26266   6.151   0.705   3.398
 8456SOL    HW126267   6.152   0.692   3.298
 8456SOL    HW226268   6.182   0.797   3.419
 8457SOL     OW26269   6.583   6.960   5.522
 8457SOL    HW126270   6.543   6.873   5.551
 8457SOL    HW226271   6.541   6.990   5.437
 8458SOL     OW26272   0.446   6.777   6.699
 8458SOL    HW126273   0.509   6.727   6.758
 8458SOL    HW226274   0.400   6.713   6.638
 8459SOL     OW26275   1.705   6.249   3.550
 8459SOL    HW126276   1.701   6.249   3.650
 8459SOL    HW226277   1.769   6.179   3.519
 8460SOL     OW26278   3.142   4.001   3.274
 8460SOL    HW126279   3.234   4.040   3.286
 8460SOL    HW226280   3.093   4.005   3.361
 8461SOL     OW26281   6.528   3.682   4.159
 8461SOL    HW126282   6.536   3.666   4.060
 8461SOL    HW226283   6.449   3.741   4.176
 8462SOL     OW26284   2.360   2.843   1.652
 8462SOL    HW126285   2.436   2.894   1.693
 8462SOL    HW226286   2.298   2.812   1.724
 8463SOL     OW26287   5.103   0.505   1.876
 8463SOL    HW126288   5.053   0.571   1.933
 8463SOL    HW226289   5.154   0.554   1.806
 8464SOL     OW26290   6.264   1.577   4.888
 8464SOL    HW126291   6.294   1.538   4.975
 8464SOL    HW226292   6.205   1.656   4.905
 8465SOL     OW26293   2.033   2.033   6.907
 8465SOL    HW126294   2.087   2.023   6.991
 8465SOL    HW226295   1.987   2.122   6.907
 8466SOL     OW26296   0.425   0.013   4.069
 8466SOL    HW126297   0.343   0.032   4.123
 8466SOL    HW226298   0.506   0.023   4.127
 8467SOL     OW26299   3.138   5.670   1.124
 8467SOL    HW126300   3.152   5.649   1.027
 8467SOL    HW226301   3.083   5.752   1.133
 8468SOL     OW26302   5.003   2.431   0.402
 8468SOL    HW126303   4.939   2.506   0.422
 8468SOL    HW226304   4.961   2.368   0.336
 8469SOL     OW26305   3.813   2.648   6.688
 8469SOL    HW126306   3.849   2.583   6.621
 8469SOL    HW226307   3.857   2.634   6.776
 8470SOL     OW26308   1.456   3.216   6.725
 8470SOL    HW126309   1.439   3.125   6.762
 8470SOL    HW226310   1.434   3.285   6.794
 8471SOL     OW26311   4.446   1.472   3.966
 8471SOL    HW126312   4.365   1.507   3.918
 8471SOL    HW226313   4.494   1.549   4.009
 8472SOL     OW26314   1.347   6.998   3.142
 8472SOL    HW126315   1.402   6.949   3.074
 8472SOL    HW226316   1.296   6.931   3.196
 8473SOL     OW26317   6.479   5.512   6.988
 8473SOL    HW126318   6.567   5.494   6.943
 8473SOL    HW226319   6.495   5.529   0.063
 8474SOL     OW26320   4.259   5.240   0.846
 8474SOL    HW126321   4.298   5.151   0.824
 8474SOL    HW226322   4.215   5.236   0.936
 8475SOL     OW26323   4.470   1.267   3.077
 8475SOL    HW126324   4.520   1.338   3.027
 8475SOL    HW226325   4.454   1.298   3.171
 8476SOL     OW26326   4.897   0.768   2.606
 8476SOL    HW126327   4.994   0.789   2.589
 8476SOL    HW226328   4.880   0.672   2.587
 8477SOL     OW26329   2.457   1.134   2.353
 8477SOL    HW126330   2.556   1.120   2.356
 8477SOL    HW226331   2.437   1.231   2.349
 8478SOL     OW26332   1.460   0.222   5.673
 8478SOL    HW126333   1.505   0.253   5.756
 8478SOL    HW226334   1.437   0.125   5.681
 8479SOL     OW26335   4.606   1.197   2.367
 8479SOL    HW126336   4.608   1.144   2.282
 8479SOL    HW226337   4.659   1.281   2.354
 8480SOL     OW26338   1.385   1.361   1.392
 8480SOL    HW126339   1.385   1.365   1.292
 8480SOL    HW226340   1.292   1.377   1.426
 8481SOL     OW26341   4.004   6.892   4.563
 8481SOL    HW126342   3.962   6.849   4.643
 8481SOL    HW226343   4.012   6.825   4.489
 8482SOL     OW26344   0.723   0.393   1.943
 8482SOL    HW126345   0.688   0.300   1.953
 8482SOL    HW226346   0.775   0.418   2.025
 8483SOL     OW26347   4.807   6.347   2.034
 8483SOL    HW126348   4.746   6.305   2.101
 8483SOL    HW226349   4.780   6.319   1.942
 8484SOL     OW26350   0.675   4.598   4.613
 8484SOL    HW126351   0.580   4.629   4.613
 8484SOL    HW226352   0.730   4.656   4.553
 8485SOL     OW26353   2.899   3.163   6.164
 8485SOL    HW126354   2.852   3.226   6.102
 8485SOL    HW226355   2.904   3.203   6.256
 8486SOL     OW26356   3.931   0.403   2.360
 8486SOL    HW126357   4.021   0.434   2.391
 8486SOL    HW226358   3.926   0.303   2.368
 8487SOL     OW26359   4.653   6.949   1.159
 8487SOL    HW126360   4.565   6.980   1.196
 8487SOL    HW226361   4.724   6.961   1.227
 8488SOL     OW26362   5.349   3.241   4.647
 8488SOL    HW126363   5.258   3.258   4.608
 8488SOL    HW226364   5.393   3.329   4.665
 8489SOL     OW26365   4.540   5.323   3.121
 8489SOL    HW126366   4.495   5.394   3.066
 8489SOL    HW226367   4.633   5.352   3.143
 8490SOL     OW26368   3.686   5.573   2.610
 8490SOL    HW126369   3.650   5.497   2.555
 8490SOL    HW226370   3.755   5.622   2.557
 8491SOL     OW26371   1.701   1.215   1.944
 8491SOL    HW126372   1.756   1.234   1.863
 8491SOL    HW226373   1.702   1.116   1.963
 8492SOL     OW26374   5.711   3.887   4.447
 8492SOL    HW126375   5.712   3.973   4.498
 8492SOL    HW226376   5.731   3.905   4.351
 8493SOL     OW26377   3.517   2.155   0.884
 8493SOL    HW126378   3.583   2.082   0.864
 8493SOL    HW226379   3.470   2.181   0.800
 8494SOL     OW26380   3.724   5.982   6.914
 8494SOL    HW126381   3.656   5.989   6.987
 8494SOL    HW226382   3.684   6.013   6.828
 8495SOL     OW26383   0.558   2.805   0.063
 8495SOL    HW126384   0.542   2.840   6.993
 8495SOL    HW226385   0.491   2.734   0.083
 8496SOL     OW26386   6.687   2.681   2.905
 8496SOL    HW126387   6.729   2.759   2.952
 8496SOL    HW226388   6.588   2.684   2.916
 8497SOL     OW26389   6.182   4.957   3.371
 8497SOL    HW126390   6.082   4.954   3.383
 8497SOL    HW226391   6.206   4.920   3.281
 8498SOL     OW26392   6.521   0.975   0.474
 8498SOL    HW126393   6.463   1.008   0.549
 8498SOL    HW226394   6.568   0.891   0.502
 8499SOL     OW26395   3.009   4.090   6.195
 8499SOL    HW126396   3.101   4.089   6.233
 8499SOL    HW226397   3.010   4.127   6.103
 8500SOL     OW26398   3.092   0.228   6.217
 8500SOL    HW126399   3.145   0.257   6.137
 8500SOL    HW226400   3.091   0.302   6.285
 8501SOL     OW26401   2.692   4.806   5.831
 8501SOL    HW126402   2.707   4.903   5.853
 8501SOL    HW226403   2.606   4.796   5.781
 8502SOL     OW26404   0.307   0.190   2.142
 8502SOL    HW126405   0.288   0.121   2.211
 8502SOL    HW226406   0.358   0.149   2.066
 8503SOL     OW26407   3.356   5.757   3.189
 8503SOL    HW126408   3.293   5.688   3.227
 8503SOL    HW226409   3.446   5.745   3.231
 8504SOL     OW26410   1.061   5.789   3.148
 8504SOL    HW126411   0.981   5.831   3.190
 8504SOL    HW226412   1.143   5.842   3.172
 8505SOL     OW26413   4.725   2.865   3.938
 8505SOL    HW126414   4.692   2.785   3.987
 8505SOL    HW226415   4.722   2.848   3.839
 8506SOL     OW26416   0.957   6.581   0.783
 8506SOL    HW126417   0.993   6.490   0.764
 8506SOL    HW226418   0.935   6.590   0.880
 8507SOL     OW26419   1.847   0.978   4.739
 8507SOL    HW126420   1.887   0.937   4.657
 8507SOL    HW226421   1.854   1.078   4.733
 8508SOL     OW26422   1.084   3.159   6.491
 8508SOL    HW126423   1.096   3.256   6.512
 8508SOL    HW226424   1.138   3.136   6.409
 8509SOL     OW26425   6.043   2.376   4.378
 8509SOL    HW126426   6.087   2.465   4.368
 8509SOL    HW226427   6.103   2.304   4.343
 8510SOL     OW26428   4.971   0.285   2.693
 8510SOL    HW126429   4.958   0.228   2.774
 8510SOL    HW226430   4.997   0.228   2.615
 8511SOL     OW26431   6.963   4.550   2.152
 8511SOL    HW126432   6.964   4.511   2.244
 8511SOL    HW226433   0.026   4.526   2.105
 8512SOL     OW26434   4.158   2.365   0.750
 8512SOL    HW126435   4.115   2.329   0.667
 8512SOL    HW226436   4.242   2.413   0.726
 8513SOL     OW26437   0.564   4.437   1.447
 8513SOL    HW126438   0.541   4.349   1.405
 8513SOL    HW226439   0.505   4.508   1.409
 8514SOL     OW26440   2.406   2.146   5.956
 8514SOL    HW126441   2.499   2.147   5.992
 8514SOL    HW226442   2.408   2.178   5.861
 8515SOL     OW26443   1.698   0.553   1.183
 8515SOL    HW126444   1.710   0.544   1.084
 8515SOL    HW226445   1.711   0.464   1.227
 8516SOL     OW26446   5.621   2.239   4.389
 8516SOL    HW126447   5.572   2.161   4.351
 8516SOL    HW226448   5.685   2.274   4.320
 8517SOL     OW26449   1.872   1.811   6.074
 8517SOL    HW126450   1.883   1.720   6.114
 8517SOL    HW226451   1.873   1.805   5.975
 8518SOL     OW26452   5.471   4.759   0.052
 8518SOL    HW126453   5.557   4.735   0.008
 8518SOL    HW226454   5.411   4.679   0.052
 8519SOL     OW26455   1.252   2.855   0.996
 8519SOL    HW126456   1.265   2.938   0.942
 8519SOL    HW226457   1.275   2.775   0.940
 8520SOL     OW26458   3.907   3.903   5.803
 8520SOL    HW126459   3.951   3.894   5.714
 8520SOL    HW226460   3.963   3.857   5.872
 8521SOL     OW26461   2.210   6.500   5.568
 8521SOL    HW126462   2.289   6.562   5.565
 8521SOL    HW226463   2.200   6.454   5.480
 8522SOL     OW26464   0.555   7.008   0.529
 8522SOL    HW126465   0.472   6.953   0.532
 8522SOL    HW226466   0.574   0.013   0.435
 8523SOL     OW26467   3.334   1.232   0.180
 8523SOL    HW126468   3.236   1.242   0.194
 8523SOL    HW226469   3.359   1.135   0.184
 8524SOL     OW26470   2.043   5.738   4.465
 8524SOL    HW126471   1.979   5.782   4.402
 8524SOL    HW226472   2.003   5.654   4.500
 8525SOL     OW26473   6.180   4.577   1.804
 8525SOL    HW126474   6.251   4.521   1.847
 8525SOL    HW226475   6.155   4.653   1.865
 8526SOL     OW26476   0.593   5.029   0.823
 8526SOL    HW126477   0.529   5.088   0.773
 8526SOL    HW226478   0.546   4.987   0.900
 8527SOL     OW26479   2.815   1.010   5.198
 8527SOL    HW126480   2.830   1.052   5.108
 8527SOL    HW226481   2.784   0.916   5.186
 8528SOL     OW26482   5.251   1.047   0.358
 8528SOL    HW126483   5.244   1.134   0.408
 8528SOL    HW226484   5.256   0.972   0.424
 8529SOL     OW26485   1.184   5.853   6.459
 8529SOL    HW126486   1.158   5.872   6.365
 8529SOL    HW226487   1.149   5.764   6.487
 8530SOL     OW26488   3.011   3.768   3.777
 8530SOL    HW126489   3.106   3.784   3.749
 8530SOL    HW226490   3.009   3.734   3.871
 8531SOL     OW26491   6.697   5.418   4.376
 8531SOL    HW126492   6.677   5.502   4.427
 8531SOL    HW226493   6.666   5.339   4.429
 8532SOL     OW26494   2.785   4.881   6.207
 8532SOL    HW126495   2.878   4.907   6.229
 8532SOL    HW226496   2.723   4.910   6.280
 8533SOL     OW26497   2.650   6.335   5.696
 8533SOL    HW126498   2.711   6.326   5.617
 8533SOL    HW226499   2.583   6.260   5.695
 8534SOL     OW26500   2.301   2.404   3.601
 8534SOL    HW126501   2.386   2.356   3.583
 8534SOL    HW226502   2.307   2.497   3.564
 8535SOL     OW26503   6.583   0.375   2.604
 8535SOL    HW126504   6.665   0.322   2.582
 8535SOL    HW226505   6.610   0.470   2.623
 8536SOL     OW26506   0.931   1.647   5.183
 8536SOL    HW126507   0.948   1.737   5.224
 8536SOL    HW226508   0.895   1.660   5.090
 8537SOL     OW26509   6.839   1.119   2.664
 8537SOL    HW126510   6.922   1.165   2.631
 8537SOL    HW226511   6.775   1.108   2.587
 8538SOL     OW26512   0.426   2.470   7.017
 8538SOL    HW126513   0.462   2.396   6.961
 8538SOL    HW226514   0.428   2.444   0.091
 8539SOL     OW26515   5.520   2.513   2.988
 8539SOL    HW126516   5.532   2.609   2.963
 8539SOL    HW226517   5.523   2.504   3.087
 8540SOL     OW26518   3.635   0.176   0.442
 8540SOL    HW126519   3.669   0.268   0.458
 8540SOL    HW226520   3.712   0.113   0.431
 8541SOL     OW26521   1.861   2.890   4.628
 8541SOL    HW126522   1.886   2.943   4.710
 8541SOL    HW226523   1.861   2.793   4.651
 8542SOL     OW26524   3.408   5.193   0.734
 8542SOL    HW126525   3.466   5.170   0.656
 8542SOL    HW226526   3.372   5.108   0.774
 8543SOL     OW26527   2.500   2.081   6.312
 8543SOL    HW126528   2.515   2.179   6.300
 8543SOL    HW226529   2.439   2.048   6.240
 8544SOL     OW26530   6.287   2.742   3.423
 8544SOL    HW126531   6.217   2.769   3.358
 8544SOL    HW226532   6.260   2.657   3.468
 8545SOL     OW26533   4.671   6.360   4.982
 8545SOL    HW126534   4.758   6.350   4.934
 8545SOL    HW226535   4.621   6.438   4.945
 8546SOL     OW26536   4.226   2.077   6.465
 8546SOL    HW126537   4.200   2.007   6.399
 8546SOL    HW226538   4.326   2.086   6.467
 8547SOL     OW26539   0.733   4.408   2.706
 8547SOL    HW126540   0.768   4.376   2.794
 8547SOL    HW226541   0.770   4.351   2.633
 8548SOL     OW26542   6.327   1.411   5.540
 8548SOL    HW126543   6.280   1.402   5.453
 8548SOL    HW226544   6.391   1.335   5.552
 8549SOL     OW26545   5.627   3.042   4.824
 8549SOL    HW126546   5.616   3.076   4.917
 8549SOL    HW226547   5.663   2.949   4.826
 8550SOL     OW26548   0.970   4.166   6.416
 8550SOL    HW126549   0.950   4.227   6.493
 8550SOL    HW226550   0.953   4.072   6.444
 8551SOL     OW26551   3.381   4.242   1.171
 8551SOL    HW126552   3.325   4.161   1.186
 8551SOL    HW226553   3.422   4.271   1.257
 8552SOL     OW26554   2.942   6.622   4.399
 8552SOL    HW126555   2.978   6.712   4.425
 8552SOL    HW226556   2.979   6.595   4.310
 8553SOL     OW26557   6.008   4.804   6.895
 8553SOL    HW126558   6.097   4.787   6.852
 8553SOL    HW226559   6.016   4.880   6.960
 8554SOL     OW26560   6.076   3.954   6.615
 8554SOL    HW126561   6.154   3.901   6.581
 8554SOL    HW226562   6.066   3.939   6.713
 8555SOL     OW26563   1.090   6.970   4.378
 8555SOL    HW126564   1.009   6.959   4.321
 8555SOL    HW226565   1.171   6.946   4.325
 8556SOL     OW26566   6.522   0.468   4.335
 8556SOL    HW126567   6.489   0.377   4.310
 8556SOL    HW226568   6.450   0.516   4.387
 8557SOL     OW26569   7.006   0.736   0.340
 8557SOL    HW126570   0.037   0.768   0.261
 8557SOL    HW226571   6.910   0.758   0.327
 8558SOL     OW26572   1.004   5.638   1.889
 8558SOL    HW126573   0.908   5.642   1.864
 8558SOL    HW226574   1.020   5.558   1.947
 8559SOL     OW26575   0.499   1.229   5.773
 8559SOL    HW126576   0.503   1.191   5.866
 8559SOL    HW226577   0.576   1.291   5.759
 8560SOL     OW26578   6.591   2.816   6.144
 8560SOL    HW126579   6.641   2.808   6.057
 8560SOL    HW226580   6.650   2.788   6.219
 8561SOL     OW26581   4.656   6.889   5.495
 8561SOL    HW126582   4.568   6.935   5.507
 8561SOL    HW226583   4.692   6.911   5.404
 8562SOL     OW26584   3.341   6.951   4.471
 8562SOL    HW126585   3.366   6.987   4.561
 8562SOL    HW226586   3.419   6.959   4.409
 8563SOL     OW26587   2.698   2.720   6.343
 8563SOL    HW126588   2.679   2.623   6.360
 8563SOL    HW226589   2.710   2.767   6.430
 8564SOL     OW26590   0.035   6.732   3.988
 8564SOL    HW126591   0.056   6.634   3.987
 8564SOL    HW226592   7.013   6.757   3.902
 8565SOL     OW26593   4.320   0.032   1.950
 8565SOL    HW126594   4.276   0.083   2.023
 8565SOL    HW226595   4.255   0.016   1.876
 8566SOL     OW26596   2.080   3.665   3.097
 8566SOL    HW126597   2.110   3.758   3.076
 8566SOL    HW226598   2.105   3.604   3.023
 8567SOL     OW26599   5.176   6.170   0.649
 8567SOL    HW126600   5.271   6.191   0.627
 8567SOL    HW226601   5.123   6.255   0.652
 8568SOL     OW26602   5.838   1.511   0.204
 8568SOL    HW126603   5.762   1.574   0.185
 8568SOL    HW226604   5.835   1.483   0.299
 8569SOL     OW26605   3.988   1.814   5.716
 8569SOL    HW126606   3.989   1.914   5.718
 8569SOL    HW226607   4.025   1.782   5.628
 8570SOL     OW26608   0.668   4.521   6.708
 8570SOL    HW126609   0.612   4.586   6.656
 8570SOL    HW226610   0.740   4.571   6.757
 8571SOL     OW26611   6.938   4.612   4.376
 8571SOL    HW126612   6.954   4.526   4.426
 8571SOL    HW226613   6.965   4.600   4.281
 8572SOL     OW26614   3.313   4.830   5.512
 8572SOL    HW126615   3.315   4.807   5.415
 8572SOL    HW226616   3.218   4.842   5.542
 8573SOL     OW26617   4.139   5.937   4.563
 8573SOL    HW126618   4.074   5.876   4.518
 8573SOL    HW226619   4.188   5.887   4.635
 8574SOL     OW26620   0.601   3.515   4.373
 8574SOL    HW126621   0.623   3.585   4.305
 8574SOL    HW226622   0.558   3.559   4.452
 8575SOL     OW26623   3.211   3.331   6.382
 8575SOL    HW126624   3.166   3.352   6.296
 8575SOL    HW226625   3.186   3.238   6.412
 8576SOL     OW26626   1.783   0.296   1.675
 8576SOL    HW126627   1.714   0.337   1.735
 8576SOL    HW226628   1.784   0.197   1.689
 8577SOL     OW26629   6.925   5.588   3.020
 8577SOL    HW126630   6.884   5.648   2.951
 8577SOL    HW226631   0.002   5.587   3.009
 8578SOL     OW26632   4.626   6.751   3.763
 8578SOL    HW126633   4.571   6.718   3.840
 8578SOL    HW226634   4.689   6.822   3.796
 8579SOL     OW26635   0.795   5.422   3.071
 8579SOL    HW126636   0.827   5.483   3.143
 8579SOL    HW226637   0.832   5.330   3.087
 8580SOL     OW26638   3.270   4.248   5.966
 8580SOL    HW126639   3.180   4.288   5.981
 8580SOL    HW226640   3.328   4.313   5.917
 8581SOL     OW26641   3.341   2.798   0.443
 8581SOL    HW126642   3.355   2.837   0.352
 8581SOL    HW226643   3.424   2.750   0.472
 8582SOL     OW26644   4.812   4.037   1.240
 8582SOL    HW126645   4.778   3.994   1.323
 8582SOL    HW226646   4.740   4.039   1.171
 8583SOL     OW26647   5.279   0.589   5.578
 8583SOL    HW126648   5.198   0.609   5.523
 8583SOL    HW226649   5.320   0.674   5.610
 8584SOL     OW26650   0.480   5.471   6.428
 8584SOL    HW126651   0.523   5.491   6.516
 8584SOL    HW226652   0.511   5.383   6.394
 8585SOL     OW26653   1.164   0.996   1.006
 8585SOL    HW126654   1.151   1.064   0.934
 8585SOL    HW226655   1.219   0.920   0.972
 8586SOL     OW26656   3.983   5.172   4.039
 8586SOL    HW126657   4.008   5.204   4.130
 8586SOL    HW226658   3.997   5.246   3.973
 8587SOL     OW26659   0.102   1.983   1.477
 8587SOL    HW126660   0.120   1.959   1.381
 8587SOL    HW226661   0.035   1.919   1.515
 8588SOL     OW26662   3.971   2.238   0.338
 8588SOL    HW126663   3.922   2.265   0.255
 8588SOL    HW226664   4.069   2.236   0.318
 8589SOL     OW26665   2.738   1.391   4.277
 8589SOL    HW126666   2.751   1.490   4.287
 8589SOL    HW226667   2.824   1.344   4.292
 8590SOL     OW26668   6.176   4.848   5.498
 8590SOL    HW126669   6.172   4.821   5.402
 8590SOL    HW226670   6.136   4.939   5.509
 8591SOL     OW26671   0.971   3.161   0.063
 8591SOL    HW126672   1.064   3.126   0.067
 8591SOL    HW226673   0.909   3.088   0.034
 8592SOL     OW26674   6.373   5.558   6.395
 8592SOL    HW126675   6.338   5.470   6.424
 8592SOL    HW226676   6.355   5.627   6.465
 8593SOL     OW26677   0.450   6.863   2.992
 8593SOL    HW126678   0.405   6.947   3.021
 8593SOL    HW226679   0.521   6.884   2.925
 8594SOL     OW26680   2.908   3.325   3.222
 8594SOL    HW126681   2.916   3.264   3.301
 8594SOL    HW226682   2.923   3.419   3.252
 8595SOL     OW26683   1.938   2.982   1.454
 8595SOL    HW126684   2.021   2.936   1.420
 8595SOL    HW226685   1.859   2.924   1.437
 8596SOL     OW26686   6.680   4.336   2.469
 8596SOL    HW126687   6.597   4.355   2.416
 8596SOL    HW226688   6.758   4.331   2.407
 8597SOL     OW26689   2.171   1.802   0.705
 8597SOL    HW126690   2.176   1.888   0.655
 8597SOL    HW226691   2.197   1.817   0.800
 8598SOL     OW26692   5.321   4.112   0.966
 8598SOL    HW126693   5.363   4.137   1.053
 8598SOL    HW226694   5.320   4.013   0.956
 8599SOL     OW26695   1.175   3.312   1.828
 8599SOL    HW126696   1.097   3.330   1.888
 8599SOL    HW226697   1.260   3.327   1.879
 8600SOL     OW26698   6.170   3.452   6.128
 8600SOL    HW126699   6.234   3.397   6.073
 8600SOL    HW226700   6.218   3.533   6.162
 8601SOL     OW26701   0.363   1.003   4.869
 8601SOL    HW126702   0.360   0.911   4.830
 8601SOL    HW226703   0.445   1.050   4.837
 8602SOL     OW26704   2.066   6.056   2.229
 8602SOL    HW126705   2.156   6.079   2.190
 8602SOL    HW226706   1.994   6.089   2.169
 8603SOL     OW26707   4.589   3.710   1.381
 8603SOL    HW126708   4.637   3.785   1.426
 8603SOL    HW226709   4.641   3.625   1.393
 8604SOL     OW26710   5.630   2.022   2.445
 8604SOL    HW126711   5.631   2.116   2.411
 8604SOL    HW226712   5.576   2.018   2.530
 8605SOL     OW26713   2.931   6.460   2.174
 8605SOL    HW126714   2.940   6.499   2.082
 8605SOL    HW226715   2.934   6.361   2.169
 8606SOL     OW26716   4.110   5.417   5.822
 8606SOL    HW126717   4.131   5.515   5.819
 8606SOL    HW226718   4.153   5.377   5.904
 8607SOL     OW26719   2.886   5.624   1.738
 8607SOL    HW126720   2.937   5.598   1.656
 8607SOL    HW226721   2.901   5.555   1.810
 8608SOL     OW26722   5.376   6.368   2.553
 8608SOL    HW126723   5.471   6.340   2.547
 8608SOL    HW226724   5.353   6.390   2.648
 8609SOL     OW26725   4.712   0.566   6.511
 8609SOL    HW126726   4.746   0.658   6.527
 8609SOL    HW226727   4.613   0.568   6.494
 8610SOL     OW26728   0.033   6.845   4.633
 8610SOL    HW126729   0.123   6.802   4.640
 8610SOL    HW226730   0.044   6.942   4.612
 8611SOL     OW26731   1.605   2.058   3.463
 8611SOL    HW126732   1.680   1.994   3.453
 8611SOL    HW226733   1.626   2.143   3.415
 8612SOL     OW26734   4.544   2.706   5.064
 8612SOL    HW126735   4.531   2.764   4.984
 8612SOL    HW226736   4.517   2.612   5.043
 8613SOL     OW26737   1.358   1.879   0.161
 8613SOL    HW126738   1.330   1.906   0.069
 8613SOL    HW226739   1.448   1.918   0.181
 8614SOL     OW26740   1.061   1.538   3.260
 8614SOL    HW126741   1.126   1.583   3.321
 8614SOL    HW226742   1.046   1.595   3.179
 8615SOL     OW26743   4.340   2.148   5.243
 8615SOL    HW126744   4.414   2.134   5.177
 8615SOL    HW226745   4.253   2.120   5.202
 8616SOL     OW26746   1.271   3.354   0.353
 8616SOL    HW126747   1.304   3.261   0.338
 8616SOL    HW226748   1.183   3.352   0.400
 8617SOL     OW26749   6.477   3.121   1.149
 8617SOL    HW126750   6.493   3.190   1.078
 8617SOL    HW226751   6.553   3.121   1.214
 8618SOL     OW26752   5.150   0.506   3.000
 8618SOL    HW126753   5.064   0.497   3.049
 8618SOL    HW226754   5.221   0.539   3.062
 8619SOL     OW26755   4.163   5.989   0.604
 8619SOL    HW126756   4.201   5.956   0.690
 8619SOL    HW226757   4.091   6.056   0.622
 8620SOL     OW26758   6.435   6.381   3.242
 8620SOL    HW126759   6.516   6.362   3.186
 8620SOL    HW226760   6.417   6.303   3.302
 8621SOL     OW26761   5.583   0.634   2.890
 8621SOL    HW126762   5.527   0.566   2.842
 8621SOL    HW226763   5.524   0.708   2.923
 8622SOL     OW26764   5.340   5.452   6.942
 8622SOL    HW126765   5.297   5.494   7.022
 8622SOL    HW226766   5.416   5.510   6.912
 8623SOL     OW26767   6.419   2.883   2.861
 8623SOL    HW126768   6.381   2.873   2.953
 8623SOL    HW226769   6.384   2.967   2.820
 8624SOL     OW26770   0.473   4.859   3.725
 8624SOL    HW126771   0.465   4.957   3.746
 8624SOL    HW226772   0.383   4.816   3.731
 8625SOL     OW26773   3.313   0.625   6.198
 8625SOL    HW126774   3.400   0.614   6.149
 8625SOL    HW226775   3.327   0.608   6.295
 8626SOL     OW26776   3.657   3.236   2.155
 8626SOL    HW126777   3.594   3.270   2.224
 8626SOL    HW226778   3.684   3.142   2.177
 8627SOL     OW26779   2.357   0.330   6.783
 8627SOL    HW126780   2.335   0.374   6.696
 8627SOL    HW226781   2.280   0.340   6.846
 8628SOL     OW26782   5.844   1.035   6.818
 8628SOL    HW126783   5.810   0.946   6.852
 8628SOL    HW226784   5.842   1.101   6.893
 8629SOL     OW26785   1.034   5.219   3.649
 8629SOL    HW126786   1.107   5.156   3.674
 8629SOL    HW226787   1.052   5.309   3.689
 8630SOL     OW26788   5.449   4.594   3.912
 8630SOL    HW126789   5.454   4.559   4.005
 8630SOL    HW226790   5.539   4.628   3.885
 8631SOL     OW26791   4.074   5.980   3.596
 8631SOL    HW126792   3.978   5.958   3.614
 8631SOL    HW226793   4.124   5.984   3.682
 8632SOL     OW26794   4.907   0.499   3.136
 8632SOL    HW126795   4.861   0.411   3.138
 8632SOL    HW226796   4.875   0.555   3.212
 8633SOL     OW26797   6.210   0.568   3.928
 8633SOL    HW126798   6.245   0.475   3.915
 8633SOL    HW226799   6.118   0.575   3.887
 8634SOL     OW26800   6.496   5.134   1.668
 8634SOL    HW126801   6.425   5.139   1.598
 8634SOL    HW226802   6.517   5.038   1.686
 8635SOL     OW26803   6.101   3.735   5.513
 8635SOL    HW126804   6.164   3.666   5.478
 8635SOL    HW226805   6.123   3.756   5.608
 8636SOL     OW26806   5.559   5.625   0.346
 8636SOL    HW126807   5.548   5.529   0.321
 8636SOL    HW226808   5.653   5.642   0.377
 8637SOL     OW26809   1.552   0.637   1.575
 8637SOL    HW126810   1.522   0.552   1.532
 8637SOL    HW226811   1.651   0.645   1.566
 8638SOL     OW26812   4.749   5.326   0.976
 8638SOL    HW126813   4.682   5.336   1.049
 8638SOL    HW226814   4.714   5.369   0.893
 8639SOL     OW26815   6.842   2.911   1.985
 8639SOL    HW126816   6.814   3.004   2.007
 8639SOL    HW226817   6.761   2.853   1.975
 8640SOL     OW26818   5.450   6.095   1.570
 8640SOL    HW126819   5.538   6.059   1.537
 8640SOL    HW226820   5.433   6.063   1.663
 8641SOL     OW26821   5.376   4.824   3.528
 8641SOL    HW126822   5.308   4.763   3.487
 8641SOL    HW226823   5.355   4.836   3.625
 8642SOL     OW26824   4.764   1.671   1.736
 8642SOL    HW126825   4.667   1.691   1.749
 8642SOL    HW226826   4.811   1.670   1.824
 8643SOL     OW26827   4.687   1.080   6.843
 8643SOL    HW126828   4.742   1.078   6.927
 8643SOL    HW226829   4.745   1.107   6.766
 8644SOL     OW26830   6.266   3.500   5.637
 8644SOL    HW126831   6.184   3.446   5.620
 8644SOL    HW226832   6.282   3.506   5.736
 8645SOL     OW26833   6.067   4.599   1.557
 8645SOL    HW126834   6.108   4.594   1.648
 8645SOL    HW226835   6.063   4.507   1.518
 8646SOL     OW26836   5.039   0.521   0.876
 8646SOL    HW126837   5.120   0.463   0.868
 8646SOL    HW226838   4.963   0.467   0.911
 8647SOL     OW26839   4.630   4.722   2.043
 8647SOL    HW126840   4.603   4.738   1.948
 8647SOL    HW226841   4.570   4.652   2.083
 8648SOL     OW26842   5.794   1.805   4.622
 8648SOL    HW126843   5.820   1.875   4.555
 8648SOL    HW226844   5.722   1.841   4.681
 8649SOL     OW26845   0.599   4.745   5.414
 8649SOL    HW126846   0.596   4.665   5.353
 8649SOL    HW226847   0.512   4.794   5.408
 8650SOL     OW26848   1.013   4.784   2.329
 8650SOL    HW126849   1.110   4.786   2.303
 8650SOL    HW226850   0.998   4.713   2.397
 8651SOL     OW26851   3.250   2.634   1.206
 8651SOL    HW126852   3.332   2.670   1.250
 8651SOL    HW226853   3.186   2.602   1.276
 8652SOL     OW26854   1.973   3.513   4.089
 8652SOL    HW126855   2.028   3.446   4.140
 8652SOL    HW226856   1.984   3.497   3.991
 8653SOL     OW26857   5.875   3.161   6.161
 8653SOL    HW126858   5.940   3.157   6.085
 8653SOL    HW226859   5.906   3.101   6.234
 8654SOL     OW26860   7.008   6.686   3.116
 8654SOL    HW126861   0.003   6.784   3.117
 8654SOL    HW226862   0.000   6.649   3.208
 8655SOL     OW26863   5.790   6.237   4.037
 8655SOL    HW126864   5.742   6.175   4.098
 8655SOL    HW226865   5.796   6.327   4.080
 8656SOL     OW26866   6.290   2.043   1.346
 8656SOL    HW126867   6.269   2.105   1.421
 8656SOL    HW226868   6.228   1.964   1.350
 8657SOL     OW26869   3.161   4.116   0.801
 8657SOL    HW126870   3.258   4.140   0.791
 8657SOL    HW226871   3.105   4.193   0.769
 8658SOL     OW26872   0.275   5.379   0.052
 8658SOL    HW126873   0.201   5.428   0.006
 8658SOL    HW226874   0.264   5.389   0.151
 8659SOL     OW26875   4.630   0.587   3.839
 8659SOL    HW126876   4.641   0.676   3.795
 8659SOL    HW226877   4.655   0.514   3.774
 8660SOL     OW26878   5.460   4.661   0.601
 8660SOL    HW126879   5.502   4.621   0.520
 8660SOL    HW226880   5.493   4.754   0.613
 8661SOL     OW26881   6.203   3.791   1.546
 8661SOL    HW126882   6.106   3.775   1.567
 8661SOL    HW226883   6.219   3.773   1.449
 8662SOL     OW26884   0.176   0.442   0.957
 8662SOL    HW126885   0.265   0.476   0.986
 8662SOL    HW226886   0.183   0.404   0.865
 8663SOL     OW26887   2.859   5.970   0.715
 8663SOL    HW126888   2.760   5.979   0.712
 8663SOL    HW226889   2.902   6.057   0.691
 8664SOL     OW26890   4.162   5.224   2.052
 8664SOL    HW126891   4.062   5.230   2.045
 8664SOL    HW226892   4.198   5.311   2.087
 8665SOL     OW26893   4.624   5.152   5.493
 8665SOL    HW126894   4.626   5.251   5.497
 8665SOL    HW226895   4.551   5.117   5.551
 8666SOL     OW26896   5.478   3.741   4.372
 8666SOL    HW126897   5.557   3.794   4.402
 8666SOL    HW226898   5.443   3.688   4.449
 8667SOL     OW26899   5.268   1.553   3.253
 8667SOL    HW126900   5.312   1.479   3.203
 8667SOL    HW226901   5.206   1.602   3.191
 8668SOL     OW26902   3.522   1.503   4.277
 8668SOL    HW126903   3.503   1.490   4.374
 8668SOL    HW226904   3.605   1.557   4.265
 8669SOL     OW26905   4.414   0.278   5.647
 8669SOL    HW126906   4.387   0.245   5.557
 8669SOL    HW226907   4.486   0.219   5.684
 8670SOL     OW26908   4.347   4.894   4.003
 8670SOL    HW126909   4.358   4.808   4.053
 8670SOL    HW226910   4.249   4.913   3.990
 8671SOL     OW26911   5.805   6.350   2.815
 8671SOL    HW126912   5.820   6.405   2.896
 8671SOL    HW226913   5.873   6.373   2.745
 8672SOL     OW26914   3.450   4.594   5.307
 8672SOL    HW126915   3.359   4.567   5.275
 8672SOL    HW226916   3.490   4.520   5.361
 8673SOL     OW26917   5.796   2.298   0.784
 8673SOL    HW126918   5.876   2.239   0.793
 8673SOL    HW226919   5.813   2.367   0.714
 8674SOL     OW26920   0.826   0.187   2.583
 8674SOL    HW126921   0.784   0.190   2.674
 8674SOL    HW226922   0.754   0.188   2.514
 8675SOL     OW26923   1.670   2.012   2.714
 8675SOL    HW126924   1.761   1.978   2.737
 8675SOL    HW226925   1.672   2.112   2.714
 8676SOL     OW26926   4.418   6.507   3.748
 8676SOL    HW126927   4.407   6.524   3.846
 8676SOL    HW226928   4.369   6.578   3.697
 8677SOL     OW26929   2.296   4.318   5.187
 8677SOL    HW126930   2.312   4.225   5.152
 8677SOL    HW226931   2.382   4.354   5.224
 8678SOL     OW26932   1.184   0.606   6.105
 8678SOL    HW126933   1.148   0.690   6.064
 8678SOL    HW226934   1.231   0.629   6.191
 8679SOL     OW26935   6.606   2.441   4.801
 8679SOL    HW126936   6.669   2.518   4.794
 8679SOL    HW226937   6.515   2.474   4.825
 8680SOL     OW26938   0.986   3.634   0.504
 8680SOL    HW126939   0.917   3.683   0.556
 8680SOL    HW226940   1.077   3.660   0.536
 8681SOL     OW26941   4.610   3.648   1.099
 8681SOL    HW126942   4.617   3.561   1.050
 8681SOL    HW226943   4.590   3.631   1.195
 8682SOL     OW26944   1.974   5.801   2.607
 8682SOL    HW126945   1.926   5.874   2.655
 8682SOL    HW226946   1.985   5.722   2.667
 8683SOL     OW26947   6.302   3.188   6.251
 8683SOL    HW126948   6.210   3.221   6.273
 8683SOL    HW226949   6.323   3.211   6.156
 8684SOL     OW26950   6.410   2.533   4.317
 8684SOL    HW126951   6.421   2.556   4.414
 8684SOL    HW226952   6.498   2.542   4.271
 8685SOL     OW26953   0.765   2.048   5.220
 8685SOL    HW126954   0.729   2.137   5.191
 8685SOL    HW226955   0.853   2.061   5.267
 8686SOL     OW26956   6.395   2.262   3.175
 8686SOL    HW126957   6.366   2.339   3.118
 8686SOL    HW226958   6.367   2.176   3.132
 8687SOL     OW26959   4.426   0.724   2.790
 8687SOL    HW126960   4.504   0.762   2.739
 8687SOL    HW226961   4.445   0.629   2.813
 8688SOL     OW26962   2.028   0.196   2.367
 8688SOL    HW126963   2.056   0.269   2.305
 8688SOL    HW226964   2.109   0.149   2.401
 8689SOL     OW26965   4.418   5.463   0.773
 8689SOL    HW126966   4.357   5.384   0.773
 8689SOL    HW226967   4.378   5.536   0.717
 8690SOL     OW26968   1.210   1.375   2.864
 8690SOL    HW126969   1.275   1.446   2.841
 8690SOL    HW226970   1.120   1.399   2.828
 8691SOL     OW26971   5.920   1.515   0.869
 8691SOL    HW126972   5.958   1.424   0.880
 8691SOL    HW226973   5.835   1.510   0.816
 8692SOL     OW26974   1.485   1.618   4.287
 8692SOL    HW126975   1.396   1.662   4.275
 8692SOL    HW226976   1.471   1.524   4.319
 8693SOL     OW26977   5.608   2.179   0.131
 8693SOL    HW126978   5.632   2.178   0.228
 8693SOL    HW226979   5.618   2.272   0.096
 8694SOL     OW26980   4.029   6.325   6.038
 8694SOL    HW126981   4.027   6.420   6.070
 8694SOL    HW226982   3.983   6.266   6.105
 8695SOL     OW26983   4.356   3.968   5.349
 8695SOL    HW126984   4.355   3.879   5.303
 8695SOL    HW226985   4.417   3.963   5.428
 8696SOL     OW26986   1.808   5.239   0.862
 8696SOL    HW126987   1.849   5.288   0.939
 8696SOL    HW226988   1.730   5.185   0.895
 8697SOL     OW26989   5.778   4.330   0.566
 8697SOL    HW126990   5.778   4.235   0.534
 8697SOL    HW226991   5.819   4.388   0.495
 8698SOL     OW26992   5.996   5.910   4.208
 8698SOL    HW126993   6.090   5.944   4.205
 8698SOL    HW226994   5.994   5.822   4.256
 8699SOL     OW26995   1.449   1.648   5.599
 8699SOL    HW126996   1.524   1.581   5.598
 8699SOL    HW226997   1.452   1.703   5.516
 8700SOL     OW26998   2.841   1.873   6.157
 8700SOL    HW126999   2.761   1.887   6.098
 8700SOL    HW227000   2.921   1.856   6.100
 8701SOL     OW27001   1.165   2.003   4.156
 8701SOL    HW127002   1.258   2.039   4.151
 8701SOL    HW227003   1.105   2.056   4.095
 8702SOL     OW27004   4.878   5.808   6.989
 8702SOL    HW127005   4.824   5.873   0.020
 8702SOL    HW227006   4.965   5.792   0.012
 8703SOL     OW27007   1.834   5.716   1.171
 8703SOL    HW127008   1.776   5.704   1.252
 8703SOL    HW227009   1.926   5.682   1.189
 8704SOL     OW27010   0.537   4.173   1.610
 8704SOL    HW127011   0.605   4.100   1.617
 8704SOL    HW227012   0.542   4.216   1.520
 8705SOL     OW27013   4.811   6.878   5.254
 8705SOL    HW127014   4.813   6.960   5.196
 8705SOL    HW227015   4.841   6.799   5.200
 8706SOL     OW27016   5.121   2.500   6.797
 8706SOL    HW127017   5.179   2.469   6.722
 8706SOL    HW227018   5.058   2.427   6.823
 8707SOL     OW27019   4.808   2.604   5.764
 8707SOL    HW127020   4.759   2.629   5.847
 8707SOL    HW227021   4.894   2.655   5.761
 8708SOL     OW27022   3.946   1.474   1.087
 8708SOL    HW127023   3.995   1.402   1.040
 8708SOL    HW227024   3.889   1.434   1.159
 8709SOL     OW27025   6.879   3.384   0.902
 8709SOL    HW127026   6.978   3.369   0.901
 8709SOL    HW227027   6.860   3.482   0.898
 8710SOL     OW27028   0.834   3.435   3.386
 8710SOL    HW127029   0.767   3.373   3.343
 8710SOL    HW227030   0.786   3.499   3.445
 8711SOL     OW27031   0.663   1.513   4.119
 8711SOL    HW127032   0.613   1.453   4.182
 8711SOL    HW227033   0.644   1.486   4.025
 8712SOL     OW27034   3.574   1.261   5.692
 8712SOL    HW127035   3.569   1.260   5.592
 8712SOL    HW227036   3.497   1.313   5.729
 8713SOL     OW27037   6.491   4.900   2.906
 8713SOL    HW127038   6.432   4.955   2.965
 8713SOL    HW227039   6.568   4.865   2.959
 8714SOL     OW27040   1.380   1.471   4.884
 8714SOL    HW127041   1.341   1.476   4.975
 8714SOL    HW227042   1.307   1.477   4.816
 8715SOL     OW27043   6.034   1.452   1.590
 8715SOL    HW127044   5.970   1.441   1.514
 8715SOL    HW227045   5.987   1.434   1.676
 8716SOL     OW27046   1.596   1.584   1.679
 8716SOL    HW127047   1.662   1.540   1.618
 8716SOL    HW227048   1.635   1.591   1.771
 8717SOL     OW27049   3.881   3.066   0.849
 8717SOL    HW127050   3.889   2.971   0.819
 8717SOL    HW227051   3.850   3.069   0.944
 8718SOL     OW27052   6.554   2.873   5.663
 8718SOL    HW127053   6.518   2.907   5.750
 8718SOL    HW227054   6.642   2.917   5.643
 8719SOL     OW27055   6.838   0.611   6.167
 8719SOL    HW127056   6.936   0.626   6.159
 8719SOL    HW227057   6.808   0.546   6.097
 8720SOL     OW27058   5.115   3.705   5.683
 8720SOL    HW127059   5.065   3.670   5.763
 8720SOL    HW227060   5.066   3.680   5.600
 8721SOL     OW27061   0.183   2.130   4.633
 8721SOL    HW127062   0.217   2.223   4.616
 8721SOL    HW227063   0.256   2.065   4.613
 8722SOL     OW27064   3.975   2.787   0.554
 8722SOL    HW127065   3.973   2.751   0.648
 8722SOL    HW227066   3.888   2.766   0.509
 8723SOL     OW27067   6.891   4.480   0.155
 8723SOL    HW127068   6.932   4.391   0.136
 8723SOL    HW227069   6.860   4.483   0.250
 8724SOL     OW27070   5.508   6.606   6.664
 8724SOL    HW127071   5.432   6.671   6.655
 8724SOL    HW227072   5.473   6.513   6.664
 8725SOL     OW27073   2.267   5.740   0.982
 8725SOL    HW127074   2.185   5.797   0.979
 8725SOL    HW227075   2.347   5.796   0.963
 8726SOL     OW27076   4.837   0.483   1.163
 8726SOL    HW127077   4.843   0.421   1.241
 8726SOL    HW227078   4.755   0.540   1.172
 8727SOL     OW27079   6.277   5.799   0.952
 8727SOL    HW127080   6.278   5.745   0.868
 8727SOL    HW227081   6.313   5.743   1.027
 8728SOL     OW27082   2.378   6.888   5.590
 8728SOL    HW127083   2.386   6.928   5.499
 8728SOL    HW227084   2.333   6.954   5.651
 8729SOL     OW27085   5.577   6.644   4.674
 8729SOL    HW127086   5.567   6.556   4.721
 8729SOL    HW227087   5.656   6.693   4.710
 8730SOL     OW27088   0.120   6.888   1.607
 8730SOL    HW127089   0.122   6.971   1.551
 8730SOL    HW227090   0.077   6.908   1.695
 8731SOL     OW27091   1.093   2.070   2.756
 8731SOL    HW127092   1.176   2.022   2.729
 8731SOL    HW227093   1.013   2.018   2.728
 8732SOL     OW27094   5.142   4.666   1.573
 8732SOL    HW127095   5.073   4.602   1.541
 8732SOL    HW227096   5.111   4.760   1.556
 8733SOL     OW27097   0.447   6.247   1.453
 8733SOL    HW127098   0.432   6.150   1.438
 8733SOL    HW227099   0.481   6.290   1.369
 8734SOL     OW27100   6.789   4.883   0.476
 8734SOL    HW127101   6.865   4.879   0.410
 8734SOL    HW227102   6.711   4.832   0.440
 8735SOL     OW27103   6.575   2.569   6.689
 8735SOL    HW127104   6.537   2.488   6.734
 8735SOL    HW227105   6.665   2.547   6.650
 8736SOL     OW27106   0.557   5.254   6.714
 8736SOL    HW127107   0.586   5.349   6.705
 8736SOL    HW227108   0.474   5.249   6.769
 8737SOL     OW27109   3.810   5.814   6.148
 8737SOL    HW127110   3.847   5.905   6.134
 8737SOL    HW227111   3.806   5.794   6.246
 8738SOL     OW27112   1.721   3.539   4.655
 8738SOL    HW127113   1.670   3.479   4.594
 8738SOL    HW227114   1.665   3.619   4.678
 8739SOL     OW27115   1.191   2.951   4.965
 8739SOL    HW127116   1.275   2.953   5.021
 8739SOL    HW227117   1.118   2.906   5.017
 8740SOL     OW27118   2.011   6.108   1.556
 8740SOL    HW127119   1.952   6.119   1.636
 8740SOL    HW227120   2.002   6.015   1.520
 8741SOL     OW27121   1.102   3.564   2.231
 8741SOL    HW127122   1.061   3.473   2.235
 8741SOL    HW227123   1.195   3.560   2.269
 8742SOL     OW27124   4.518   6.887   2.066
 8742SOL    HW127125   4.553   6.812   2.010
 8742SOL    HW227126   4.436   6.925   2.023
 8743SOL     OW27127   2.340   4.357   3.466
 8743SOL    HW127128   2.409   4.373   3.537
 8743SOL    HW227129   2.284   4.278   3.491
 8744SOL     OW27130   3.213   2.800   6.141
 8744SOL    HW127131   3.183   2.891   6.169
 8744SOL    HW227132   3.305   2.807   6.101
 8745SOL     OW27133   6.494   1.905   6.682
 8745SOL    HW127134   6.479   1.839   6.757
 8745SOL    HW227135   6.418   1.900   6.617
 8746SOL     OW27136   5.397   4.281   5.276
 8746SOL    HW127137   5.356   4.236   5.197
 8746SOL    HW227138   5.406   4.215   5.351
 8747SOL     OW27139   1.710   2.521   4.129
 8747SOL    HW127140   1.641   2.583   4.165
 8747SOL    HW227141   1.676   2.477   4.047
 8748SOL     OW27142   2.458   0.748   6.511
 8748SOL    HW127143   2.445   0.767   6.413
 8748SOL    HW227144   2.441   0.831   6.564
 8749SOL     OW27145   4.058   1.254   4.003
 8749SOL    HW127146   3.994   1.327   3.976
 8749SOL    HW227147   4.133   1.293   4.057
 8750SOL     OW27148   2.536   0.969   5.202
 8750SOL    HW127149   2.551   0.973   5.103
 8750SOL    HW227150   2.609   1.018   5.249
 8751SOL     OW27151   2.052   0.228   2.751
 8751SOL    HW127152   2.020   0.138   2.780
 8751SOL    HW227153   2.041   0.293   2.827
 8752SOL     OW27154   1.830   2.285   6.487
 8752SOL    HW127155   1.901   2.351   6.459
 8752SOL    HW227156   1.822   2.286   6.587
 8753SOL     OW27157   5.427   1.157   5.133
 8753SOL    HW127158   5.499   1.124   5.194
 8753SOL    HW227159   5.413   1.091   5.059
 8754SOL     OW27160   1.616   0.929   5.688
 8754SOL    HW127161   1.662   0.895   5.769
 8754SOL    HW227162   1.680   0.984   5.634
 8755SOL     OW27163   2.228   1.981   0.517
 8755SOL    HW127164   2.328   1.988   0.508
 8755SOL    HW227165   2.188   2.073   0.520
 8756SOL     OW27166   2.143   3.065   4.186
 8756SOL    HW127167   2.120   2.971   4.210
 8756SOL    HW227168   2.143   3.121   4.269
 8757SOL     OW27169   4.968   5.788   4.032
 8757SOL    HW127170   4.956   5.765   4.129
 8757SOL    HW227171   4.938   5.882   4.016
 8758SOL     OW27172   5.184   6.094   1.974
 8758SOL    HW127173   5.087   6.075   1.959
 8758SOL    HW227174   5.202   6.191   1.958
 8759SOL     OW27175   5.317   0.998   5.844
 8759SOL    HW127176   5.286   1.089   5.818
 8759SOL    HW227177   5.270   0.969   5.928
 8760SOL     OW27178   1.836   2.771   3.672
 8760SOL    HW127179   1.919   2.823   3.694
 8760SOL    HW227180   1.835   2.751   3.574
 8761SOL     OW27181   5.167   6.278   1.000
 8761SOL    HW127182   5.112   6.318   0.928
 8761SOL    HW227183   5.221   6.202   0.963
 8762SOL     OW27184   0.984   3.967   0.054
 8762SOL    HW127185   1.078   3.951   0.083
 8762SOL    HW227186   0.935   3.880   0.052
 8763SOL     OW27187   6.856   6.398   5.514
 8763SOL    HW127188   6.793   6.321   5.503
 8763SOL    HW227189   6.946   6.364   5.539
 8764SOL     OW27190   3.377   2.368   5.413
 8764SOL    HW127191   3.344   2.394   5.322
 8764SOL    HW227192   3.335   2.427   5.481
 8765SOL     OW27193   0.163   0.441   5.316
 8765SOL    HW127194   0.112   0.502   5.255
 8765SOL    HW227195   0.201   0.492   5.392
 8766SOL     OW27196   2.392   4.481   2.473
 8766SOL    HW127197   2.361   4.388   2.454
 8766SOL    HW227198   2.414   4.527   2.387
 8767SOL     OW27199   5.231   1.837   4.821
 8767SOL    HW127200   5.179   1.793   4.748
 8767SOL    HW227201   5.302   1.894   4.781
 8768SOL     OW27202   1.327   4.031   6.740
 8768SOL    HW127203   1.282   4.084   6.812
 8768SOL    HW227204   1.402   4.084   6.702
 8769SOL     OW27205   2.101   0.665   5.528
 8769SOL    HW127206   2.167   0.734   5.559
 8769SOL    HW227207   2.025   0.709   5.480
 8770SOL     OW27208   5.567   2.285   2.368
 8770SOL    HW127209   5.467   2.289   2.373
 8770SOL    HW227210   5.604   2.377   2.381
 8771SOL     OW27211   1.615   2.498   6.368
 8771SOL    HW127212   1.627   2.594   6.392
 8771SOL    HW227213   1.700   2.448   6.387
 8772SOL     OW27214   5.739   6.327   6.765
 8772SOL    HW127215   5.734   6.308   6.863
 8772SOL    HW227216   5.655   6.297   6.721
 8773SOL     OW27217   3.104   2.161   3.665
 8773SOL    HW127218   3.036   2.088   3.671
 8773SOL    HW227219   3.158   2.149   3.582
 8774SOL     OW27220   1.124   1.098   6.908
 8774SOL    HW127221   1.060   1.156   6.857
 8774SOL    HW227222   1.218   1.118   6.877
 8775SOL     OW27223   6.197   0.163   4.409
 8775SOL    HW127224   6.148   0.082   4.379
 8775SOL    HW227225   6.157   0.197   4.494
 8776SOL     OW27226   3.079   3.354   4.560
 8776SOL    HW127227   3.045   3.442   4.527
 8776SOL    HW227228   3.064   3.348   4.659
 8777SOL     OW27229   6.328   5.827   1.975
 8777SOL    HW127230   6.308   5.733   2.006
 8777SOL    HW227231   6.376   5.823   1.887
 8778SOL     OW27232   0.984   2.363   3.239
 8778SOL    HW127233   0.916   2.296   3.212
 8778SOL    HW227234   0.942   2.432   3.297
 8779SOL     OW27235   1.700   4.230   0.614
 8779SOL    HW127236   1.718   4.282   0.697
 8779SOL    HW227237   1.646   4.286   0.551
 8780SOL     OW27238   2.187   5.984   4.042
 8780SOL    HW127239   2.229   6.074   4.033
 8780SOL    HW227240   2.187   5.956   4.138
 8781SOL     OW27241   0.727   2.153   2.622
 8781SOL    HW127242   0.772   2.241   2.607
 8781SOL    HW227243   0.795   2.080   2.616
 8782SOL     OW27244   4.782   1.649   2.752
 8782SOL    HW127245   4.716   1.580   2.780
 8782SOL    HW227246   4.867   1.604   2.725
 8783SOL     OW27247   5.145   2.467   5.554
 8783SOL    HW127248   5.099   2.473   5.643
 8783SOL    HW227249   5.097   2.523   5.487
 8784SOL     OW27250   5.210   4.171   5.727
 8784SOL    HW127251   5.174   4.251   5.776
 8784SOL    HW227252   5.133   4.112   5.700
 8785SOL     OW27253   5.427   4.592   6.441
 8785SOL    HW127254   5.474   4.504   6.447
 8785SOL    HW227255   5.381   4.600   6.353
 8786SOL     OW27256   1.197   6.075   0.926
 8786SOL    HW127257   1.246   6.093   1.011
 8786SOL    HW227258   1.234   6.131   0.853
 8787SOL     OW27259   1.457   2.824   0.656
 8787SOL    HW127260   1.386   2.755   0.669
 8787SOL    HW227261   1.511   2.801   0.575
 8788SOL     OW27262   0.842   1.804   5.548
 8788SOL    HW127263   0.914   1.844   5.491
 8788SOL    HW227264   0.754   1.846   5.525
 8789SOL     OW27265   0.079   6.984   6.794
 8789SOL    HW127266   0.104   6.887   6.798
 8789SOL    HW227267   0.160   0.016   6.774
 8790SOL     OW27268   5.050   1.710   0.160
 8790SOL    HW127269   5.080   1.786   0.102
 8790SOL    HW227270   4.987   1.651   0.109
 8791SOL     OW27271   4.734   6.378   5.607
 8791SOL    HW127272   4.793   6.343   5.535
 8791SOL    HW227273   4.691   6.464   5.577
 8792SOL     OW27274   5.234   0.108   2.997
 8792SOL    HW127275   5.161   0.176   3.004
 8792SOL    HW227276   5.217   0.035   3.064
 8793SOL     OW27277   1.071   4.564   4.239
 8793SOL    HW127278   1.054   4.545   4.143
 8793SOL    HW227279   1.046   4.484   4.294
 8794SOL     OW27280   2.471   6.511   2.715
 8794SOL    HW127281   2.504   6.588   2.660
 8794SOL    HW227282   2.527   6.503   2.797
 8795SOL     OW27283   1.783   6.178   5.474
 8795SOL    HW127284   1.793   6.253   5.409
 8795SOL    HW227285   1.861   6.177   5.537
 8796SOL     OW27286   5.639   2.470   5.267
 8796SOL    HW127287   5.608   2.489   5.361
 8796SOL    HW227288   5.646   2.371   5.254
 8797SOL     OW27289   0.604   6.622   6.852
 8797SOL    HW127290   0.529   6.559   6.871
 8797SOL    HW227291   0.654   6.641   6.936
 8798SOL     OW27292   4.326   3.574   6.063
 8798SOL    HW127293   4.399   3.617   6.008
 8798SOL    HW227294   4.357   3.485   6.095
 8799SOL     OW27295   3.882   6.411   2.331
 8799SOL    HW127296   3.802   6.444   2.281
 8799SOL    HW227297   3.894   6.313   2.315
 8800SOL     OW27298   4.632   5.429   0.170
 8800SOL    HW127299   4.672   5.339   0.157
 8800SOL    HW227300   4.704   5.499   0.162
 8801SOL     OW27301   3.074   6.962   4.996
 8801SOL    HW127302   3.164   6.943   5.035
 8801SOL    HW227303   3.062   6.909   4.912
 8802SOL     OW27304   2.527   0.181   2.114
 8802SOL    HW127305   2.623   0.185   2.087
 8802SOL    HW227306   2.515   0.229   2.201
 8803SOL     OW27307   3.657   6.089   0.541
 8803SOL    HW127308   3.629   6.007   0.591
 8803SOL    HW227309   3.734   6.068   0.481
 8804SOL     OW27310   3.730   0.417   1.003
 8804SOL    HW127311   3.805   0.482   0.997
 8804SOL    HW227312   3.686   0.409   0.914
 8805SOL     OW27313   0.408   0.095   3.067
 8805SOL    HW127314   0.372   0.166   3.129
 8805SOL    HW227315   0.375   0.113   2.974
 8806SOL     OW27316   2.273   5.090   0.261
 8806SOL    HW127317   2.206   5.015   0.259
 8806SOL    HW227318   2.353   5.064   0.207
 8807SOL     OW27319   1.623   6.467   5.982
 8807SOL    HW127320   1.544   6.502   5.931
 8807SOL    HW227321   1.666   6.393   5.930
 8808SOL     OW27322   5.985   1.221   0.912
 8808SOL    HW127323   6.028   1.132   0.928
 8808SOL    HW227324   5.934   1.248   0.994
 8809SOL     OW27325   6.359   4.124   1.048
 8809SOL    HW127326   6.317   4.034   1.041
 8809SOL    HW227327   6.457   4.114   1.068
 8810SOL     OW27328   4.939   1.253   3.588
 8810SOL    HW127329   5.014   1.227   3.527
 8810SOL    HW227330   4.943   1.352   3.604
 8811SOL     OW27331   0.979   1.588   4.094
 8811SOL    HW127332   1.046   1.526   4.134
 8811SOL    HW227333   0.887   1.554   4.113
 8812SOL     OW27334   1.899   0.631   0.753
 8812SOL    HW127335   1.832   0.627   0.679
 8812SOL    HW227336   1.991   0.613   0.717
 8813SOL     OW27337   1.404   5.326   0.968
 8813SOL    HW127338   1.446   5.393   0.907
 8813SOL    HW227339   1.469   5.252   0.986
 8814SOL     OW27340   5.447   6.747   0.406
 8814SOL    HW127341   5.380   6.677   0.432
 8814SOL    HW227342   5.400   6.834   0.389
 8815SOL     OW27343   0.251   6.107   2.822
 8815SOL    HW127344   0.218   6.038   2.757
 8815SOL    HW227345   0.304   6.176   2.772
 8816SOL     OW27346   1.043   6.136   1.998
 8816SOL    HW127347   1.142   6.141   1.982
 8816SOL    HW227348   1.007   6.054   1.954
 8817SOL     OW27349   2.529   4.368   5.330
 8817SOL    HW127350   2.514   4.467   5.326
 8817SOL    HW227351   2.625   4.349   5.310
 8818SOL     OW27352   0.065   5.376   4.718
 8818SOL    HW127353   0.033   5.289   4.681
 8818SOL    HW227354   0.129   5.360   4.793
 8819SOL     OW27355   5.333   0.551   4.234
 8819SOL    HW127356   5.304   0.628   4.291
 8819SOL    HW227357   5.387   0.586   4.157
 8820SOL     OW27358   1.697   3.023   4.192
 8820SOL    HW127359   1.737   2.951   4.249
 8820SOL    HW227360   1.711   3.112   4.236
 8821SOL     OW27361   1.909   0.743   6.303
 8821SOL    HW127362   1.848   0.805   6.254
 8821SOL    HW227363   1.983   0.714   6.243
 8822SOL     OW27364   0.670   1.803   4.171
 8822SOL    HW127365   0.658   1.706   4.151
 8822SOL    HW227366   0.736   1.842   4.107
 8823SOL     OW27367   2.654   5.204   1.978
 8823SOL    HW127368   2.713   5.144   2.031
 8823SOL    HW227369   2.627   5.283   2.034
 8824SOL     OW27370   4.329   3.707   0.603
 8824SOL    HW127371   4.254   3.753   0.650
 8824SOL    HW227372   4.417   3.736   0.642
 8825SOL     OW27373   1.600   2.615   1.522
 8825SOL    HW127374   1.536   2.588   1.450
 8825SOL    HW227375   1.570   2.700   1.565
 8826SOL     OW27376   5.707   0.820   6.941
 8826SOL    HW127377   5.677   0.796   0.011
 8826SOL    HW227378   5.783   0.760   6.914
 8827SOL     OW27379   0.903   1.471   3.504
 8827SOL    HW127380   0.894   1.493   3.601
 8827SOL    HW227381   0.942   1.549   3.455
 8828SOL     OW27382   1.494   6.137   2.735
 8828SOL    HW127383   1.436   6.118   2.656
 8828SOL    HW227384   1.537   6.226   2.724
 8829SOL     OW27385   0.784   1.733   0.014
 8829SOL    HW127386   0.747   1.820   7.003
 8829SOL    HW227387   0.739   1.709   0.100
 8830SOL     OW27388   0.651   1.715   0.764
 8830SOL    HW127389   0.626   1.782   0.834
 8830SOL    HW227390   0.718   1.755   0.701
 8831SOL     OW27391   6.972   0.863   2.706
 8831SOL    HW127392   0.042   0.897   2.721
 8831SOL    HW227393   6.907   0.938   2.715
 8832SOL     OW27394   0.036   0.809   2.448
 8832SOL    HW127395   6.978   0.849   2.404
 8832SOL    HW227396   0.024   0.810   2.547
 8833SOL     OW27397   1.999   4.705   3.427
 8833SOL    HW127398   2.017   4.612   3.394
 8833SOL    HW227399   1.944   4.754   3.359
 8834SOL     OW27400   5.802   3.940   4.188
 8834SOL    HW127401   5.794   3.857   4.134
 8834SOL    HW227402   5.733   4.006   4.159
 8835SOL     OW27403   0.372   6.867   6.266
 8835SOL    HW127404   0.459   6.833   6.232
 8835SOL    HW227405   0.352   6.955   6.224
 8836SOL     OW27406   4.950   1.788   1.287
 8836SOL    HW127407   4.935   1.703   1.237
 8836SOL    HW227408   4.903   1.783   1.376
 8837SOL     OW27409   1.185   2.012   2.198
 8837SOL    HW127410   1.262   2.040   2.255
 8837SOL    HW227411   1.100   2.020   2.250
 8838SOL     OW27412   2.163   5.848   3.818
 8838SOL    HW127413   2.075   5.874   3.779
 8838SOL    HW227414   2.182   5.905   3.898
 8839SOL     OW27415   5.854   6.918   4.183
 8839SOL    HW127416   5.864   6.863   4.099
 8839SOL    HW227417   5.766   6.965   4.181
 8840SOL     OW27418   5.003   1.385   2.379
 8840SOL    HW127419   5.050   1.473   2.369
 8840SOL    HW227420   5.030   1.324   2.304
 8841SOL     OW27421   1.748   0.202   4.116
 8841SOL    HW127422   1.843   0.181   4.094
 8841SOL    HW227423   1.726   0.167   4.207
 8842SOL     OW27424   1.770   2.672   2.102
 8842SOL    HW127425   1.776   2.710   2.009
 8842SOL    HW227426   1.853   2.695   2.153
 8843SOL     OW27427   0.471   3.306   4.641
 8843SOL    HW127428   0.374   3.330   4.629
 8843SOL    HW227429   0.495   3.232   4.578
 8844SOL     OW27430   5.826   1.327   6.132
 8844SOL    HW127431   5.793   1.302   6.041
 8844SOL    HW227432   5.866   1.246   6.176
 8845SOL     OW27433   5.611   3.697   6.523
 8845SOL    HW127434   5.518   3.722   6.495
 8845SOL    HW227435   5.612   3.600   6.549
 8846SOL     OW27436   2.543   4.984   3.261
 8846SOL    HW127437   2.449   5.007   3.285
 8846SOL    HW227438   2.603   5.003   3.338
 8847SOL     OW27439   1.880   1.030   2.490
 8847SOL    HW127440   1.907   0.934   2.501
 8847SOL    HW227441   1.825   1.040   2.407
 8848SOL     OW27442   1.305   0.094   2.805
 8848SOL    HW127443   1.348   0.026   2.865
 8848SOL    HW227444   1.207   0.076   2.798
 8849SOL     OW27445   2.565   6.685   1.159
 8849SOL    HW127446   2.530   6.611   1.217
 8849SOL    HW227447   2.635   6.736   1.208
 8850SOL     OW27448   2.614   2.493   0.011
 8850SOL    HW127449   2.608   2.415   6.972
 8850SOL    HW227450   2.614   2.578   6.980
 8851SOL     OW27451   1.805   3.419   2.583
 8851SOL    HW127452   1.793   3.481   2.661
 8851SOL    HW227453   1.776   3.327   2.609
 8852SOL     OW27454   1.246   2.284   5.620
 8852SOL    HW127455   1.193   2.219   5.675
 8852SOL    HW227456   1.199   2.372   5.617
 8853SOL     OW27457   5.291   0.897   1.605
 8853SOL    HW127458   5.223   0.953   1.557
 8853SOL    HW227459   5.339   0.839   1.538
 8854SOL     OW27460   1.018   2.256   4.854
 8854SOL    HW127461   1.021   2.312   4.937
 8854SOL    HW227462   1.008   2.316   4.774
 8855SOL     OW27463   5.192   5.150   1.331
 8855SOL    HW127464   5.097   5.182   1.338
 8855SOL    HW227465   5.236   5.196   1.254
 8856SOL     OW27466   6.371   1.020   5.726
 8856SOL    HW127467   6.444   0.957   5.752
 8856SOL    HW227468   6.350   1.080   5.803
 8857SOL     OW27469   6.455   2.125   6.116
 8857SOL    HW127470   6.399   2.106   6.035
 8857SOL    HW227471   6.451   2.223   6.137
 8858SOL     OW27472   6.598   6.108   4.881
 8858SOL    HW127473   6.531   6.161   4.934
 8858SOL    HW227474   6.557   6.023   4.850
 8859SOL     OW27475   0.676   6.054   3.417
 8859SOL    HW127476   0.633   6.090   3.500
 8859SOL    HW227477   0.730   6.126   3.374
 8860SOL     OW27478   6.975   4.053   2.867
 8860SOL    HW127479   0.041   4.063   2.821
 8860SOL    HW227480   6.904   4.099   2.813
 8861SOL     OW27481   3.595   2.899   1.647
 8861SOL    HW127482   3.584   2.995   1.620
 8861SOL    HW227483   3.650   2.895   1.731
 8862SOL     OW27484   4.564   4.596   4.783
 8862SOL    HW127485   4.496   4.557   4.845
 8862SOL    HW227486   4.584   4.530   4.711
 8863SOL     OW27487   1.803   3.653   3.210
 8863SOL    HW127488   1.742   3.588   3.255
 8863SOL    HW227489   1.898   3.621   3.218
 8864SOL     OW27490   6.633   2.382   5.643
 8864SOL    HW127491   6.595   2.474   5.636
 8864SOL    HW227492   6.624   2.350   5.738
 8865SOL     OW27493   3.141   1.748   0.629
 8865SOL    HW127494   3.053   1.749   0.581
 8865SOL    HW227495   3.127   1.720   0.724
 8866SOL     OW27496   5.749   6.515   2.010
 8866SOL    HW127497   5.655   6.506   1.976
 8866SOL    HW227498   5.756   6.472   2.100
 8867SOL     OW27499   6.398   3.124   2.710
 8867SOL    HW127500   6.472   3.106   2.645
 8867SOL    HW227501   6.319   3.161   2.661
 8868SOL     OW27502   0.092   3.765   3.886
 8868SOL    HW127503   0.073   3.762   3.984
 8868SOL    HW227504   0.136   3.851   3.862
 8869SOL     OW27505   4.241   0.079   3.453
 8869SOL    HW127506   4.174   0.151   3.435
 8869SOL    HW227507   4.205   7.014   3.420
 8870SOL     OW27508   1.451   0.645   2.192
 8870SOL    HW127509   1.450   0.547   2.211
 8870SOL    HW227510   1.397   0.664   2.110
 8871SOL     OW27511   6.937   0.498   1.879
 8871SOL    HW127512   6.978   0.460   1.962
 8871SOL    HW227513   7.009   0.518   1.813
 8872SOL     OW27514   6.967   4.103   3.807
 8872SOL    HW127515   6.968   4.196   3.770
 8872SOL    HW227516   0.031   4.058   3.784
 8873SOL     OW27517   2.549   2.084   2.472
 8873SOL    HW127518   2.529   2.118   2.381
 8873SOL    HW227519   2.468   2.092   2.530
 8874SOL     OW27520   2.495   6.363   0.138
 8874SOL    HW127521   2.583   6.325   0.165
 8874SOL    HW227522   2.481   6.451   0.184
 8875SOL     OW27523   6.742   3.202   4.295
 8875SOL    HW127524   6.728   3.300   4.279
 8875SOL    HW227525   6.839   3.185   4.309
 8876SOL     OW27526   5.047   6.951   6.817
 8876SOL    HW127527   5.055   0.001   6.886
 8876SOL    HW227528   5.136   6.907   6.806
 8877SOL     OW27529   1.392   4.970   1.082
 8877SOL    HW127530   1.363   4.956   0.987
 8877SOL    HW227531   1.316   4.949   1.143
 8878SOL     OW27532   5.052   4.040   1.405
 8878SOL    HW127533   4.965   4.051   1.357
 8878SOL    HW227534   5.065   4.116   1.468
 8879SOL     OW27535   6.820   4.211   2.717
 8879SOL    HW127536   6.784   4.220   2.624
 8879SOL    HW227537   6.750   4.237   2.783
 8880SOL     OW27538   4.091   1.940   3.125
 8880SOL    HW127539   4.031   2.020   3.111
 8880SOL    HW227540   4.105   1.926   3.223
 8881SOL     OW27541   4.004   4.798   3.288
 8881SOL    HW127542   4.099   4.768   3.303
 8881SOL    HW227543   3.979   4.779   3.193
 8882SOL     OW27544   3.957   0.400   0.507
 8882SOL    HW127545   3.981   0.446   0.593
 8882SOL    HW227546   4.014   0.436   0.433
 8883SOL     OW27547   6.956   6.527   3.797
 8883SOL    HW127548   6.907   6.443   3.774
 8883SOL    HW227549   6.898   6.585   3.855
 8884SOL     OW27550   4.977   3.065   5.452
 8884SOL    HW127551   4.891   3.051   5.402
 8884SOL    HW227552   5.047   3.003   5.417
 8885SOL     OW27553   5.922   5.992   0.698
 8885SOL    HW127554   5.862   5.967   0.622
 8885SOL    HW227555   5.872   5.979   0.784
 8886SOL     OW27556   3.914   5.944   6.550
 8886SOL    HW127557   3.999   5.895   6.531
 8886SOL    HW227558   3.910   5.968   6.647
 8887SOL     OW27559   4.179   0.452   1.814
 8887SOL    HW127560   4.169   0.374   1.752
 8887SOL    HW227561   4.249   0.514   1.779
 8888SOL     OW27562   3.351   1.745   2.375
 8888SOL    HW127563   3.266   1.753   2.323
 8888SOL    HW227564   3.427   1.727   2.313
 8889SOL     OW27565   1.741   5.218   6.991
 8889SOL    HW127566   1.761   5.207   6.894
 8889SOL    HW227567   1.642   5.222   7.005
 8890SOL     OW27568   1.147   6.609   0.204
 8890SOL    HW127569   1.098   6.536   0.253
 8890SOL    HW227570   1.121   6.608   0.108
 8891SOL     OW27571   5.985   4.043   5.598
 8891SOL    HW127572   6.033   3.995   5.525
 8891SOL    HW227573   6.027   4.133   5.612
 8892SOL     OW27574   2.679   5.184   5.096
 8892SOL    HW127575   2.661   5.116   5.167
 8892SOL    HW227576   2.676   5.140   5.006
 8893SOL     OW27577   1.313   5.289   5.462
 8893SOL    HW127578   1.224   5.255   5.492
 8893SOL    HW227579   1.338   5.245   5.376
 8894SOL     OW27580   5.013   1.509   1.852
 8894SOL    HW127581   5.069   1.578   1.806
 8894SOL    HW227582   5.011   1.527   1.950
 8895SOL     OW27583   6.621   3.274   0.914
 8895SOL    HW127584   6.712   3.311   0.930
 8895SOL    HW227585   6.554   3.348   0.909
 8896SOL     OW27586   0.610   2.180   3.354
 8896SOL    HW127587   0.629   2.245   3.428
 8896SOL    HW227588   0.671   2.199   3.277
 8897SOL     OW27589   1.901   5.449   3.939
 8897SOL    HW127590   1.971   5.381   3.913
 8897SOL    HW227591   1.818   5.402   3.967
 8898SOL     OW27592   4.941   3.712   2.667
 8898SOL    HW127593   4.911   3.678   2.756
 8898SOL    HW227594   4.953   3.636   2.604
 8899SOL     OW27595   1.536   3.568   2.997
 8899SOL    HW127596   1.625   3.541   3.033
 8899SOL    HW227597   1.467   3.556   3.068
 8900SOL     OW27598   4.661   1.942   4.328
 8900SOL    HW127599   4.594   1.965   4.257
 8900SOL    HW227600   4.671   1.842   4.333
 8901SOL     OW27601   1.464   5.319   4.322
 8901SOL    HW127602   1.372   5.328   4.358
 8901SOL    HW227603   1.509   5.240   4.363
 8902SOL     OW27604   0.529   4.511   0.324
 8902SOL    HW127605   0.514   4.610   0.320
 8902SOL    HW227606   0.605   4.487   0.264
 8903SOL     OW27607   1.211   7.011   5.697
 8903SOL    HW127608   1.310   6.998   5.697
 8903SOL    HW227609   1.190   0.086   5.690
 8904SOL     OW27610   0.732   1.267   3.668
 8904SOL    HW127611   0.739   1.215   3.582
 8904SOL    HW227612   0.778   1.355   3.658
 8905SOL     OW27613   1.292   3.952   2.958
 8905SOL    HW127614   1.258   3.920   3.046
 8905SOL    HW227615   1.339   3.877   2.911
 8906SOL     OW27616   5.973   0.027   0.153
 8906SOL    HW127617   5.945   0.119   0.124
 8906SOL    HW227618   6.052   7.021   0.100
 8907SOL     OW27619   3.106   2.998   5.118
 8907SOL    HW127620   3.056   3.013   5.033
 8907SOL    HW227621   3.052   3.032   5.195
 8908SOL     OW27622   1.270   4.323   6.626
 8908SOL    HW127623   1.209   4.398   6.651
 8908SOL    HW227624   1.247   4.290   6.534
 8909SOL     OW27625   1.672   5.780   1.418
 8909SOL    HW127626   1.642   5.866   1.376
 8909SOL    HW227627   1.615   5.705   1.385
 8910SOL     OW27628   1.163   0.418   3.578
 8910SOL    HW127629   1.235   0.484   3.555
 8910SOL    HW227630   1.079   0.466   3.601
 8911SOL     OW27631   4.317   2.327   4.545
 8911SOL    HW127632   4.319   2.336   4.645
 8911SOL    HW227633   4.352   2.238   4.519
 8912SOL     OW27634   3.421   3.647   3.893
 8912SOL    HW127635   3.361   3.589   3.838
 8912SOL    HW227636   3.375   3.733   3.913
 8913SOL     OW27637   5.306   5.938   0.665
 8913SOL    HW127638   5.399   5.975   0.676
 8913SOL    HW227639   5.243   6.014   0.648
 8914SOL     OW27640   4.912   5.320   5.672
 8914SOL    HW127641   4.925   5.311   5.573
 8914SOL    HW227642   4.840   5.257   5.702
 8915SOL     OW27643   1.557   1.418   2.558
 8915SOL    HW127644   1.618   1.447   2.484
 8915SOL    HW227645   1.593   1.334   2.599
 8916SOL     OW27646   5.086   1.125   1.184
 8916SOL    HW127647   5.120   1.204   1.235
 8916SOL    HW227648   4.996   1.146   1.146
 8917SOL     OW27649   6.052   1.698   0.373
 8917SOL    HW127650   5.982   1.716   0.304
 8917SOL    HW227651   6.065   1.779   0.430
 8918SOL     OW27652   0.931   3.493   2.544
 8918SOL    HW127653   0.874   3.514   2.624
 8918SOL    HW227654   0.888   3.530   2.462
 8919SOL     OW27655   6.267   2.964   1.524
 8919SOL    HW127656   6.328   2.993   1.597
 8919SOL    HW227657   6.321   2.927   1.448
 8920SOL     OW27658   6.904   0.761   6.947
 8920SOL    HW127659   6.938   0.840   6.897
 8920SOL    HW227660   6.970   0.686   6.942
 8921SOL     OW27661   1.396   3.204   2.307
 8921SOL    HW127662   1.351   3.122   2.272
 8921SOL    HW227663   1.337   3.246   2.377
 8922SOL     OW27664   4.612   5.421   3.753
 8922SOL    HW127665   4.677   5.365   3.701
 8922SOL    HW227666   4.534   5.364   3.780
 8923SOL     OW27667   2.541   1.670   4.567
 8923SOL    HW127668   2.609   1.665   4.494
 8923SOL    HW227669   2.571   1.615   4.645
 8924SOL     OW27670   6.368   5.068   5.111
 8924SOL    HW127671   6.353   4.975   5.077
 8924SOL    HW227672   6.429   5.116   5.049
 8925SOL     OW27673   0.905   6.440   2.685
 8925SOL    HW127674   0.806   6.446   2.691
 8925SOL    HW227675   0.934   6.449   2.590
 8926SOL     OW27676   6.048   0.937   6.686
 8926SOL    HW127677   5.967   0.953   6.742
 8926SOL    HW227678   6.050   0.842   6.657
 8927SOL     OW27679   1.496   0.575   5.946
 8927SOL    HW127680   1.574   0.580   6.009
 8927SOL    HW227681   1.530   0.571   5.852
 8928SOL     OW27682   0.886   6.652   5.529
 8928SOL    HW127683   0.969   6.684   5.574
 8928SOL    HW227684   0.807   6.703   5.564
 8929SOL     OW27685   7.001   1.604   3.696
 8929SOL    HW127686   6.919   1.573   3.743
 8929SOL    HW227687   0.012   1.532   3.636
 8930SOL     OW27688   2.068   4.620   3.802
 8930SOL    HW127689   2.153   4.617   3.749
 8930SOL    HW227690   2.034   4.527   3.815
 8931SOL     OW27691   4.230   3.240   0.209
 8931SOL    HW127692   4.256   3.248   0.112
 8931SOL    HW227693   4.302   3.280   0.266
 8932SOL     OW27694   1.270   3.650   3.756
 8932SOL    HW127695   1.322   3.733   3.777
 8932SOL    HW227696   1.279   3.629   3.659
 8933SOL     OW27697   4.128   1.999   5.532
 8933SOL    HW127698   4.194   2.035   5.598
 8933SOL    HW227699   4.161   1.912   5.495
 8934SOL     OW27700   2.517   6.039   2.765
 8934SOL    HW127701   2.583   6.001   2.700
 8934SOL    HW227702   2.546   6.016   2.858
 8935SOL     OW27703   0.004   4.627   0.469
 8935SOL    HW127704   6.941   4.574   0.465
 8935SOL    HW227705   7.020   4.704   0.406
 8936SOL     OW27706   4.128   2.504   0.464
 8936SOL    HW127707   4.073   2.560   0.527
 8936SOL    HW227708   4.079   2.492   0.378
 8937SOL     OW27709   0.582   6.666   6.423
 8937SOL    HW127710   0.608   6.750   6.471
 8937SOL    HW227711   0.484   6.649   6.435
 8938SOL     OW27712   5.022   6.393   1.506
 8938SOL    HW127713   5.045   6.313   1.450
 8938SOL    HW227714   5.017   6.365   1.602
 8939SOL     OW27715   4.264   1.813   5.084
 8939SOL    HW127716   4.318   1.843   5.163
 8939SOL    HW227717   4.292   1.864   5.003
 8940SOL     OW27718   5.685   7.004   2.455
 8940SOL    HW127719   5.718   0.070   2.423
 8940SOL    HW227720   5.761   6.953   2.496
 8941SOL     OW27721   4.751   1.537   6.302
 8941SOL    HW127722   4.799   1.518   6.387
 8941SOL    HW227723   4.814   1.526   6.225
 8942SOL     OW27724   1.133   2.970   5.315
 8942SOL    HW127725   1.151   2.872   5.327
 8942SOL    HW227726   1.210   3.013   5.269
 8943SOL     OW27727   5.130   3.261   0.995
 8943SOL    HW127728   5.212   3.241   0.941
 8943SOL    HW227729   5.157   3.293   1.086
 8944SOL     OW27730   4.423   5.477   1.470
 8944SOL    HW127731   4.404   5.575   1.466
 8944SOL    HW227732   4.347   5.427   1.427
 8945SOL     OW27733   1.572   0.956   4.865
 8945SOL    HW127734   1.536   1.047   4.847
 8945SOL    HW227735   1.666   0.949   4.832
 8946SOL     OW27736   3.967   1.684   4.701
 8946SOL    HW127737   4.065   1.672   4.720
 8946SOL    HW227738   3.924   1.728   4.779
 8947SOL     OW27739   3.695   4.119   4.983
 8947SOL    HW127740   3.697   4.151   5.077
 8947SOL    HW227741   3.787   4.090   4.955
 8948SOL     OW27742   6.191   5.057   2.707
 8948SOL    HW127743   6.132   5.086   2.783
 8948SOL    HW227744   6.251   5.132   2.681
 8949SOL     OW27745   2.440   5.221   6.582
 8949SOL    HW127746   2.443   5.317   6.611
 8949SOL    HW227747   2.532   5.192   6.555
 8950SOL     OW27748   4.768   2.346   4.751
 8950SOL    HW127749   4.851   2.290   4.741
 8950SOL    HW227750   4.794   2.442   4.761
 8951SOL     OW27751   2.390   2.198   5.696
 8951SOL    HW127752   2.358   2.284   5.656
 8951SOL    HW227753   2.486   2.184   5.673
 8952SOL     OW27754   6.672   0.102   3.241
 8952SOL    HW127755   6.651   0.184   3.187
 8952SOL    HW227756   6.598   0.085   3.305
 8953SOL     OW27757   1.561   4.637   6.584
 8953SOL    HW127758   1.479   4.656   6.530
 8953SOL    HW227759   1.543   4.561   6.647
 8954SOL     OW27760   1.629   5.970   5.787
 8954SOL    HW127761   1.699   5.962   5.717
 8954SOL    HW227762   1.542   5.996   5.745
 8955SOL     OW27763   6.068   3.738   4.042
 8955SOL    HW127764   5.972   3.764   4.041
 8955SOL    HW227765   6.077   3.642   4.070
 8956SOL     OW27766   1.168   0.931   5.226
 8956SOL    HW127767   1.072   0.957   5.230
 8956SOL    HW227768   1.224   1.000   5.273
 8957SOL     OW27769   2.579   5.389   2.186
 8957SOL    HW127770   2.497   5.404   2.241
 8957SOL    HW227771   2.624   5.477   2.169
 8958SOL     OW27772   2.078   1.042   4.171
 8958SOL    HW127773   2.104   1.098   4.092
 8958SOL    HW227774   2.103   1.090   4.255
 8959SOL     OW27775   2.999   4.769   0.802
 8959SOL    HW127776   3.075   4.809   0.749
 8959SOL    HW227777   2.923   4.833   0.803
 8960SOL     OW27778   4.147   6.185   1.221
 8960SOL    HW127779   4.096   6.268   1.197
 8960SOL    HW227780   4.204   6.157   1.144
 8961SOL     OW27781   1.869   2.437   3.791
 8961SOL    HW127782   1.853   2.347   3.832
 8961SOL    HW227783   1.807   2.451   3.715
 8962SOL     OW27784   5.087   0.361   3.575
 8962SOL    HW127785   4.991   0.389   3.576
 8962SOL    HW227786   5.138   0.414   3.642
 8963SOL     OW27787   0.054   0.955   3.361
 8963SOL    HW127788   0.035   0.997   3.272
 8963SOL    HW227789   7.018   0.997   3.431
 8964SOL     OW27790   6.658   4.181   2.953
 8964SOL    HW127791   6.656   4.101   3.013
 8964SOL    HW227792   6.693   4.260   3.004
 8965SOL     OW27793   1.424   5.430   1.637
 8965SOL    HW127794   1.478   5.503   1.679
 8965SOL    HW227795   1.327   5.447   1.651
 8966SOL     OW27796   3.179   2.823   5.465
 8966SOL    HW127797   3.082   2.816   5.445
 8966SOL    HW227798   3.227   2.746   5.422
 8967SOL     OW27799   4.521   0.031   0.645
 8967SOL    HW127800   4.532   6.984   0.574
 8967SOL    HW227801   4.434   0.078   0.633
 8968SOL     OW27802   5.019   5.124   2.685
 8968SOL    HW127803   5.097   5.067   2.661
 8968SOL    HW227804   5.014   5.134   2.785
 8969SOL     OW27805   6.375   1.105   4.429
 8969SOL    HW127806   6.419   1.154   4.354
 8969SOL    HW227807   6.290   1.064   4.397
 8970SOL     OW27808   3.700   2.296   1.283
 8970SOL    HW127809   3.630   2.318   1.215
 8970SOL    HW227810   3.775   2.246   1.239
 8971SOL     OW27811   4.362   6.238   3.156
 8971SOL    HW127812   4.364   6.156   3.212
 8971SOL    HW227813   4.346   6.213   3.060
 8972SOL     OW27814   5.262   0.887   4.613
 8972SOL    HW127815   5.342   0.943   4.594
 8972SOL    HW227816   5.272   0.843   4.703
 8973SOL     OW27817   1.702   4.682   0.314
 8973SOL    HW127818   1.758   4.744   0.258
 8973SOL    HW227819   1.613   4.723   0.331
 8974SOL     OW27820   0.481   2.722   3.738
 8974SOL    HW127821   0.435   2.802   3.776
 8974SOL    HW227822   0.499   2.656   3.811
 8975SOL     OW27823   3.017   6.950   6.852
 8975SOL    HW127824   2.980   6.868   6.896
 8975SOL    HW227825   3.044   6.928   6.758
 8976SOL     OW27826   0.501   4.937   4.653
 8976SOL    HW127827   0.568   4.978   4.715
 8976SOL    HW227828   0.426   5.001   4.638
 8977SOL     OW27829   5.636   1.109   6.257
 8977SOL    HW127830   5.724   1.106   6.304
 8977SOL    HW227831   5.590   1.020   6.267
 8978SOL     OW27832   5.767   5.940   1.026
 8978SOL    HW127833   5.667   5.941   1.028
 8978SOL    HW227834   5.801   5.852   1.057
 8979SOL     OW27835   1.788   5.133   5.019
 8979SOL    HW127836   1.869   5.188   5.036
 8979SOL    HW227837   1.709   5.174   5.065
 8980SOL     OW27838   3.727   3.222   4.331
 8980SOL    HW127839   3.739   3.320   4.314
 8980SOL    HW227840   3.691   3.208   4.423
 8981SOL     OW27841   2.948   0.892   5.454
 8981SOL    HW127842   2.883   0.932   5.389
 8981SOL    HW227843   2.934   0.932   5.544
 8982SOL     OW27844   4.379   4.436   0.177
 8982SOL    HW127845   4.328   4.518   0.202
 8982SOL    HW227846   4.334   4.356   0.216
 8983SOL     OW27847   5.314   5.271   0.625
 8983SOL    HW127848   5.254   5.228   0.692
 8983SOL    HW227849   5.369   5.342   0.669
 8984SOL     OW27850   1.393   6.680   3.176
 8984SOL    HW127851   1.407   6.728   3.263
 8984SOL    HW227852   1.480   6.671   3.129
 8985SOL     OW27853   3.536   2.848   5.674
 8985SOL    HW127854   3.573   2.889   5.757
 8985SOL    HW227855   3.603   2.856   5.600
 8986SOL     OW27856   3.672   6.291   2.626
 8986SOL    HW127857   3.578   6.258   2.616
 8986SOL    HW227858   3.734   6.228   2.580
 8987SOL     OW27859   5.267   6.263   1.712
 8987SOL    HW127860   5.178   6.227   1.687
 8987SOL    HW227861   5.336   6.230   1.647
 8988SOL     OW27862   0.962   5.717   5.466
 8988SOL    HW127863   1.014   5.684   5.388
 8988SOL    HW227864   0.883   5.657   5.481
 8989SOL     OW27865   3.127   3.287   6.804
 8989SOL    HW127866   3.149   3.314   6.898
 8989SOL    HW227867   3.102   3.190   6.802
 8990SOL     OW27868   0.315   6.628   3.534
 8990SOL    HW127869   0.365   6.669   3.457
 8990SOL    HW227870   0.217   6.636   3.518
 8991SOL     OW27871   1.291   2.063   5.360
 8991SOL    HW127872   1.355   2.090   5.288
 8991SOL    HW227873   1.326   2.092   5.448
 8992SOL     OW27874   6.202   2.496   0.452
 8992SOL    HW127875   6.281   2.451   0.409
 8992SOL    HW227876   6.197   2.591   0.420
 8993SOL     OW27877   4.824   2.628   0.489
 8993SOL    HW127878   4.792   2.700   0.552
 8993SOL    HW227879   4.754   2.611   0.420
 8994SOL     OW27880   1.665   6.034   4.049
 8994SOL    HW127881   1.748   6.058   4.098
 8994SOL    HW227882   1.590   6.021   4.114
 8995SOL     OW27883   0.213   0.815   0.688
 8995SOL    HW127884   0.156   0.738   0.662
 8995SOL    HW227885   0.232   0.872   0.608
 8996SOL     OW27886   4.633   5.724   5.745
 8996SOL    HW127887   4.611   5.773   5.829
 8996SOL    HW227888   4.731   5.704   5.743
 8997SOL     OW27889   6.355   0.658   5.011
 8997SOL    HW127890   6.276   0.716   5.032
 8997SOL    HW227891   6.323   0.572   4.972
 8998SOL     OW27892   6.212   3.155   4.570
 8998SOL    HW127893   6.309   3.178   4.578
 8998SOL    HW227894   6.203   3.061   4.535
 8999SOL     OW27895   3.882   6.735   5.752
 8999SOL    HW127896   3.786   6.712   5.765
 8999SOL    HW227897   3.894   6.834   5.758
 9000SOL     OW27898   1.508   4.212   1.003
 9000SOL    HW127899   1.602   4.225   1.035
 9000SOL    HW227900   1.477   4.120   1.025
 9001SOL     OW27901   1.014   5.783   2.601
 9001SOL    HW127902   0.923   5.741   2.598
 9001SOL    HW227903   1.084   5.715   2.580
 9002SOL     OW27904   1.069   4.396   0.198
 9002SOL    HW127905   1.006   4.376   0.122
 9002SOL    HW227906   1.163   4.397   0.164
 9003SOL     OW27907   5.536   0.490   0.935
 9003SOL    HW127908   5.509   0.536   1.019
 9003SOL    HW227909   5.632   0.507   0.917
 9004SOL     OW27910   4.213   4.635   6.810
 9004SOL    HW127911   4.299   4.634   6.862
 9004SOL    HW227912   4.161   4.717   6.833
 9005SOL     OW27913   5.057   1.580   5.434
 9005SOL    HW127914   4.989   1.622   5.494
 9005SOL    HW227915   5.016   1.557   5.347
 9006SOL     OW27916   3.838   5.970   0.363
 9006SOL    HW127917   3.885   5.945   0.278
 9006SOL    HW227918   3.864   5.906   0.436
 9007SOL     OW27919   2.360   0.833   2.660
 9007SOL    HW127920   2.336   0.856   2.565
 9007SOL    HW227921   2.457   0.809   2.665
 9008SOL     OW27922   1.178   6.011   2.701
 9008SOL    HW127923   1.111   6.081   2.725
 9008SOL    HW227924   1.130   5.929   2.670
 9009SOL     OW27925   3.447   6.265   1.106
 9009SOL    HW127926   3.468   6.353   1.064
 9009SOL    HW227927   3.368   6.275   1.166
 9010SOL     OW27928   1.433   6.001   4.215
 9010SOL    HW127929   1.398   5.996   4.308
 9010SOL    HW227930   1.377   5.943   4.155
 9011SOL     OW27931   2.515   2.052   1.811
 9011SOL    HW127932   2.515   1.960   1.852
 9011SOL    HW227933   2.581   2.055   1.737
 9012SOL     OW27934   1.861   6.292   6.650
 9012SOL    HW127935   1.856   6.214   6.712
 9012SOL    HW227936   1.846   6.377   6.701
 9013SOL     OW27937   1.932   6.332   3.871
 9013SOL    HW127938   1.832   6.333   3.878
 9013SOL    HW227939   1.971   6.381   3.950
 9014SOL     OW27940   5.418   3.040   3.628
 9014SOL    HW127941   5.449   2.979   3.556
 9014SOL    HW227942   5.497   3.090   3.665
 9015SOL     OW27943   5.211   1.567   6.550
 9015SOL    HW127944   5.150   1.646   6.558
 9015SOL    HW227945   5.306   1.598   6.556
 9016SOL     OW27946   5.003   4.988   6.337
 9016SOL    HW127947   4.995   4.950   6.429
 9016SOL    HW227948   5.069   4.934   6.284
 9017SOL     OW27949   4.129   0.449   4.324
 9017SOL    HW127950   4.069   0.454   4.244
 9017SOL    HW227951   4.147   0.353   4.347
 9018SOL     OW27952   4.027   4.389   6.292
 9018SOL    HW127953   3.981   4.313   6.245
 9018SOL    HW227954   3.959   4.457   6.319
 9019SOL     OW27955   0.493   3.758   3.938
 9019SOL    HW127956   0.452   3.795   3.855
 9019SOL    HW227957   0.574   3.705   3.915
 9020SOL     OW27958   5.490   5.734   2.603
 9020SOL    HW127959   5.481   5.635   2.607
 9020SOL    HW227960   5.426   5.771   2.536
 9021SOL     OW27961   0.400   0.843   4.430
 9021SOL    HW127962   0.317   0.898   4.420
 9021SOL    HW227963   0.468   0.894   4.483
 9022SOL     OW27964   4.932   3.594   5.884
 9022SOL    HW127965   4.883   3.677   5.907
 9022SOL    HW227966   4.893   3.553   5.802
 9023SOL     OW27967   5.965   4.288   0.750
 9023SOL    HW127968   5.874   4.288   0.708
 9023SOL    HW227969   5.986   4.380   0.783
 9024SOL     OW27970   2.252   6.062   6.039
 9024SOL    HW127971   2.335   6.101   6.079
 9024SOL    HW227972   2.245   5.965   6.064
 9025SOL     OW27973   1.032   5.770   1.309
 9025SOL    HW127974   1.015   5.809   1.218
 9025SOL    HW227975   0.949   5.724   1.341
 9026SOL     OW27976   5.272   1.772   0.327
 9026SOL    HW127977   5.334   1.830   0.275
 9026SOL    HW227978   5.195   1.744   0.268
 9027SOL     OW27979   0.767   3.939   3.202
 9027SOL    HW127980   0.706   4.003   3.155
 9027SOL    HW227981   0.818   3.988   3.273
 9028SOL     OW27982   3.405   5.038   5.837
 9028SOL    HW127983   3.430   5.088   5.753
 9028SOL    HW227984   3.403   5.102   5.914
 9029SOL     OW27985   4.171   6.791   4.321
 9029SOL    HW127986   4.221   6.796   4.408
 9029SOL    HW227987   4.088   6.736   4.333
 9030SOL     OW27988   2.957   1.364   2.393
 9030SOL    HW127989   2.897   1.284   2.394
 9030SOL    HW227990   3.033   1.351   2.456
 9031SOL     OW27991   4.387   6.893   4.189
 9031SOL    HW127992   4.478   6.876   4.227
 9031SOL    HW227993   4.318   6.860   4.253
 9032SOL     OW27994   4.864   3.536   2.240
 9032SOL    HW127995   4.878   3.624   2.284
 9032SOL    HW227996   4.772   3.532   2.200
 9033SOL     OW27997   0.845   6.855   3.149
 9033SOL    HW127998   0.881   6.932   3.202
 9033SOL    HW227999   0.809   6.786   3.211
 9034SOL     OW28000   4.027   0.025   3.848
 9034SOL    HW128001   3.984   0.079   3.920
 9034SOL    HW228002   4.121   0.003   3.874
 9035SOL     OW28003   2.280   4.739   6.279
 9035SOL    HW128004   2.236   4.829   6.283
 9035SOL    HW228005   2.240   4.680   6.349
 9036SOL     OW28006   1.867   4.068   5.288
 9036SOL    HW128007   1.958   4.061   5.248
 9036SOL    HW228008   1.799   4.082   5.216
 9037SOL     OW28009   1.277   1.754   2.900
 9037SOL    HW128010   1.312   1.663   2.876
 9037SOL    HW228011   1.300   1.775   2.995
 9038SOL     OW28012   4.447   3.057   5.694
 9038SOL    HW128013   4.349   3.059   5.671
 9038SOL    HW228014   4.481   2.964   5.683
 9039SOL     OW28015   4.071   5.688   6.472
 9039SOL    HW128016   4.118   5.605   6.442
 9039SOL    HW228017   4.003   5.665   6.542
 9040SOL     OW28018   2.421   1.663   1.461
 9040SOL    HW128019   2.332   1.698   1.492
 9040SOL    HW228020   2.495   1.714   1.504
 9041SOL     OW28021   6.801   1.984   1.878
 9041SOL    HW128022   6.736   1.946   1.944
 9041SOL    HW228023   6.788   1.940   1.789
 9042SOL     OW28024   3.691   6.235   0.167
 9042SOL    HW128025   3.654   6.327   0.182
 9042SOL    HW228026   3.787   6.233   0.197
 9043SOL     OW28027   3.218   1.976   0.514
 9043SOL    HW128028   3.142   1.970   0.449
 9043SOL    HW228029   3.205   1.907   0.585
 9044SOL     OW28030   0.667   1.197   0.323
 9044SOL    HW128031   0.726   1.265   0.279
 9044SOL    HW228032   0.602   1.242   0.383
 9045SOL     OW28033   4.038   1.650   3.272
 9045SOL    HW128034   3.955   1.603   3.302
 9045SOL    HW228035   4.023   1.692   3.183
 9046SOL     OW28036   3.460   3.317   1.969
 9046SOL    HW128037   3.474   3.221   1.945
 9046SOL    HW228038   3.517   3.341   2.048
 9047SOL     OW28039   1.621   3.759   6.011
 9047SOL    HW128040   1.554   3.688   6.031
 9047SOL    HW228041   1.672   3.780   6.094
 9048SOL     OW28042   6.937   1.904   6.374
 9048SOL    HW128043   6.986   1.930   6.457
 9048SOL    HW228044   6.976   1.953   6.296
 9049SOL     OW28045   3.259   6.848   6.146
 9049SOL    HW128046   3.261   6.775   6.077
 9049SOL    HW228047   3.282   6.810   6.236
 9050SOL     OW28048   0.469   4.912   0.611
 9050SOL    HW128049   0.444   4.985   0.546
 9050SOL    HW228050   0.533   4.948   0.678
 9051SOL     OW28051   2.932   0.719   1.322
 9051SOL    HW128052   2.987   0.778   1.262
 9051SOL    HW228053   2.979   0.709   1.410
 9052SOL     OW28054   1.247   2.389   5.166
 9052SOL    HW128055   1.164   2.413   5.216
 9052SOL    HW228056   1.228   2.315   5.102
 9053SOL     OW28057   1.363   1.114   0.141
 9053SOL    HW128058   1.353   1.145   0.047
 9053SOL    HW228059   1.327   1.021   0.149
 9054SOL     OW28060   2.171   5.863   2.424
 9054SOL    HW128061   2.093   5.841   2.482
 9054SOL    HW228062   2.139   5.904   2.339
 9055SOL     OW28063   0.493   3.728   4.612
 9055SOL    HW128064   0.428   3.666   4.655
 9055SOL    HW228065   0.446   3.781   4.541
 9056SOL     OW28066   6.655   3.076   2.950
 9056SOL    HW128067   6.570   3.042   2.911
 9056SOL    HW228068   6.697   3.004   3.006
 9057SOL     OW28069   4.145   1.993   4.470
 9057SOL    HW128070   4.111   1.904   4.440
 9057SOL    HW228071   4.094   2.066   4.425
 9058SOL     OW28072   2.482   0.684   5.703
 9058SOL    HW128073   2.574   0.674   5.740
 9058SOL    HW228074   2.476   0.636   5.616
 9059SOL     OW28075   1.193   2.443   2.884
 9059SOL    HW128076   1.166   2.371   2.948
 9059SOL    HW228077   1.204   2.403   2.793
 9060SOL     OW28078   5.351   2.625   5.652
 9060SOL    HW128079   5.279   2.569   5.612
 9060SOL    HW228080   5.312   2.709   5.689
 9061SOL     OW28081   3.174   5.570   3.015
 9061SOL    HW128082   3.174   5.649   2.953
 9061SOL    HW228083   3.266   5.530   3.017
 9062SOL     OW28084   1.446   5.783   1.009
 9062SOL    HW128085   1.537   5.822   1.001
 9062SOL    HW228086   1.440   5.730   1.094
 9063SOL     OW28087   2.885   1.851   1.853
 9063SOL    HW128088   2.966   1.810   1.896
 9063SOL    HW228089   2.825   1.889   1.924
 9064SOL     OW28090   5.546   3.654   0.515
 9064SOL    HW128091   5.510   3.610   0.598
 9064SOL    HW228092   5.533   3.753   0.521
 9065SOL     OW28093   2.079   0.875   6.993
 9065SOL    HW128094   2.006   0.825   6.946
 9065SOL    HW228095   2.160   0.816   7.000
 9066SOL     OW28096   5.107   6.557   6.853
 9066SOL    HW128097   5.186   6.499   6.831
 9066SOL    HW228098   5.112   6.584   6.949
 9067SOL     OW28099   1.403   6.751   2.184
 9067SOL    HW128100   1.446   6.719   2.268
 9067SOL    HW228101   1.316   6.703   2.171
 9068SOL     OW28102   1.242   6.274   6.534
 9068SOL    HW128103   1.249   6.335   6.455
 9068SOL    HW228104   1.333   6.238   6.556
 9069SOL     OW28105   1.171   2.466   6.177
 9069SOL    HW128106   1.187   2.441   6.081
 9069SOL    HW228107   1.086   2.424   6.209
 9070SOL     OW28108   1.220   4.533   3.487
 9070SOL    HW128109   1.282   4.522   3.409
 9070SOL    HW228110   1.268   4.509   3.571
 9071SOL     OW28111   4.833   5.624   0.322
 9071SOL    HW128112   4.881   5.711   0.319
 9071SOL    HW228113   4.895   5.553   0.356
 9072SOL     OW28114   5.767   5.048   0.037
 9072SOL    HW128115   5.841   5.112   0.016
 9072SOL    HW228116   5.712   5.032   6.977
 9073SOL     OW28117   2.013   0.194   1.581
 9073SOL    HW128118   1.942   0.263   1.572
 9073SOL    HW228119   2.019   0.164   1.676
 9074SOL     OW28120   0.588   0.376   3.335
 9074SOL    HW128121   0.617   0.304   3.272
 9074SOL    HW228122   0.625   0.358   3.426
 9075SOL     OW28123   0.815   0.751   2.159
 9075SOL    HW128124   0.819   0.832   2.218
 9075SOL    HW228125   0.784   0.778   2.068
 9076SOL     OW28126   6.971   2.061   5.247
 9076SOL    HW128127   7.014   1.981   5.204
 9076SOL    HW228128   6.902   2.099   5.186
 9077SOL     OW28129   6.109   5.708   1.574
 9077SOL    HW128130   6.038   5.693   1.642
 9077SOL    HW228131   6.199   5.702   1.618
 9078SOL     OW28132   3.915   2.986   5.093
 9078SOL    HW128133   3.942   2.966   4.999
 9078SOL    HW228134   3.934   3.082   5.114
 9079SOL     OW28135   3.894   0.929   5.605
 9079SOL    HW128136   3.893   1.018   5.651
 9079SOL    HW228137   3.830   0.930   5.528
 9080SOL     OW28138   5.378   1.554   0.451
 9080SOL    HW128139   5.449   1.523   0.388
 9080SOL    HW228140   5.330   1.633   0.413
 9081SOL     OW28141   5.470   0.312   2.456
 9081SOL    HW128142   5.458   0.371   2.536
 9081SOL    HW228143   5.383   0.268   2.434
 9082SOL     OW28144   3.105   0.512   2.701
 9082SOL    HW128145   3.015   0.534   2.738
 9082SOL    HW228146   3.173   0.518   2.775
 9083SOL     OW28147   4.582   4.734   4.216
 9083SOL    HW128148   4.590   4.635   4.231
 9083SOL    HW228149   4.502   4.769   4.265
 9084SOL     OW28150   3.355   3.916   2.903
 9084SOL    HW128151   3.341   3.935   2.806
 9084SOL    HW228152   3.376   3.819   2.916
 9085SOL     OW28153   0.854   2.108   0.776
 9085SOL    HW128154   0.834   2.205   0.760
 9085SOL    HW228155   0.827   2.055   0.695
 9086SOL     OW28156   0.310   3.753   0.157
 9086SOL    HW128157   0.220   3.791   0.136
 9086SOL    HW228158   0.381   3.813   0.120
 9087SOL     OW28159   5.041   3.422   2.082
 9087SOL    HW128160   4.970   3.364   2.041
 9087SOL    HW228161   5.002   3.474   2.158
 9088SOL     OW28162   5.047   6.421   0.686
 9088SOL    HW128163   5.025   6.483   0.611
 9088SOL    HW228164   4.962   6.381   0.721
 9089SOL     OW28165   4.515   0.345   6.079
 9089SOL    HW128166   4.595   0.295   6.048
 9089SOL    HW228167   4.465   0.380   5.999
 9090SOL     OW28168   5.537   1.460   2.913
 9090SOL    HW128169   5.617   1.515   2.938
 9090SOL    HW228170   5.473   1.516   2.862
 9091SOL     OW28171   3.464   2.373   6.926
 9091SOL    HW128172   3.525   2.294   6.915
 9091SOL    HW228173   3.503   2.436   6.993
 9092SOL     OW28174   0.146   2.990   6.601
 9092SOL    HW128175   0.054   2.997   6.562
 9092SOL    HW228176   0.139   2.990   6.701
 9093SOL     OW28177   2.119   6.089   4.724
 9093SOL    HW128178   2.158   6.014   4.671
 9093SOL    HW228179   2.019   6.079   4.726
 9094SOL     OW28180   1.318   3.769   1.301
 9094SOL    HW128181   1.388   3.719   1.352
 9094SOL    HW228182   1.260   3.820   1.364
 9095SOL     OW28183   6.755   6.618   5.888
 9095SOL    HW128184   6.729   6.524   5.907
 9095SOL    HW228185   6.784   6.627   5.793
 9096SOL     OW28186   6.616   5.230   3.577
 9096SOL    HW128187   6.654   5.322   3.567
 9096SOL    HW228188   6.522   5.237   3.612
 9097SOL     OW28189   1.050   2.756   5.907
 9097SOL    HW128190   1.024   2.806   5.989
 9097SOL    HW228191   1.006   2.666   5.907
 9098SOL     OW28192   2.217   4.147   3.620
 9098SOL    HW128193   2.149   4.180   3.686
 9098SOL    HW228194   2.192   4.056   3.589
 9099SOL     OW28195   2.316   1.508   6.452
 9099SOL    HW128196   2.233   1.513   6.508
 9099SOL    HW228197   2.365   1.595   6.456
 9100SOL     OW28198   1.701   4.403   4.056
 9100SOL    HW128199   1.733   4.497   4.069
 9100SOL    HW228200   1.604   4.398   4.083
 9101SOL     OW28201   0.450   2.309   0.550
 9101SOL    HW128202   0.375   2.252   0.586
 9101SOL    HW228203   0.453   2.300   0.450
 9102SOL     OW28204   4.044   7.019   2.656
 9102SOL    HW128205   4.125   6.975   2.694
 9102SOL    HW228206   3.977   0.010   2.728
 9103SOL     OW28207   6.130   1.143   1.186
 9103SOL    HW128208   6.173   1.055   1.207
 9103SOL    HW228209   6.181   1.187   1.112
 9104SOL     OW28210   5.955   1.784   6.170
 9104SOL    HW128211   5.856   1.790   6.185
 9104SOL    HW228212   5.980   1.690   6.149
 9105SOL     OW28213   2.646   1.433   5.761
 9105SOL    HW128214   2.689   1.356   5.808
 9105SOL    HW228215   2.662   1.517   5.813
 9106SOL     OW28216   1.434   3.759   6.894
 9106SOL    HW128217   1.458   3.782   6.800
 9106SOL    HW228218   1.390   3.837   6.938
 9107SOL     OW28219   3.083   1.564   0.365
 9107SOL    HW128220   3.016   1.570   0.439
 9107SOL    HW228221   3.065   1.635   0.298
 9108SOL     OW28222   6.483   5.795   6.264
 9108SOL    HW128223   6.402   5.841   6.300
 9108SOL    HW228224   6.474   5.697   6.278
 9109SOL     OW28225   5.622   3.656   3.017
 9109SOL    HW128226   5.657   3.607   2.938
 9109SOL    HW228227   5.632   3.755   3.003
 9110SOL     OW28228   1.271   6.104   3.395
 9110SOL    HW128229   1.237   6.151   3.477
 9110SOL    HW228230   1.362   6.140   3.372
 9111SOL     OW28231   3.696   2.397   6.552
 9111SOL    HW128232   3.610   2.425   6.592
 9111SOL    HW228233   3.707   2.440   6.462
 9112SOL     OW28234   0.773   5.264   1.532
 9112SOL    HW128235   0.699   5.218   1.483
 9112SOL    HW228236   0.848   5.281   1.468
 9113SOL     OW28237   5.524   0.627   4.579
 9113SOL    HW128238   5.428   0.637   4.602
 9113SOL    HW228239   5.541   0.536   4.541
 9114SOL     OW28240   1.031   6.969   5.908
 9114SOL    HW128241   1.077   6.946   5.822
 9114SOL    HW228242   0.940   7.005   5.888
 9115SOL     OW28243   4.915   4.400   5.208
 9115SOL    HW128244   4.866   4.462   5.269
 9115SOL    HW228245   4.902   4.429   5.113
 9116SOL     OW28246   2.093   0.250   3.588
 9116SOL    HW128247   2.013   0.224   3.642
 9116SOL    HW228248   2.124   0.341   3.617
 9117SOL     OW28249   2.095   6.865   6.964
 9117SOL    HW128250   2.024   6.825   7.021
 9117SOL    HW228251   2.060   6.874   6.870
 9118SOL     OW28252   6.513   3.753   1.825
 9118SOL    HW128253   6.429   3.705   1.800
 9118SOL    HW228254   6.543   3.722   1.915
 9119SOL     OW28255   3.109   1.148   0.452
 9119SOL    HW128256   3.077   1.199   0.532
 9119SOL    HW228257   3.040   1.152   0.380
 9120SOL     OW28258   6.468   3.943   4.781
 9120SOL    HW128259   6.479   3.853   4.824
 9120SOL    HW228260   6.428   3.931   4.690
 9121SOL     OW28261   3.884   0.804   4.103
 9121SOL    HW128262   3.800   0.785   4.051
 9121SOL    HW228263   3.883   0.752   4.188
 9122SOL     OW28264   0.863   2.591   1.645
 9122SOL    HW128265   0.898   2.528   1.713
 9122SOL    HW228266   0.763   2.586   1.644
 9123SOL     OW28267   0.513   5.916   4.440
 9123SOL    HW128268   0.453   5.995   4.450
 9123SOL    HW228269   0.511   5.861   4.524
 9124SOL     OW28270   3.101   5.573   0.850
 9124SOL    HW128271   3.118   5.564   0.752
 9124SOL    HW228272   3.097   5.482   0.892
 9125SOL     OW28273   5.547   6.457   1.647
 9125SOL    HW128274   5.539   6.478   1.744
 9125SOL    HW228275   5.462   6.415   1.614
 9126SOL     OW28276   4.394   4.721   0.772
 9126SOL    HW128277   4.295   4.715   0.760
 9126SOL    HW228278   4.416   4.726   0.869
 9127SOL     OW28279   6.585   4.917   5.258
 9127SOL    HW128280   6.667   4.924   5.200
 9127SOL    HW228281   6.513   4.975   5.221
 9128SOL     OW28282   5.572   4.232   5.847
 9128SOL    HW128283   5.514   4.159   5.881
 9128SOL    HW228284   5.524   4.283   5.776
 9129SOL     OW28285   0.601   3.082   0.351
 9129SOL    HW128286   0.550   3.031   0.420
 9129SOL    HW228287   0.537   3.131   0.292
 9130SOL     OW28288   2.919   3.336   4.773
 9130SOL    HW128289   2.892   3.431   4.792
 9130SOL    HW228290   2.854   3.274   4.818
 9131SOL     OW28291   5.579   2.626   0.756
 9131SOL    HW128292   5.549   2.720   0.769
 9131SOL    HW228293   5.652   2.623   0.688
 9132SOL     OW28294   0.842   4.042   3.838
 9132SOL    HW128295   0.938   4.045   3.809
 9132SOL    HW228296   0.837   4.043   3.938
 9133SOL     OW28297   5.952   0.274   0.996
 9133SOL    HW128298   6.027   0.233   1.048
 9133SOL    HW228299   5.887   0.203   0.971
 9134SOL     OW28300   4.755   4.780   0.309
 9134SOL    HW128301   4.702   4.696   0.302
 9134SOL    HW228302   4.834   4.765   0.368
 9135SOL     OW28303   6.293   5.910   2.551
 9135SOL    HW128304   6.350   5.989   2.571
 9135SOL    HW228305   6.351   5.830   2.537
 9136SOL     OW28306   0.241   5.221   0.484
 9136SOL    HW128307   0.205   5.270   0.405
 9136SOL    HW228308   0.165   5.190   0.541
 9137SOL     OW28309   5.287   6.398   5.193
 9137SOL    HW128310   5.351   6.381   5.119
 9137SOL    HW228311   5.269   6.496   5.200
 9138SOL     OW28312   2.645   4.037   6.444
 9138SOL    HW128313   2.663   4.067   6.350
 9138SOL    HW228314   2.546   4.028   6.458
 9139SOL     OW28315   0.025   0.235   1.763
 9139SOL    HW128316   0.048   0.287   1.845
 9139SOL    HW228317   6.952   0.249   1.739
 9140SOL     OW28318   1.999   3.747   2.573
 9140SOL    HW128319   2.042   3.836   2.558
 9140SOL    HW228320   1.929   3.732   2.504
 9141SOL     OW28321   0.296   6.046   4.917
 9141SOL    HW128322   0.214   6.058   4.862
 9141SOL    HW228323   0.376   6.079   4.867
 9142SOL     OW28324   0.997   4.372   3.476
 9142SOL    HW128325   1.080   4.428   3.479
 9142SOL    HW228326   0.976   4.349   3.381
 9143SOL     OW28327   6.499   4.016   3.287
 9143SOL    HW128328   6.518   3.991   3.192
 9143SOL    HW228329   6.488   3.933   3.342
 9144SOL     OW28330   3.209   4.255   5.414
 9144SOL    HW128331   3.215   4.194   5.335
 9144SOL    HW228332   3.284   4.236   5.478
 9145SOL     OW28333   1.741   5.819   5.486
 9145SOL    HW128334   1.756   5.894   5.422
 9145SOL    HW228335   1.818   5.814   5.549
 9146SOL     OW28336   6.315   2.459   3.009
 9146SOL    HW128337   6.334   2.440   2.913
 9146SOL    HW228338   6.221   2.491   3.019
 9147SOL     OW28339   3.970   0.014   5.461
 9147SOL    HW128340   3.988   0.094   5.404
 9147SOL    HW228341   3.872   7.017   5.460
 9148SOL     OW28342   4.948   5.474   1.849
 9148SOL    HW128343   4.993   5.447   1.934
 9148SOL    HW228344   4.925   5.393   1.795
 9149SOL     OW28345   1.230   3.833   1.035
 9149SOL    HW128346   1.156   3.766   1.030
 9149SOL    HW228347   1.279   3.823   1.122
 9150SOL     OW28348   3.072   3.773   6.806
 9150SOL    HW128349   3.118   3.859   6.783
 9150SOL    HW228350   3.041   3.728   6.722
 9151SOL     OW28351   2.118   3.186   3.547
 9151SOL    HW128352   2.019   3.185   3.534
 9151SOL    HW228353   2.148   3.279   3.564
 9152SOL     OW28354   2.123   4.061   2.605
 9152SOL    HW128355   2.129   4.016   2.516
 9152SOL    HW228356   2.030   4.094   2.620
 9153SOL     OW28357   0.095   3.006   6.875
 9153SOL    HW128358   0.122   3.008   6.972
 9153SOL    HW228359   0.035   3.084   6.856
 9154SOL     OW28360   4.822   4.587   3.370
 9154SOL    HW128361   4.803   4.530   3.290
 9154SOL    HW228362   4.790   4.680   3.352
 9155SOL     OW28363   0.836   6.561   2.944
 9155SOL    HW128364   0.876   6.649   2.968
 9155SOL    HW228365   0.904   6.505   2.897
 9156SOL     OW28366   6.677   4.066   5.617
 9156SOL    HW128367   6.703   4.081   5.712
 9156SOL    HW228368   6.581   4.090   5.604
 9157SOL     OW28369   1.756   3.997   5.660
 9157SOL    HW128370   1.745   4.087   5.618
 9157SOL    HW228371   1.687   3.986   5.732
 9158SOL     OW28372   0.033   3.802   4.787
 9158SOL    HW128373   0.133   3.801   4.788
 9158SOL    HW228374   7.021   3.715   4.821
 9159SOL     OW28375   2.377   1.259   3.993
 9159SOL    HW128376   2.286   1.221   3.977
 9159SOL    HW228377   2.381   1.351   3.954
 9160SOL     OW28378   1.083   2.995   6.754
 9160SOL    HW128379   1.012   2.931   6.784
 9160SOL    HW228380   1.062   3.028   6.662
 9161SOL     OW28381   6.454   3.375   2.905
 9161SOL    HW128382   6.444   3.301   2.839
 9161SOL    HW228383   6.385   3.446   2.888
 9162SOL     OW28384   3.878   2.305   1.661
 9162SOL    HW128385   3.952   2.238   1.670
 9162SOL    HW228386   3.837   2.322   1.751
 9163SOL     OW28387   1.984   2.440   4.196
 9163SOL    HW128388   1.901   2.494   4.187
 9163SOL    HW228389   2.059   2.500   4.225
 9164SOL     OW28390   2.309   6.863   6.632
 9164SOL    HW128391   2.250   6.785   6.649
 9164SOL    HW228392   2.299   6.929   6.707
 9165SOL     OW28393   5.156   1.681   5.997
 9165SOL    HW128394   5.229   1.646   6.056
 9165SOL    HW228395   5.144   1.779   6.014
 9166SOL     OW28396   4.062   6.456   2.102
 9166SOL    HW128397   3.994   6.493   2.164
 9166SOL    HW228398   4.131   6.526   2.083
 9167SOL     OW28399   1.402   1.359   4.399
 9167SOL    HW128400   1.434   1.266   4.416
 9167SOL    HW228401   1.305   1.366   4.423
 9168SOL     OW28402   6.177   5.800   5.117
 9168SOL    HW128403   6.150   5.750   5.199
 9168SOL    HW228404   6.128   5.764   5.038
 9169SOL     OW28405   6.588   5.714   0.563
 9169SOL    HW128406   6.516   5.655   0.600
 9169SOL    HW228407   6.552   5.767   0.486
 9170SOL     OW28408   1.843   0.788   5.808
 9170SOL    HW128409   1.814   0.728   5.734
 9170SOL    HW228410   1.943   0.786   5.816
 9171SOL     OW28411   3.526   6.036   0.087
 9171SOL    HW128412   3.592   6.109   0.107
 9171SOL    HW228413   3.551   5.954   0.138
 9172SOL     OW28414   4.534   1.693   5.827
 9172SOL    HW128415   4.634   1.698   5.833
 9172SOL    HW228416   4.494   1.739   5.906
 9173SOL     OW28417   6.113   3.752   5.799
 9173SOL    HW128418   6.051   3.819   5.840
 9173SOL    HW228419   6.061   3.670   5.773
 9174SOL     OW28420   6.173   4.621   1.023
 9174SOL    HW128421   6.238   4.549   1.001
 9174SOL    HW228422   6.140   4.609   1.117
 9175SOL     OW28423   2.073   0.284   1.272
 9175SOL    HW128424   2.106   0.209   1.328
 9175SOL    HW228425   2.147   0.350   1.258
 9176SOL     OW28426   1.943   0.849   1.869
 9176SOL    HW128427   1.945   0.909   1.790
 9176SOL    HW228428   1.972   0.757   1.842
 9177SOL     OW28429   0.816   6.403   3.864
 9177SOL    HW128430   0.830   6.475   3.796
 9177SOL    HW228431   0.830   6.314   3.822
 9178SOL     OW28432   0.932   4.022   0.797
 9178SOL    HW128433   0.918   3.957   0.723
 9178SOL    HW228434   0.846   4.070   0.816
 9179SOL     OW28435   3.910   5.189   3.614
 9179SOL    HW128436   3.816   5.207   3.585
 9179SOL    HW228437   3.937   5.098   3.582
 9180SOL     OW28438   0.305   0.971   5.351
 9180SOL    HW128439   0.364   0.891   5.341
 9180SOL    HW228440   0.306   1.024   5.266
 9181SOL     OW28441   2.789   1.942   3.953
 9181SOL    HW128442   2.750   2.030   3.926
 9181SOL    HW228443   2.717   1.884   3.991
 9182SOL     OW28444   0.133   1.967   2.480
 9182SOL    HW128445   0.171   2.045   2.530
 9182SOL    HW228446   0.195   1.889   2.489
 9183SOL     OW28447   1.751   1.590   6.291
 9183SOL    HW128448   1.707   1.679   6.278
 9183SOL    HW228449   1.822   1.578   6.221
 9184SOL     OW28450   2.869   4.455   1.157
 9184SOL    HW128451   2.896   4.360   1.141
 9184SOL    HW228452   2.860   4.471   1.256
 9185SOL     OW28453   1.552   0.257   5.960
 9185SOL    HW128454   1.528   0.258   6.057
 9185SOL    HW228455   1.626   0.322   5.943
 9186SOL     OW28456   5.460   6.593   6.971
 9186SOL    HW128457   5.428   6.676   7.017
 9186SOL    HW228458   5.549   6.610   6.928
 9187SOL     OW28459   5.340   2.755   0.747
 9187SOL    HW128460   5.289   2.775   0.831
 9187SOL    HW228461   5.301   2.675   0.702
 9188SOL     OW28462   1.416   0.183   1.330
 9188SOL    HW128463   1.318   0.184   1.313
 9188SOL    HW228464   1.441   0.101   1.380
 9189SOL     OW28465   3.195   0.507   5.546
 9189SOL    HW128466   3.265   0.438   5.530
 9189SOL    HW228467   3.191   0.569   5.468
 9190SOL     OW28468   4.630   0.747   5.168
 9190SOL    HW128469   4.724   0.718   5.186
 9190SOL    HW228470   4.609   0.828   5.223
 9191SOL     OW28471   5.706   6.916   1.579
 9191SOL    HW128472   5.714   6.838   1.642
 9191SOL    HW228473   5.672   6.996   1.629
 9192SOL     OW28474   4.922   3.985   4.643
 9192SOL    HW128475   4.997   3.996   4.578
 9192SOL    HW228476   4.910   3.888   4.664
 9193SOL     OW28477   3.529   4.057   3.085
 9193SOL    HW128478   3.594   4.083   3.014
 9193SOL    HW228479   3.454   4.004   3.045
 9194SOL     OW28480   3.931   4.797   3.032
 9194SOL    HW128481   3.890   4.712   3.001
 9194SOL    HW228482   3.987   4.836   2.959
 9195SOL     OW28483   0.584   2.766   2.674
 9195SOL    HW128484   0.599   2.845   2.614
 9195SOL    HW228485   0.606   2.791   2.768
 9196SOL     OW28486   4.758   6.350   4.351
 9196SOL    HW128487   4.754   6.346   4.251
 9196SOL    HW228488   4.682   6.298   4.390
 9197SOL     OW28489   4.519   1.558   6.954
 9197SOL    HW128490   4.539   1.656   6.961
 9197SOL    HW228491   4.604   1.506   6.962
 9198SOL     OW28492   5.982   2.769   5.355
 9198SOL    HW128493   6.056   2.745   5.417
 9198SOL    HW228494   5.898   2.787   5.407
 9199SOL     OW28495   1.427   3.167   6.449
 9199SOL    HW128496   1.392   3.192   6.539
 9199SOL    HW228497   1.350   3.154   6.386
 9200SOL     OW28498   5.160   5.763   1.241
 9200SOL    HW128499   5.164   5.799   1.334
 9200SOL    HW228500   5.175   5.664   1.242
 9201SOL     OW28501   0.359   3.332   2.194
 9201SOL    HW128502   0.442   3.283   2.169
 9201SOL    HW228503   0.281   3.270   2.189
 9202SOL     OW28504   2.472   6.171   4.094
 9202SOL    HW128505   2.423   6.240   4.147
 9202SOL    HW228506   2.520   6.108   4.155
 9203SOL     OW28507   5.147   1.041   6.907
 9203SOL    HW128508   5.186   0.950   6.894
 9203SOL    HW228509   5.145   1.090   6.820
 9204SOL     OW28510   5.104   4.819   2.684
 9204SOL    HW128511   5.135   4.761   2.760
 9204SOL    HW228512   5.168   4.895   2.672
 9205SOL     OW28513   4.391   2.174   1.496
 9205SOL    HW128514   4.362   2.265   1.524
 9205SOL    HW228515   4.449   2.181   1.414
 9206SOL     OW28516   6.055   6.127   4.569
 9206SOL    HW128517   6.152   6.103   4.576
 9206SOL    HW228518   6.037   6.169   4.480
 9207SOL     OW28519   4.341   6.461   0.248
 9207SOL    HW128520   4.242   6.451   0.257
 9207SOL    HW228521   4.387   6.398   0.310
 9208SOL     OW28522   4.474   4.074   1.597
 9208SOL    HW128523   4.462   4.114   1.688
 9208SOL    HW228524   4.386   4.072   1.550
 9209SOL     OW28525   4.530   0.485   2.805
 9209SOL    HW128526   4.627   0.511   2.799
 9209SOL    HW228527   4.518   0.394   2.765
 9210SOL     OW28528   0.749   6.665   0.049
 9210SOL    HW128529   0.688   6.657   0.128
 9210SOL    HW228530   0.786   6.758   0.045
 9211SOL     OW28531   4.803   1.113   6.340
 9211SOL    HW128532   4.780   1.065   6.255
 9211SOL    HW228533   4.743   1.191   6.352
 9212SOL     OW28534   5.815   3.764   5.424
 9212SOL    HW128535   5.758   3.792   5.501
 9212SOL    HW228536   5.911   3.772   5.449
 9213SOL     OW28537   6.521   5.781   1.784
 9213SOL    HW128538   6.593   5.736   1.837
 9213SOL    HW228539   6.560   5.855   1.730
 9214SOL     OW28540   2.371   1.523   5.709
 9214SOL    HW128541   2.410   1.475   5.788
 9214SOL    HW228542   2.407   1.483   5.625
 9215SOL     OW28543   0.361   3.798   3.702
 9215SOL    HW128544   0.325   3.704   3.706
 9215SOL    HW228545   0.425   3.806   3.626
 9216SOL     OW28546   2.022   6.310   3.415
 9216SOL    HW128547   2.068   6.351   3.337
 9216SOL    HW228548   1.989   6.382   3.476
 9217SOL     OW28549   3.955   2.433   6.783
 9217SOL    HW128550   3.879   2.380   6.746
 9217SOL    HW228551   4.041   2.392   6.755
 9218SOL     OW28552   5.224   5.727   6.286
 9218SOL    HW128553   5.203   5.742   6.383
 9218SOL    HW228554   5.230   5.628   6.268
 9219SOL     OW28555   3.453   2.128   5.920
 9219SOL    HW128556   3.500   2.157   6.003
 9219SOL    HW228557   3.442   2.206   5.858
 9220SOL     OW28558   0.620   6.400   3.211
 9220SOL    HW128559   0.595   6.322   3.268
 9220SOL    HW228560   0.547   6.415   3.143
 9221SOL     OW28561   2.878   1.815   1.561
 9221SOL    HW128562   2.916   1.852   1.647
 9221SOL    HW228563   2.898   1.879   1.486
 9222SOL     OW28564   1.648   5.326   3.984
 9222SOL    HW128565   1.612   5.247   4.034
 9222SOL    HW228566   1.636   5.311   3.885
 9223SOL     OW28567   6.748   3.451   4.594
 9223SOL    HW128568   6.733   3.498   4.681
 9223SOL    HW228569   6.663   3.407   4.565
 9224SOL     OW28570   1.731   4.204   2.251
 9224SOL    HW128571   1.654   4.256   2.213
 9224SOL    HW228572   1.766   4.142   2.182
 9225SOL     OW28573   6.992   5.498   6.350
 9225SOL    HW128574   6.906   5.547   6.343
 9225SOL    HW228575   0.027   5.542   6.419
 9226SOL     OW28576   0.849   0.756   5.417
 9226SOL    HW128577   0.943   0.721   5.417
 9226SOL    HW228578   0.845   0.839   5.473
 9227SOL     OW28579   3.716   4.265   1.150
 9227SOL    HW128580   3.814   4.255   1.132
 9227SOL    HW228581   3.680   4.177   1.183
 9228SOL     OW28582   4.169   3.406   4.839
 9228SOL    HW128583   4.154   3.504   4.840
 9228SOL    HW228584   4.228   3.381   4.916
 9229SOL     OW28585   0.191   5.414   0.320
 9229SOL    HW128586   0.246   5.477   0.376
 9229SOL    HW228587   0.098   5.449   0.312
 9230SOL     OW28588   4.615   0.373   5.142
 9230SOL    HW128589   4.680   0.335   5.207
 9230SOL    HW228590   4.601   0.470   5.162
 9231SOL     OW28591   6.212   6.049   1.710
 9231SOL    HW128592   6.257   6.120   1.765
 9231SOL    HW228593   6.186   6.088   1.622
 9232SOL     OW28594   1.149   5.706   2.318
 9232SOL    HW128595   1.189   5.683   2.407
 9232SOL    HW228596   1.221   5.727   2.253
 9233SOL     OW28597   0.763   0.105   5.834
 9233SOL    HW128598   0.733   0.105   5.929
 9233SOL    HW228599   0.824   0.182   5.818
 9234SOL     OW28600   3.501   4.373   5.792
 9234SOL    HW128601   3.486   4.313   5.714
 9234SOL    HW228602   3.515   4.467   5.760
 9235SOL     OW28603   2.344   1.880   2.785
 9235SOL    HW128604   2.325   1.877   2.687
 9235SOL    HW228605   2.259   1.862   2.836
 9236SOL     OW28606   1.539   3.404   5.837
 9236SOL    HW128607   1.554   3.349   5.919
 9236SOL    HW228608   1.627   3.426   5.795
 9237SOL     OW28609   6.045   5.149   2.926
 9237SOL    HW128610   5.974   5.215   2.901
 9237SOL    HW228611   6.004   5.076   2.981
 9238SOL     OW28612   1.809   2.852   5.097
 9238SOL    HW128613   1.824   2.753   5.088
 9238SOL    HW228614   1.833   2.897   5.011
 9239SOL     OW28615   1.601   5.525   6.195
 9239SOL    HW128616   1.527   5.465   6.164
 9239SOL    HW228617   1.587   5.617   6.158
 9240SOL     OW28618   4.036   1.763   3.703
 9240SOL    HW128619   4.112   1.717   3.748
 9240SOL    HW228620   4.018   1.719   3.615
 9241SOL     OW28621   5.789   6.539   0.166
 9241SOL    HW128622   5.876   6.578   0.138
 9241SOL    HW228623   5.802   6.488   0.252
 9242SOL     OW28624   1.995   2.367   1.201
 9242SOL    HW128625   2.067   2.337   1.139
 9242SOL    HW228626   1.985   2.466   1.196
 9243SOL     OW28627   2.119   0.138   0.635
 9243SOL    HW128628   2.103   0.040   0.617
 9243SOL    HW228629   2.109   0.189   0.549
 9244SOL     OW28630   2.398   5.900   6.735
 9244SOL    HW128631   2.381   5.843   6.816
 9244SOL    HW228632   2.496   5.903   6.716
 9245SOL     OW28633   0.941   4.934   2.902
 9245SOL    HW128634   0.911   4.902   2.992
 9245SOL    HW228635   0.969   5.030   2.909
 9246SOL     OW28636   5.253   6.138   6.764
 9246SOL    HW128637   5.155   6.121   6.768
 9246SOL    HW228638   5.303   6.051   6.770
 9247SOL     OW28639   3.625   6.554   2.703
 9247SOL    HW128640   3.634   6.458   2.678
 9247SOL    HW228641   3.529   6.579   2.702
 9248SOL     OW28642   2.552   0.241   6.576
 9248SOL    HW128643   2.491   0.282   6.643
 9248SOL    HW228644   2.588   0.312   6.516
 9249SOL     OW28645   2.679   6.974   0.195
 9249SOL    HW128646   2.690   6.902   0.263
 9249SOL    HW228647   2.582   6.997   0.186
 9250SOL     OW28648   0.377   3.570   3.284
 9250SOL    HW128649   0.419   3.661   3.286
 9250SOL    HW228650   0.315   3.560   3.362
 9251SOL     OW28651   3.663   1.881   1.085
 9251SOL    HW128652   3.694   1.964   1.132
 9251SOL    HW228653   3.639   1.812   1.154
 9252SOL     OW28654   5.887   1.256   4.551
 9252SOL    HW128655   5.894   1.261   4.651
 9252SOL    HW228656   5.890   1.348   4.513
 9253SOL     OW28657   2.420   5.084   4.282
 9253SOL    HW128658   2.479   5.035   4.347
 9253SOL    HW228659   2.332   5.103   4.326
 9254SOL     OW28660   0.213   5.267   2.168
 9254SOL    HW128661   0.285   5.331   2.142
 9254SOL    HW228662   0.213   5.190   2.105
 9255SOL     OW28663   6.412   3.420   0.981
 9255SOL    HW128664   6.442   3.470   1.062
 9255SOL    HW228665   6.315   3.438   0.965
 9256SOL     OW28666   2.628   6.697   0.658
 9256SOL    HW128667   2.710   6.643   0.674
 9256SOL    HW228668   2.569   6.694   0.739
 9257SOL     OW28669   6.220   6.049   4.807
 9257SOL    HW128670   6.219   5.956   4.773
 9257SOL    HW228671   6.188   6.050   4.902
 9258SOL     OW28672   4.641   5.211   2.152
 9258SOL    HW128673   4.722   5.269   2.140
 9258SOL    HW228674   4.669   5.116   2.161
 9259SOL     OW28675   0.362   2.378   6.689
 9259SOL    HW128676   0.295   2.342   6.754
 9259SOL    HW228677   0.377   2.475   6.707
 9260SOL     OW28678   4.846   3.715   4.693
 9260SOL    HW128679   4.852   3.667   4.780
 9260SOL    HW228680   4.756   3.701   4.653
 9261SOL     OW28681   1.212   2.684   1.739
 9261SOL    HW128682   1.123   2.724   1.763
 9261SOL    HW228683   1.218   2.674   1.640
 9262SOL     OW28684   6.553   6.378   5.883
 9262SOL    HW128685   6.507   6.327   5.811
 9262SOL    HW228686   6.580   6.315   5.956
 9263SOL     OW28687   2.585   4.616   3.051
 9263SOL    HW128688   2.538   4.565   2.980
 9263SOL    HW228689   2.572   4.571   3.139
 9264SOL     OW28690   5.414   3.664   5.758
 9264SOL    HW128691   5.460   3.739   5.804
 9264SOL    HW228692   5.445   3.577   5.795
 9265SOL     OW28693   4.640   0.996   1.640
 9265SOL    HW128694   4.664   1.048   1.558
 9265SOL    HW228695   4.722   0.982   1.695
 9266SOL     OW28696   2.005   4.923   0.860
 9266SOL    HW128697   1.960   4.938   0.948
 9266SOL    HW228698   1.939   4.885   0.795
 9267SOL     OW28699   0.258   1.711   3.606
 9267SOL    HW128700   0.212   1.798   3.586
 9267SOL    HW228701   0.195   1.651   3.655
 9268SOL     OW28702   0.486   0.811   1.823
 9268SOL    HW128703   0.424   0.739   1.854
 9268SOL    HW228704   0.470   0.828   1.726
 9269SOL     OW28705   4.484   1.074   0.596
 9269SOL    HW128706   4.551   1.145   0.617
 9269SOL    HW228707   4.392   1.111   0.609
 9270SOL     OW28708   2.849   1.366   5.483
 9270SOL    HW128709   2.899   1.395   5.402
 9270SOL    HW228710   2.906   1.381   5.564
 9271SOL     OW28711   1.606   4.560   5.992
 9271SOL    HW128712   1.609   4.628   5.919
 9271SOL    HW228713   1.512   4.546   6.021
 9272SOL     OW28714   6.048   6.045   5.627
 9272SOL    HW128715   6.028   6.142   5.618
 9272SOL    HW228716   6.134   6.033   5.677
 9273SOL     OW28717   5.715   3.315   3.850
 9273SOL    HW128718   5.711   3.260   3.933
 9273SOL    HW228719   5.673   3.265   3.775
 9274SOL     OW28720   0.295   3.655   0.397
 9274SOL    HW128721   0.386   3.632   0.429
 9274SOL    HW228722   0.301   3.700   0.307
 9275SOL     OW28723   5.604   1.232   0.551
 9275SOL    HW128724   5.541   1.239   0.474
 9275SOL    HW228725   5.682   1.293   0.537
 9276SOL     OW28726   2.201   4.431   6.612
 9276SOL    HW128727   2.137   4.507   6.619
 9276SOL    HW228728   2.194   4.374   6.694
 9277SOL     OW28729   4.264   5.983   2.297
 9277SOL    HW128730   4.207   6.065   2.303
 9277SOL    HW228731   4.340   5.990   2.362
 9278SOL     OW28732   0.544   6.786   5.933
 9278SOL    HW128733   0.476   6.859   5.926
 9278SOL    HW228734   0.579   6.783   6.027
 9279SOL     OW28735   2.699   6.173   2.278
 9279SOL    HW128736   2.618   6.115   2.268
 9279SOL    HW228737   2.719   6.185   2.375
 9280SOL     OW28738   1.310   5.782   2.778
 9280SOL    HW128739   1.254   5.724   2.838
 9280SOL    HW228740   1.287   5.878   2.794
 9281SOL     OW28741   1.553   5.311   0.629
 9281SOL    HW128742   1.458   5.307   0.598
 9281SOL    HW228743   1.561   5.377   0.703
 9282SOL     OW28744   2.856   6.892   5.211
 9282SOL    HW128745   2.891   6.835   5.136
 9282SOL    HW228746   2.826   6.980   5.175
 9283SOL     OW28747   4.767   6.150   0.292
 9283SOL    HW128748   4.758   6.202   0.376
 9283SOL    HW228749   4.863   6.124   0.279
 9284SOL     OW28750   4.282   5.822   0.401
 9284SOL    HW128751   4.239   5.880   0.471
 9284SOL    HW228752   4.379   5.846   0.393
 9285SOL     OW28753   0.007   5.952   3.624
 9285SOL    HW128754   6.941   5.946   3.579
 9285SOL    HW228755   0.060   6.028   3.585
 9286SOL     OW28756   4.973   6.662   1.654
 9286SOL    HW128757   4.975   6.564   1.635
 9286SOL    HW228758   4.972   6.678   1.752
 9287SOL     OW28759   4.180   3.967   6.174
 9287SOL    HW128760   4.118   3.901   6.131
 9287SOL    HW228761   4.140   4.000   6.259
 9288SOL     OW28762   3.886   1.816   2.377
 9288SOL    HW128763   3.907   1.819   2.280
 9288SOL    HW228764   3.857   1.906   2.408
 9289SOL     OW28765   4.429   6.248   1.314
 9289SOL    HW128766   4.474   6.238   1.225
 9289SOL    HW228767   4.330   6.239   1.302
 9290SOL     OW28768   6.018   1.020   3.536
 9290SOL    HW128769   6.060   0.994   3.449
 9290SOL    HW228770   6.032   1.117   3.552
 9291SOL     OW28771   0.340   4.179   5.705
 9291SOL    HW128772   0.288   4.150   5.625
 9291SOL    HW228773   0.365   4.099   5.759
 9292SOL     OW28774   0.396   1.619   6.599
 9292SOL    HW128775   0.486   1.644   6.634
 9292SOL    HW228776   0.326   1.668   6.650
 9293SOL     OW28777   4.590   2.014   5.197
 9293SOL    HW128778   4.650   2.093   5.183
 9293SOL    HW228779   4.560   1.980   5.108
 9294SOL     OW28780   4.781   6.409   6.812
 9294SOL    HW128781   4.830   6.478   6.865
 9294SOL    HW228782   4.728   6.454   6.739
 9295SOL     OW28783   5.944   1.009   3.997
 9295SOL    HW128784   5.979   0.936   3.939
 9295SOL    HW228785   5.929   0.973   4.090
 9296SOL     OW28786   2.131   4.272   5.942
 9296SOL    HW128787   2.171   4.343   6.000
 9296SOL    HW228788   2.050   4.233   5.987
 9297SOL     OW28789   6.939   5.073   2.215
 9297SOL    HW128790   0.015   5.078   2.196
 9297SOL    HW228791   6.890   5.054   2.130
 9298SOL     OW28792   0.784   4.318   6.234
 9298SOL    HW128793   0.841   4.259   6.291
 9298SOL    HW228794   0.830   4.405   6.219
 9299SOL     OW28795   2.838   2.040   4.456
 9299SOL    HW128796   2.818   2.060   4.552
 9299SOL    HW228797   2.912   2.100   4.425
 9300SOL     OW28798   2.445   6.291   4.918
 9300SOL    HW128799   2.511   6.216   4.910
 9300SOL    HW228800   2.408   6.294   5.011
 9301SOL     OW28801   1.368   4.111   3.973
 9301SOL    HW128802   1.430   4.059   4.031
 9301SOL    HW228803   1.273   4.090   3.998
 9302SOL     OW28804   2.901   5.616   4.084
 9302SOL    HW128805   2.812   5.660   4.096
 9302SOL    HW228806   2.953   5.622   4.169
 9303SOL     OW28807   2.899   4.550   7.019
 9303SOL    HW128808   2.888   4.649   7.008
 9303SOL    HW228809   2.853   4.520   0.080
 9304SOL     OW28810   5.431   5.501   6.415
 9304SOL    HW128811   5.348   5.494   6.360
 9304SOL    HW228812   5.491   5.570   6.374
 9305SOL     OW28813   1.609   1.520   0.940
 9305SOL    HW128814   1.640   1.583   0.869
 9305SOL    HW228815   1.658   1.433   0.932
 9306SOL     OW28816   6.513   6.491   4.363
 9306SOL    HW128817   6.563   6.520   4.445
 9306SOL    HW228818   6.423   6.456   4.389
 9307SOL     OW28819   1.542   4.027   1.519
 9307SOL    HW128820   1.545   4.125   1.500
 9307SOL    HW228821   1.567   4.011   1.615
 9308SOL     OW28822   2.345   3.735   1.780
 9308SOL    HW128823   2.334   3.641   1.814
 9308SOL    HW228824   2.396   3.733   1.695
 9309SOL     OW28825   4.852   5.341   6.101
 9309SOL    HW128826   4.899   5.263   6.059
 9309SOL    HW228827   4.807   5.394   6.029
 9310SOL     OW28828   5.891   5.817   5.585
 9310SOL    HW128829   5.953   5.894   5.573
 9310SOL    HW228830   5.828   5.836   5.660
 9311SOL     OW28831   5.206   3.817   0.947
 9311SOL    HW128832   5.184   3.814   1.044
 9311SOL    HW228833   5.130   3.857   0.896
 9312SOL     OW28834   6.718   2.671   3.627
 9312SOL    HW128835   6.810   2.691   3.592
 9312SOL    HW228836   6.652   2.675   3.552
 9313SOL     OW28837   0.855   0.825   2.490
 9313SOL    HW128838   0.766   0.785   2.512
 9313SOL    HW228839   0.874   0.901   2.551
 9314SOL     OW28840   5.266   5.214   1.616
 9314SOL    HW128841   5.241   5.309   1.635
 9314SOL    HW228842   5.233   5.188   1.525
 9315SOL     OW28843   5.708   5.453   5.478
 9315SOL    HW128844   5.678   5.443   5.572
 9315SOL    HW228845   5.631   5.484   5.421
 9316SOL     OW28846   5.036   6.804   0.849
 9316SOL    HW128847   5.095   6.778   0.926
 9316SOL    HW228848   4.946   6.762   0.860
 9317SOL     OW28849   1.914   5.934   3.712
 9317SOL    HW128850   1.924   5.965   3.617
 9317SOL    HW228851   1.825   5.961   3.747
 9318SOL     OW28852   3.532   6.985   2.550
 9318SOL    HW128853   3.586   7.010   2.470
 9318SOL    HW228854   3.491   6.895   2.535
 9319SOL     OW28855   4.010   1.951   0.226
 9319SOL    HW128856   4.047   1.934   0.318
 9319SOL    HW228857   3.953   2.033   0.227
 9320SOL     OW28858   6.941   6.532   6.841
 9320SOL    HW128859   6.948   6.492   6.933
 9320SOL    HW228860   6.931   6.459   6.774
 9321SOL     OW28861   1.256   3.288   4.054
 9321SOL    HW128862   1.332   3.236   4.015
 9321SOL    HW228863   1.277   3.313   4.148
 9322SOL     OW28864   5.406   3.024   6.949
 9322SOL    HW128865   5.464   3.100   6.980
 9322SOL    HW228866   5.463   2.953   6.909
 9323SOL     OW28867   0.599   2.099   5.876
 9323SOL    HW128868   0.500   2.099   5.870
 9323SOL    HW228869   0.637   2.152   5.800
 9324SOL     OW28870   0.323   4.560   1.313
 9324SOL    HW128871   0.356   4.545   1.220
 9324SOL    HW228872   0.258   4.636   1.314
 9325SOL     OW28873   0.845   4.859   3.197
 9325SOL    HW128874   0.924   4.814   3.239
 9325SOL    HW228875   0.761   4.814   3.227
 9326SOL     OW28876   5.072   4.449   0.501
 9326SOL    HW128877   5.052   4.377   0.568
 9326SOL    HW228878   4.993   4.510   0.494
 9327SOL     OW28879   3.008   1.386   3.356
 9327SOL    HW128880   2.921   1.420   3.392
 9327SOL    HW228881   2.994   1.350   3.263
 9328SOL     OW28882   1.657   0.854   3.299
 9328SOL    HW128883   1.601   0.790   3.246
 9328SOL    HW228884   1.624   0.858   3.393
 9329SOL     OW28885   1.321   5.169   6.524
 9329SOL    HW128886   1.414   5.200   6.545
 9329SOL    HW228887   1.261   5.192   6.601
 9330SOL     OW28888   1.153   6.770   0.800
 9330SOL    HW128889   1.123   6.860   0.833
 9330SOL    HW228890   1.074   6.709   0.795
 9331SOL     OW28891   2.455   4.440   4.216
 9331SOL    HW128892   2.506   4.460   4.133
 9331SOL    HW228893   2.379   4.378   4.194
 9332SOL     OW28894   6.606   5.054   6.962
 9332SOL    HW128895   6.534   5.110   6.921
 9332SOL    HW228896   6.665   5.111   7.018
 9333SOL     OW28897   2.885   4.571   1.428
 9333SOL    HW128898   2.979   4.573   1.463
 9333SOL    HW228899   2.822   4.562   1.505
 9334SOL     OW28900   6.804   5.721   6.267
 9334SOL    HW128901   6.836   5.809   6.303
 9334SOL    HW228902   6.706   5.726   6.249
 9335SOL     OW28903   0.522   3.858   1.222
 9335SOL    HW128904   0.571   3.814   1.297
 9335SOL    HW228905   0.577   3.934   1.186
 9336SOL     OW28906   5.228   6.722   6.007
 9336SOL    HW128907   5.219   6.760   5.915
 9336SOL    HW228908   5.224   6.797   6.074
 9337SOL     OW28909   2.949   1.679   5.558
 9337SOL    HW128910   2.994   1.597   5.524
 9337SOL    HW228911   2.963   1.686   5.657
 9338SOL     OW28912   5.261   6.020   0.926
 9338SOL    HW128913   5.344   6.017   0.982
 9338SOL    HW228914   5.275   5.966   0.843
 9339SOL     OW28915   6.881   3.788   5.240
 9339SOL    HW128916   6.872   3.867   5.179
 9339SOL    HW228917   6.868   3.818   5.335
 9340SOL     OW28918   2.529   4.918   2.159
 9340SOL    HW128919   2.603   4.982   2.139
 9340SOL    HW228920   2.568   4.829   2.184
 9341SOL     OW28921   5.795   5.313   6.878
 9341SOL    HW128922   5.811   5.372   6.957
 9341SOL    HW228923   5.711   5.343   6.832
 9342SOL     OW28924   3.257   6.788   5.135
 9342SOL    HW128925   3.186   6.821   5.198
 9342SOL    HW228926   3.332   6.748   5.187
 9343SOL     OW28927   4.938   3.913   0.969
 9343SOL    HW128928   4.908   3.830   1.017
 9343SOL    HW228929   4.883   3.925   0.886
 9344SOL     OW28930   5.857   0.250   4.992
 9344SOL    HW128931   5.856   0.275   5.089
 9344SOL    HW228932   5.925   0.178   4.977
 9345SOL     OW28933   0.214   4.605   0.283
 9345SOL    HW128934   0.156   4.620   0.363
 9345SOL    HW228935   0.259   4.516   0.290
 9346SOL     OW28936   5.230   0.385   2.091
 9346SOL    HW128937   5.196   0.403   1.999
 9346SOL    HW228938   5.156   0.393   2.157
 9347SOL     OW28939   4.519   6.335   1.589
 9347SOL    HW128940   4.575   6.287   1.656
 9347SOL    HW228941   4.515   6.283   1.504
 9348SOL     OW28942   2.413   5.094   1.905
 9348SOL    HW128943   2.405   5.116   1.808
 9348SOL    HW228944   2.496   5.136   1.942
 9349SOL     OW28945   6.756   6.374   1.234
 9349SOL    HW128946   6.671   6.423   1.255
 9349SOL    HW228947   6.834   6.430   1.261
 9350SOL     OW28948   6.709   0.455   0.540
 9350SOL    HW128949   6.713   0.484   0.444
 9350SOL    HW228950   6.618   0.418   0.559
 9351SOL     OW28951   4.048   3.371   6.222
 9351SOL    HW128952   4.114   3.400   6.291
 9351SOL    HW228953   4.071   3.414   6.134
 9352SOL     OW28954   2.931   2.677   6.957
 9352SOL    HW128955   2.924   2.649   6.861
 9352SOL    HW228956   2.939   2.596   7.014
 9353SOL     OW28957   0.754   3.038   1.704
 9353SOL    HW128958   0.845   3.078   1.716
 9353SOL    HW228959   0.717   3.063   1.614
 9354SOL     OW28960   5.317   1.815   1.857
 9354SOL    HW128961   5.230   1.813   1.809
 9354SOL    HW228962   5.391   1.789   1.794
 9355SOL     OW28963   7.005   1.072   2.147
 9355SOL    HW128964   0.020   1.160   2.118
 9355SOL    HW228965   0.044   1.030   2.213
 9356SOL     OW28966   5.347   3.214   2.825
 9356SOL    HW128967   5.317   3.310   2.826
 9356SOL    HW228968   5.410   3.199   2.749
 9357SOL     OW28969   2.776   4.094   0.750
 9357SOL    HW128970   2.819   4.185   0.745
 9357SOL    HW228971   2.847   4.024   0.745
 9358SOL     OW28972   4.994   4.187   2.381
 9358SOL    HW128973   4.906   4.221   2.413
 9358SOL    HW228974   5.046   4.261   2.338
 9359SOL     OW28975   5.234   4.945   6.017
 9359SOL    HW128976   5.296   4.968   5.942
 9359SOL    HW228977   5.284   4.948   6.104
 9360SOL     OW28978   1.258   1.456   5.109
 9360SOL    HW128979   1.174   1.410   5.135
 9360SOL    HW228980   1.336   1.410   5.152
 9361SOL     OW28981   2.417   1.024   1.932
 9361SOL    HW128982   2.436   1.122   1.938
 9361SOL    HW228983   2.332   1.004   1.980
 9362SOL     OW28984   1.976   1.863   3.449
 9362SOL    HW128985   1.897   1.802   3.455
 9362SOL    HW228986   1.944   1.958   3.445
 9363SOL     OW28987   1.819   6.629   2.005
 9363SOL    HW128988   1.899   6.687   2.024
 9363SOL    HW228989   1.841   6.566   1.931
 9364SOL     OW28990   5.393   4.498   1.164
 9364SOL    HW128991   5.366   4.572   1.225
 9364SOL    HW228992   5.459   4.532   1.097
 9365SOL     OW28993   2.561   1.536   4.796
 9365SOL    HW128994   2.608   1.494   4.874
 9365SOL    HW228995   2.465   1.508   4.796
 9366SOL     OW28996   3.418   1.394   1.631
 9366SOL    HW128997   3.513   1.417   1.610
 9366SOL    HW228998   3.394   1.307   1.588
 9367SOL     OW28999   6.359   6.092   4.534
 9367SOL    HW129000   6.354   6.040   4.619
 9367SOL    HW229001   6.454   6.098   4.504
 9368SOL     OW29002   4.532   2.855   1.142
 9368SOL    HW129003   4.535   2.822   1.237
 9368SOL    HW229004   4.437   2.877   1.118
 9369SOL     OW29005   0.085   2.467   5.932
 9369SOL    HW129006   0.042   2.431   6.015
 9369SOL    HW229007   0.072   2.401   5.858
 9370SOL     OW29008   6.044   5.874   3.475
 9370SOL    HW129009   6.129   5.820   3.475
 9370SOL    HW229010   6.015   5.891   3.569
 9371SOL     OW29011   1.324   6.648   0.981
 9371SOL    HW129012   1.256   6.700   0.929
 9371SOL    HW229013   1.352   6.568   0.928
 9372SOL     OW29014   5.741   6.313   0.014
 9372SOL    HW129015   5.819   6.275   0.064
 9372SOL    HW229016   5.709   6.396   0.060
 9373SOL     OW29017   4.710   2.630   4.112
 9373SOL    HW129018   4.799   2.593   4.138
 9373SOL    HW229019   4.645   2.616   4.187
 9374SOL     OW29020   5.294   4.501   0.325
 9374SOL    HW129021   5.204   4.499   0.368
 9374SOL    HW229022   5.351   4.429   0.364
 9375SOL     OW29023   0.360   1.593   3.872
 9375SOL    HW129024   0.416   1.535   3.931
 9375SOL    HW229025   0.371   1.565   3.776
 9376SOL     OW29026   1.812   2.742   1.833
 9376SOL    HW129027   1.844   2.830   1.798
 9376SOL    HW229028   1.885   2.675   1.827
 9377SOL     OW29029   5.959   5.295   2.486
 9377SOL    HW129030   5.923   5.209   2.522
 9377SOL    HW229031   5.911   5.372   2.529
 9378SOL     OW29032   3.364   6.037   1.511
 9378SOL    HW129033   3.272   6.010   1.482
 9378SOL    HW229034   3.416   6.069   1.432
 9379SOL     OW29035   5.826   4.351   5.356
 9379SOL    HW129036   5.894   4.285   5.327
 9379SOL    HW229037   5.865   4.443   5.352
 9380SOL     OW29038   5.865   5.752   6.534
 9380SOL    HW129039   5.845   5.665   6.489
 9380SOL    HW229040   5.867   5.826   6.467
 9381SOL     OW29041   1.594   0.836   0.694
 9381SOL    HW129042   1.649   0.887   0.761
 9381SOL    HW229043   1.643   0.753   0.667
 9382SOL     OW29044   5.625   2.046   2.121
 9382SOL    HW129045   5.724   2.055   2.111
 9382SOL    HW229046   5.587   2.133   2.152
 9383SOL     OW29047   5.668   5.447   5.736
 9383SOL    HW129048   5.749   5.455   5.795
 9383SOL    HW229049   5.586   5.465   5.789
 9384SOL     OW29050   3.984   6.450   2.572
 9384SOL    HW129051   3.977   6.545   2.602
 9384SOL    HW229052   3.927   6.435   2.491
 9385SOL     OW29053   3.582   0.517   4.127
 9385SOL    HW129054   3.557   0.555   4.215
 9385SOL    HW229055   3.604   0.591   4.063
 9386SOL     OW29056   3.952   0.040   5.108
 9386SOL    HW129057   3.861   0.058   5.071
 9386SOL    HW229058   3.974   0.109   5.177
 9387SOL     OW29059   3.944   6.357   0.906
 9387SOL    HW129060   3.891   6.429   0.860
 9387SOL    HW229061   3.908   6.267   0.879
 9388SOL     OW29062   6.293   6.660   2.605
 9388SOL    HW129063   6.270   6.732   2.671
 9388SOL    HW229064   6.391   6.662   2.587
 9389SOL     OW29065   3.417   1.334   6.952
 9389SOL    HW129066   3.384   1.295   0.015
 9389SOL    HW229067   3.340   1.348   6.890
 9390SOL     OW29068   2.687   6.619   1.912
 9390SOL    HW129069   2.643   6.640   2.000
 9390SOL    HW229070   2.737   6.532   1.920
 9391SOL     OW29071   0.213   1.435   5.537
 9391SOL    HW129072   0.261   1.522   5.525
 9391SOL    HW229073   0.229   1.377   5.458
 9392SOL     OW29074   1.231   6.354   4.467
 9392SOL    HW129075   1.140   6.361   4.426
 9392SOL    HW229076   1.227   6.384   4.562
 9393SOL     OW29077   3.679   1.950   5.513
 9393SOL    HW129078   3.605   2.004   5.473
 9393SOL    HW229079   3.714   1.996   5.595
 9394SOL     OW29080   5.779   2.531   1.862
 9394SOL    HW129081   5.749   2.626   1.850
 9394SOL    HW229082   5.834   2.504   1.783
 9395SOL     OW29083   2.009   2.886   6.324
 9395SOL    HW129084   2.081   2.888   6.255
 9395SOL    HW229085   1.924   2.851   6.283
 9396SOL     OW29086   6.094   0.268   6.685
 9396SOL    HW129087   6.132   0.292   6.596
 9396SOL    HW229088   6.148   0.195   6.726
 9397SOL     OW29089   3.075   1.362   1.163
 9397SOL    HW129090   2.999   1.310   1.202
 9397SOL    HW229091   3.043   1.452   1.133
 9398SOL     OW29092   2.072   1.226   0.868
 9398SOL    HW129093   2.008   1.157   0.836
 9398SOL    HW229094   2.127   1.189   0.943
 9399SOL     OW29095   6.648   0.621   5.600
 9399SOL    HW129096   6.739   0.590   5.626
 9399SOL    HW229097   6.579   0.559   5.639
 9400SOL     OW29098   4.472   2.137   3.345
 9400SOL    HW129099   4.440   2.044   3.328
 9400SOL    HW229100   4.560   2.151   3.299
 9401SOL     OW29101   4.288   0.545   3.114
 9401SOL    HW129102   4.206   0.494   3.088
 9401SOL    HW229103   4.295   0.629   3.061
 9402SOL     OW29104   2.142   4.852   0.269
 9402SOL    HW129105   2.129   4.818   0.176
 9402SOL    HW229106   2.167   4.776   0.329
 9403SOL     OW29107   5.607   0.788   5.052
 9403SOL    HW129108   5.571   0.853   4.986
 9403SOL    HW229109   5.620   0.699   5.008
 9404SOL     OW29110   0.861   3.961   5.251
 9404SOL    HW129111   0.815   4.048   5.236
 9404SOL    HW229112   0.886   3.921   5.163
 9405SOL     OW29113   6.904   0.392   0.754
 9405SOL    HW129114   6.833   0.404   0.685
 9405SOL    HW229115   6.866   0.411   0.845
 9406SOL     OW29116   6.724   1.227   5.664
 9406SOL    HW129117   6.768   1.138   5.677
 9406SOL    HW229118   6.709   1.270   5.753
 9407SOL     OW29119   3.609   6.279   2.946
 9407SOL    HW129120   3.678   6.226   2.996
 9407SOL    HW229121   3.650   6.319   2.864
 9408SOL     OW29122   3.820   1.823   6.841
 9408SOL    HW129123   3.868   1.903   6.805
 9408SOL    HW229124   3.870   1.787   6.919
 9409SOL     OW29125   6.151   3.539   3.241
 9409SOL    HW129126   6.200   3.599   3.304
 9409SOL    HW229127   6.209   3.461   3.217
 9410SOL     OW29128   4.549   6.593   2.197
 9410SOL    HW129129   4.591   6.636   2.118
 9410SOL    HW229130   4.592   6.504   2.214
 9411SOL     OW29131   4.958   5.576   1.509
 9411SOL    HW129132   4.866   5.570   1.548
 9411SOL    HW229133   4.997   5.666   1.527
 9412SOL     OW29134   6.797   3.188   2.006
 9412SOL    HW129135   6.726   3.173   2.075
 9412SOL    HW229136   6.789   3.281   1.970
 9413SOL     OW29137   3.442   5.419   4.552
 9413SOL    HW129138   3.468   5.323   4.543
 9413SOL    HW229139   3.387   5.447   4.472
 9414SOL     OW29140   2.544   1.436   2.259
 9414SOL    HW129141   2.618   1.457   2.323
 9414SOL    HW229142   2.480   1.512   2.255
 9415SOL     OW29143   2.835   0.816   2.486
 9415SOL    HW129144   2.809   0.754   2.412
 9415SOL    HW229145   2.924   0.856   2.467
 9416SOL     OW29146   1.554   1.941   1.017
 9416SOL    HW129147   1.637   1.920   1.068
 9416SOL    HW229148   1.489   1.866   1.026
 9417SOL     OW29149   2.178   0.253   4.489
 9417SOL    HW129150   2.210   0.239   4.582
 9417SOL    HW229151   2.243   0.311   4.439
 9418SOL     OW29152   4.086   4.531   1.077
 9418SOL    HW129153   4.128   4.587   1.148
 9418SOL    HW229154   3.986   4.536   1.085
 9419SOL     OW29155   3.603   5.613   4.664
 9419SOL    HW129156   3.672   5.557   4.708
 9419SOL    HW229157   3.539   5.554   4.614
 9420SOL     OW29158   0.978   1.295   4.250
 9420SOL    HW129159   0.904   1.319   4.313
 9420SOL    HW229160   0.948   1.310   4.156
 9421SOL     OW29161   1.824   5.143   4.729
 9421SOL    HW129162   1.815   5.110   4.823
 9421SOL    HW229163   1.842   5.242   4.730
 9422SOL     OW29164   3.554   0.985   2.249
 9422SOL    HW129165   3.593   0.956   2.162
 9422SOL    HW229166   3.529   0.904   2.303
 9423SOL     OW29167   4.867   0.465   4.416
 9423SOL    HW129168   4.803   0.495   4.487
 9423SOL    HW229169   4.924   0.390   4.452
 9424SOL     OW29170   2.855   6.286   4.471
 9424SOL    HW129171   2.815   6.361   4.418
 9424SOL    HW229172   2.907   6.227   4.409
 9425SOL     OW29173   0.946   4.893   3.545
 9425SOL    HW129174   0.963   4.861   3.452
 9425SOL    HW229175   0.863   4.949   3.546
 9426SOL     OW29176   4.109   6.397   0.382
 9426SOL    HW129177   4.036   6.338   0.349
 9426SOL    HW229178   4.163   6.349   0.450
 9427SOL     OW29179   3.080   4.927   4.274
 9427SOL    HW129180   3.001   4.987   4.260
 9427SOL    HW229181   3.152   4.951   4.208
 9428SOL     OW29182   4.501   6.165   2.029
 9428SOL    HW129183   4.434   6.186   2.099
 9428SOL    HW229184   4.496   6.067   2.005
 9429SOL     OW29185   6.854   3.081   2.526
 9429SOL    HW129186   6.855   3.050   2.621
 9429SOL    HW229187   6.831   3.004   2.466
 9430SOL     OW29188   6.369   6.861   1.780
 9430SOL    HW129189   6.322   6.943   1.748
 9430SOL    HW229190   6.407   6.877   1.871
 9431SOL     OW29191   6.432   4.000   1.342
 9431SOL    HW129192   6.456   4.092   1.311
 9431SOL    HW229193   6.453   3.934   1.270
 9432SOL     OW29194   6.869   6.759   4.434
 9432SOL    HW129195   6.918   6.793   4.514
 9432SOL    HW229196   6.934   6.735   4.363
 9433SOL     OW29197   3.062   4.967   4.788
 9433SOL    HW129198   3.005   5.043   4.820
 9433SOL    HW229199   3.132   4.947   4.856
 9434SOL     OW29200   5.078   4.933   3.228
 9434SOL    HW129201   5.069   4.835   3.248
 9434SOL    HW229202   5.164   4.950   3.180
 9435SOL     OW29203   1.434   1.809   5.385
 9435SOL    HW129204   1.383   1.893   5.405
 9435SOL    HW229205   1.516   1.831   5.333
 9436SOL     OW29206   1.918   2.513   6.343
 9436SOL    HW129207   1.985   2.529   6.270
 9436SOL    HW229208   1.838   2.571   6.328
 9437SOL     OW29209   0.596   4.968   4.053
 9437SOL    HW129210   0.586   5.037   4.125
 9437SOL    HW229211   0.588   5.012   3.963
 9438SOL     OW29212   1.001   6.995   2.008
 9438SOL    HW129213   0.943   6.971   1.930
 9438SOL    HW229214   0.975   6.940   2.087
 9439SOL     OW29215   1.168   2.686   1.464
 9439SOL    HW129216   1.087   2.629   1.476
 9439SOL    HW229217   1.175   2.716   1.369
 9440SOL     OW29218   4.758   5.747   5.031
 9440SOL    HW129219   4.718   5.657   5.045
 9440SOL    HW229220   4.718   5.788   4.949
 9441SOL     OW29221   1.952   5.397   4.786
 9441SOL    HW129222   2.014   5.381   4.863
 9441SOL    HW229223   1.882   5.464   4.813
 9442SOL     OW29224   0.674   3.707   1.391
 9442SOL    HW129225   0.666   3.666   1.482
 9442SOL    HW229226   0.749   3.772   1.390
 9443SOL     OW29227   2.064   3.241   1.505
 9443SOL    HW129228   2.015   3.174   1.449
 9443SOL    HW229229   2.077   3.203   1.597
 9444SOL     OW29230   0.536   3.980   5.922
 9444SOL    HW129231   0.615   4.024   5.965
 9444SOL    HW229232   0.568   3.923   5.846
 9445SOL     OW29233   6.266   3.468   1.422
 9445SOL    HW129234   6.179   3.419   1.413
 9445SOL    HW229235   6.258   3.558   1.379
 9446SOL     OW29236   6.072   4.970   0.983
 9446SOL    HW129237   6.105   4.892   0.930
 9446SOL    HW229238   6.138   4.991   1.056
 9447SOL     OW29239   6.274   2.608   1.472
 9447SOL    HW129240   6.260   2.604   1.374
 9447SOL    HW229241   6.327   2.529   1.502
 9448SOL     OW29242   6.027   6.235   0.502
 9448SOL    HW129243   5.983   6.166   0.443
 9448SOL    HW229244   6.095   6.190   0.560
 9449SOL     OW29245   6.942   5.332   5.110
 9449SOL    HW129246   0.009   5.371   5.089
 9449SOL    HW229247   6.946   5.286   5.199
 9450SOL     OW29248   2.878   5.387   4.317
 9450SOL    HW129249   2.900   5.483   4.332
 9450SOL    HW229250   2.784   5.369   4.346
 9451SOL     OW29251   4.245   4.105   5.692
 9451SOL    HW129252   4.309   4.045   5.646
 9451SOL    HW229253   4.254   4.094   5.791
 9452SOL     OW29254   2.908   4.204   1.088
 9452SOL    HW129255   2.996   4.160   1.109
 9452SOL    HW229256   2.889   4.194   0.990
 9453SOL     OW29257   3.191   4.847   2.163
 9453SOL    HW129258   3.137   4.813   2.086
 9453SOL    HW229259   3.279   4.881   2.129
 9454SOL     OW29260   2.290   2.552   5.545
 9454SOL    HW129261   2.300   2.531   5.642
 9454SOL    HW229262   2.380   2.552   5.501
 9455SOL     OW29263   2.910   1.988   2.167
 9455SOL    HW129264   2.829   2.010   2.112
 9455SOL    HW229265   2.904   1.893   2.198
 9456SOL     OW29266   1.375   3.294   1.014
 9456SOL    HW129267   1.472   3.280   0.992
 9456SOL    HW229268   1.341   3.216   1.066
 9457SOL     OW29269   6.959   3.244   0.661
 9457SOL    HW129270   6.907   3.323   0.694
 9457SOL    HW229271   0.026   3.274   0.627
 9458SOL     OW29272   0.568   5.761   4.686
 9458SOL    HW129273   0.581   5.749   4.785
 9458SOL    HW229274   0.599   5.678   4.639
 9459SOL     OW29275   4.127   5.792   1.591
 9459SOL    HW129276   4.098   5.698   1.612
 9459SOL    HW229277   4.050   5.855   1.604
 9460SOL     OW29278   0.982   2.456   5.043
 9460SOL    HW129279   0.892   2.488   5.071
 9460SOL    HW229280   1.027   2.526   4.988
 9461SOL     OW29281   0.908   0.487   2.805
 9461SOL    HW129282   0.999   0.507   2.768
 9461SOL    HW229283   0.864   0.572   2.832
 9462SOL     OW29284   0.140   3.590   3.064
 9462SOL    HW129285   0.212   3.562   3.127
 9462SOL    HW229286   0.078   3.514   3.048
 9463SOL     OW29287   5.302   1.995   6.770
 9463SOL    HW129288   5.326   2.034   6.859
 9463SOL    HW229289   5.296   2.069   6.702
 9464SOL     OW29290   4.307   6.793   5.896
 9464SOL    HW129291   4.236   6.759   5.834
 9464SOL    HW229292   4.265   6.824   5.981
 9465SOL     OW29293   5.875   0.373   4.419
 9465SOL    HW129294   5.917   0.319   4.493
 9465SOL    HW229295   5.935   0.371   4.339
 9466SOL     OW29296   2.362   2.094   6.858
 9466SOL    HW129297   2.358   2.085   6.758
 9466SOL    HW229298   2.454   2.123   6.885
 9467SOL     OW29299   2.048   3.313   1.938
 9467SOL    HW129300   2.110   3.388   1.960
 9467SOL    HW229301   2.001   3.283   2.021
 9468SOL     OW29302   0.339   2.502   6.267
 9468SOL    HW129303   0.407   2.569   6.298
 9468SOL    HW229304   0.353   2.483   6.170
 9469SOL     OW29305   6.394   3.965   2.360
 9469SOL    HW129306   6.381   4.030   2.435
 9469SOL    HW229307   6.347   3.879   2.381
 9470SOL     OW29308   5.723   3.851   1.523
 9470SOL    HW129309   5.651   3.805   1.574
 9470SOL    HW229310   5.813   3.821   1.556
 9471SOL     OW29311   0.490   2.375   5.997
 9471SOL    HW129312   0.499   2.286   6.042
 9471SOL    HW229313   0.436   2.365   5.914
 9472SOL     OW29314   6.515   3.026   4.723
 9472SOL    HW129315   6.495   2.962   4.649
 9472SOL    HW229316   6.527   2.977   4.809
 9473SOL     OW29317   3.752   5.217   4.275
 9473SOL    HW129318   3.748   5.120   4.249
 9473SOL    HW229319   3.671   5.264   4.240
 9474SOL     OW29320   3.860   5.429   3.277
 9474SOL    HW129321   3.878   5.507   3.336
 9474SOL    HW229322   3.784   5.451   3.215
 9475SOL     OW29323   1.217   3.502   1.191
 9475SOL    HW129324   1.174   3.427   1.141
 9475SOL    HW229325   1.315   3.504   1.172
 9476SOL     OW29326   3.962   4.017   5.201
 9476SOL    HW129327   4.026   4.073   5.253
 9476SOL    HW229328   3.981   4.026   5.103
 9477SOL     OW29329   0.840   2.927   0.743
 9477SOL    HW129330   0.824   2.985   0.663
 9477SOL    HW229331   0.774   2.950   0.815
 9478SOL     OW29332   5.164   4.797   5.162
 9478SOL    HW129333   5.217   4.716   5.135
 9478SOL    HW229334   5.214   4.847   5.232
 9479SOL     OW29335   6.339   5.750   5.567
 9479SOL    HW129336   6.337   5.654   5.538
 9479SOL    HW229337   6.368   5.808   5.491
 9480SOL     OW29338   5.906   4.240   6.935
 9480SOL    HW129339   5.997   4.250   6.894
 9480SOL    HW229340   5.836   4.259   6.866
 9481SOL     OW29341   6.262   3.668   2.134
 9481SOL    HW129342   6.250   3.707   2.226
 9481SOL    HW229343   6.352   3.624   2.129
 9482SOL     OW29344   4.151   0.128   2.459
 9482SOL    HW129345   4.244   0.135   2.494
 9482SOL    HW229346   4.090   0.097   2.532
 9483SOL     OW29347   1.699   1.582   0.645
 9483SOL    HW129348   1.600   1.577   0.640
 9483SOL    HW229349   1.732   1.654   0.582
 9484SOL     OW29350   6.422   1.589   2.804
 9484SOL    HW129351   6.358   1.579   2.880
 9484SOL    HW229352   6.382   1.552   2.720
 9485SOL     OW29353   0.828   0.755   2.910
 9485SOL    HW129354   0.759   0.827   2.919
 9485SOL    HW229355   0.870   0.737   2.999
 9486SOL     OW29356   2.936   5.842   2.439
 9486SOL    HW129357   2.964   5.748   2.459
 9486SOL    HW229358   2.966   5.867   2.347
 9487SOL     OW29359   3.512   2.931   3.581
 9487SOL    HW129360   3.576   2.871   3.533
 9487SOL    HW229361   3.537   2.937   3.677
 9488SOL     OW29362   1.431   0.433   1.427
 9488SOL    HW129363   1.360   0.500   1.450
 9488SOL    HW229364   1.387   0.349   1.396
 9489SOL     OW29365   4.008   4.463   0.825
 9489SOL    HW129366   4.031   4.443   0.920
 9489SOL    HW229367   3.909   4.455   0.812
 9490SOL     OW29368   5.802   1.174   0.104
 9490SOL    HW129369   5.758   1.263   0.119
 9490SOL    HW229370   5.753   1.103   0.154
 9491SOL     OW29371   6.537   5.250   5.834
 9491SOL    HW129372   6.549   5.152   5.816
 9491SOL    HW229373   6.617   5.300   5.801
 9492SOL     OW29374   2.924   4.002   1.605
 9492SOL    HW129375   3.002   4.035   1.658
 9492SOL    HW229376   2.870   3.939   1.662
 9493SOL     OW29377   5.550   6.216   2.865
 9493SOL    HW129378   5.644   6.249   2.863
 9493SOL    HW229379   5.538   6.145   2.796
 9494SOL     OW29380   4.062   3.511   5.991
 9494SOL    HW129381   4.048   3.472   5.901
 9494SOL    HW229382   4.155   3.550   5.996
 9495SOL     OW29383   5.764   2.791   4.908
 9495SOL    HW129384   5.834   2.825   4.971
 9495SOL    HW229385   5.687   2.755   4.960
 9496SOL     OW29386   5.464   3.868   0.231
 9496SOL    HW129387   5.412   3.784   0.246
 9496SOL    HW229388   5.455   3.928   0.311
 9497SOL     OW29389   7.017   6.519   6.036
 9497SOL    HW129390   6.928   6.561   6.019
 9497SOL    HW229391   0.039   6.565   6.113
 9498SOL     OW29392   4.125   0.141   5.941
 9498SOL    HW129393   4.061   0.086   5.889
 9498SOL    HW229394   4.216   0.101   5.936
 9499SOL     OW29395   4.900   4.080   6.377
 9499SOL    HW129396   4.895   4.030   6.291
 9499SOL    HW229397   4.848   4.165   6.370
 9500SOL     OW29398   5.009   5.754   2.217
 9500SOL    HW129399   5.089   5.808   2.190
 9500SOL    HW229400   5.032   5.657   2.214
 9501SOL     OW29401   3.264   1.555   4.927
 9501SOL    HW129402   3.284   1.553   5.025
 9501SOL    HW229403   3.295   1.642   4.889
 9502SOL     OW29404   5.248   3.165   5.282
 9502SOL    HW129405   5.290   3.104   5.349
 9502SOL    HW229406   5.271   3.134   5.190
 9503SOL     OW29407   1.296   6.758   1.479
 9503SOL    HW129408   1.346   6.793   1.558
 9503SOL    HW229409   1.303   6.824   1.404
 9504SOL     OW29410   0.716   3.542   6.778
 9504SOL    HW129411   0.653   3.552   6.701
 9504SOL    HW229412   0.720   3.446   6.805
 9505SOL     OW29413   5.428   3.387   3.084
 9505SOL    HW129414   5.387   3.468   3.042
 9505SOL    HW229415   5.398   3.305   3.035
 9506SOL     OW29416   6.175   2.980   0.426
 9506SOL    HW129417   6.249   2.935   0.475
 9506SOL    HW229418   6.208   3.013   0.338
 9507SOL     OW29419   0.853   2.238   3.754
 9507SOL    HW129420   0.791   2.308   3.788
 9507SOL    HW229421   0.800   2.161   3.719
 9508SOL     OW29422   5.091   2.054   0.229
 9508SOL    HW129423   5.001   2.024   0.260
 9508SOL    HW229424   5.147   2.080   0.307
 9509SOL     OW29425   2.677   6.659   5.244
 9509SOL    HW129426   2.726   6.713   5.312
 9509SOL    HW229427   2.709   6.682   5.152
 9510SOL     OW29428   6.222   4.071   3.107
 9510SOL    HW129429   6.251   4.076   3.202
 9510SOL    HW229430   6.124   4.089   3.101
 9511SOL     OW29431   1.824   1.335   0.669
 9511SOL    HW129432   1.917   1.312   0.639
 9511SOL    HW229433   1.810   1.434   0.660
 9512SOL     OW29434   1.547   2.639   4.398
 9512SOL    HW129435   1.610   2.563   4.411
 9512SOL    HW229436   1.472   2.610   4.339
 9513SOL     OW29437   2.547   4.523   3.963
 9513SOL    HW129438   2.600   4.608   3.964
 9513SOL    HW229439   2.558   4.478   3.874
 9514SOL     OW29440   2.447   2.819   6.307
 9514SOL    HW129441   2.430   2.895   6.370
 9514SOL    HW229442   2.545   2.807   6.295
 9515SOL     OW29443   2.704   5.449   5.739
 9515SOL    HW129444   2.702   5.399   5.653
 9515SOL    HW229445   2.663   5.540   5.726
 9516SOL     OW29446   5.586   4.090   4.885
 9516SOL    HW129447   5.555   4.005   4.929
 9516SOL    HW229448   5.645   4.140   4.948
 9517SOL     OW29449   0.912   5.900   1.906
 9517SOL    HW129450   0.961   5.817   1.877
 9517SOL    HW229451   0.892   5.894   2.004
 9518SOL     OW29452   0.787   3.069   5.433
 9518SOL    HW129453   0.716   3.000   5.445
 9518SOL    HW229454   0.809   3.110   5.521
 9519SOL     OW29455   3.797   3.510   3.039
 9519SOL    HW129456   3.879   3.463   3.008
 9519SOL    HW229457   3.775   3.584   2.976
 9520SOL     OW29458   5.002   0.522   6.034
 9520SOL    HW129459   4.902   0.526   6.034
 9520SOL    HW229460   5.038   0.584   5.965
 9521SOL     OW29461   3.402   1.043   1.148
 9521SOL    HW129462   3.336   1.091   1.090
 9521SOL    HW229463   3.415   0.950   1.112
 9522SOL     OW29464   3.166   6.089   2.601
 9522SOL    HW129465   3.119   6.129   2.522
 9522SOL    HW229466   3.101   6.037   2.656
 9523SOL     OW29467   3.012   4.836   3.908
 9523SOL    HW129468   3.100   4.883   3.911
 9523SOL    HW229469   2.992   4.795   3.997
 9524SOL     OW29470   2.464   4.009   1.019
 9524SOL    HW129471   2.559   4.016   1.050
 9524SOL    HW229472   2.431   3.916   1.033
 9525SOL     OW29473   2.378   3.232   5.377
 9525SOL    HW129474   2.390   3.163   5.306
 9525SOL    HW229475   2.460   3.236   5.434
 9526SOL     OW29476   5.372   4.982   0.165
 9526SOL    HW129477   5.416   4.910   0.112
 9526SOL    HW229478   5.307   4.942   0.229
 9527SOL     OW29479   4.059   0.284   3.680
 9527SOL    HW129480   4.092   0.197   3.716
 9527SOL    HW229481   3.982   0.316   3.736
 9528SOL     OW29482   5.729   2.244   0.372
 9528SOL    HW129483   5.651   2.296   0.408
 9528SOL    HW229484   5.805   2.306   0.356
 9529SOL     OW29485   5.928   1.068   1.492
 9529SOL    HW129486   5.897   1.131   1.421
 9529SOL    HW229487   5.852   1.010   1.520
 9530SOL     OW29488   1.746   5.494   3.709
 9530SOL    HW129489   1.734   5.588   3.677
 9530SOL    HW229490   1.807   5.493   3.788
 9531SOL     OW29491   3.466   5.563   2.761
 9531SOL    HW129492   3.456   5.649   2.810
 9531SOL    HW229493   3.553   5.563   2.710
 9532SOL     OW29494   6.811   5.296   2.978
 9532SOL    HW129495   6.810   5.396   2.978
 9532SOL    HW229496   6.803   5.263   3.072
 9533SOL     OW29497   1.529   3.673   3.332
 9533SOL    HW129498   1.485   3.737   3.269
 9533SOL    HW229499   1.588   3.723   3.395
 9534SOL     OW29500   5.632   4.882   4.253
 9534SOL    HW129501   5.599   4.958   4.309
 9534SOL    HW229502   5.729   4.867   4.272
 9535SOL     OW29503   0.603   1.721   5.218
 9535SOL    HW129504   0.674   1.783   5.252
 9535SOL    HW229505   0.523   1.774   5.190
 9536SOL     OW29506   3.523   3.908   4.987
 9536SOL    HW129507   3.464   3.894   5.067
 9536SOL    HW229508   3.590   3.980   5.006
 9537SOL     OW29509   0.192   2.020   4.067
 9537SOL    HW129510   0.258   2.067   4.126
 9537SOL    HW229511   0.182   1.925   4.098
 9538SOL     OW29512   4.829   0.350   4.887
 9538SOL    HW129513   4.856   0.424   4.948
 9538SOL    HW229514   4.908   0.322   4.832
 9539SOL     OW29515   3.005   3.710   1.790
 9539SOL    HW129516   3.006   3.679   1.885
 9539SOL    HW229517   2.924   3.768   1.775
 9540SOL     OW29518   4.370   4.841   3.517
 9540SOL    HW129519   4.434   4.917   3.523
 9540SOL    HW229520   4.364   4.794   3.605
 9541SOL     OW29521   2.334   5.909   5.423
 9541SOL    HW129522   2.427   5.941   5.406
 9541SOL    HW229523   2.269   5.983   5.402
 9542SOL     OW29524   6.191   4.296   4.171
 9542SOL    HW129525   6.154   4.378   4.215
 9542SOL    HW229526   6.149   4.285   4.081
 9543SOL     OW29527   2.418   6.982   6.076
 9543SOL    HW129528   2.409   6.970   6.175
 9543SOL    HW229529   2.461   6.900   6.036
 9544SOL     OW29530   5.959   3.256   4.609
 9544SOL    HW129531   6.056   3.232   4.599
 9544SOL    HW229532   5.905   3.172   4.616
 9545SOL     OW29533   0.275   4.441   1.699
 9545SOL    HW129534   0.235   4.532   1.715
 9545SOL    HW229535   0.371   4.442   1.726
 9546SOL     OW29536   2.347   2.868   0.261
 9546SOL    HW129537   2.315   2.925   0.336
 9546SOL    HW229538   2.446   2.864   0.261
 9547SOL     OW29539   3.761   7.022   3.721
 9547SOL    HW129540   3.747   0.079   3.662
 9547SOL    HW229541   3.849   0.007   3.768
 9548SOL     OW29542   1.528   5.079   6.792
 9548SOL    HW129543   1.501   4.988   6.760
 9548SOL    HW229544   1.533   5.142   6.715
 9549SOL     OW29545   4.876   1.865   0.666
 9549SOL    HW129546   4.971   1.849   0.638
 9549SOL    HW229547   4.848   1.957   0.640
 9550SOL     OW29548   5.303   3.356   1.641
 9550SOL    HW129549   5.244   3.432   1.617
 9550SOL    HW229550   5.289   3.281   1.576
 9551SOL     OW29551   6.506   3.722   6.457
 9551SOL    HW129552   6.595   3.746   6.418
 9551SOL    HW229553   6.519   3.656   6.531
 9552SOL     OW29554   3.207   1.749   0.086
 9552SOL    HW129555   3.183   1.846   0.088
 9552SOL    HW229556   3.130   1.697   0.047
 9553SOL     OW29557   5.320   1.761   6.241
 9553SOL    HW129558   5.396   1.810   6.284
 9553SOL    HW229559   5.239   1.819   6.240
 9554SOL     OW29560   3.048   0.799   4.038
 9554SOL    HW129561   3.095   0.882   4.007
 9554SOL    HW229562   3.035   0.737   3.961
 9555SOL     OW29563   6.924   0.431   3.790
 9555SOL    HW129564   6.866   0.377   3.851
 9555SOL    HW229565   6.981   0.493   3.844
 9556SOL     OW29566   1.980   4.660   6.625
 9556SOL    HW129567   1.914   4.603   6.674
 9556SOL    HW229568   1.945   4.682   6.534
 9557SOL     OW29569   4.808   0.569   1.846
 9557SOL    HW129570   4.870   0.637   1.884
 9557SOL    HW229571   4.799   0.493   1.911
 9558SOL     OW29572   4.790   6.975   6.646
 9558SOL    HW129573   4.711   6.920   6.671
 9558SOL    HW229574   4.870   6.944   6.697
 9559SOL     OW29575   1.802   4.468   0.157
 9559SOL    HW129576   1.829   4.389   0.211
 9559SOL    HW229577   1.809   4.551   0.213
 9560SOL     OW29578   3.187   6.970   2.125
 9560SOL    HW129579   3.267   7.009   2.079
 9560SOL    HW229580   3.199   6.978   2.224
 9561SOL     OW29581   0.895   0.326   0.524
 9561SOL    HW129582   0.948   0.243   0.541
 9561SOL    HW229583   0.953   0.406   0.539
 9562SOL     OW29584   2.649   6.261   2.890
 9562SOL    HW129585   2.598   6.282   2.973
 9562SOL    HW229586   2.592   6.208   2.828
 9563SOL     OW29587   0.366   6.154   0.685
 9563SOL    HW129588   0.279   6.144   0.638
 9563SOL    HW229589   0.433   6.196   0.624
 9564SOL     OW29590   1.098   0.724   0.137
 9564SOL    HW129591   1.056   0.754   0.051
 9564SOL    HW229592   1.155   0.644   0.119
 9565SOL     OW29593   3.179   1.666   3.929
 9565SOL    HW129594   3.198   1.639   4.023
 9565SOL    HW229595   3.130   1.754   3.929
 9566SOL     OW29596   3.259   0.734   6.853
 9566SOL    HW129597   3.248   0.767   6.947
 9566SOL    HW229598   3.292   0.639   6.855
 9567SOL     OW29599   6.983   3.729   1.258
 9567SOL    HW129600   0.026   3.701   1.187
 9567SOL    HW229601   7.022   3.710   1.348
 9568SOL     OW29602   4.906   1.415   6.814
 9568SOL    HW129603   5.001   1.428   6.843
 9568SOL    HW229604   4.850   1.395   6.894
 9569SOL     OW29605   5.631   1.118   1.880
 9569SOL    HW129606   5.545   1.084   1.843
 9569SOL    HW229607   5.705   1.053   1.857
 9570SOL     OW29608   0.695   2.807   1.870
 9570SOL    HW129609   0.688   2.836   1.965
 9570SOL    HW229610   0.718   2.886   1.813
 9571SOL     OW29611   2.062   2.315   6.754
 9571SOL    HW129612   2.150   2.294   6.796
 9571SOL    HW229613   2.015   2.385   6.808
 9572SOL     OW29614   2.384   4.316   3.748
 9572SOL    HW129615   2.332   4.234   3.724
 9572SOL    HW229616   2.392   4.323   3.847
 9573SOL     OW29617   6.481   0.866   4.449
 9573SOL    HW129618   6.411   0.799   4.426
 9573SOL    HW229619   6.447   0.958   4.430
 9574SOL     OW29620   3.549   3.141   1.206
 9574SOL    HW129621   3.515   3.050   1.186
 9574SOL    HW229622   3.483   3.209   1.175
 9575SOL     OW29623   6.217   6.683   1.476
 9575SOL    HW129624   6.119   6.672   1.487
 9575SOL    HW229625   6.264   6.657   1.560
 9576SOL     OW29626   1.039   6.851   6.915
 9576SOL    HW129627   1.073   6.761   6.942
 9576SOL    HW229628   1.112   6.919   6.928
 9577SOL     OW29629   6.113   5.035   2.431
 9577SOL    HW129630   6.118   5.129   2.398
 9577SOL    HW229631   6.126   5.034   2.530
 9578SOL     OW29632   2.242   2.945   2.741
 9578SOL    HW129633   2.188   2.986   2.668
 9578SOL    HW229634   2.214   2.983   2.829
 9579SOL     OW29635   5.834   5.687   1.822
 9579SOL    HW129636   5.754   5.688   1.882
 9579SOL    HW229637   5.887   5.771   1.837
 9580SOL     OW29638   5.194   4.607   2.840
 9580SOL    HW129639   5.130   4.561   2.902
 9580SOL    HW229640   5.248   4.538   2.791
 9581SOL     OW29641   6.301   0.962   0.068
 9581SOL    HW129642   6.224   1.022   0.046
 9581SOL    HW229643   6.369   1.013   0.120
 9582SOL     OW29644   4.633   6.055   4.188
 9582SOL    HW129645   4.567   6.130   4.175
 9582SOL    HW229646   4.596   5.990   4.254
 9583SOL     OW29647   3.859   4.679   1.666
 9583SOL    HW129648   3.775   4.650   1.713
 9583SOL    HW229649   3.882   4.610   1.597
 9584SOL     OW29650   2.495   5.573   4.351
 9584SOL    HW129651   2.523   5.601   4.443
 9584SOL    HW229652   2.526   5.479   4.335
 9585SOL     OW29653   4.298   5.892   0.858
 9585SOL    HW129654   4.227   5.821   0.862
 9585SOL    HW229655   4.265   5.975   0.902
 9586SOL     OW29656   4.101   4.830   2.817
 9586SOL    HW129657   4.075   4.917   2.775
 9586SOL    HW229658   4.164   4.781   2.756
 9587SOL     OW29659   2.467   5.648   2.000
 9587SOL    HW129660   2.389   5.651   2.062
 9587SOL    HW229661   2.552   5.662   2.051
 9588SOL     OW29662   6.629   5.083   0.560
 9588SOL    HW129663   6.698   5.011   0.555
 9588SOL    HW229664   6.540   5.042   0.580
 9589SOL     OW29665   1.768   3.788   6.267
 9589SOL    HW129666   1.816   3.860   6.317
 9589SOL    HW229667   1.675   3.779   6.303
 9590SOL     OW29668   5.882   0.862   0.880
 9590SOL    HW129669   5.854   0.886   0.787
 9590SOL    HW229670   5.975   0.895   0.896
 9591SOL     OW29671   4.155   0.802   0.014
 9591SOL    HW129672   4.118   0.865   0.083
 9591SOL    HW229673   4.181   0.854   6.955
 9592SOL     OW29674   2.434   6.125   5.671
 9592SOL    HW129675   2.368   6.161   5.737
 9592SOL    HW229676   2.386   6.083   5.594
 9593SOL     OW29677   1.726   1.310   4.439
 9593SOL    HW129678   1.659   1.245   4.475
 9593SOL    HW229679   1.817   1.270   4.442
 9594SOL     OW29680   0.301   6.852   3.932
 9594SOL    HW129681   0.365   6.889   3.999
 9594SOL    HW229682   0.222   6.813   3.980
 9595SOL     OW29683   0.504   3.390   3.106
 9595SOL    HW129684   0.551   3.321   3.161
 9595SOL    HW229685   0.460   3.457   3.166
 9596SOL     OW29686   0.425   6.911   0.910
 9596SOL    HW129687   0.362   6.909   0.988
 9596SOL    HW229688   0.432   7.004   0.875
 9597SOL     OW29689   0.975   3.243   2.647
 9597SOL    HW129690   1.064   3.230   2.689
 9597SOL    HW229691   0.965   3.337   2.616
 9598SOL     OW29692   1.877   3.896   3.676
 9598SOL    HW129693   1.972   3.890   3.648
 9598SOL    HW229694   1.872   3.911   3.775
 9599SOL     OW29695   4.004   6.748   3.721
 9599SOL    HW129696   3.945   6.716   3.646
 9599SOL    HW229697   4.018   6.847   3.713
 9600SOL     OW29698   3.266   0.773   1.837
 9600SOL    HW129699   3.338   0.810   1.895
 9600SOL    HW229700   3.184   0.830   1.845
 9601SOL     OW29701   0.286   4.057   1.424
 9601SOL    HW129702   0.194   4.048   1.462
 9601SOL    HW229703   0.352   4.017   1.488
 9602SOL     OW29704   4.446   4.991   5.630
 9602SOL    HW129705   4.448   4.989   5.729
 9602SOL    HW229706   4.408   4.904   5.596
 9603SOL     OW29707   4.991   5.807   5.156
 9603SOL    HW129708   4.907   5.799   5.103
 9603SOL    HW229709   5.069   5.810   5.094
 9604SOL     OW29710   5.290   6.481   0.249
 9604SOL    HW129711   5.296   6.580   0.236
 9604SOL    HW229712   5.250   6.439   0.167
 9605SOL     OW29713   6.418   6.116   2.659
 9605SOL    HW129714   6.371   6.202   2.641
 9605SOL    HW229715   6.427   6.103   2.758
 9606SOL     OW29716   1.426   1.715   6.550
 9606SOL    HW129717   1.396   1.802   6.590
 9606SOL    HW229718   1.350   1.650   6.552
 9607SOL     OW29719   3.238   2.543   6.245
 9607SOL    HW129720   3.201   2.630   6.213
 9607SOL    HW229721   3.164   2.476   6.256
 9608SOL     OW29722   6.440   3.544   3.891
 9608SOL    HW129723   6.377   3.621   3.884
 9608SOL    HW229724   6.401   3.464   3.844
 9609SOL     OW29725   4.443   3.069   6.519
 9609SOL    HW129726   4.427   3.148   6.579
 9609SOL    HW229727   4.403   2.987   6.561
 9610SOL     OW29728   1.379   4.507   3.251
 9610SOL    HW129729   1.430   4.442   3.194
 9610SOL    HW229730   1.336   4.576   3.193
 9611SOL     OW29731   1.584   0.152   0.412
 9611SOL    HW129732   1.636   0.087   0.356
 9611SOL    HW229733   1.487   0.136   0.399
 9612SOL     OW29734   6.956   2.943   3.567
 9612SOL    HW129735   6.968   2.845   3.555
 9612SOL    HW229736   7.013   2.975   3.642
 9613SOL     OW29737   5.736   5.667   3.774
 9613SOL    HW129738   5.683   5.593   3.814
 9613SOL    HW229739   5.766   5.729   3.846
 9614SOL     OW29740   5.030   2.496   3.443
 9614SOL    HW129741   4.989   2.537   3.361
 9614SOL    HW229742   4.961   2.488   3.515
 9615SOL     OW29743   2.580   3.513   0.907
 9615SOL    HW129744   2.602   3.598   0.857
 9615SOL    HW229745   2.482   3.510   0.925
 9616SOL     OW29746   4.474   3.304   0.016
 9616SOL    HW129747   4.527   3.235   0.065
 9616SOL    HW229748   4.518   3.325   6.951
 9617SOL     OW29749   2.082   2.217   4.075
 9617SOL    HW129750   2.050   2.294   4.131
 9617SOL    HW229751   2.128   2.252   3.994
 9618SOL     OW29752   2.922   1.523   0.817
 9618SOL    HW129753   3.005   1.571   0.844
 9618SOL    HW229754   2.842   1.576   0.846
 9619SOL     OW29755   2.700   1.204   4.768
 9619SOL    HW129756   2.662   1.244   4.685
 9619SOL    HW229757   2.678   1.261   4.847
 9620SOL     OW29758   5.888   0.621   5.822
 9620SOL    HW129759   5.948   0.652   5.748
 9620SOL    HW229760   5.880   0.692   5.891
 9621SOL     OW29761   1.821   2.623   3.414
 9621SOL    HW129762   1.778   2.663   3.333
 9621SOL    HW229763   1.911   2.588   3.390
 9622SOL     OW29764   5.782   0.059   1.206
 9622SOL    HW129765   5.823   0.047   1.115
 9622SOL    HW229766   5.849   0.101   1.267
 9623SOL     OW29767   2.791   3.567   6.355
 9623SOL    HW129768   2.718   3.595   6.417
 9623SOL    HW229769   2.879   3.577   6.401
 9624SOL     OW29770   6.206   3.800   3.398
 9624SOL    HW129771   6.302   3.772   3.403
 9624SOL    HW229772   6.193   3.881   3.455
 9625SOL     OW29773   5.953   6.023   0.360
 9625SOL    HW129774   5.899   6.019   0.275
 9625SOL    HW229775   6.039   5.973   0.347
 9626SOL     OW29776   2.964   6.621   6.569
 9626SOL    HW129777   2.943   6.700   6.511
 9626SOL    HW229778   2.906   6.624   6.651
 9627SOL     OW29779   1.337   6.630   6.639
 9627SOL    HW129780   1.404   6.671   6.577
 9627SOL    HW229781   1.254   6.609   6.588
 9628SOL     OW29782   4.092   6.189   2.277
 9628SOL    HW129783   4.101   6.206   2.376
 9628SOL    HW229784   4.085   6.276   2.229
 9629SOL     OW29785   2.460   6.669   0.899
 9629SOL    HW129786   2.440   6.570   0.900
 9629SOL    HW229787   2.509   6.694   0.982
 9630SOL     OW29788   6.547   0.800   6.393
 9630SOL    HW129789   6.476   0.867   6.418
 9630SOL    HW229790   6.552   0.793   6.293
 9631SOL     OW29791   5.748   6.025   0.181
 9631SOL    HW129792   5.688   6.102   0.203
 9631SOL    HW229793   5.693   5.944   0.161
 9632SOL     OW29794   1.484   6.149   2.195
 9632SOL    HW129795   1.541   6.068   2.205
 9632SOL    HW229796   1.541   6.228   2.173
 9633SOL     OW29797   6.979   5.262   6.484
 9633SOL    HW129798   6.995   5.334   6.415
 9633SOL    HW229799   6.968   5.174   6.438
 9634SOL     OW29800   1.116   5.794   4.967
 9634SOL    HW129801   1.199   5.745   4.943
 9634SOL    HW229802   1.045   5.775   4.899
 9635SOL     OW29803   1.709   5.119   5.476
 9635SOL    HW129804   1.748   5.129   5.385
 9635SOL    HW229805   1.780   5.138   5.545
 9636SOL     OW29806   3.978   1.595   6.848
 9636SOL    HW129807   3.952   1.529   6.777
 9636SOL    HW229808   4.021   1.546   6.924
 9637SOL     OW29809   2.237   1.263   0.073
 9637SOL    HW129810   2.189   1.222   7.018
 9637SOL    HW229811   2.171   1.300   0.137
 9638SOL     OW29812   6.799   2.263   5.450
 9638SOL    HW129813   6.831   2.299   5.362
 9638SOL    HW229814   6.734   2.327   5.491
 9639SOL     OW29815   4.082   0.873   2.756
 9639SOL    HW129816   4.180   0.883   2.775
 9639SOL    HW229817   4.035   0.838   2.836
 9640SOL     OW29818   2.081   2.545   2.313
 9640SOL    HW129819   2.052   2.619   2.253
 9640SOL    HW229820   2.135   2.582   2.389
 9641SOL     OW29821   6.109   5.555   0.464
 9641SOL    HW129822   6.128   5.641   0.510
 9641SOL    HW229823   6.092   5.483   0.532
 9642SOL     OW29824   3.247   0.149   4.220
 9642SOL    HW129825   3.346   0.163   4.209
 9642SOL    HW229826   3.221   0.063   4.177
 9643SOL     OW29827   4.264   4.734   3.251
 9643SOL    HW129828   4.324   4.665   3.210
 9643SOL    HW229829   4.311   4.778   3.327
 9644SOL     OW29830   2.604   1.769   6.630
 9644SOL    HW129831   2.534   1.762   6.700
 9644SOL    HW229832   2.675   1.700   6.646
 9645SOL     OW29833   2.900   5.299   5.201
 9645SOL    HW129834   2.942   5.236   5.267
 9645SOL    HW229835   2.825   5.252   5.154
 9646SOL     OW29836   4.283   5.448   3.425
 9646SOL    HW129837   4.275   5.543   3.454
 9646SOL    HW229838   4.227   5.433   3.343
 9647SOL     OW29839   6.587   2.918   0.142
 9647SOL    HW129840   6.539   2.947   0.059
 9647SOL    HW229841   6.599   2.819   0.141
 9648SOL     OW29842   4.557   3.408   0.986
 9648SOL    HW129843   4.572   3.421   0.887
 9648SOL    HW229844   4.517   3.318   1.002
 9649SOL     OW29845   2.205   5.614   0.723
 9649SOL    HW129846   2.271   5.547   0.688
 9649SOL    HW229847   2.248   5.668   0.795
 9650SOL     OW29848   0.055   6.990   1.841
 9650SOL    HW129849   0.020   6.965   1.931
 9650SOL    HW229850   0.049   0.067   1.830
 9651SOL     OW29851   0.400   1.826   5.101
 9651SOL    HW129852   0.381   1.924   5.102
 9651SOL    HW229853   0.478   1.808   5.042
 9652SOL     OW29854   0.471   5.794   2.685
 9652SOL    HW129855   0.435   5.877   2.642
 9652SOL    HW229856   0.395   5.732   2.707
 9653SOL     OW29857   6.134   5.183   4.419
 9653SOL    HW129858   6.102   5.259   4.476
 9653SOL    HW229859   6.222   5.208   4.379
 9654SOL     OW29860   2.261   2.691   2.447
 9654SOL    HW129861   2.327   2.639   2.392
 9654SOL    HW229862   2.255   2.785   2.413
 9655SOL     OW29863   5.922   2.383   6.892
 9655SOL    HW129864   5.959   2.324   6.964
 9655SOL    HW229865   5.988   2.392   6.818
 9656SOL     OW29866   3.531   0.548   2.851
 9656SOL    HW129867   3.521   0.483   2.776
 9656SOL    HW229868   3.516   0.641   2.817
 9657SOL     OW29869   0.271   0.299   5.052
 9657SOL    HW129870   0.254   0.315   5.150
 9657SOL    HW229871   0.359   0.253   5.042
 9658SOL     OW29872   6.033   2.378   2.815
 9658SOL    HW129873   6.109   2.321   2.783
 9658SOL    HW229874   6.033   2.380   2.915
 9659SOL     OW29875   0.797   5.393   6.920
 9659SOL    HW129876   0.742   5.316   6.951
 9659SOL    HW229877   0.854   5.365   6.842
 9660SOL     OW29878   0.405   5.196   0.719
 9660SOL    HW129879   0.324   5.197   0.660
 9660SOL    HW229880   0.385   5.246   0.803
 9661SOL     OW29881   4.625   6.405   0.962
 9661SOL    HW129882   4.644   6.458   1.044
 9661SOL    HW229883   4.555   6.453   0.908
 9662SOL     OW29884   4.834   1.044   4.581
 9662SOL    HW129885   4.784   1.048   4.494
 9662SOL    HW229886   4.889   0.961   4.584
 9663SOL     OW29887   2.298   6.032   3.270
 9663SOL    HW129888   2.304   6.075   3.181
 9663SOL    HW229889   2.388   6.031   3.313
 9664SOL     OW29890   2.495   5.814   1.539
 9664SOL    HW129891   2.479   5.737   1.601
 9664SOL    HW229892   2.435   5.890   1.564
 9665SOL     OW29893   5.268   4.079   4.192
 9665SOL    HW129894   5.343   4.020   4.161
 9665SOL    HW229895   5.288   4.113   4.284
 9666SOL     OW29896   5.690   4.737   4.805
 9666SOL    HW129897   5.717   4.645   4.776
 9666SOL    HW229898   5.612   4.731   4.867
 9667SOL     OW29899   3.901   3.903   3.498
 9667SOL    HW129900   3.948   3.843   3.433
 9667SOL    HW229901   3.827   3.951   3.451
 9668SOL     OW29902   0.577   1.129   4.821
 9668SOL    HW129903   0.664   1.089   4.851
 9668SOL    HW229904   0.583   1.228   4.827
 9669SOL     OW29905   1.883   5.853   0.340
 9669SOL    HW129906   1.902   5.810   0.428
 9669SOL    HW229907   1.788   5.885   0.338
 9670SOL     OW29908   5.985   4.575   6.764
 9670SOL    HW129909   6.055   4.516   6.804
 9670SOL    HW229910   5.975   4.657   6.820
 9671SOL     OW29911   0.346   0.195   0.037
 9671SOL    HW129912   0.331   0.110   0.086
 9671SOL    HW229913   0.441   0.225   0.051
 9672SOL     OW29914   0.807   6.299   4.985
 9672SOL    HW129915   0.758   6.238   5.047
 9672SOL    HW229916   0.753   6.313   4.902
 9673SOL     OW29917   2.629   2.429   6.460
 9673SOL    HW129918   2.598   2.394   6.372
 9673SOL    HW229919   2.555   2.482   6.502
 9674SOL     OW29920   2.758   0.176   1.995
 9674SOL    HW129921   2.852   0.180   2.027
 9674SOL    HW229922   2.754   0.127   1.908
 9675SOL     OW29923   0.116   3.038   1.904
 9675SOL    HW129924   0.058   3.113   1.873
 9675SOL    HW229925   0.092   2.955   1.853
 9676SOL     OW29926   0.369   3.551   4.874
 9676SOL    HW129927   0.308   3.514   4.944
 9676SOL    HW229928   0.423   3.477   4.834
 9677SOL     OW29929   2.122   3.586   4.749
 9677SOL    HW129930   2.034   3.583   4.797
 9677SOL    HW229931   2.139   3.680   4.718
 9678SOL     OW29932   3.968   3.093   3.065
 9678SOL    HW129933   3.999   3.098   3.160
 9678SOL    HW229934   3.870   3.110   3.061
 9679SOL     OW29935   0.993   3.085   1.274
 9679SOL    HW129936   0.963   3.151   1.343
 9679SOL    HW229937   0.924   3.078   1.202
 9680SOL     OW29938   5.622   4.901   3.434
 9680SOL    HW129939   5.544   4.868   3.488
 9680SOL    HW229940   5.664   4.979   3.480
 9681SOL     OW29941   0.947   1.228   3.969
 9681SOL    HW129942   0.991   1.140   3.952
 9681SOL    HW229943   0.848   1.220   3.957
 9682SOL     OW29944   6.921   4.683   2.895
 9682SOL    HW129945   6.857   4.606   2.899
 9682SOL    HW229946   7.011   4.650   2.868
 9683SOL     OW29947   4.473   6.209   6.110
 9683SOL    HW129948   4.486   6.281   6.041
 9683SOL    HW229949   4.555   6.153   6.116
 9684SOL     OW29950   1.008   4.596   3.701
 9684SOL    HW129951   0.915   4.634   3.700
 9684SOL    HW229952   1.035   4.572   3.607
 9685SOL     OW29953   1.879   2.008   0.279
 9685SOL    HW129954   1.898   2.090   0.334
 9685SOL    HW229955   1.951   1.997   0.211
 9686SOL     OW29956   5.535   0.613   1.870
 9686SOL    HW129957   5.442   0.637   1.840
 9686SOL    HW229958   5.556   0.663   1.954
 9687SOL     OW29959   3.552   0.460   3.746
 9687SOL    HW129960   3.492   0.515   3.803
 9687SOL    HW229961   3.502   0.427   3.666
 9688SOL     OW29962   6.918   1.892   3.672
 9688SOL    HW129963   6.925   1.950   3.752
 9688SOL    HW229964   6.960   1.803   3.691
 9689SOL     OW29965   2.028   5.810   5.936
 9689SOL    HW129966   2.093   5.751   5.888
 9689SOL    HW229967   2.063   5.828   6.028
 9690SOL     OW29968   6.186   4.151   0.768
 9690SOL    HW129969   6.181   4.095   0.851
 9690SOL    HW229970   6.100   4.200   0.756
 9691SOL     OW29971   1.516   4.289   1.453
 9691SOL    HW129972   1.499   4.348   1.374
 9691SOL    HW229973   1.564   4.341   1.524
 9692SOL     OW29974   2.259   5.832   1.299
 9692SOL    HW129975   2.266   5.931   1.311
 9692SOL    HW229976   2.344   5.798   1.259
 9693SOL     OW29977   5.928   5.473   1.676
 9693SOL    HW129978   5.974   5.399   1.724
 9693SOL    HW229979   5.904   5.545   1.740
 9694SOL     OW29980   2.270   2.319   0.009
 9694SOL    HW129981   2.254   2.398   6.973
 9694SOL    HW229982   2.292   2.239   6.974
 9695SOL     OW29983   6.227   4.331   1.454
 9695SOL    HW129984   6.183   4.247   1.421
 9695SOL    HW229985   6.326   4.316   1.463
 9696SOL     OW29986   3.718   3.867   0.945
 9696SOL    HW129987   3.650   3.900   1.011
 9696SOL    HW229988   3.772   3.795   0.987
 9697SOL     OW29989   0.548   6.139   0.016
 9697SOL    HW129990   0.642   6.170   0.031
 9697SOL    HW229991   0.521   6.159   6.945
 9698SOL     OW29992   5.778   1.901   5.184
 9698SOL    HW129993   5.765   1.833   5.256
 9698SOL    HW229994   5.696   1.904   5.126
 9699SOL     OW29995   2.032   3.232   0.506
 9699SOL    HW129996   2.078   3.284   0.577
 9699SOL    HW229997   1.937   3.263   0.498
 9700SOL     OW29998   3.029   3.852   4.391
 9700SOL    HW129999   3.034   3.889   4.483
 9700SOL    HW230000   3.036   3.927   4.324
 9701SOL     OW30001   5.471   3.914   5.060
 9701SOL    HW130002   5.518   3.893   5.146
 9701SOL    HW230003   5.373   3.926   5.077
 9702SOL     OW30004   4.274   0.689   0.925
 9702SOL    HW130005   4.311   0.601   0.896
 9702SOL    HW230006   4.174   0.682   0.931
 9703SOL     OW30007   3.016   6.513   4.157
 9703SOL    HW130008   2.983   6.589   4.101
 9703SOL    HW230009   3.067   6.449   4.100
 9704SOL     OW30010   2.494   0.595   3.466
 9704SOL    HW130011   2.516   0.512   3.414
 9704SOL    HW230012   2.448   0.570   3.551
 9705SOL     OW30013   3.386   4.143   0.653
 9705SOL    HW130014   3.424   4.060   0.694
 9705SOL    HW230015   3.414   4.148   0.557
 9706SOL     OW30016   5.984   2.599   2.644
 9706SOL    HW130017   5.936   2.567   2.563
 9706SOL    HW230018   6.000   2.523   2.707
 9707SOL     OW30019   2.846   5.285   3.092
 9707SOL    HW130020   2.759   5.248   3.060
 9707SOL    HW230021   2.922   5.232   3.054
 9708SOL     OW30022   2.102   1.799   2.869
 9708SOL    HW130023   2.035   1.842   2.809
 9708SOL    HW230024   2.117   1.704   2.840
 9709SOL     OW30025   1.797   4.663   2.886
 9709SOL    HW130026   1.859   4.585   2.875
 9709SOL    HW230027   1.849   4.742   2.919
 9710SOL     OW30028   0.240   0.671   3.676
 9710SOL    HW130029   0.204   0.652   3.585
 9710SOL    HW230030   0.314   0.738   3.670
 9711SOL     OW30031   1.212   4.005   5.335
 9711SOL    HW130032   1.185   4.055   5.253
 9711SOL    HW230033   1.131   3.975   5.385
 9712SOL     OW30034   4.678   2.707   4.743
 9712SOL    HW130035   4.753   2.651   4.776
 9712SOL    HW230036   4.593   2.654   4.745
 9713SOL     OW30037   6.580   5.219   2.305
 9713SOL    HW130038   6.621   5.226   2.396
 9713SOL    HW230039   6.488   5.258   2.307
 9714SOL     OW30040   1.563   2.600   1.894
 9714SOL    HW130041   1.642   2.662   1.900
 9714SOL    HW230042   1.592   2.513   1.854
 9715SOL     OW30043   5.394   5.442   4.642
 9715SOL    HW130044   5.320   5.507   4.625
 9715SOL    HW230045   5.355   5.355   4.671
 9716SOL     OW30046   4.229   1.952   6.780
 9716SOL    HW130047   4.292   2.012   6.731
 9716SOL    HW230048   4.148   1.936   6.723
 9717SOL     OW30049   5.981   4.674   3.122
 9717SOL    HW130050   5.888   4.712   3.130
 9717SOL    HW230051   6.015   4.690   3.029
 9718SOL     OW30052   4.268   3.533   1.677
 9718SOL    HW130053   4.366   3.551   1.669
 9718SOL    HW230054   4.218   3.619   1.674
 9719SOL     OW30055   0.549   1.457   0.737
 9719SOL    HW130056   0.604   1.539   0.756
 9719SOL    HW230057   0.457   1.470   0.775
 9720SOL     OW30058   0.701   0.642   1.168
 9720SOL    HW130059   0.757   0.560   1.177
 9720SOL    HW230060   0.628   0.640   1.237
 9721SOL     OW30061   6.698   3.490   2.880
 9721SOL    HW130062   6.618   3.439   2.911
 9721SOL    HW230063   6.678   3.588   2.883
 9722SOL     OW30064   0.008   0.281   4.485
 9722SOL    HW130065   6.932   0.299   4.493
 9722SOL    HW230066   0.059   0.359   4.522
 9723SOL     OW30067   0.057   1.389   3.541
 9723SOL    HW130068   0.101   1.310   3.585
 9723SOL    HW230069   6.998   1.358   3.491
 9724SOL     OW30070   4.034   3.033   1.202
 9724SOL    HW130071   4.039   3.028   1.302
 9724SOL    HW230072   3.956   3.089   1.176
 9725SOL     OW30073   4.227   3.302   5.796
 9725SOL    HW130074   4.291   3.333   5.726
 9725SOL    HW230075   4.277   3.280   5.879
 9726SOL     OW30076   5.571   5.603   4.915
 9726SOL    HW130077   5.653   5.567   4.959
 9726SOL    HW230078   5.498   5.614   4.983
 9727SOL     OW30079   1.316   2.107   6.372
 9727SOL    HW130080   1.237   2.065   6.329
 9727SOL    HW230081   1.381   2.136   6.302
 9728SOL     OW30082   3.122   5.549   0.076
 9728SOL    HW130083   3.187   5.621   0.051
 9728SOL    HW230084   3.042   5.554   0.016
 9729SOL     OW30085   2.988   5.466   2.516
 9729SOL    HW130086   3.065   5.530   2.524
 9729SOL    HW230087   3.003   5.406   2.438
 9730SOL     OW30088   5.981   3.815   2.881
 9730SOL    HW130089   5.962   3.912   2.866
 9730SOL    HW230090   6.018   3.801   2.973
 9731SOL     OW30091   4.985   5.360   1.316
 9731SOL    HW130092   5.011   5.424   1.388
 9731SOL    HW230093   4.955   5.410   1.235
 9732SOL     OW30094   6.399   5.395   3.363
 9732SOL    HW130095   6.371   5.313   3.412
 9732SOL    HW230096   6.480   5.434   3.407
 9733SOL     OW30097   5.206   4.260   6.613
 9733SOL    HW130098   5.270   4.313   6.558
 9733SOL    HW230099   5.226   4.163   6.605
 9734SOL     OW30100   5.181   2.357   4.649
 9734SOL    HW130101   5.161   2.284   4.714
 9734SOL    HW230102   5.254   2.327   4.587
 9735SOL     OW30103   1.831   4.066   0.100
 9735SOL    HW130104   1.731   4.067   0.086
 9735SOL    HW230105   1.862   3.972   0.110
 9736SOL     OW30106   3.348   1.494   1.162
 9736SOL    HW130107   3.347   1.580   1.214
 9736SOL    HW230108   3.270   1.438   1.190
 9737SOL     OW30109   4.064   2.228   5.193
 9737SOL    HW130110   4.039   2.260   5.284
 9737SOL    HW230111   4.120   2.297   5.147
 9738SOL     OW30112   1.963   0.598   2.148
 9738SOL    HW130113   1.903   0.521   2.128
 9738SOL    HW230114   1.920   0.683   2.116
 9739SOL     OW30115   5.129   5.133   1.914
 9739SOL    HW130116   5.224   5.134   1.945
 9739SOL    HW230117   5.126   5.152   1.816
 9740SOL     OW30118   6.492   3.757   3.393
 9740SOL    HW130119   6.571   3.731   3.448
 9740SOL    HW230120   6.500   3.718   3.301
 9741SOL     OW30121   3.969   1.936   1.592
 9741SOL    HW130122   3.885   1.972   1.551
 9741SOL    HW230123   4.018   2.010   1.638
 9742SOL     OW30124   4.566   1.647   4.178
 9742SOL    HW130125   4.599   1.687   4.093
 9742SOL    HW230126   4.472   1.676   4.195
 9743SOL     OW30127   1.853   2.273   5.513
 9743SOL    HW130128   1.796   2.255   5.592
 9743SOL    HW230129   1.950   2.261   5.537
 9744SOL     OW30130   1.647   0.502   1.805
 9744SOL    HW130131   1.674   0.571   1.871
 9744SOL    HW230132   1.637   0.544   1.715
 9745SOL     OW30133   0.234   1.774   4.725
 9745SOL    HW130134   0.149   1.816   4.757
 9745SOL    HW230135   0.279   1.834   4.658
 9746SOL     OW30136   5.885   1.584   3.980
 9746SOL    HW130137   5.802   1.534   4.005
 9746SOL    HW230138   5.860   1.662   3.922
 9747SOL     OW30139   0.595   6.964   6.848
 9747SOL    HW130140   0.594   0.028   6.799
 9747SOL    HW230141   0.541   6.897   6.798
 9748SOL     OW30142   0.441   5.483   4.231
 9748SOL    HW130143   0.475   5.576   4.231
 9748SOL    HW230144   0.381   5.469   4.152
 9749SOL     OW30145   0.852   4.129   4.094
 9749SOL    HW130146   0.810   4.216   4.116
 9749SOL    HW230147   0.861   4.074   4.178
 9750SOL     OW30148   3.793   4.950   3.360
 9750SOL    HW130149   3.864   4.880   3.347
 9750SOL    HW230150   3.709   4.920   3.316
 9751SOL     OW30151   1.819   2.480   0.541
 9751SOL    HW130152   1.750   2.549   0.523
 9751SOL    HW230153   1.792   2.425   0.620
 9752SOL     OW30154   3.488   1.918   6.454
 9752SOL    HW130155   3.443   1.884   6.537
 9752SOL    HW230156   3.543   1.844   6.414
 9753SOL     OW30157   6.925   6.260   5.044
 9753SOL    HW130158   6.868   6.271   4.963
 9753SOL    HW230159   6.926   6.345   5.097
 9754SOL     OW30160   6.676   2.273   6.919
 9754SOL    HW130161   6.682   2.371   6.938
 9754SOL    HW230162   6.767   2.238   6.896
 9755SOL     OW30163   4.324   4.693   5.216
 9755SOL    HW130164   4.309   4.595   5.206
 9755SOL    HW230165   4.347   4.733   5.127
 9756SOL     OW30166   5.531   2.279   5.951
 9756SOL    HW130167   5.444   2.244   5.917
 9756SOL    HW230168   5.595   2.203   5.963
 9757SOL     OW30169   6.122   2.297   3.326
 9757SOL    HW130170   6.182   2.226   3.289
 9757SOL    HW230171   6.044   2.255   3.372
 9758SOL     OW30172   2.681   0.775   7.000
 9758SOL    HW130173   2.737   0.858   6.999
 9758SOL    HW230174   2.666   0.744   6.906
 9759SOL     OW30175   2.863   5.985   1.439
 9759SOL    HW130176   2.846   6.053   1.511
 9759SOL    HW230177   2.776   5.958   1.399
 9760SOL     OW30178   5.590   4.789   6.218
 9760SOL    HW130179   5.659   4.717   6.216
 9760SOL    HW230180   5.559   4.808   6.125
 9761SOL     OW30181   5.450   6.000   2.730
 9761SOL    HW130182   5.388   6.033   2.801
 9761SOL    HW230183   5.477   5.905   2.750
 9762SOL     OW30184   2.687   1.410   3.418
 9762SOL    HW130185   2.609   1.451   3.466
 9762SOL    HW230186   2.686   1.441   3.322
 9763SOL     OW30187   1.673   1.632   1.942
 9763SOL    HW130188   1.624   1.556   1.984
 9763SOL    HW230189   1.658   1.715   1.997
 9764SOL     OW30190   0.995   2.813   1.796
 9764SOL    HW130191   0.994   2.913   1.787
 9764SOL    HW230192   0.903   2.777   1.780
 9765SOL     OW30193   7.011   1.503   5.197
 9765SOL    HW130194   0.061   1.572   5.191
 9765SOL    HW230195   7.006   1.469   5.291
 9766SOL     OW30196   2.836   0.222   2.366
 9766SOL    HW130197   2.906   0.279   2.324
 9766SOL    HW230198   2.750   0.273   2.373
 9767SOL     OW30199   5.012   0.467   5.075
 9767SOL    HW130200   5.072   0.467   5.155
 9767SOL    HW230201   5.019   0.555   5.028
 9768SOL     OW30202   4.946   2.098   3.749
 9768SOL    HW130203   4.959   2.185   3.795
 9768SOL    HW230204   4.988   2.025   3.802
 9769SOL     OW30205   0.498   1.761   1.939
 9769SOL    HW130206   0.438   1.682   1.944
 9769SOL    HW230207   0.549   1.770   2.024
 9770SOL     OW30208   6.205   4.512   6.044
 9770SOL    HW130209   6.202   4.474   6.137
 9770SOL    HW230210   6.292   4.559   6.029
 9771SOL     OW30211   3.454   5.517   4.279
 9771SOL    HW130212   3.454   5.425   4.240
 9771SOL    HW230213   3.360   5.544   4.301
 9772SOL     OW30214   6.609   0.478   1.716
 9772SOL    HW130215   6.590   0.569   1.753
 9772SOL    HW230216   6.690   0.482   1.658
 9773SOL     OW30217   5.564   5.279   3.349
 9773SOL    HW130218   5.515   5.362   3.377
 9773SOL    HW230219   5.544   5.205   3.413
 9774SOL     OW30220   6.757   4.931   3.384
 9774SOL    HW130221   6.738   4.995   3.310
 9774SOL    HW230222   6.848   4.950   3.422
 9775SOL     OW30223   2.802   2.298   4.936
 9775SOL    HW130224   2.774   2.340   5.022
 9775SOL    HW230225   2.902   2.295   4.931
 9776SOL     OW30226   0.436   4.687   4.727
 9776SOL    HW130227   0.430   4.684   4.827
 9776SOL    HW230228   0.456   4.780   4.697
 9777SOL     OW30229   5.419   5.139   6.478
 9777SOL    HW130230   5.488   5.107   6.543
 9777SOL    HW230231   5.453   5.219   6.429
 9778SOL     OW30232   4.096   0.685   3.611
 9778SOL    HW130233   4.003   0.673   3.577
 9778SOL    HW230234   4.143   0.597   3.611
 9779SOL     OW30235   2.953   2.000   6.380
 9779SOL    HW130236   2.916   1.967   6.293
 9779SOL    HW230237   2.908   2.086   6.404
 9780SOL     OW30238   3.782   4.163   0.551
 9780SOL    HW130239   3.740   4.193   0.637
 9780SOL    HW230240   3.850   4.231   0.522
 9781SOL     OW30241   1.732   6.306   4.331
 9781SOL    HW130242   1.800   6.260   4.274
 9781SOL    HW230243   1.717   6.399   4.296
 9782SOL     OW30244   6.175   0.337   1.427
 9782SOL    HW130245   6.154   0.425   1.469
 9782SOL    HW230246   6.261   0.302   1.466
 9783SOL     OW30247   5.816   1.548   2.983
 9783SOL    HW130248   5.827   1.539   3.082
 9783SOL    HW230249   5.810   1.457   2.942
 9784SOL     OW30250   5.248   0.791   4.352
 9784SOL    HW130251   5.316   0.850   4.308
 9784SOL    HW230252   5.235   0.821   4.447
 9785SOL     OW30253   0.851   3.075   0.475
 9785SOL    HW130254   0.907   3.148   0.435
 9785SOL    HW230255   0.763   3.072   0.427
 9786SOL     OW30256   2.268   0.005   5.318
 9786SOL    HW130257   2.306   6.967   5.248
 9786SOL    HW230258   2.211   0.075   5.274
 9787SOL     OW30259   5.868   4.607   1.762
 9787SOL    HW130260   5.829   4.514   1.764
 9787SOL    HW230261   5.914   4.622   1.675
 9788SOL     OW30262   0.252   1.091   5.099
 9788SOL    HW130263   0.294   1.073   5.009
 9788SOL    HW230264   0.156   1.117   5.086
 9789SOL     OW30265   1.304   5.872   4.413
 9789SOL    HW130266   1.268   5.958   4.447
 9789SOL    HW230267   1.235   5.800   4.424
 9790SOL     OW30268   6.882   1.514   4.063
 9790SOL    HW130269   6.981   1.502   4.056
 9790SOL    HW230270   6.860   1.559   4.149
 9791SOL     OW30271   0.941   2.282   1.268
 9791SOL    HW130272   0.969   2.351   1.335
 9791SOL    HW230273   1.023   2.237   1.231
 9792SOL     OW30274   3.982   6.089   2.012
 9792SOL    HW130275   3.977   6.144   2.095
 9792SOL    HW230276   4.022   6.000   2.034
 9793SOL     OW30277   5.386   6.456   2.804
 9793SOL    HW130278   5.296   6.435   2.842
 9793SOL    HW230279   5.456   6.415   2.861
 9794SOL     OW30280   3.236   3.520   6.682
 9794SOL    HW130281   3.208   3.436   6.728
 9794SOL    HW230282   3.263   3.588   6.750
 9795SOL     OW30283   2.684   4.761   3.996
 9795SOL    HW130284   2.633   4.847   3.997
 9795SOL    HW230285   2.750   4.760   4.071
 9796SOL     OW30286   3.861   4.820   0.461
 9796SOL    HW130287   3.822   4.879   0.390
 9796SOL    HW230288   3.813   4.733   0.463
 9797SOL     OW30289   4.885   2.576   4.861
 9797SOL    HW130290   4.911   2.504   4.925
 9797SOL    HW230291   4.956   2.586   4.791
 9798SOL     OW30292   2.262   1.994   1.705
 9798SOL    HW130293   2.359   2.000   1.728
 9798SOL    HW230294   2.207   2.014   1.786
 9799SOL     OW30295   3.198   3.349   1.913
 9799SOL    HW130296   3.163   3.412   1.982
 9799SOL    HW230297   3.298   3.353   1.913
 9800SOL     OW30298   3.417   5.037   0.210
 9800SOL    HW130299   3.495   5.044   0.149
 9800SOL    HW230300   3.427   4.955   0.268
 9801SOL     OW30301   4.782   5.544   6.929
 9801SOL    HW130302   4.809   5.636   6.957
 9801SOL    HW230303   4.860   5.482   6.936
 9802SOL     OW30304   0.958   4.965   1.627
 9802SOL    HW130305   1.005   5.051   1.606
 9802SOL    HW230306   0.973   4.941   1.723
 9803SOL     OW30307   5.039   0.707   6.437
 9803SOL    HW130308   5.073   0.634   6.496
 9803SOL    HW230309   5.035   0.793   6.488
 9804SOL     OW30310   5.779   5.222   4.310
 9804SOL    HW130311   5.785   5.219   4.409
 9804SOL    HW230312   5.861   5.265   4.273
 9805SOL     OW30313   3.299   4.489   1.616
 9805SOL    HW130314   3.372   4.438   1.661
 9805SOL    HW230315   3.333   4.530   1.531
 9806SOL     OW30316   6.909   1.885   2.386
 9806SOL    HW130317   6.849   1.831   2.445
 9806SOL    HW230318   6.989   1.915   2.438
 9807SOL     OW30319   3.460   2.671   0.706
 9807SOL    HW130320   3.372   2.659   0.661
 9807SOL    HW230321   3.445   2.706   0.799
 9808SOL     OW30322   2.026   2.140   4.844
 9808SOL    HW130323   2.005   2.129   4.941
 9808SOL    HW230324   2.000   2.232   4.815
 9809SOL     OW30325   0.767   0.566   4.536
 9809SOL    HW130326   0.808   0.545   4.447
 9809SOL    HW230327   0.839   0.590   4.601
 9810SOL     OW30328   4.298   1.055   3.339
 9810SOL    HW130329   4.285   1.112   3.257
 9810SOL    HW230330   4.211   1.012   3.364
 9811SOL     OW30331   0.995   0.010   2.740
 9811SOL    HW130332   0.931   0.075   2.780
 9811SOL    HW230333   0.976   7.022   2.643
 9812SOL     OW30334   5.396   2.854   5.113
 9812SOL    HW130335   5.453   2.775   5.091
 9812SOL    HW230336   5.392   2.866   5.212
 9813SOL     OW30337   6.385   4.373   0.935
 9813SOL    HW130338   6.348   4.282   0.954
 9813SOL    HW230339   6.428   4.373   0.845
 9814SOL     OW30340   6.595   0.865   5.764
 9814SOL    HW130341   6.687   0.903   5.765
 9814SOL    HW230342   6.595   0.779   5.712
 9815SOL     OW30343   6.928   3.792   2.777
 9815SOL    HW130344   6.936   3.876   2.829
 9815SOL    HW230345   6.968   3.716   2.829
 9816SOL     OW30346   6.284   0.699   6.294
 9816SOL    HW130347   6.282   0.727   6.390
 9816SOL    HW230348   6.278   0.781   6.236
 9817SOL     OW30349   2.359   0.743   0.348
 9817SOL    HW130350   2.419   0.821   0.328
 9817SOL    HW230351   2.317   0.757   0.438
 9818SOL     OW30352   0.680   0.077   3.076
 9818SOL    HW130353   0.582   0.096   3.074
 9818SOL    HW230354   0.697   7.013   3.124
 9819SOL     OW30355   6.975   2.278   4.418
 9819SOL    HW130356   0.004   2.219   4.480
 9819SOL    HW230357   6.889   2.306   4.462
 9820SOL     OW30358   3.510   2.565   6.176
 9820SOL    HW130359   3.412   2.549   6.188
 9820SOL    HW230360   3.537   2.647   6.227
 9821SOL     OW30361   3.914   2.802   1.035
 9821SOL    HW130362   3.929   2.886   1.087
 9821SOL    HW230363   3.847   2.744   1.082
 9822SOL     OW30364   3.295   5.904   4.358
 9822SOL    HW130365   3.232   5.899   4.281
 9822SOL    HW230366   3.370   5.966   4.336
 9823SOL     OW30367   4.014   6.741   3.206
 9823SOL    HW130368   3.924   6.755   3.167
 9823SOL    HW230369   4.068   6.682   3.146
 9824SOL     OW30370   0.823   5.863   5.937
 9824SOL    HW130371   0.823   5.894   5.842
 9824SOL    HW230372   0.812   5.941   5.998
 9825SOL     OW30373   6.980   6.503   5.175
 9825SOL    HW130374   0.015   6.523   5.096
 9825SOL    HW230375   0.013   6.506   5.258
 9826SOL     OW30376   1.547   5.601   5.346
 9826SOL    HW130377   1.598   5.624   5.263
 9826SOL    HW230378   1.607   5.611   5.425
 9827SOL     OW30379   2.111   4.347   1.822
 9827SOL    HW130380   2.192   4.406   1.820
 9827SOL    HW230381   2.140   4.252   1.806
 9828SOL     OW30382   3.984   1.795   5.116
 9828SOL    HW130383   4.084   1.797   5.126
 9828SOL    HW230384   3.942   1.808   5.206
 9829SOL     OW30385   5.282   4.888   5.390
 9829SOL    HW130386   5.212   4.943   5.435
 9829SOL    HW230387   5.372   4.918   5.419
 9830SOL     OW30388   5.496   1.897   3.925
 9830SOL    HW130389   5.455   1.822   3.978
 9830SOL    HW230390   5.483   1.983   3.973
 9831SOL     OW30391   0.768   4.593   1.896
 9831SOL    HW130392   0.724   4.589   1.806
 9831SOL    HW230393   0.849   4.651   1.890
 9832SOL     OW30394   4.955   5.636   4.305
 9832SOL    HW130395   5.044   5.663   4.340
 9832SOL    HW230396   4.903   5.591   4.377
 9833SOL     OW30397   4.122   3.353   4.081
 9833SOL    HW130398   4.203   3.387   4.034
 9833SOL    HW230399   4.049   3.421   4.075
 9834SOL     OW30400   2.972   6.058   5.604
 9834SOL    HW130401   2.924   6.070   5.691
 9834SOL    HW230402   2.969   5.962   5.576
 9835SOL     OW30403   3.802   4.023   3.727
 9835SOL    HW130404   3.797   3.948   3.794
 9835SOL    HW230405   3.856   3.994   3.648
 9836SOL     OW30406   6.692   3.511   5.793
 9836SOL    HW130407   6.704   3.421   5.750
 9836SOL    HW230408   6.769   3.570   5.770
 9837SOL     OW30409   5.634   1.501   3.410
 9837SOL    HW130410   5.612   1.546   3.324
 9837SOL    HW230411   5.569   1.426   3.426
 9838SOL     OW30412   1.014   5.935   1.085
 9838SOL    HW130413   1.076   5.996   1.036
 9838SOL    HW230414   0.941   5.988   1.126
 9839SOL     OW30415   5.027   6.661   3.735
 9839SOL    HW130416   5.054   6.571   3.766
 9839SOL    HW230417   4.968   6.653   3.655
 9840SOL     OW30418   6.693   1.789   6.372
 9840SOL    HW130419   6.780   1.838   6.368
 9840SOL    HW230420   6.690   1.720   6.300
 9841SOL     OW30421   6.699   6.123   2.678
 9841SOL    HW130422   6.601   6.103   2.678
 9841SOL    HW230423   6.719   6.190   2.750
 9842SOL     OW30424   3.418   0.118   7.015
 9842SOL    HW130425   3.467   0.199   0.024
 9842SOL    HW230426   3.483   0.048   6.988
 9843SOL     OW30427   0.118   0.649   1.733
 9843SOL    HW130428   0.091   0.743   1.757
 9843SOL    HW230429   0.199   0.624   1.785
 9844SOL     OW30430   4.646   0.525   4.577
 9844SOL    HW130431   4.551   0.523   4.547
 9844SOL    HW230432   4.657   0.590   4.652
 9845SOL     OW30433   1.213   3.960   2.150
 9845SOL    HW130434   1.243   4.055   2.158
 9845SOL    HW230435   1.125   3.949   2.196
 9846SOL     OW30436   6.004   2.388   1.400
 9846SOL    HW130437   6.055   2.316   1.448
 9846SOL    HW230438   6.069   2.455   1.364
 9847SOL     OW30439   3.962   4.261   6.642
 9847SOL    HW130440   3.902   4.184   6.622
 9847SOL    HW230441   3.976   4.268   6.741
 9848SOL     OW30442   3.240   3.745   5.698
 9848SOL    HW130443   3.174   3.718   5.628
 9848SOL    HW230444   3.202   3.820   5.753
 9849SOL     OW30445   1.592   2.249   4.298
 9849SOL    HW130446   1.671   2.309   4.286
 9849SOL    HW230447   1.538   2.281   4.375
 9850SOL     OW30448   1.690   6.778   4.719
 9850SOL    HW130449   1.695   6.877   4.705
 9850SOL    HW230450   1.767   6.734   4.672
 9851SOL     OW30451   3.791   5.852   3.594
 9851SOL    HW130452   3.703   5.805   3.600
 9851SOL    HW230453   3.791   5.911   3.513
 9852SOL     OW30454   1.724   6.651   0.152
 9852SOL    HW130455   1.807   6.596   0.148
 9852SOL    HW230456   1.644   6.591   0.151
 9853SOL     OW30457   0.245   4.739   3.539
 9853SOL    HW130458   0.274   4.818   3.485
 9853SOL    HW230459   0.181   4.683   3.485
 9854SOL     OW30460   6.841   3.586   6.807
 9854SOL    HW130461   6.941   3.582   6.799
 9854SOL    HW230462   6.813   3.679   6.832
 9855SOL     OW30463   0.873   5.961   0.581
 9855SOL    HW130464   0.942   5.896   0.614
 9855SOL    HW230465   0.786   5.913   0.568
 9856SOL     OW30466   5.478   3.014   3.022
 9856SOL    HW130467   5.467   3.085   2.953
 9856SOL    HW230468   5.564   2.965   3.007
 9857SOL     OW30469   4.623   0.135   5.797
 9857SOL    HW130470   4.676   0.137   5.881
 9857SOL    HW230471   4.683   0.149   5.719
 9858SOL     OW30472   6.244   6.145   2.256
 9858SOL    HW130473   6.342   6.141   2.277
 9858SOL    HW230474   6.205   6.227   2.298
 9859SOL     OW30475   0.303   5.630   2.799
 9859SOL    HW130476   0.371   5.636   2.872
 9859SOL    HW230477   0.215   5.599   2.837
 9860SOL     OW30478   1.770   2.990   3.885
 9860SOL    HW130479   1.864   2.959   3.898
 9860SOL    HW230480   1.727   3.001   3.975
 9861SOL     OW30481   3.693   1.689   3.217
 9861SOL    HW130482   3.610   1.641   3.188
 9861SOL    HW230483   3.741   1.634   3.285
 9862SOL     OW30484   1.513   3.733   6.337
 9862SOL    HW130485   1.495   3.658   6.401
 9862SOL    HW230486   1.473   3.710   6.248
 9863SOL     OW30487   3.933   0.014   2.286
 9863SOL    HW130488   3.914   6.939   2.301
 9863SOL    HW230489   4.008   0.042   2.346
 9864SOL     OW30490   2.193   6.140   5.499
 9864SOL    HW130491   2.114   6.158   5.557
 9864SOL    HW230492   2.211   6.219   5.441
 9865SOL     OW30493   2.226   5.710   5.783
 9865SOL    HW130494   2.287   5.786   5.803
 9865SOL    HW230495   2.191   5.719   5.689
 9866SOL     OW30496   6.422   5.328   6.072
 9866SOL    HW130497   6.472   5.310   5.987
 9866SOL    HW230498   6.387   5.421   6.071
 9867SOL     OW30499   4.297   1.450   1.928
 9867SOL    HW130500   4.357   1.450   2.008
 9867SOL    HW230501   4.255   1.540   1.918
 9868SOL     OW30502   2.336   4.726   4.040
 9868SOL    HW130503   2.403   4.673   4.091
 9868SOL    HW230504   2.369   4.820   4.029
 9869SOL     OW30505   0.128   2.106   1.714
 9869SOL    HW130506   0.112   2.015   1.752
 9869SOL    HW230507   0.112   2.104   1.615
 9870SOL     OW30508   2.251   2.273   2.730
 9870SOL    HW130509   2.323   2.301   2.792
 9870SOL    HW230510   2.165   2.315   2.757
 9871SOL     OW30511   5.661   5.818   3.535
 9871SOL    HW130512   5.707   5.904   3.557
 9871SOL    HW230513   5.683   5.750   3.605
 9872SOL     OW30514   0.478   5.619   5.337
 9872SOL    HW130515   0.505   5.715   5.331
 9872SOL    HW230516   0.389   5.612   5.383
 9873SOL     OW30517   1.298   1.307   5.561
 9873SOL    HW130518   1.303   1.384   5.499
 9873SOL    HW230519   1.209   1.306   5.607
 9874SOL     OW30520   0.468   2.255   3.720
 9874SOL    HW130521   0.526   2.297   3.650
 9874SOL    HW230522   0.493   2.159   3.732
 9875SOL     OW30523   6.438   6.059   0.818
 9875SOL    HW130524   6.356   6.003   0.833
 9875SOL    HW230525   6.461   6.107   0.903
 9876SOL     OW30526   0.039   6.644   3.548
 9876SOL    HW130527   0.002   6.620   3.638
 9876SOL    HW230528   7.002   6.608   3.477
 9877SOL     OW30529   0.508   6.138   4.770
 9877SOL    HW130530   0.522   6.236   4.759
 9877SOL    HW230531   0.593   6.095   4.802
 9878SOL     OW30532   3.469   2.763   6.985
 9878SOL    HW130533   3.434   2.800   0.048
 9878SOL    HW230534   3.393   2.725   6.932
 9879SOL     OW30535   6.376   5.501   5.297
 9879SOL    HW130536   6.282   5.532   5.308
 9879SOL    HW230537   6.429   5.527   5.378
 9880SOL     OW30538   2.761   1.352   1.018
 9880SOL    HW130539   2.800   1.442   1.036
 9880SOL    HW230540   2.694   1.360   0.943
 9881SOL     OW30541   5.847   0.556   3.028
 9881SOL    HW130542   5.831   0.537   3.125
 9881SOL    HW230543   5.764   0.593   2.987
 9882SOL     OW30544   3.602   3.142   4.573
 9882SOL    HW130545   3.519   3.092   4.547
 9882SOL    HW230546   3.673   3.077   4.600
 9883SOL     OW30547   2.123   6.274   2.444
 9883SOL    HW130548   2.090   6.337   2.514
 9883SOL    HW230549   2.047   6.219   2.409
 9884SOL     OW30550   3.344   2.643   5.305
 9884SOL    HW130551   3.272   2.580   5.276
 9884SOL    HW230552   3.375   2.696   5.226
 9885SOL     OW30553   4.446   2.169   5.517
 9885SOL    HW130554   4.385   2.182   5.595
 9885SOL    HW230555   4.397   2.124   5.443
 9886SOL     OW30556   3.100   5.917   1.343
 9886SOL    HW130557   3.097   5.953   1.249
 9886SOL    HW230558   3.015   5.941   1.390
 9887SOL     OW30559   3.318   0.945   0.118
 9887SOL    HW130560   3.336   0.849   0.097
 9887SOL    HW230561   3.226   0.954   0.157
 9888SOL     OW30562   6.126   6.958   4.242
 9888SOL    HW130563   6.038   6.966   4.195
 9888SOL    HW230564   6.200   6.975   4.177
 9889SOL     OW30565   0.097   5.458   2.453
 9889SOL    HW130566   0.088   5.423   2.360
 9889SOL    HW230567   0.180   5.422   2.494
 9890SOL     OW30568   1.226   3.194   2.811
 9890SOL    HW130569   1.294   3.267   2.810
 9890SOL    HW230570   1.160   3.211   2.883
 9891SOL     OW30571   5.046   6.671   1.930
 9891SOL    HW130572   4.984   6.709   1.999
 9891SOL    HW230573   5.128   6.727   1.925
 9892SOL     OW30574   1.617   6.030   3.757
 9892SOL    HW130575   1.620   6.006   3.854
 9892SOL    HW230576   1.537   6.088   3.740
 9893SOL     OW30577   5.755   4.623   5.188
 9893SOL    HW130578   5.718   4.595   5.277
 9893SOL    HW230579   5.717   4.564   5.117
 9894SOL     OW30580   4.403   3.673   5.231
 9894SOL    HW130581   4.487   3.654   5.181
 9894SOL    HW230582   4.324   3.657   5.172
 9895SOL     OW30583   5.294   2.156   6.512
 9895SOL    HW130584   5.268   2.126   6.420
 9895SOL    HW230585   5.376   2.213   6.506
 9896SOL     OW30586   3.886   3.837   6.751
 9896SOL    HW130587   3.837   3.762   6.794
 9896SOL    HW230588   3.837   3.923   6.767
 9897SOL     OW30589   0.242   1.237   2.778
 9897SOL    HW130590   0.183   1.288   2.840
 9897SOL    HW230591   0.332   1.224   2.821
 9898SOL     OW30592   1.498   5.054   0.032
 9898SOL    HW130593   1.519   5.068   6.958
 9898SOL    HW230594   1.457   4.964   0.045
 9899SOL     OW30595   4.495   4.964   2.669
 9899SOL    HW130596   4.584   4.963   2.624
 9899SOL    HW230597   4.425   4.995   2.604
 9900SOL     OW30598   1.788   4.678   4.101
 9900SOL    HW130599   1.744   4.725   4.024
 9900SOL    HW230600   1.888   4.684   4.090
 9901SOL     OW30601   2.331   1.886   6.059
 9901SOL    HW130602   2.310   1.959   5.994
 9901SOL    HW230603   2.269   1.809   6.045
 9902SOL     OW30604   4.496   3.748   6.553
 9902SOL    HW130605   4.432   3.743   6.629
 9902SOL    HW230606   4.528   3.842   6.543
 9903SOL     OW30607   3.607   1.770   1.594
 9903SOL    HW130608   3.508   1.782   1.587
 9903SOL    HW230609   3.653   1.841   1.542
 9904SOL     OW30610   0.236   0.013   2.346
 9904SOL    HW130611   0.182   0.077   2.401
 9904SOL    HW230612   0.291   6.978   2.406
 9905SOL     OW30613   1.372   6.563   5.670
 9905SOL    HW130614   1.355   6.476   5.624
 9905SOL    HW230615   1.468   6.588   5.661
 9906SOL     OW30616   3.732   3.668   5.765
 9906SOL    HW130617   3.792   3.588   5.766
 9906SOL    HW230618   3.782   3.747   5.799
 9907SOL     OW30619   1.226   6.685   2.915
 9907SOL    HW130620   1.259   6.700   3.008
 9907SOL    HW230621   1.134   6.723   2.905
 9908SOL     OW30622   6.071   3.538   5.075
 9908SOL    HW130623   6.154   3.578   5.115
 9908SOL    HW230624   6.010   3.509   5.148
 9909SOL     OW30625   3.796   6.656   2.135
 9909SOL    HW130626   3.730   6.718   2.178
 9909SOL    HW230627   3.821   6.693   2.045
 9910SOL     OW30628   0.813   4.860   0.777
 9910SOL    HW130629   0.825   4.895   0.684
 9910SOL    HW230630   0.729   4.899   0.816
 9911SOL     OW30631   3.859   5.275   2.931
 9911SOL    HW130632   3.871   5.227   3.018
 9911SOL    HW230633   3.768   5.317   2.928
 9912SOL     OW30634   3.946   0.147   0.977
 9912SOL    HW130635   3.937   0.058   1.023
 9912SOL    HW230636   3.867   0.162   0.917
 9913SOL     OW30637   4.766   2.466   2.780
 9913SOL    HW130638   4.805   2.386   2.735
 9913SOL    HW230639   4.697   2.436   2.846
 9914SOL     OW30640   1.989   4.990   4.557
 9914SOL    HW130641   1.966   5.072   4.609
 9914SOL    HW230642   1.952   4.997   4.465
 9915SOL     OW30643   6.284   3.839   4.262
 9915SOL    HW130644   6.284   3.872   4.168
 9915SOL    HW230645   6.198   3.791   4.281
 9916SOL     OW30646   2.658   3.710   0.518
 9916SOL    HW130647   2.715   3.630   0.502
 9916SOL    HW230648   2.563   3.681   0.529
 9917SOL     OW30649   2.191   2.860   4.838
 9917SOL    HW130650   2.237   2.910   4.911
 9917SOL    HW230651   2.183   2.764   4.864
 9918SOL     OW30652   2.512   0.997   4.933
 9918SOL    HW130653   2.435   1.055   4.957
 9918SOL    HW230654   2.560   1.036   4.854
 9919SOL     OW30655   0.708   5.452   2.341
 9919SOL    HW130656   0.806   5.442   2.321
 9919SOL    HW230657   0.660   5.369   2.311
 9920SOL     OW30658   4.279   6.878   2.748
 9920SOL    HW130659   4.239   6.834   2.829
 9920SOL    HW230660   4.378   6.869   2.751
 9921SOL     OW30661   5.136   0.195   2.467
 9921SOL    HW130662   5.146   0.125   2.397
 9921SOL    HW230663   5.186   0.168   2.549
 9922SOL     OW30664   5.137   3.121   1.987
 9922SOL    HW130665   5.163   3.052   1.920
 9922SOL    HW230666   5.197   3.200   1.978
 9923SOL     OW30667   5.989   0.692   6.542
 9923SOL    HW130668   5.951   0.611   6.587
 9923SOL    HW230669   6.005   0.673   6.445
 9924SOL     OW30670   5.060   0.932   4.154
 9924SOL    HW130671   5.078   0.902   4.060
 9924SOL    HW230672   5.090   0.861   4.218
 9925SOL     OW30673   3.843   1.986   4.769
 9925SOL    HW130674   3.833   2.051   4.845
 9925SOL    HW230675   3.758   1.986   4.715
 9926SOL     OW30676   1.380   0.779   5.757
 9926SOL    HW130677   1.457   0.842   5.747
 9926SOL    HW230678   1.412   0.685   5.748
 9927SOL     OW30679   0.745   3.306   2.938
 9927SOL    HW130680   0.686   3.272   2.865
 9927SOL    HW230681   0.690   3.336   3.016
 9928SOL     OW30682   0.153   3.128   2.197
 9928SOL    HW130683   0.199   3.046   2.232
 9928SOL    HW230684   0.126   3.112   2.101
 9929SOL     OW30685   0.569   4.526   5.269
 9929SOL    HW130686   0.602   4.546   5.177
 9929SOL    HW230687   0.589   4.431   5.292
 9930SOL     OW30688   6.543   5.102   6.210
 9930SOL    HW130689   6.489   5.182   6.237
 9930SOL    HW230690   6.529   5.029   6.276
 9931SOL     OW30691   2.962   4.865   6.614
 9931SOL    HW130692   3.041   4.910   6.655
 9931SOL    HW230693   2.888   4.932   6.600
 9932SOL     OW30694   2.473   2.613   0.979
 9932SOL    HW130695   2.524   2.645   0.899
 9932SOL    HW230696   2.492   2.673   1.056
 9933SOL     OW30697   0.838   1.707   2.431
 9933SOL    HW130698   0.748   1.740   2.461
 9933SOL    HW230699   0.871   1.638   2.496
 9934SOL     OW30700   5.311   0.596   5.968
 9934SOL    HW130701   5.260   0.523   6.013
 9934SOL    HW230702   5.248   0.651   5.913
 9935SOL     OW30703   2.485   2.767   0.592
 9935SOL    HW130704   2.517   2.769   0.497
 9935SOL    HW230705   2.408   2.703   0.599
 9936SOL     OW30706   4.926   6.721   6.399
 9936SOL    HW130707   4.872   6.805   6.395
 9936SOL    HW230708   4.909   6.676   6.487
 9937SOL     OW30709   1.607   6.693   3.665
 9937SOL    HW130710   1.620   6.789   3.640
 9937SOL    HW230711   1.644   6.634   3.594
 9938SOL     OW30712   0.108   1.325   3.244
 9938SOL    HW130713   0.077   1.417   3.220
 9938SOL    HW230714   0.193   1.331   3.297
 9939SOL     OW30715   2.669   4.239   1.616
 9939SOL    HW130716   2.600   4.170   1.639
 9939SOL    HW230717   2.683   4.241   1.517
 9940SOL     OW30718   6.680   0.944   3.069
 9940SOL    HW130719   6.722   1.025   3.028
 9940SOL    HW230720   6.749   0.893   3.120
 9941SOL     OW30721   5.830   3.454   1.227
 9941SOL    HW130722   5.752   3.517   1.220
 9941SOL    HW230723   5.816   3.377   1.165
 9942SOL     OW30724   6.400   6.075   2.933
 9942SOL    HW130725   6.423   5.988   2.977
 9942SOL    HW230726   6.341   6.129   2.993
 9943SOL     OW30727   2.029   3.889   5.661
 9943SOL    HW130728   2.094   3.965   5.661
 9943SOL    HW230729   1.937   3.924   5.647
 9944SOL     OW30730   2.107   5.900   6.380
 9944SOL    HW130731   2.188   5.920   6.436
 9944SOL    HW230732   2.024   5.920   6.433
 9945SOL     OW30733   6.459   3.685   6.867
 9945SOL    HW130734   6.461   3.641   6.778
 9945SOL    HW230735   6.449   3.616   6.938
 9946SOL     OW30736   5.033   2.064   1.808
 9946SOL    HW130737   4.981   2.094   1.728
 9946SOL    HW230738   5.064   1.970   1.794
 9947SOL     OW30739   1.257   1.481   2.245
 9947SOL    HW130740   1.301   1.447   2.329
 9947SOL    HW230741   1.159   1.493   2.261
 9948SOL     OW30742   6.010   0.752   5.619
 9948SOL    HW130743   5.948   0.829   5.611
 9948SOL    HW230744   6.094   0.771   5.567
 9949SOL     OW30745   6.894   3.680   3.425
 9949SOL    HW130746   6.855   3.590   3.403
 9949SOL    HW230747   6.829   3.732   3.481
 9950SOL     OW30748   4.590   4.301   5.516
 9950SOL    HW130749   4.552   4.347   5.597
 9950SOL    HW230750   4.520   4.295   5.445
 9951SOL     OW30751   0.152   2.380   2.528
 9951SOL    HW130752   0.102   2.427   2.602
 9951SOL    HW230753   0.197   2.299   2.565
 9952SOL     OW30754   1.778   4.630   1.348
 9952SOL    HW130755   1.729   4.647   1.262
 9952SOL    HW230756   1.790   4.717   1.396
 9953SOL     OW30757   6.780   4.368   3.536
 9953SOL    HW130758   6.858   4.305   3.532
 9953SOL    HW230759   6.716   4.345   3.462
 9954SOL     OW30760   3.791   1.407   1.326
 9954SOL    HW130761   3.762   1.364   1.411
 9954SOL    HW230762   3.858   1.479   1.346
 9955SOL     OW30763   5.929   5.094   1.366
 9955SOL    HW130764   5.947   5.118   1.462
 9955SOL    HW230765   6.007   5.044   1.330
 9956SOL     OW30766   1.553   3.220   2.905
 9956SOL    HW130767   1.632   3.268   2.943
 9956SOL    HW230768   1.515   3.159   2.974
 9957SOL     OW30769   5.233   7.002   0.360
 9957SOL    HW130770   5.202   6.981   0.453
 9957SOL    HW230771   5.188   0.063   0.328
 9958SOL     OW30772   5.661   5.810   6.699
 9958SOL    HW130773   5.690   5.894   6.746
 9958SOL    HW230774   5.736   5.778   6.641
 9959SOL     OW30775   6.043   4.461   0.261
 9959SOL    HW130776   5.980   4.436   0.187
 9959SOL    HW230777   5.992   4.503   0.336
 9960SOL     OW30778   6.339   0.208   6.861
 9960SOL    HW130779   6.293   0.246   6.941
 9960SOL    HW230780   6.357   0.111   6.876
 9961SOL     OW30781   3.142   5.986   1.069
 9961SOL    HW130782   3.071   6.021   1.007
 9961SOL    HW230783   3.226   5.969   1.017
 9962SOL     OW30784   3.369   0.682   1.572
 9962SOL    HW130785   3.340   0.725   1.657
 9962SOL    HW230786   3.365   0.582   1.582
 9963SOL     OW30787   0.631   0.032   6.358
 9963SOL    HW130788   0.667   6.980   6.415
 9963SOL    HW230789   0.649   0.012   6.262
 9964SOL     OW30790   4.211   4.961   5.051
 9964SOL    HW130791   4.285   4.899   5.024
 9964SOL    HW230792   4.250   5.044   5.091
 9965SOL     OW30793   2.651   5.217   4.026
 9965SOL    HW130794   2.689   5.256   3.943
 9965SOL    HW230795   2.595   5.137   4.004
 9966SOL     OW30796   3.715   5.892   3.025
 9966SOL    HW130797   3.756   5.978   2.994
 9966SOL    HW230798   3.684   5.902   3.119
 9967SOL     OW30799   0.350   0.855   3.205
 9967SOL    HW130800   0.328   0.803   3.288
 9967SOL    HW230801   0.271   0.856   3.144
 9968SOL     OW30802   4.273   6.847   0.346
 9968SOL    HW130803   4.184   6.805   0.327
 9968SOL    HW230804   4.338   6.819   0.276
 9969SOL     OW30805   0.278   5.694   3.586
 9969SOL    HW130806   0.280   5.793   3.602
 9969SOL    HW230807   0.370   5.662   3.565
 9970SOL     OW30808   6.564   3.688   2.088
 9970SOL    HW130809   6.636   3.625   2.118
 9970SOL    HW230810   6.589   3.781   2.113
 9971SOL     OW30811   0.310   5.202   4.160
 9971SOL    HW130812   0.276   5.271   4.096
 9971SOL    HW230813   0.282   5.226   4.253
 9972SOL     OW30814   2.756   4.637   6.081
 9972SOL    HW130815   2.662   4.604   6.094
 9972SOL    HW230816   2.768   4.725   6.125
 9973SOL     OW30817   2.936   1.801   3.272
 9973SOL    HW130818   3.001   1.872   3.243
 9973SOL    HW230819   2.984   1.736   3.331
 9974SOL     OW30820   1.646   2.207   3.078
 9974SOL    HW130821   1.552   2.238   3.068
 9974SOL    HW230822   1.708   2.271   3.032
 9975SOL     OW30823   2.567   4.368   6.454
 9975SOL    HW130824   2.644   4.389   6.394
 9975SOL    HW230825   2.601   4.330   6.540
 9976SOL     OW30826   4.088   5.945   5.024
 9976SOL    HW130827   4.114   5.900   5.109
 9976SOL    HW230828   4.096   6.044   5.035
 9977SOL     OW30829   4.096   0.470   5.204
 9977SOL    HW130830   4.116   0.495   5.109
 9977SOL    HW230831   4.179   0.478   5.259
 9978SOL     OW30832   0.504   2.378   0.275
 9978SOL    HW130833   0.416   2.418   0.301
 9978SOL    HW230834   0.577   2.443   0.297
 9979SOL     OW30835   3.469   4.133   4.672
 9979SOL    HW130836   3.423   4.077   4.741
 9979SOL    HW230837   3.560   4.158   4.705
 9980SOL     OW30838   0.951   0.597   0.527
 9980SOL    HW130839   1.050   0.601   0.541
 9980SOL    HW230840   0.908   0.674   0.574
 9981SOL     OW30841   5.435   0.946   0.168
 9981SOL    HW130842   5.405   0.870   0.111
 9981SOL    HW230843   5.366   0.965   0.238
 9982SOL     OW30844   2.208   2.298   4.418
 9982SOL    HW130845   2.234   2.356   4.341
 9982SOL    HW230846   2.264   2.215   4.418
 9983SOL     OW30847   0.805   3.694   2.319
 9983SOL    HW130848   0.787   3.689   2.221
 9983SOL    HW230849   0.731   3.744   2.364
 9984SOL     OW30850   0.492   4.866   1.068
 9984SOL    HW130851   0.576   4.861   1.121
 9984SOL    HW230852   0.477   4.779   1.021
 9985SOL     OW30853   4.971   4.388   6.970
 9985SOL    HW130854   4.934   4.295   6.979
 9985SOL    HW230855   4.913   4.452   7.020
 9986SOL     OW30856   5.731   4.939   0.526
 9986SOL    HW130857   5.634   4.934   0.550
 9986SOL    HW230858   5.744   4.908   0.432
 9987SOL     OW30859   5.256   2.111   1.117
 9987SOL    HW130860   5.276   2.157   1.031
 9987SOL    HW230861   5.172   2.057   1.108
 9988SOL     OW30862   6.332   0.067   3.605
 9988SOL    HW130863   6.428   0.094   3.612
 9988SOL    HW230864   6.324   7.013   3.542
 9989SOL     OW30865   6.634   5.815   2.075
 9989SOL    HW130866   6.689   5.750   2.022
 9989SOL    HW230867   6.560   5.851   2.018
 9990SOL     OW30868   0.111   0.224   3.038
 9990SOL    HW130869   0.149   0.280   2.964
 9990SOL    HW230870   0.170   0.231   3.119
 9991SOL     OW30871   2.406   4.520   2.201
 9991SOL    HW130872   2.474   4.592   2.187
 9991SOL    HW230873   2.396   4.467   2.116
 9992SOL     OW30874   2.918   5.240   0.344
 9992SOL    HW130875   2.933   5.141   0.347
 9992SOL    HW230876   3.005   5.287   0.331
 9993SOL     OW30877   4.026   0.354   4.637
 9993SOL    HW130878   4.112   0.351   4.585
 9993SOL    HW230879   3.954   0.309   4.585
 9994SOL     OW30880   6.043   4.863   4.973
 9994SOL    HW130881   6.142   4.851   4.977
 9994SOL    HW230882   6.006   4.811   4.895
 9995SOL     OW30883   3.826   1.935   6.430
 9995SOL    HW130884   3.844   1.951   6.333
 9995SOL    HW230885   3.760   1.860   6.440
 9996SOL     OW30886   3.300   4.533   1.144
 9996SOL    HW130887   3.213   4.555   1.098
 9996SOL    HW230888   3.308   4.433   1.153
 9997SOL     OW30889   6.787   1.672   2.487
 9997SOL    HW130890   6.689   1.694   2.491
 9997SOL    HW230891   6.799   1.573   2.497
 9998SOL     OW30892   5.132   4.000   2.518
 9998SOL    HW130893   5.091   4.067   2.456
 9998SOL    HW230894   5.150   3.915   2.468
 9999SOL     OW30895   0.683   0.105   4.839
 9999SOL    HW130896   0.646   0.068   4.754
 9999SOL    HW230897   0.783   0.095   4.838
10000SOL     OW30898   4.628   2.172   1.327
10000SOL    HW130899   4.670   2.128   1.407
10000SOL    HW230900   4.629   2.108   1.250
10001SOL     OW30901   3.712   6.348   1.221
10001SOL    HW130902   3.678   6.297   1.142
10001SOL    HW230903   3.635   6.394   1.266
10002SOL     OW30904   2.256   6.883   2.198
10002SOL    HW130905   2.289   6.931   2.117
10002SOL    HW230906   2.301   6.920   2.279
10003SOL     OW30907   1.274   1.176   2.456
10003SOL    HW130908   1.333   1.168   2.376
10003SOL    HW230909   1.275   1.270   2.489
10004SOL     OW30910   0.543   4.462   4.027
10004SOL    HW130911   0.590   4.493   3.944
10004SOL    HW230912   0.482   4.534   4.059
10005SOL     OW30913   2.625   5.720   3.572
10005SOL    HW130914   2.528   5.739   3.588
10005SOL    HW230915   2.681   5.774   3.634
10006SOL     OW30916   5.293   1.170   5.382
10006SOL    HW130917   5.271   1.254   5.432
10006SOL    HW230918   5.390   1.169   5.359
10007SOL     OW30919   0.720   5.187   3.803
10007SOL    HW130920   0.752   5.155   3.715
10007SOL    HW230921   0.792   5.177   3.871
10008SOL     OW30922   4.285   1.020   6.301
10008SOL    HW130923   4.343   1.067   6.235
10008SOL    HW230924   4.261   0.929   6.267
10009SOL     OW30925   1.139   4.424   2.219
10009SOL    HW130926   1.068   4.358   2.245
10009SOL    HW230927   1.180   4.462   2.302
10010SOL     OW30928   2.083   4.178   1.396
10010SOL    HW130929   2.032   4.110   1.342
10010SOL    HW230930   2.033   4.265   1.395
10011SOL     OW30931   2.345   2.871   7.021
10011SOL    HW130932   2.254   2.842   6.992
10011SOL    HW230933   2.351   2.868   0.099
10012SOL     OW30934   5.619   1.706   3.209
10012SOL    HW130935   5.610   1.725   3.111
10012SOL    HW230936   5.569   1.776   3.260
10013SOL     OW30937   0.705   6.563   4.418
10013SOL    HW130938   0.616   6.520   4.434
10013SOL    HW230939   0.777   6.501   4.449
10014SOL     OW30940   1.404   1.189   2.928
10014SOL    HW130941   1.350   1.272   2.916
10014SOL    HW230942   1.489   1.196   2.876
10015SOL     OW30943   3.514   6.668   6.124
10015SOL    HW130944   3.444   6.605   6.090
10015SOL    HW230945   3.522   6.659   6.223
10016SOL     OW30946   2.083   0.720   4.478
10016SOL    HW130947   2.121   0.807   4.510
10016SOL    HW230948   2.097   0.650   4.548
10017SOL     OW30949   3.250   2.109   2.246
10017SOL    HW130950   3.322   2.059   2.197
10017SOL    HW230951   3.192   2.155   2.180
10018SOL     OW30952   6.867   4.021   5.095
10018SOL    HW130953   6.891   4.040   5.000
10018SOL    HW230954   6.928   4.073   5.155
10019SOL     OW30955   0.454   1.954   1.746
10019SOL    HW130956   0.406   1.891   1.685
10019SOL    HW230957   0.475   1.908   1.832
10020SOL     OW30958   6.621   1.412   2.084
10020SOL    HW130959   6.712   1.451   2.069
10020SOL    HW230960   6.552   1.478   2.055
10021SOL     OW30961   0.949   3.329   2.251
10021SOL    HW130962   0.867   3.346   2.304
10021SOL    HW230963   0.925   3.316   2.155
10022SOL     OW30964   1.851   5.954   6.204
10022SOL    HW130965   1.783   5.978   6.135
10022SOL    HW230966   1.853   5.855   6.216
10023SOL     OW30967   0.465   1.648   5.722
10023SOL    HW130968   0.531   1.576   5.743
10023SOL    HW230969   0.374   1.620   5.751
10024SOL     OW30970   2.085   4.359   2.704
10024SOL    HW130971   2.149   4.292   2.741
10024SOL    HW230972   2.105   4.372   2.606
10025SOL     OW30973   1.365   3.827   0.798
10025SOL    HW130974   1.318   3.834   0.886
10025SOL    HW230975   1.393   3.918   0.769
10026SOL     OW30976   5.710   1.347   5.106
10026SOL    HW130977   5.623   1.391   5.131
10026SOL    HW230978   5.766   1.412   5.055
10027SOL     OW30979   3.696   1.292   5.368
10027SOL    HW130980   3.628   1.291   5.294
10027SOL    HW230981   3.738   1.383   5.373
10028SOL     OW30982   4.459   6.950   1.629
10028SOL    HW130983   4.387   6.919   1.691
10028SOL    HW230984   4.525   6.876   1.616
10029SOL     OW30985   0.569   4.205   4.536
10029SOL    HW130986   0.650   4.232   4.485
10029SOL    HW230987   0.543   4.280   4.598
10030SOL     OW30988   2.594   0.314   4.525
10030SOL    HW130989   2.521   0.335   4.461
10030SOL    HW230990   2.565   0.239   4.585
10031SOL     OW30991   2.366   5.734   2.801
10031SOL    HW130992   2.343   5.683   2.718
10031SOL    HW230993   2.432   5.806   2.778
10032SOL     OW30994   2.878   6.232   4.769
10032SOL    HW130995   2.893   6.249   4.672
10032SOL    HW230996   2.962   6.253   4.820
10033SOL     OW30997   3.506   1.171   4.698
10033SOL    HW130998   3.532   1.112   4.621
10033SOL    HW230999   3.418   1.140   4.735
10034SOL     OW31000   2.701   1.046   2.767
10034SOL    HW131001   2.748   1.028   2.854
10034SOL    HW231002   2.712   1.142   2.743
10035SOL     OW31003   6.487   2.979   2.429
10035SOL    HW131004   6.506   3.067   2.386
10035SOL    HW231005   6.569   2.921   2.427
10036SOL     OW31006   0.810   1.368   0.166
10036SOL    HW131007   0.878   1.302   0.133
10036SOL    HW231008   0.857   1.447   0.206
10037SOL     OW31009   5.776   6.615   6.724
10037SOL    HW131010   5.799   6.518   6.726
10037SOL    HW231011   5.677   6.625   6.712
10038SOL     OW31012   4.353   6.358   6.308
10038SOL    HW131013   4.385   6.316   6.223
10038SOL    HW231014   4.265   6.404   6.291
10039SOL     OW31015   0.811   6.002   2.637
10039SOL    HW131016   0.885   6.060   2.670
10039SOL    HW231017   0.843   5.908   2.627
10040SOL     OW31018   2.788   0.333   0.820
10040SOL    HW131019   2.698   0.319   0.863
10040SOL    HW231020   2.852   0.368   0.888
10041SOL     OW31021   5.979   5.687   4.933
10041SOL    HW131022   5.965   5.589   4.941
10041SOL    HW231023   5.990   5.712   4.837
10042SOL     OW31024   6.675   0.582   5.303
10042SOL    HW131025   6.672   0.598   5.402
10042SOL    HW231026   6.655   0.668   5.255
10043SOL     OW31027   0.934   0.570   3.488
10043SOL    HW131028   0.858   0.635   3.489
10043SOL    HW231029   1.005   0.602   3.425
10044SOL     OW31030   2.983   1.599   0.013
10044SOL    HW131031   2.966   1.605   6.938
10044SOL    HW231032   2.898   1.611   0.064
10045SOL     OW31033   3.816   6.673   4.714
10045SOL    HW131034   3.755   6.635   4.644
10045SOL    HW231035   3.857   6.598   4.766
10046SOL     OW31036   6.721   2.741   1.226
10046SOL    HW131037   6.689   2.774   1.137
10046SOL    HW231038   6.744   2.818   1.284
10047SOL     OW31039   0.566   1.519   3.107
10047SOL    HW131040   0.627   1.463   3.163
10047SOL    HW231041   0.558   1.611   3.147
10048SOL     OW31042   3.737   2.602   1.743
10048SOL    HW131043   3.702   2.509   1.756
10048SOL    HW231044   3.790   2.605   1.658
10049SOL     OW31045   1.695   7.005   4.280
10049SOL    HW131046   1.675   6.961   4.192
10049SOL    HW231047   1.741   6.940   4.340
10050SOL     OW31048   5.634   1.657   4.413
10050SOL    HW131049   5.674   1.704   4.493
10050SOL    HW231050   5.617   1.724   4.341
10051SOL     OW31051   6.241   2.176   6.647
10051SOL    HW131052   6.341   2.183   6.649
10051SOL    HW231053   6.214   2.081   6.659
10052SOL     OW31054   1.261   4.223   1.550
10052SOL    HW131055   1.355   4.215   1.517
10052SOL    HW231056   1.198   4.214   1.474
10053SOL     OW31057   3.036   6.303   3.595
10053SOL    HW131058   3.064   6.368   3.524
10053SOL    HW231059   2.936   6.294   3.594
10054SOL     OW31060   4.416   5.737   3.787
10054SOL    HW131061   4.342   5.699   3.842
10054SOL    HW231062   4.482   5.781   3.848
10055SOL     OW31063   6.673   3.220   6.614
10055SOL    HW131064   6.677   3.279   6.695
10055SOL    HW231065   6.582   3.226   6.574
10056SOL     OW31066   6.679   5.035   2.099
10056SOL    HW131067   6.715   4.943   2.120
10056SOL    HW231068   6.656   5.082   2.184
10057SOL     OW31069   2.720   2.337   3.951
10057SOL    HW131070   2.768   2.366   4.034
10057SOL    HW231071   2.672   2.251   3.968
10058SOL     OW31072   0.728   4.683   3.738
10058SOL    HW131073   0.745   4.710   3.832
10058SOL    HW231074   0.649   4.734   3.702
10059SOL     OW31075   5.266   7.006   1.102
10059SOL    HW131076   5.184   0.010   1.152
10059SOL    HW231077   5.286   6.910   1.121
10060SOL     OW31078   2.234   2.920   1.916
10060SOL    HW131079   2.286   2.854   1.970
10060SOL    HW231080   2.140   2.923   1.948
10061SOL     OW31081   6.279   2.033   4.941
10061SOL    HW131082   6.198   1.976   4.957
10061SOL    HW231083   6.254   2.111   4.883
10062SOL     OW31084   6.221   5.442   2.970
10062SOL    HW131085   6.280   5.436   2.890
10062SOL    HW231086   6.125   5.436   2.941
10063SOL     OW31087   0.844   2.833   2.830
10063SOL    HW131088   0.907   2.854   2.905
10063SOL    HW231089   0.798   2.917   2.800
10064SOL     OW31090   5.340   6.290   4.470
10064SOL    HW131091   5.415   6.226   4.453
10064SOL    HW231092   5.269   6.244   4.523
10065SOL     OW31093   1.214   6.616   3.542
10065SOL    HW131094   1.284   6.559   3.585
10065SOL    HW231095   1.191   6.579   3.452
10066SOL     OW31096   0.724   0.280   3.556
10066SOL    HW131097   0.665   0.228   3.618
10066SOL    HW231098   0.806   0.309   3.605
10067SOL     OW31099   4.385   5.992   3.575
10067SOL    HW131100   4.394   6.089   3.553
10067SOL    HW231101   4.341   5.982   3.665
10068SOL     OW31102   5.435   3.706   5.489
10068SOL    HW131103   5.431   3.692   5.588
10068SOL    HW231104   5.346   3.683   5.448
10069SOL     OW31105   3.760   0.890   3.544
10069SOL    HW131106   3.784   0.793   3.543
10069SOL    HW231107   3.764   0.926   3.451
10070SOL     OW31108   1.217   6.525   4.733
10070SOL    HW131109   1.250   6.553   4.823
10070SOL    HW231110   1.150   6.592   4.700
10071SOL     OW31111   5.385   5.317   5.004
10071SOL    HW131112   5.403   5.223   5.031
10071SOL    HW231113   5.377   5.322   4.904
10072SOL     OW31114   0.914   7.014   3.695
10072SOL    HW131115   0.989   6.956   3.664
10072SOL    HW231116   0.828   6.963   3.689
10073SOL     OW31117   0.339   5.787   6.627
10073SOL    HW131118   0.317   5.718   6.696
10073SOL    HW231119   0.438   5.791   6.615
10074SOL     OW31120   2.501   6.654   5.555
10074SOL    HW131121   2.562   6.639   5.633
10074SOL    HW231122   2.458   6.744   5.563
10075SOL     OW31123   2.153   2.337   3.832
10075SOL    HW131124   2.096   2.412   3.865
10075SOL    HW231125   2.197   2.364   3.746
10076SOL     OW31126   5.886   0.475   4.717
10076SOL    HW131127   5.839   0.412   4.779
10076SOL    HW231128   5.832   0.488   4.635
10077SOL     OW31129   3.851   1.057   6.834
10077SOL    HW131130   3.803   1.100   6.758
10077SOL    HW231131   3.836   1.111   6.917
10078SOL     OW31132   5.674   6.106   5.701
10078SOL    HW131133   5.610   6.152   5.764
10078SOL    HW231134   5.687   6.011   5.731
10079SOL     OW31135   0.031   4.235   6.379
10079SOL    HW131136   7.011   4.204   6.295
10079SOL    HW231137   0.124   4.267   6.360
10080SOL     OW31138   1.692   3.104   6.077
10080SOL    HW131139   1.735   3.053   6.003
10080SOL    HW231140   1.758   3.119   6.151
10081SOL     OW31141   0.038   0.779   6.664
10081SOL    HW131142   6.992   0.707   6.671
10081SOL    HW231143   0.106   0.754   6.595
10082SOL     OW31144   6.443   0.986   1.045
10082SOL    HW131145   6.354   0.941   1.036
10082SOL    HW231146   6.430   1.085   1.051
10083SOL     OW31147   5.205   1.122   4.350
10083SOL    HW131148   5.292   1.106   4.397
10083SOL    HW231149   5.222   1.167   4.262
10084SOL     OW31150   2.601   1.033   5.891
10084SOL    HW131151   2.658   0.968   5.841
10084SOL    HW231152   2.514   0.990   5.914
10085SOL     OW31153   0.627   5.587   2.748
10085SOL    HW131154   0.597   5.568   2.841
10085SOL    HW231155   0.593   5.677   2.719
10086SOL     OW31156   6.171   3.768   2.394
10086SOL    HW131157   6.134   3.710   2.467
10086SOL    HW231158   6.117   3.853   2.389
10087SOL     OW31159   1.041   0.204   4.137
10087SOL    HW131160   0.980   0.268   4.183
10087SOL    HW231161   1.123   0.189   4.192
10088SOL     OW31162   0.084   0.496   4.631
10088SOL    HW131163   0.119   0.487   4.724
10088SOL    HW231164   0.023   0.575   4.625
10089SOL     OW31165   1.288   3.365   2.508
10089SOL    HW131166   1.338   3.432   2.563
10089SOL    HW231167   1.240   3.301   2.569
10090SOL     OW31168   0.768   4.650   1.068
10090SOL    HW131169   0.840   4.620   1.005
10090SOL    HW231170   0.682   4.604   1.045
10091SOL     OW31171   0.703   2.481   3.793
10091SOL    HW131172   0.651   2.525   3.867
10091SOL    HW231173   0.774   2.543   3.762
10092SOL     OW31174   1.713   3.977   5.065
10092SOL    HW131175   1.639   3.941   5.008
10092SOL    HW231176   1.778   3.904   5.086
10093SOL     OW31177   6.643   4.793   6.326
10093SOL    HW131178   6.692   4.779   6.413
10093SOL    HW231179   6.678   4.730   6.257
10094SOL     OW31180   1.613   1.027   1.612
10094SOL    HW131181   1.578   1.098   1.673
10094SOL    HW231182   1.581   1.044   1.518
10095SOL     OW31183   0.054   0.923   5.967
10095SOL    HW131184   0.076   1.012   5.926
10095SOL    HW231185   0.036   0.857   5.895
10096SOL     OW31186   0.567   4.959   2.355
10096SOL    HW131187   0.563   4.954   2.455
10096SOL    HW231188   0.661   4.980   2.327
10097SOL     OW31189   1.227   1.932   6.954
10097SOL    HW131190   1.180   1.848   6.983
10097SOL    HW231191   1.197   1.957   6.862
10098SOL     OW31192   3.619   4.797   6.302
10098SOL    HW131193   3.588   4.718   6.248
10098SOL    HW231194   3.638   4.873   6.240
10099SOL     OW31195   6.474   4.757   4.525
10099SOL    HW131196   6.535   4.730   4.451
10099SOL    HW231197   6.387   4.706   4.517
10100SOL     OW31198   5.787   1.484   5.703
10100SOL    HW131199   5.738   1.413   5.754
10100SOL    HW231200   5.800   1.564   5.762
10101SOL     OW31201   0.454   4.486   1.933
10101SOL    HW131202   0.435   4.390   1.952
10101SOL    HW231203   0.504   4.526   2.009
10102SOL     OW31204   3.707   1.169   3.077
10102SOL    HW131205   3.755   1.256   3.081
10102SOL    HW231206   3.624   1.178   3.021
10103SOL     OW31207   2.597   1.880   6.975
10103SOL    HW131208   2.529   1.855   6.906
10103SOL    HW231209   2.640   1.967   6.951
10104SOL     OW31210   1.647   5.813   4.879
10104SOL    HW131211   1.557   5.836   4.843
10104SOL    HW231212   1.636   5.763   4.965
10105SOL     OW31213   2.405   0.824   5.932
10105SOL    HW131214   2.476   0.778   5.986
10105SOL    HW231215   2.392   0.775   5.846
10106SOL     OW31216   5.735   5.296   0.616
10106SOL    HW131217   5.706   5.236   0.690
10106SOL    HW231218   5.776   5.379   0.653
10107SOL     OW31219   5.597   1.371   5.895
10107SOL    HW131220   5.588   1.272   5.903
10107SOL    HW231221   5.571   1.415   5.981
10108SOL     OW31222   6.288   6.551   0.158
10108SOL    HW131223   6.255   6.503   0.076
10108SOL    HW231224   6.257   6.503   0.240
10109SOL     OW31225   5.005   5.204   3.252
10109SOL    HW131226   5.049   5.247   3.331
10109SOL    HW231227   5.034   5.109   3.245
10110SOL     OW31228   3.208   1.087   5.522
10110SOL    HW131229   3.216   1.186   5.518
10110SOL    HW231230   3.119   1.061   5.559
10111SOL     OW31231   0.401   2.455   2.873
10111SOL    HW131232   0.344   2.373   2.873
10111SOL    HW231233   0.429   2.476   2.780
10112SOL     OW31234   4.452   3.853   5.753
10112SOL    HW131235   4.405   3.796   5.686
10112SOL    HW231236   4.501   3.926   5.706
10113SOL     OW31237   3.633   6.523   6.817
10113SOL    HW131238   3.646   6.610   6.769
10113SOL    HW231239   3.575   6.463   6.763
10114SOL     OW31240   4.188   1.165   1.198
10114SOL    HW131241   4.153   1.249   1.237
10114SOL    HW231242   4.173   1.089   1.262
10115SOL     OW31243   1.538   2.249   3.674
10115SOL    HW131244   1.603   2.326   3.670
10115SOL    HW231245   1.563   2.181   3.605
10116SOL     OW31246   1.440   0.681   1.197
10116SOL    HW131247   1.437   0.711   1.102
10116SOL    HW231248   1.527   0.636   1.216
10117SOL     OW31249   5.003   0.778   5.579
10117SOL    HW131250   5.040   0.871   5.585
10117SOL    HW231251   4.903   0.783   5.584
10118SOL     OW31252   6.330   5.316   2.648
10118SOL    HW131253   6.328   5.402   2.700
10118SOL    HW231254   6.424   5.297   2.620
10119SOL     OW31255   2.631   0.169   5.648
10119SOL    HW131256   2.604   0.100   5.582
10119SOL    HW231257   2.594   0.146   5.738
10120SOL     OW31258   6.394   3.109   3.308
10120SOL    HW131259   6.391   3.090   3.406
10120SOL    HW231260   6.487   3.134   3.281
10121SOL     OW31261   6.814   4.985   4.572
10121SOL    HW131262   6.786   4.897   4.535
10121SOL    HW231263   6.890   5.021   4.519
10122SOL     OW31264   5.435   3.172   0.391
10122SOL    HW131265   5.463   3.155   0.486
10122SOL    HW231266   5.348   3.220   0.390
10123SOL     OW31267   0.029   6.970   0.316
10123SOL    HW131268   6.953   6.950   0.323
10123SOL    HW231269   0.053   6.981   0.220
10124SOL     OW31270   3.419   4.330   0.916
10124SOL    HW131271   3.410   4.296   1.009
10124SOL    HW231272   3.493   4.398   0.912
10125SOL     OW31273   1.424   6.881   1.724
10125SOL    HW131274   1.472   6.806   1.771
10125SOL    HW231275   1.344   6.908   1.776
10126SOL     OW31276   6.288   4.563   0.201
10126SOL    HW131277   6.279   4.572   0.102
10126SOL    HW231278   6.207   4.517   0.238
10127SOL     OW31279   3.768   4.575   5.482
10127SOL    HW131280   3.716   4.660   5.490
10127SOL    HW231281   3.848   4.579   5.540
10128SOL     OW31282   0.371   2.026   1.203
10128SOL    HW131283   0.402   2.091   1.134
10128SOL    HW231284   0.447   1.966   1.228
10129SOL     OW31285   5.390   1.958   3.067
10129SOL    HW131286   5.462   2.020   3.035
10129SOL    HW231287   5.412   1.925   3.158
10130SOL     OW31288   6.823   4.960   1.806
10130SOL    HW131289   6.906   5.013   1.786
10130SOL    HW231290   6.783   4.993   1.892
10131SOL     OW31291   6.746   1.064   1.258
10131SOL    HW131292   6.677   1.125   1.295
10131SOL    HW231293   6.832   1.114   1.245
10132SOL     OW31294   2.989   6.767   2.775
10132SOL    HW131295   2.889   6.769   2.770
10132SOL    HW231296   3.018   6.686   2.825
10133SOL     OW31297   5.319   5.735   3.030
10133SOL    HW131298   5.413   5.716   3.057
10133SOL    HW231299   5.290   5.669   2.960
10134SOL     OW31300   6.964   1.401   2.619
10134SOL    HW131301   6.865   1.407   2.620
10134SOL    HW231302   6.998   1.385   2.712
10135SOL     OW31303   3.844   5.947   3.314
10135SOL    HW131304   3.938   5.975   3.294
10135SOL    HW231305   3.785   6.027   3.320
10136SOL     OW31306   6.169   6.752   2.368
10136SOL    HW131307   6.211   6.742   2.458
10136SOL    HW231308   6.074   6.722   2.372
10137SOL     OW31309   5.687   4.746   4.012
10137SOL    HW131310   5.731   4.657   4.017
10137SOL    HW231311   5.691   4.790   4.101
10138SOL     OW31312   5.496   2.375   6.452
10138SOL    HW131313   5.543   2.449   6.499
10138SOL    HW231314   5.562   2.323   6.397
10139SOL     OW31315   4.044   3.790   2.977
10139SOL    HW131316   4.075   3.748   3.063
10139SOL    HW231317   4.075   3.734   2.900
10140SOL     OW31318   0.255   4.965   5.767
10140SOL    HW131319   0.199   4.887   5.796
10140SOL    HW231320   0.351   4.946   5.788
10141SOL     OW31321   2.169   0.518   3.609
10141SOL    HW131322   2.185   0.583   3.683
10141SOL    HW231323   2.156   0.567   3.523
10142SOL     OW31324   5.163   5.589   4.579
10142SOL    HW131325   5.170   5.680   4.539
10142SOL    HW231326   5.078   5.545   4.549
10143SOL     OW31327   4.989   6.643   1.143
10143SOL    HW131328   4.959   6.738   1.145
10143SOL    HW231329   5.046   6.628   1.062
10144SOL     OW31330   3.097   5.442   3.432
10144SOL    HW131331   3.071   5.497   3.353
10144SOL    HW231332   3.142   5.500   3.500
10145SOL     OW31333   3.162   5.879   6.032
10145SOL    HW131334   3.252   5.894   6.074
10145SOL    HW231335   3.174   5.864   5.933
10146SOL     OW31336   4.641   5.009   4.205
10146SOL    HW131337   4.609   4.987   4.297
10146SOL    HW231338   4.640   4.927   4.148
10147SOL     OW31339   5.195   5.041   4.920
10147SOL    HW131340   5.133   4.999   4.986
10147SOL    HW231341   5.289   5.039   4.955
10148SOL     OW31342   5.551   5.265   1.304
10148SOL    HW131343   5.525   5.212   1.385
10148SOL    HW231344   5.528   5.361   1.319
10149SOL     OW31345   4.337   3.325   0.820
10149SOL    HW131346   4.266   3.302   0.753
10149SOL    HW231347   4.301   3.310   0.912
10150SOL     OW31348   4.776   4.745   1.248
10150SOL    HW131349   4.747   4.692   1.328
10150SOL    HW231350   4.875   4.737   1.236
10151SOL     OW31351   1.434   6.820   5.414
10151SOL    HW131352   1.453   6.857   5.323
10151SOL    HW231353   1.364   6.750   5.408
10152SOL     OW31354   0.309   5.463   3.751
10152SOL    HW131355   0.399   5.440   3.714
10152SOL    HW231356   0.288   5.558   3.729
10153SOL     OW31357   5.382   6.775   3.982
10153SOL    HW131358   5.411   6.760   4.076
10153SOL    HW231359   5.323   6.856   3.977
10154SOL     OW31360   6.763   5.441   5.769
10154SOL    HW131361   6.696   5.514   5.777
10154SOL    HW231362   6.809   5.447   5.680
10155SOL     OW31363   3.626   1.703   6.437
10155SOL    HW131364   3.630   1.639   6.361
10155SOL    HW231365   3.671   1.662   6.517
10156SOL     OW31366   5.754   0.950   2.167
10156SOL    HW131367   5.830   0.938   2.231
10156SOL    HW231368   5.713   0.861   2.147
10157SOL     OW31369   5.774   0.774   6.042
10157SOL    HW131370   5.674   0.769   6.037
10157SOL    HW231371   5.807   0.712   6.113
10158SOL     OW31372   4.210   3.582   6.791
10158SOL    HW131373   4.244   3.635   6.869
10158SOL    HW231374   4.221   3.636   6.707
10159SOL     OW31375   1.281   1.285   5.931
10159SOL    HW131376   1.306   1.345   6.008
10159SOL    HW231377   1.359   1.276   5.869
10160SOL     OW31378   0.332   5.972   3.633
10160SOL    HW131379   0.402   6.043   3.642
10160SOL    HW231380   0.258   6.006   3.575
10161SOL     OW31381   2.847   5.330   5.932
10161SOL    HW131382   2.766   5.371   5.889
10161SOL    HW231383   2.831   5.319   6.030
10162SOL     OW31384   3.355   1.966   6.893
10162SOL    HW131385   3.422   2.037   6.914
10162SOL    HW231386   3.299   1.948   6.974
10163SOL     OW31387   6.436   2.992   5.406
10163SOL    HW131388   6.474   2.989   5.498
10163SOL    HW231389   6.473   2.917   5.352
10164SOL     OW31390   0.319   3.080   4.961
10164SOL    HW131391   0.379   3.048   4.888
10164SOL    HW231392   0.373   3.129   5.030
10165SOL     OW31393   6.876   2.025   3.092
10165SOL    HW131394   6.819   1.947   3.067
10165SOL    HW231395   6.823   2.109   3.083
10166SOL     OW31396   1.762   0.936   2.065
10166SOL    HW131397   1.813   0.875   2.003
10166SOL    HW231398   1.665   0.935   2.040
10167SOL     OW31399   4.778   0.314   6.977
10167SOL    HW131400   4.840   0.360   0.019
10167SOL    HW231401   4.760   0.374   6.899
10168SOL     OW31402   6.636   4.649   4.289
10168SOL    HW131403   6.734   4.664   4.307
10168SOL    HW231404   6.624   4.562   4.241
10169SOL     OW31405   6.248   4.383   3.783
10169SOL    HW131406   6.199   4.333   3.854
10169SOL    HW231407   6.182   4.427   3.722
10170SOL     OW31408   1.940   4.176   4.981
10170SOL    HW131409   1.958   4.147   4.887
10170SOL    HW231410   2.012   4.142   5.041
10171SOL     OW31411   5.878   3.590   5.816
10171SOL    HW131412   5.877   3.533   5.898
10171SOL    HW231413   5.835   3.678   5.836
10172SOL     OW31414   5.097   0.978   3.013
10172SOL    HW131415   4.997   0.974   3.011
10172SOL    HW231416   5.130   1.035   2.938
10173SOL     OW31417   2.059   1.635   2.196
10173SOL    HW131418   2.027   1.548   2.158
10173SOL    HW231419   2.012   1.711   2.152
10174SOL     OW31420   6.925   4.333   1.978
10174SOL    HW131421   6.913   4.418   2.029
10174SOL    HW231422   6.837   4.286   1.971
10175SOL     OW31423   6.145   2.864   5.832
10175SOL    HW131424   6.216   2.810   5.877
10175SOL    HW231425   6.181   2.955   5.809
10176SOL     OW31426   2.057   4.213   6.978
10176SOL    HW131427   2.034   4.309   6.991
10176SOL    HW231428   1.997   4.156   0.012
10177SOL     OW31429   1.974   6.525   6.862
10177SOL    HW131430   1.910   6.599   6.838
10177SOL    HW231431   1.963   6.501   6.958
10178SOL     OW31432   5.637   2.070   4.631
10178SOL    HW131433   5.655   2.134   4.556
10178SOL    HW231434   5.687   2.100   4.713
10179SOL     OW31435   1.034   3.431   6.545
10179SOL    HW131436   1.062   3.473   6.458
10179SOL    HW231437   1.001   3.503   6.607
10180SOL     OW31438   2.830   6.083   5.833
10180SOL    HW131439   2.829   5.988   5.864
10180SOL    HW231440   2.752   6.132   5.873
10181SOL     OW31441   5.307   3.161   1.436
10181SOL    HW131442   5.362   3.237   1.401
10181SOL    HW231443   5.368   3.084   1.457
10182SOL     OW31444   5.573   1.129   0.829
10182SOL    HW131445   5.596   1.033   0.812
10182SOL    HW231446   5.622   1.186   0.763
10183SOL     OW31447   1.633   1.539   6.676
10183SOL    HW131448   1.712   1.540   6.616
10183SOL    HW231449   1.587   1.628   6.672
10184SOL     OW31450   3.797   0.821   6.100
10184SOL    HW131451   3.776   0.760   6.176
10184SOL    HW231452   3.723   0.820   6.033
10185SOL     OW31453   5.194   6.675   0.562
10185SOL    HW131454   5.240   6.646   0.646
10185SOL    HW231455   5.183   6.774   0.561
10186SOL     OW31456   4.355   2.431   2.888
10186SOL    HW131457   4.275   2.378   2.916
10186SOL    HW231458   4.331   2.528   2.884
10187SOL     OW31459   0.939   1.691   1.677
10187SOL    HW131460   0.844   1.673   1.651
10187SOL    HW231461   0.954   1.789   1.685
10188SOL     OW31462   3.847   5.971   1.077
10188SOL    HW131463   3.765   5.916   1.061
10188SOL    HW231464   3.892   5.940   1.161
10189SOL     OW31465   1.267   6.508   5.383
10189SOL    HW131466   1.180   6.548   5.413
10189SOL    HW231467   1.295   6.437   5.447
10190SOL     OW31468   5.451   2.853   0.524
10190SOL    HW131469   5.384   2.824   0.592
10190SOL    HW231470   5.414   2.839   0.433
10191SOL     OW31471   6.536   4.324   0.038
10191SOL    HW131472   6.593   4.276   0.105
10191SOL    HW231473   6.558   4.421   0.040
10192SOL     OW31474   3.360   0.985   5.751
10192SOL    HW131475   3.317   1.043   5.682
10192SOL    HW231476   3.340   0.889   5.730
10193SOL     OW31477   4.842   4.019   0.731
10193SOL    HW131478   4.892   3.967   0.662
10193SOL    HW231479   4.753   4.046   0.694
10194SOL     OW31480   5.452   3.553   5.174
10194SOL    HW131481   5.372   3.592   5.219
10194SOL    HW231482   5.514   3.515   5.243
10195SOL     OW31483   6.842   3.860   1.970
10195SOL    HW131484   6.774   3.855   2.043
10195SOL    HW231485   6.930   3.891   2.008
10196SOL     OW31486   0.662   1.611   4.558
10196SOL    HW131487   0.598   1.626   4.482
10196SOL    HW231488   0.639   1.672   4.633
10197SOL     OW31489   5.999   0.978   5.968
10197SOL    HW131490   5.924   0.913   5.972
10197SOL    HW231491   5.999   1.025   5.880
10198SOL     OW31492   3.547   6.813   3.024
10198SOL    HW131493   3.506   6.797   3.114
10198SOL    HW231494   3.557   6.911   3.008
10199SOL     OW31495   1.478   2.367   5.340
10199SOL    HW131496   1.544   2.442   5.331
10199SOL    HW231497   1.390   2.396   5.302
10200SOL     OW31498   5.817   2.971   1.696
10200SOL    HW131499   5.764   2.924   1.766
10200SOL    HW231500   5.868   2.904   1.642
10201SOL     OW31501   1.438   3.086   0.601
10201SOL    HW131502   1.457   2.995   0.638
10201SOL    HW231503   1.524   3.133   0.583
10202SOL     OW31504   3.469   0.439   5.146
10202SOL    HW131505   3.412   0.521   5.155
10202SOL    HW231506   3.559   0.465   5.113
10203SOL     OW31507   6.246   2.134   4.551
10203SOL    HW131508   6.198   2.131   4.463
10203SOL    HW231509   6.318   2.064   4.552
10204SOL     OW31510   5.411   5.916   6.734
10204SOL    HW131511   5.336   5.861   6.698
10204SOL    HW231512   5.497   5.866   6.722
10205SOL     OW31513   0.922   0.783   5.995
10205SOL    HW131514   0.885   0.846   6.063
10205SOL    HW231515   1.015   0.813   5.971
10206SOL     OW31516   1.514   1.342   5.200
10206SOL    HW131517   1.577   1.410   5.237
10206SOL    HW231518   1.556   1.297   5.121
10207SOL     OW31519   1.910   2.166   5.265
10207SOL    HW131520   1.829   2.155   5.206
10207SOL    HW231521   1.889   2.230   5.339
10208SOL     OW31522   6.411   5.061   5.543
10208SOL    HW131523   6.458   5.022   5.623
10208SOL    HW231524   6.327   5.011   5.526
10209SOL     OW31525   6.711   6.847   6.053
10209SOL    HW131526   6.618   6.848   6.090
10209SOL    HW231527   6.722   6.769   5.991
10210SOL     OW31528   3.231   6.397   2.280
10210SOL    HW131529   3.163   6.326   2.297
10210SOL    HW231530   3.193   6.466   2.218
10211SOL     OW31531   5.504   5.768   5.328
10211SOL    HW131532   5.429   5.825   5.296
10211SOL    HW231533   5.567   5.750   5.252
10212SOL     OW31534   0.535   0.183   6.721
10212SOL    HW131535   0.564   0.208   6.628
10212SOL    HW231536   0.435   0.184   6.725
10213SOL     OW31537   5.969   1.731   0.713
10213SOL    HW131538   5.877   1.756   0.684
10213SOL    HW231539   5.965   1.650   0.772
10214SOL     OW31540   0.736   2.347   0.718
10214SOL    HW131541   0.750   2.434   0.766
10214SOL    HW231542   0.650   2.306   0.749
10215SOL     OW31543   3.353   3.091   2.133
10215SOL    HW131544   3.265   3.059   2.169
10215SOL    HW231545   3.359   3.067   2.036
10216SOL     OW31546   6.816   6.330   2.836
10216SOL    HW131547   6.753   6.378   2.774
10216SOL    HW231548   6.909   6.338   2.800
10217SOL     OW31549   3.456   0.900   4.194
10217SOL    HW131550   3.421   0.977   4.248
10217SOL    HW231551   3.396   0.821   4.204
10218SOL     OW31552   1.589   2.858   2.747
10218SOL    HW131553   1.687   2.859   2.765
10218SOL    HW231554   1.569   2.796   2.671
10219SOL     OW31555   6.709   0.222   2.958
10219SOL    HW131556   6.744   0.241   2.867
10219SOL    HW231557   6.760   0.276   3.025
10220SOL     OW31558   3.950   2.678   0.797
10220SOL    HW131559   3.896   2.594   0.808
10220SOL    HW231560   3.955   2.725   0.885
10221SOL     OW31561   0.665   5.510   4.001
10221SOL    HW131562   0.701   5.421   3.973
10221SOL    HW231563   0.571   5.499   4.035
10222SOL     OW31564   2.900   3.619   4.487
10222SOL    HW131565   2.880   3.551   4.416
10222SOL    HW231566   2.932   3.704   4.444
10223SOL     OW31567   0.603   6.329   1.875
10223SOL    HW131568   0.584   6.232   1.887
10223SOL    HW231569   0.522   6.375   1.841
10224SOL     OW31570   5.931   4.140   3.101
10224SOL    HW131571   5.958   4.235   3.117
10224SOL    HW231572   5.940   4.087   3.186
10225SOL     OW31573   3.056   3.584   5.849
10225SOL    HW131574   3.121   3.650   5.813
10225SOL    HW231575   3.019   3.618   5.936
10226SOL     OW31576   5.123   2.960   0.160
10226SOL    HW131577   5.118   2.944   0.062
10226SOL    HW231578   5.034   2.995   0.192
10227SOL     OW31579   5.049   3.796   1.582
10227SOL    HW131580   5.039   3.864   1.510
10227SOL    HW231581   5.123   3.823   1.643
10228SOL     OW31582   5.281   0.799   0.914
10228SOL    HW131583   5.296   0.895   0.890
10228SOL    HW231584   5.206   0.762   0.860
10229SOL     OW31585   6.446   3.171   5.002
10229SOL    HW131586   6.355   3.137   5.022
10229SOL    HW231587   6.440   3.262   4.962
10230SOL     OW31588   0.120   6.174   2.385
10230SOL    HW131589   0.039   6.195   2.440
10230SOL    HW231590   0.192   6.137   2.444
10231SOL     OW31591   1.371   5.515   3.119
10231SOL    HW131592   1.418   5.598   3.150
10231SOL    HW231593   1.291   5.540   3.066
10232SOL     OW31594   5.188   4.467   4.158
10232SOL    HW131595   5.165   4.565   4.157
10232SOL    HW231596   5.156   4.425   4.073
10233SOL     OW31597   3.080   3.819   6.077
10233SOL    HW131598   3.038   3.864   6.156
10233SOL    HW231599   3.092   3.886   6.003
10234SOL     OW31600   0.611   1.210   2.488
10234SOL    HW131601   0.563   1.278   2.433
10234SOL    HW231602   0.710   1.225   2.479
10235SOL     OW31603   1.469   0.864   2.852
10235SOL    HW131604   1.411   0.917   2.791
10235SOL    HW231605   1.495   0.921   2.931
10236SOL     OW31606   2.583   6.688   2.526
10236SOL    HW131607   2.517   6.736   2.468
10236SOL    HW231608   2.651   6.643   2.468
10237SOL     OW31609   0.508   3.453   5.158
10237SOL    HW131610   0.495   3.505   5.242
10237SOL    HW231611   0.572   3.501   5.098
10238SOL     OW31612   3.671   6.898   2.079
10238SOL    HW131613   3.586   6.884   2.028
10238SOL    HW231614   3.743   6.925   2.015
10239SOL     OW31615   1.004   2.582   4.208
10239SOL    HW131616   0.967   2.494   4.239
10239SOL    HW231617   1.050   2.570   4.120
10240SOL     OW31618   2.296   6.723   0.477
10240SOL    HW131619   2.334   6.776   0.553
10240SOL    HW231620   2.325   6.627   0.485
10241SOL     OW31621   3.885   2.548   1.513
10241SOL    HW131622   3.970   2.587   1.477
10241SOL    HW231623   3.905   2.461   1.558
10242SOL     OW31624   6.951   2.532   6.825
10242SOL    HW131625   6.901   2.526   6.739
10242SOL    HW231626   7.001   2.619   6.829
10243SOL     OW31627   2.549   5.319   1.531
10243SOL    HW131628   2.558   5.379   1.610
10243SOL    HW231629   2.636   5.315   1.482
10244SOL     OW31630   3.140   4.278   1.436
10244SOL    HW131631   3.101   4.186   1.438
10244SOL    HW231632   3.201   4.291   1.514
10245SOL     OW31633   4.606   3.985   1.054
10245SOL    HW131634   4.634   3.889   1.064
10245SOL    HW231635   4.508   3.993   1.067
10246SOL     OW31636   3.805   2.967   4.021
10246SOL    HW131637   3.825   2.928   4.111
10246SOL    HW231638   3.740   3.043   4.032
10247SOL     OW31639   0.650   2.590   4.237
10247SOL    HW131640   0.620   2.677   4.275
10247SOL    HW231641   0.598   2.570   4.154
10248SOL     OW31642   1.037   0.654   3.977
10248SOL    HW131643   1.131   0.637   3.949
10248SOL    HW231644   0.977   0.648   3.898
10249SOL     OW31645   3.040   5.351   6.228
10249SOL    HW131646   2.948   5.316   6.246
10249SOL    HW231647   3.034   5.444   6.194
10250SOL     OW31648   4.385   2.331   0.982
10250SOL    HW131649   4.295   2.356   0.946
10250SOL    HW231650   4.431   2.412   1.018
10251SOL     OW31651   1.300   0.500   4.315
10251SOL    HW131652   1.388   0.543   4.295
10251SOL    HW231653   1.294   0.413   4.266
10252SOL     OW31654   5.287   4.289   6.314
10252SOL    HW131655   5.353   4.228   6.358
10252SOL    HW231656   5.222   4.235   6.260
10253SOL     OW31657   3.319   6.181   6.339
10253SOL    HW131658   3.406   6.167   6.386
10253SOL    HW231659   3.245   6.143   6.394
10254SOL     OW31660   5.879   1.715   5.844
10254SOL    HW131661   5.921   1.801   5.816
10254SOL    HW231662   5.915   1.688   5.933
10255SOL     OW31663   4.091   4.480   1.633
10255SOL    HW131664   4.154   4.458   1.559
10255SOL    HW231665   4.055   4.396   1.673
10256SOL     OW31666   3.817   1.236   3.481
10256SOL    HW131667   3.904   1.206   3.442
10256SOL    HW231668   3.745   1.172   3.455
10257SOL     OW31669   4.221   5.683   3.062
10257SOL    HW131670   4.280   5.711   3.138
10257SOL    HW231671   4.138   5.738   3.061
10258SOL     OW31672   1.882   1.553   1.768
10258SOL    HW131673   1.831   1.579   1.849
10258SOL    HW231674   1.951   1.622   1.747
10259SOL     OW31675   2.299   4.255   4.099
10259SOL    HW131676   2.202   4.275   4.115
10259SOL    HW231677   2.320   4.164   4.135
10260SOL     OW31678   1.149   0.607   3.329
10260SOL    HW131679   1.190   0.664   3.257
10260SOL    HW231680   1.207   0.528   3.346
10261SOL     OW31681   0.175   3.554   1.138
10261SOL    HW131682   0.147   3.458   1.128
10261SOL    HW231683   0.228   3.564   1.222
10262SOL     OW31684   4.365   1.586   0.730
10262SOL    HW131685   4.330   1.632   0.812
10262SOL    HW231686   4.347   1.488   0.738
10263SOL     OW31687   5.892   1.250   2.403
10263SOL    HW131688   5.987   1.238   2.375
10263SOL    HW231689   5.832   1.245   2.324
10264SOL     OW31690   6.878   6.312   6.688
10264SOL    HW131691   6.800   6.335   6.747
10264SOL    HW231692   6.915   6.223   6.715
10265SOL     OW31693   2.043   2.036   0.929
10265SOL    HW131694   1.963   1.981   0.905
10265SOL    HW231695   2.126   1.983   0.915
10266SOL     OW31696   2.611   3.546   1.709
10266SOL    HW131697   2.524   3.527   1.753
10266SOL    HW231698   2.684   3.494   1.754
10267SOL     OW31699   5.433   0.820   1.377
10267SOL    HW131700   5.519   0.813   1.427
10267SOL    HW231701   5.450   0.805   1.279
10268SOL     OW31702   3.676   6.276   1.818
10268SOL    HW131703   3.676   6.240   1.725
10268SOL    HW231704   3.745   6.227   1.872
10269SOL     OW31705   3.237   2.377   0.730
10269SOL    HW131706   3.254   2.465   0.685
10269SOL    HW231707   3.239   2.389   0.829
10270SOL     OW31708   2.659   0.350   2.843
10270SOL    HW131709   2.597   0.358   2.765
10270SOL    HW231710   2.609   0.371   2.927
10271SOL     OW31711   1.397   1.995   6.613
10271SOL    HW131712   1.495   2.012   6.628
10271SOL    HW231713   1.373   2.020   6.519
10272SOL     OW31714   6.076   0.262   4.637
10272SOL    HW131715   6.147   0.258   4.708
10272SOL    HW231716   5.995   0.211   4.668
10273SOL     OW31717   2.235   5.419   3.416
10273SOL    HW131718   2.152   5.472   3.398
10273SOL    HW231719   2.226   5.372   3.503
10274SOL     OW31720   1.051   4.965   5.579
10274SOL    HW131721   0.981   4.990   5.646
10274SOL    HW231722   1.013   4.899   5.515
10275SOL     OW31723   6.607   0.636   2.634
10275SOL    HW131724   6.582   0.702   2.563
10275SOL    HW231725   6.612   0.683   2.723
10276SOL     OW31726   3.811   5.231   5.246
10276SOL    HW131727   3.768   5.300   5.304
10276SOL    HW231728   3.835   5.272   5.158
10277SOL     OW31729   0.236   5.970   4.290
10277SOL    HW131730   0.304   6.033   4.253
10277SOL    HW231731   0.244   5.967   4.390
10278SOL     OW31732   6.672   0.201   5.145
10278SOL    HW131733   6.705   0.161   5.230
10278SOL    HW231734   6.750   0.218   5.084
10279SOL     OW31735   2.248   6.420   4.152
10279SOL    HW131736   2.195   6.412   4.236
10279SOL    HW231737   2.224   6.506   4.105
10280SOL     OW31738   6.493   4.223   0.465
10280SOL    HW131739   6.395   4.240   0.477
10280SOL    HW231740   6.543   4.264   0.541
10281SOL     OW31741   6.607   1.624   3.416
10281SOL    HW131742   6.559   1.556   3.472
10281SOL    HW231743   6.635   1.701   3.473
10282SOL     OW31744   4.849   3.083   3.532
10282SOL    HW131745   4.868   3.180   3.542
10282SOL    HW231746   4.868   3.054   3.438
10283SOL     OW31747   0.839   2.743   1.202
10283SOL    HW131748   0.755   2.793   1.183
10283SOL    HW231749   0.819   2.645   1.207
10284SOL     OW31750   0.102   3.288   3.652
10284SOL    HW131751   0.121   3.314   3.557
10284SOL    HW231752   0.032   3.348   3.689
10285SOL     OW31753   6.099   5.597   5.342
10285SOL    HW131754   6.074   5.612   5.438
10285SOL    HW231755   6.039   5.528   5.303
10286SOL     OW31756   2.834   1.032   2.993
10286SOL    HW131757   2.835   1.016   3.091
10286SOL    HW231758   2.920   0.998   2.953
10287SOL     OW31759   2.275   5.458   2.938
10287SOL    HW131760   2.293   5.456   3.036
10287SOL    HW231761   2.329   5.531   2.895
10288SOL     OW31762   3.893   6.676   5.187
10288SOL    HW131763   3.885   6.760   5.135
10288SOL    HW231764   3.830   6.679   5.265
10289SOL     OW31765   3.448   5.716   6.770
10289SOL    HW131766   3.524   5.751   6.715
10289SOL    HW231767   3.484   5.658   6.844
10290SOL     OW31768   3.705   2.830   1.900
10290SOL    HW131769   3.789   2.875   1.872
10290SOL    HW231770   3.708   2.734   1.876
10291SOL     OW31771   2.131   2.008   1.953
10291SOL    HW131772   2.169   1.919   1.980
10291SOL    HW231773   2.052   2.029   2.010
10292SOL     OW31774   6.612   6.637   6.430
10292SOL    HW131775   6.630   6.714   6.369
10292SOL    HW231776   6.546   6.663   6.500
10293SOL     OW31777   1.405   4.145   4.629
10293SOL    HW131778   1.417   4.099   4.717
10293SOL    HW231779   1.326   4.206   4.633
10294SOL     OW31780   3.335   1.405   2.235
10294SOL    HW131781   3.273   1.346   2.184
10294SOL    HW231782   3.337   1.496   2.194
10295SOL     OW31783   1.135   2.011   6.703
10295SOL    HW131784   1.071   1.969   6.638
10295SOL    HW231785   1.229   1.995   6.672
10296SOL     OW31786   6.021   1.273   5.644
10296SOL    HW131787   6.105   1.305   5.688
10296SOL    HW231788   6.002   1.328   5.563
10297SOL     OW31789   3.713   0.803   6.815
10297SOL    HW131790   3.781   0.877   6.813
10297SOL    HW231791   3.631   0.835   6.862
10298SOL     OW31792   0.969   2.402   1.819
10298SOL    HW131793   1.036   2.352   1.874
10298SOL    HW231794   0.892   2.430   1.876
10299SOL     OW31795   4.229   6.503   3.127
10299SOL    HW131796   4.250   6.408   3.104
10299SOL    HW231797   4.264   6.523   3.218
10300SOL     OW31798   1.180   3.928   1.521
10300SOL    HW131799   1.205   4.006   1.579
10300SOL    HW231800   1.194   3.843   1.572
10301SOL     OW31801   4.194   0.363   6.588
10301SOL    HW131802   4.178   0.341   6.684
10301SOL    HW231803   4.221   0.280   6.539
10302SOL     OW31804   2.849   5.962   5.054
10302SOL    HW131805   2.937   5.951   5.007
10302SOL    HW231806   2.836   5.886   5.118
10303SOL     OW31807   0.614   5.726   4.976
10303SOL    HW131808   0.529   5.764   5.013
10303SOL    HW231809   0.639   5.643   5.027
10304SOL     OW31810   6.192   6.423   0.410
10304SOL    HW131811   6.119   6.358   0.431
10304SOL    HW231812   6.272   6.403   0.467
10305SOL     OW31813   3.161   4.003   5.870
10305SOL    HW131814   3.196   4.092   5.900
10305SOL    HW231815   3.093   4.017   5.798
10306SOL     OW31816   4.367   0.747   1.199
10306SOL    HW131817   4.359   0.749   1.099
10306SOL    HW231818   4.286   0.703   1.237
10307SOL     OW31819   2.313   0.245   5.450
10307SOL    HW131820   2.328   0.154   5.411
10307SOL    HW231821   2.226   0.281   5.419
10308SOL     OW31822   2.748   5.071   2.517
10308SOL    HW131823   2.796   5.080   2.604
10308SOL    HW231824   2.655   5.036   2.533
10309SOL     OW31825   7.002   1.382   4.748
10309SOL    HW131826   6.943   1.457   4.777
10309SOL    HW231827   0.064   1.418   4.708
10310SOL     OW31828   2.207   4.075   5.749
10310SOL    HW131829   2.294   4.032   5.774
10310SOL    HW231830   2.193   4.157   5.805
10311SOL     OW31831   5.090   5.280   6.404
10311SOL    HW131832   5.115   5.183   6.397
10311SOL    HW231833   5.140   5.322   6.480
10312SOL     OW31834   4.331   0.477   2.278
10312SOL    HW131835   4.430   0.462   2.275
10312SOL    HW231836   4.310   0.568   2.243
10313SOL     OW31837   5.206   0.023   3.286
10313SOL    HW131838   5.172   0.056   3.374
10313SOL    HW231839   5.297   7.006   3.297
10314SOL     OW31840   0.389   0.252   1.050
10314SOL    HW131841   0.479   0.210   1.065
10314SOL    HW231842   0.395   0.350   1.066
10315SOL     OW31843   5.563   5.220   3.718
10315SOL    HW131844   5.602   5.309   3.744
10315SOL    HW231845   5.635   5.161   3.682
10316SOL     OW31846   0.335   1.886   6.507
10316SOL    HW131847   0.366   1.791   6.506
10316SOL    HW231848   0.340   1.922   6.600
10317SOL     OW31849   3.772   5.822   5.257
10317SOL    HW131850   3.848   5.765   5.225
10317SOL    HW231851   3.743   5.883   5.183
10318SOL     OW31852   6.478   6.617   0.323
10318SOL    HW131853   6.566   6.620   0.276
10318SOL    HW231854   6.405   6.597   0.257
10319SOL     OW31855   0.810   4.382   3.786
10319SOL    HW131856   0.727   4.335   3.757
10319SOL    HW231857   0.873   4.390   3.709
10320SOL     OW31858   0.422   6.691   3.789
10320SOL    HW131859   0.368   6.694   3.705
10320SOL    HW231860   0.385   6.758   3.854
10321SOL     OW31861   5.039   2.664   2.146
10321SOL    HW131862   5.104   2.730   2.108
10321SOL    HW231863   5.088   2.581   2.172
10322SOL     OW31864   4.582   4.419   5.111
10322SOL    HW131865   4.527   4.356   5.166
10322SOL    HW231866   4.522   4.472   5.051
10323SOL     OW31867   0.944   4.279   5.377
10323SOL    HW131868   1.007   4.340   5.330
10323SOL    HW231869   0.867   4.257   5.317
10324SOL     OW31870   3.425   3.030   1.877
10324SOL    HW131871   3.520   3.018   1.849
10324SOL    HW231872   3.378   2.942   1.873
10325SOL     OW31873   6.826   5.579   3.360
10325SOL    HW131874   6.880   5.630   3.293
10325SOL    HW231875   6.843   5.481   3.349
10326SOL     OW31876   5.319   3.378   6.666
10326SOL    HW131877   5.273   3.404   6.581
10326SOL    HW231878   5.418   3.384   6.654
10327SOL     OW31879   2.088   4.434   1.200
10327SOL    HW131880   2.037   4.462   1.281
10327SOL    HW231881   2.185   4.451   1.214
10328SOL     OW31882   6.095   2.228   1.734
10328SOL    HW131883   6.022   2.275   1.785
10328SOL    HW231884   6.117   2.143   1.781
10329SOL     OW31885   3.503   1.530   3.103
10329SOL    HW131886   3.426   1.469   3.086
10329SOL    HW231887   3.562   1.534   3.022
10330SOL     OW31888   4.351   1.282   1.577
10330SOL    HW131889   4.370   1.184   1.584
10330SOL    HW231890   4.429   1.334   1.612
10331SOL     OW31891   6.407   5.210   6.856
10331SOL    HW131892   6.358   5.174   6.776
10331SOL    HW231893   6.350   5.278   6.902
10332SOL     OW31894   1.386   1.182   6.896
10332SOL    HW131895   1.432   1.122   6.830
10332SOL    HW231896   1.404   1.278   6.872
10333SOL     OW31897   0.897   4.655   4.793
10333SOL    HW131898   0.858   4.604   4.715
10333SOL    HW231899   0.946   4.591   4.853
10334SOL     OW31900   3.172   6.952   3.469
10334SOL    HW131901   3.225   6.995   3.397
10334SOL    HW231902   3.220   6.959   3.556
10335SOL     OW31903   0.871   2.507   5.667
10335SOL    HW131904   0.771   2.510   5.674
10335SOL    HW231905   0.900   2.416   5.640
10336SOL     OW31906   5.273   7.013   3.723
10336SOL    HW131907   5.200   0.021   3.663
10336SOL    HW231908   5.293   6.916   3.705
10337SOL     OW31909   6.677   5.357   6.511
10337SOL    HW131910   6.609   5.349   6.438
10337SOL    HW231911   6.765   5.325   6.477
10338SOL     OW31912   1.363   6.462   1.837
10338SOL    HW131913   1.267   6.491   1.840
10338SOL    HW231914   1.420   6.532   1.880
10339SOL     OW31915   6.267   2.630   5.330
10339SOL    HW131916   6.279   2.604   5.426
10339SOL    HW231917   6.232   2.552   5.279
10340SOL     OW31918   2.243   3.314   6.473
10340SOL    HW131919   2.146   3.298   6.454
10340SOL    HW231920   2.280   3.377   6.405
10341SOL     OW31921   2.196   2.751   3.002
10341SOL    HW131922   2.234   2.675   3.055
10341SOL    HW231923   2.243   2.758   2.914
10342SOL     OW31924   0.850   1.552   3.774
10342SOL    HW131925   0.926   1.609   3.741
10342SOL    HW231926   0.851   1.551   3.874
10343SOL     OW31927   3.039   5.339   2.266
10343SOL    HW131928   2.944   5.321   2.243
10343SOL    HW231929   3.096   5.262   2.237
10344SOL     OW31930   4.495   5.890   5.966
10344SOL    HW131931   4.429   5.936   6.026
10344SOL    HW231932   4.480   5.918   5.872
10345SOL     OW31933   1.968   3.840   4.370
10345SOL    HW131934   2.038   3.786   4.417
10345SOL    HW231935   1.892   3.857   4.432
10346SOL     OW31936   6.952   5.949   0.665
10346SOL    HW131937   6.899   5.994   0.594
10346SOL    HW231938   6.893   5.888   0.717
10347SOL     OW31939   5.087   1.650   4.322
10347SOL    HW131940   5.082   1.684   4.416
10347SOL    HW231941   5.003   1.599   4.301
10348SOL     OW31942   6.543   3.820   0.859
10348SOL    HW131943   6.493   3.901   0.828
10348SOL    HW231944   6.630   3.847   0.900
10349SOL     OW31945   0.850   6.520   6.731
10349SOL    HW131946   0.812   6.497   6.641
10349SOL    HW231947   0.780   6.566   6.786
10350SOL     OW31948   3.505   6.869   5.955
10350SOL    HW131949   3.500   6.948   6.016
10350SOL    HW231950   3.517   6.785   6.008
10351SOL     OW31951   4.219   5.086   6.841
10351SOL    HW131952   4.236   5.057   6.747
10351SOL    HW231953   4.305   5.107   6.886
10352SOL     OW31954   3.686   3.069   6.104
10352SOL    HW131955   3.766   3.013   6.123
10352SOL    HW231956   3.690   3.153   6.158
10353SOL     OW31957   0.697   2.359   4.832
10353SOL    HW131958   0.760   2.416   4.779
10353SOL    HW231959   0.692   2.268   4.790
10354SOL     OW31960   5.616   1.642   1.467
10354SOL    HW131961   5.533   1.661   1.520
10354SOL    HW231962   5.642   1.546   1.480
10355SOL     OW31963   1.584   4.835   2.207
10355SOL    HW131964   1.593   4.923   2.161
10355SOL    HW231965   1.657   4.825   2.274
10356SOL     OW31966   0.174   3.122   4.167
10356SOL    HW131967   0.124   3.065   4.101
10356SOL    HW231968   0.233   3.186   4.118
10357SOL     OW31969   2.486   1.912   0.658
10357SOL    HW131970   2.564   1.924   0.597
10357SOL    HW231971   2.461   1.815   0.662
10358SOL     OW31972   0.266   1.402   2.164
10358SOL    HW131973   0.181   1.380   2.214
10358SOL    HW231974   0.342   1.408   2.229
10359SOL     OW31975   0.576   1.129   1.684
10359SOL    HW131976   0.611   1.184   1.760
10359SOL    HW231977   0.500   1.072   1.717
10360SOL     OW31978   6.642   6.225   3.577
10360SOL    HW131979   6.679   6.155   3.516
10360SOL    HW231980   6.672   6.316   3.546
10361SOL     OW31981   1.822   5.124   1.414
10361SOL    HW131982   1.908   5.130   1.363
10361SOL    HW231983   1.841   5.120   1.512
10362SOL     OW31984   1.317   5.191   3.963
10362SOL    HW131985   1.341   5.280   4.002
10362SOL    HW231986   1.392   5.126   3.978
10363SOL     OW31987   5.865   0.347   3.937
10363SOL    HW131988   5.810   0.376   4.015
10363SOL    HW231989   5.885   0.425   3.879
10364SOL     OW31990   1.385   4.690   1.149
10364SOL    HW131991   1.301   4.693   1.203
10364SOL    HW231992   1.404   4.780   1.109
10365SOL     OW31993   4.354   5.778   6.660
10365SOL    HW131994   4.321   5.708   6.724
10365SOL    HW231995   4.423   5.737   6.599
10366SOL     OW31996   3.222   7.004   3.927
10366SOL    HW131997   3.220   6.962   4.017
10366SOL    HW231998   3.285   0.060   3.927
10367SOL     OW31999   6.676   2.269   3.098
10367SOL    HW132000   6.592   2.272   3.151
10367SOL    HW232001   6.655   2.269   3.001
10368SOL     OW32002   2.810   0.143   1.117
10368SOL    HW132003   2.727   0.133   1.062
10368SOL    HW232004   2.860   0.224   1.087
10369SOL     OW32005   4.415   2.950   0.167
10369SOL    HW132006   4.361   2.868   0.185
10369SOL    HW232007   4.392   3.021   0.234
10370SOL     OW32008   3.377   0.700   5.158
10370SOL    HW132009   3.446   0.765   5.125
10370SOL    HW232010   3.317   0.746   5.223
10371SOL     OW32011   4.954   6.260   5.751
10371SOL    HW132012   4.894   6.239   5.675
10371SOL    HW232013   4.913   6.333   5.806
10372SOL     OW32014   0.767   0.491   3.104
10372SOL    HW132015   0.765   0.416   3.169
10372SOL    HW232016   0.841   0.554   3.129
10373SOL     OW32017   1.449   5.527   4.869
10373SOL    HW132018   1.406   5.442   4.837
10373SOL    HW232019   1.542   5.532   4.833
10374SOL     OW32020   2.640   2.352   4.455
10374SOL    HW132021   2.666   2.371   4.550
10374SOL    HW232022   2.591   2.265   4.452
10375SOL     OW32023   6.867   2.153   0.508
10375SOL    HW132024   6.792   2.095   0.475
10375SOL    HW232025   6.894   2.216   0.436
10376SOL     OW32026   6.568   1.111   3.485
10376SOL    HW132027   6.475   1.097   3.518
10376SOL    HW232028   6.625   1.033   3.511
10377SOL     OW32029   1.025   6.685   4.574
10377SOL    HW132030   1.037   6.661   4.478
10377SOL    HW232031   1.049   6.781   4.588
10378SOL     OW32032   7.013   6.741   6.542
10378SOL    HW132033   6.981   6.721   6.635
10378SOL    HW232034   0.043   6.663   6.508
10379SOL     OW32035   5.547   1.732   4.855
10379SOL    HW132036   5.468   1.739   4.794
10379SOL    HW232037   5.527   1.780   4.941
10380SOL     OW32038   4.570   1.037   3.035
10380SOL    HW132039   4.560   0.973   3.111
10380SOL    HW232040   4.523   1.123   3.057
10381SOL     OW32041   4.084   5.188   4.595
10381SOL    HW132042   3.986   5.176   4.576
10381SOL    HW232043   4.100   5.178   4.693
10382SOL     OW32044   1.669   5.532   0.495
10382SOL    HW132045   1.593   5.539   0.431
10382SOL    HW232046   1.654   5.456   0.558
10383SOL     OW32047   6.124   2.609   6.875
10383SOL    HW132048   6.123   2.550   6.795
10383SOL    HW232049   6.072   2.566   6.949
10384SOL     OW32050   6.166   0.293   0.031
10384SOL    HW132051   6.200   0.386   0.044
10384SOL    HW232052   6.066   0.293   0.030
10385SOL     OW32053   5.626   2.457   0.090
10385SOL    HW132054   5.560   2.492   0.156
10385SOL    HW232055   5.713   2.505   0.101
10386SOL     OW32056   6.480   2.592   6.428
10386SOL    HW132057   6.558   2.557   6.377
10386SOL    HW232058   6.505   2.603   6.524
10387SOL     OW32059   2.156   3.192   2.551
10387SOL    HW132060   2.154   3.148   2.461
10387SOL    HW232061   2.186   3.287   2.540
10388SOL     OW32062   1.758   4.241   2.529
10388SOL    HW132063   1.775   4.232   2.431
10388SOL    HW232064   1.762   4.337   2.556
10389SOL     OW32065   0.522   5.491   3.009
10389SOL    HW132066   0.611   5.473   3.052
10389SOL    HW232067   0.474   5.562   3.061
10390SOL     OW32068   1.968   3.167   3.020
10390SOL    HW132069   2.006   3.116   2.943
10390SOL    HW232070   2.042   3.202   3.077
10391SOL     OW32071   3.479   6.423   5.160
10391SOL    HW132072   3.454   6.372   5.242
10391SOL    HW232073   3.401   6.425   5.097
10392SOL     OW32074   6.822   4.899   6.861
10392SOL    HW132075   6.893   4.970   6.863
10392SOL    HW232076   6.741   4.931   6.910
10393SOL     OW32077   1.397   0.989   4.032
10393SOL    HW132078   1.349   0.982   3.945
10393SOL    HW232079   1.361   1.066   4.084
10394SOL     OW32080   2.912   6.750   0.011
10394SOL    HW132081   2.869   6.674   0.059
10394SOL    HW232082   2.969   6.802   0.075
10395SOL     OW32083   1.189   1.895   5.001
10395SOL    HW132084   1.244   1.815   4.980
10395SOL    HW232085   1.119   1.908   4.930
10396SOL     OW32086   0.523   0.179   5.036
10396SOL    HW132087   0.535   0.133   5.125
10396SOL    HW232088   0.602   0.161   4.978
10397SOL     OW32089   4.013   2.226   2.697
10397SOL    HW132090   3.944   2.247   2.767
10397SOL    HW232091   4.087   2.173   2.738
10398SOL     OW32092   6.595   3.222   2.495
10398SOL    HW132093   6.686   3.181   2.494
10398SOL    HW232094   6.599   3.314   2.533
10399SOL     OW32095   6.291   2.537   5.597
10399SOL    HW132096   6.305   2.450   5.644
10399SOL    HW232097   6.380   2.577   5.574
10400SOL     OW32098   1.942   4.667   1.688
10400SOL    HW132099   1.869   4.728   1.719
10400SOL    HW232100   2.029   4.715   1.692
10401SOL     OW32101   0.726   5.899   1.475
10401SOL    HW132102   0.804   5.863   1.526
10401SOL    HW232103   0.681   5.825   1.425
10402SOL     OW32104   0.684   2.321   4.290
10402SOL    HW132105   0.684   2.421   4.298
10402SOL    HW232106   0.758   2.293   4.228
10403SOL     OW32107   4.418   1.467   2.183
10403SOL    HW132108   4.515   1.488   2.171
10403SOL    HW232109   4.404   1.416   2.267
10404SOL     OW32110   0.116   0.042   3.835
10404SOL    HW132111   0.128   0.119   3.773
10404SOL    HW232112   0.205   0.002   3.857
10405SOL     OW32113   2.129   6.652   6.636
10405SOL    HW132114   2.138   6.559   6.599
10405SOL    HW232115   2.102   6.647   6.732
10406SOL     OW32116   2.080   5.465   5.478
10406SOL    HW132117   2.038   5.409   5.549
10406SOL    HW232118   2.166   5.422   5.448
10407SOL     OW32119   1.779   1.507   5.880
10407SOL    HW132120   1.688   1.545   5.896
10407SOL    HW232121   1.781   1.464   5.790
10408SOL     OW32122   4.061   6.372   3.317
10408SOL    HW132123   4.037   6.419   3.232
10408SOL    HW232124   4.066   6.439   3.392
10409SOL     OW32125   6.659   4.722   2.375
10409SOL    HW132126   6.731   4.694   2.440
10409SOL    HW232127   6.597   4.787   2.420
10410SOL     OW32128   5.806   6.652   0.527
10410SOL    HW132129   5.802   6.699   0.616
10410SOL    HW232130   5.896   6.668   0.485
10411SOL     OW32131   1.847   4.046   2.706
10411SOL    HW132132   1.820   4.127   2.655
10411SOL    HW232133   1.855   4.069   2.803
10412SOL     OW32134   6.953   2.220   6.589
10412SOL    HW132135   6.857   2.215   6.564
10412SOL    HW232136   6.990   2.128   6.598
10413SOL     OW32137   0.348   2.289   5.789
10413SOL    HW132138   0.298   2.350   5.728
10413SOL    HW232139   0.316   2.195   5.776
10414SOL     OW32140   5.814   6.894   4.884
10414SOL    HW132141   5.893   6.840   4.854
10414SOL    HW232142   5.847   6.973   4.937
10415SOL     OW32143   0.355   5.260   2.998
10415SOL    HW132144   0.391   5.194   3.064
10415SOL    HW232145   0.413   5.341   2.998
10416SOL     OW32146   5.150   6.706   0.067
10416SOL    HW132147   5.215   6.782   0.075
10416SOL    HW232148   5.087   6.708   0.144
10417SOL     OW32149   3.987   4.823   4.171
10417SOL    HW132150   4.070   4.806   4.225
10417SOL    HW232151   4.012   4.837   4.076
10418SOL     OW32152   6.645   3.702   0.201
10418SOL    HW132153   6.558   3.721   0.246
10418SOL    HW232154   6.673   3.608   0.221
10419SOL     OW32155   1.775   0.971   4.403
10419SOL    HW132156   1.746   0.980   4.308
10419SOL    HW232157   1.735   0.887   4.442
10420SOL     OW32158   5.445   3.087   4.257
10420SOL    HW132159   5.455   2.992   4.229
10420SOL    HW232160   5.495   3.102   4.343
10421SOL     OW32161   1.337   4.434   3.710
10421SOL    HW132162   1.394   4.352   3.708
10421SOL    HW232163   1.268   4.426   3.783
10422SOL     OW32164   5.771   3.034   5.362
10422SOL    HW132165   5.812   3.019   5.452
10422SOL    HW232166   5.843   3.051   5.295
10423SOL     OW32167   2.161   5.576   3.825
10423SOL    HW132168   2.178   5.667   3.863
10423SOL    HW232169   2.103   5.524   3.889
10424SOL     OW32170   3.554   1.339   1.006
10424SOL    HW132171   3.507   1.401   1.069
10424SOL    HW232172   3.594   1.263   1.057
10425SOL     OW32173   1.678   3.791   0.541
10425SOL    HW132174   1.612   3.824   0.609
10425SOL    HW232175   1.716   3.703   0.571
10426SOL     OW32176   5.905   2.277   6.108
10426SOL    HW132177   5.930   2.328   6.026
10426SOL    HW232178   5.883   2.183   6.085
10427SOL     OW32179   5.650   1.016   3.592
10427SOL    HW132180   5.707   1.085   3.635
10427SOL    HW232181   5.565   1.005   3.643
10428SOL     OW32182   1.844   6.446   5.401
10428SOL    HW132183   1.834   6.538   5.440
10428SOL    HW232184   1.865   6.454   5.303
10429SOL     OW32185   1.477   3.755   1.574
10429SOL    HW132186   1.496   3.848   1.542
10429SOL    HW232187   1.480   3.753   1.674
10430SOL     OW32188   2.924   0.393   4.215
10430SOL    HW132189   2.892   0.390   4.310
10430SOL    HW232190   2.851   0.426   4.156
10431SOL     OW32191   4.247   1.380   4.154
10431SOL    HW132192   4.271   1.413   4.245
10431SOL    HW232193   4.319   1.403   4.089
10432SOL     OW32194   1.258   5.208   0.261
10432SOL    HW132195   1.216   5.299   0.260
10432SOL    HW232196   1.194   5.140   0.226
10433SOL     OW32197   3.553   6.670   3.861
10433SOL    HW132198   3.615   6.740   3.897
10433SOL    HW232199   3.601   6.582   3.856
10434SOL     OW32200   4.405   0.859   6.539
10434SOL    HW132201   4.385   0.915   6.458
10434SOL    HW232202   4.410   0.917   6.620
10435SOL     OW32203   2.543   1.715   1.218
10435SOL    HW132204   2.454   1.699   1.260
10435SOL    HW232205   2.615   1.679   1.277
10436SOL     OW32206   1.113   3.285   4.641
10436SOL    HW132207   1.141   3.190   4.653
10436SOL    HW232208   1.166   3.343   4.702
10437SOL     OW32209   6.497   6.623   5.259
10437SOL    HW132210   6.424   6.614   5.192
10437SOL    HW232211   6.585   6.629   5.212
10438SOL     OW32212   6.833   5.865   6.927
10438SOL    HW132213   6.756   5.879   6.864
10438SOL    HW232214   6.799   5.828   7.014
10439SOL     OW32215   6.359   5.535   4.819
10439SOL    HW132216   6.292   5.481   4.869
10439SOL    HW232217   6.443   5.543   4.873
10440SOL     OW32218   6.042   2.164   0.996
10440SOL    HW132219   6.018   2.080   1.045
10440SOL    HW232220   6.013   2.243   1.050
10441SOL     OW32221   4.599   2.253   7.004
10441SOL    HW132222   4.604   2.296   0.071
10441SOL    HW232223   4.630   2.158   7.011
10442SOL     OW32224   2.463   1.669   5.103
10442SOL    HW132225   2.460   1.749   5.043
10442SOL    HW232226   2.558   1.637   5.109
10443SOL     OW32227   1.207   0.618   0.617
10443SOL    HW132228   1.221   0.674   0.698
10443SOL    HW232229   1.238   0.524   0.636
10444SOL     OW32230   4.444   4.771   3.754
10444SOL    HW132231   4.389   4.810   3.828
10444SOL    HW232232   4.506   4.702   3.792
10445SOL     OW32233   1.102   3.151   3.854
10445SOL    HW132234   1.143   3.197   3.933
10445SOL    HW232235   1.055   3.219   3.797
10446SOL     OW32236   2.327   4.540   5.635
10446SOL    HW132237   2.266   4.546   5.556
10446SOL    HW232238   2.388   4.461   5.624
10447SOL     OW32239   0.820   1.890   2.700
10447SOL    HW132240   0.760   1.853   2.628
10447SOL    HW232241   0.893   1.824   2.719
10448SOL     OW32242   1.782   5.737   2.362
10448SOL    HW132243   1.724   5.666   2.401
10448SOL    HW232244   1.871   5.735   2.408
10449SOL     OW32245   4.202   5.178   4.345
10449SOL    HW132246   4.138   5.205   4.417
10449SOL    HW232247   4.212   5.078   4.346
10450SOL     OW32248   0.219   1.039   4.302
10450SOL    HW132249   0.136   1.017   4.353
10450SOL    HW232250   0.272   1.107   4.353
10451SOL     OW32251   3.309   1.959   4.375
10451SOL    HW132252   3.396   1.915   4.396
10451SOL    HW232253   3.309   1.987   4.279
10452SOL     OW32254   6.454   2.614   4.585
10452SOL    HW132255   6.540   2.650   4.622
10452SOL    HW232256   6.401   2.573   4.659
10453SOL     OW32257   4.283   6.084   4.338
10453SOL    HW132258   4.316   6.028   4.263
10453SOL    HW232259   4.219   6.032   4.394
10454SOL     OW32260   6.394   1.031   6.515
10454SOL    HW132261   6.353   1.123   6.510
10454SOL    HW232262   6.364   0.986   6.599
10455SOL     OW32263   0.466   5.940   3.057
10455SOL    HW132264   0.520   5.957   2.975
10455SOL    HW232265   0.369   5.954   3.036
10456SOL     OW32266   1.157   5.611   6.751
10456SOL    HW132267   1.070   5.642   6.713
10456SOL    HW232268   1.208   5.560   6.681
10457SOL     OW32269   3.701   1.622   6.724
10457SOL    HW132270   3.714   1.548   6.790
10457SOL    HW232271   3.749   1.704   6.756
10458SOL     OW32272   1.276   6.451   6.298
10458SOL    HW132273   1.198   6.409   6.252
10458SOL    HW232274   1.360   6.424   6.253
10459SOL     OW32275   6.100   5.397   1.075
10459SOL    HW132276   6.001   5.408   1.087
10459SOL    HW232277   6.148   5.475   1.114
10460SOL     OW32278   6.085   0.597   0.535
10460SOL    HW132279   6.057   0.681   0.490
10460SOL    HW232280   6.005   0.550   0.572
10461SOL     OW32281   0.108   4.665   6.261
10461SOL    HW132282   0.029   4.645   6.318
10461SOL    HW232283   0.115   4.598   6.188
10462SOL     OW32284   3.323   3.739   6.111
10462SOL    HW132285   3.390   3.753   6.038
10462SOL    HW232286   3.232   3.765   6.078
10463SOL     OW32287   5.083   2.698   6.566
10463SOL    HW132288   4.993   2.721   6.601
10463SOL    HW232289   5.117   2.616   6.612
10464SOL     OW32290   6.742   4.706   1.871
10464SOL    HW132291   6.760   4.710   1.970
10464SOL    HW232292   6.738   4.799   1.834
10465SOL     OW32293   5.885   4.660   1.347
10465SOL    HW132294   5.787   4.638   1.343
10465SOL    HW232295   5.899   4.740   1.405
10466SOL     OW32296   5.740   4.201   6.106
10466SOL    HW132297   5.773   4.106   6.108
10466SOL    HW232298   5.704   4.222   6.016
10467SOL     OW32299   0.114   2.308   6.813
10467SOL    HW132300   0.101   2.241   6.740
10467SOL    HW232301   0.067   2.393   6.789
10468SOL     OW32302   1.538   4.790   4.515
10468SOL    HW132303   1.611   4.743   4.564
10468SOL    HW232304   1.526   4.748   4.425
10469SOL     OW32305   1.052   1.771   3.750
10469SOL    HW132306   1.104   1.856   3.743
10469SOL    HW232307   1.107   1.702   3.798
10470SOL     OW32308   2.094   3.480   2.540
10470SOL    HW132309   2.090   3.579   2.527
10470SOL    HW232310   2.002   3.446   2.561
10471SOL     OW32311   2.405   5.890   6.446
10471SOL    HW132312   2.415   5.800   6.403
10471SOL    HW232313   2.421   5.882   6.544
10472SOL     OW32314   3.804   5.108   6.787
10472SOL    HW132315   3.836   5.071   6.699
10472SOL    HW232316   3.733   5.049   6.824
10473SOL     OW32317   6.261   4.619   0.600
10473SOL    HW132318   6.351   4.612   0.644
10473SOL    HW232319   6.259   4.561   0.519
10474SOL     OW32320   6.491   7.005   5.267
10474SOL    HW132321   6.524   6.921   5.225
10474SOL    HW232322   6.517   0.061   5.210
10475SOL     OW32323   0.982   5.248   1.328
10475SOL    HW132324   0.934   5.240   1.241
10475SOL    HW232325   1.038   5.331   1.329
10476SOL     OW32326   5.239   6.582   1.378
10476SOL    HW132327   5.145   6.561   1.402
10476SOL    HW232328   5.271   6.519   1.308
10477SOL     OW32329   6.778   5.799   3.563
10477SOL    HW132330   6.803   5.774   3.656
10477SOL    HW232331   6.777   5.718   3.505
10478SOL     OW32332   6.959   1.045   6.598
10478SOL    HW132333   6.870   1.050   6.644
10478SOL    HW232334   6.992   0.951   6.599
10479SOL     OW32335   0.681   2.881   2.137
10479SOL    HW132336   0.723   2.803   2.183
10479SOL    HW232337   0.619   2.927   2.201
10480SOL     OW32338   2.662   1.135   3.443
10480SOL    HW132339   2.668   1.228   3.406
10480SOL    HW232340   2.623   1.138   3.535
10481SOL     OW32341   6.676   1.465   1.087
10481SOL    HW132342   6.599   1.521   1.117
10481SOL    HW232343   6.659   1.369   1.113
10482SOL     OW32344   5.678   2.792   3.816
10482SOL    HW132345   5.660   2.845   3.898
10482SOL    HW232346   5.776   2.795   3.794
10483SOL     OW32347   6.488   6.122   0.282
10483SOL    HW132348   6.417   6.165   0.226
10483SOL    HW232349   6.546   6.193   0.323
10484SOL     OW32350   6.554   1.066   2.439
10484SOL    HW132351   6.489   1.074   2.364
10484SOL    HW232352   6.594   0.975   2.439
10485SOL     OW32353   5.197   3.342   4.943
10485SOL    HW132354   5.240   3.275   5.003
10485SOL    HW232355   5.267   3.397   4.898
10486SOL     OW32356   5.465   2.801   2.746
10486SOL    HW132357   5.400   2.824   2.818
10486SOL    HW232358   5.446   2.708   2.713
10487SOL     OW32359   5.318   6.798   1.907
10487SOL    HW132360   5.339   6.859   1.831
10487SOL    HW232361   5.313   6.851   1.992
10488SOL     OW32362   3.461   3.778   6.753
10488SOL    HW132363   3.550   3.741   6.781
10488SOL    HW232364   3.449   3.765   6.655
10489SOL     OW32365   1.362   5.596   5.123
10489SOL    HW132366   1.398   5.585   5.031
10489SOL    HW232367   1.436   5.587   5.189
10490SOL     OW32368   6.745   0.301   4.464
10490SOL    HW132369   6.686   0.365   4.415
10490SOL    HW232370   6.741   0.211   4.421
10491SOL     OW32371   0.167   5.193   5.246
10491SOL    HW132372   0.244   5.162   5.302
10491SOL    HW232373   0.081   5.171   5.293
10492SOL     OW32374   4.185   4.466   5.915
10492SOL    HW132375   4.096   4.431   5.943
10492SOL    HW232376   4.257   4.405   5.948
10493SOL     OW32377   3.430   1.149   0.822
10493SOL    HW132378   3.357   1.213   0.848
10493SOL    HW232379   3.517   1.182   0.858
10494SOL     OW32380   5.673   2.136   4.892
10494SOL    HW132381   5.576   2.109   4.896
10494SOL    HW232382   5.686   2.220   4.943
10495SOL     OW32383   1.552   6.524   0.594
10495SOL    HW132384   1.553   6.602   0.532
10495SOL    HW232385   1.559   6.556   0.688
10496SOL     OW32386   6.315   0.492   5.503
10496SOL    HW132387   6.375   0.466   5.579
10496SOL    HW232388   6.343   0.582   5.468
10497SOL     OW32389   0.984   1.667   6.748
10497SOL    HW132390   0.969   1.740   6.680
10497SOL    HW232391   0.996   1.708   6.838
10498SOL     OW32392   3.019   4.984   6.198
10498SOL    HW132393   3.097   4.923   6.213
10498SOL    HW232394   3.006   4.999   6.100
10499SOL     OW32395   2.486   5.302   3.457
10499SOL    HW132396   2.390   5.296   3.429
10499SOL    HW232397   2.523   5.390   3.429
10500SOL     OW32398   1.989   2.325   0.049
10500SOL    HW132399   2.074   2.298   0.093
10500SOL    HW232400   1.912   2.309   0.111
10501SOL     OW32401   1.248   2.265   3.296
10501SOL    HW132402   1.156   2.299   3.279
10501SOL    HW232403   1.245   2.165   3.308
10502SOL     OW32404   3.140   5.963   4.958
10502SOL    HW132405   3.176   5.909   4.882
10502SOL    HW232406   3.181   5.931   5.044
10503SOL     OW32407   2.799   3.510   5.306
10503SOL    HW132408   2.768   3.421   5.273
10503SOL    HW232409   2.822   3.504   5.403
10504SOL     OW32410   2.337   3.545   1.052
10504SOL    HW132411   2.339   3.644   1.066
10504SOL    HW232412   2.242   3.512   1.057
10505SOL     OW32413   0.458   0.129   0.778
10505SOL    HW132414   0.467   0.195   0.852
10505SOL    HW232415   0.532   0.142   0.712
10506SOL     OW32416   0.117   3.815   5.552
10506SOL    HW132417   0.020   3.838   5.563
10506SOL    HW232418   0.125   3.723   5.515
10507SOL     OW32419   0.887   0.307   4.353
10507SOL    HW132420   0.922   0.308   4.447
10507SOL    HW232421   0.821   0.232   4.343
10508SOL     OW32422   5.185   3.781   2.378
10508SOL    HW132423   5.208   3.700   2.431
10508SOL    HW232424   5.098   3.767   2.330
10509SOL     OW32425   1.559   0.585   5.679
10509SOL    HW132426   1.649   0.543   5.670
10509SOL    HW232427   1.538   0.636   5.595
10510SOL     OW32428   6.136   6.423   6.985
10510SOL    HW132429   6.081   6.492   0.009
10510SOL    HW232430   6.092   6.397   6.899
10511SOL     OW32431   0.100   1.918   0.927
10511SOL    HW132432   0.194   1.931   0.894
10511SOL    HW232433   0.056   1.845   0.875
10512SOL     OW32434   3.156   6.147   6.543
10512SOL    HW132435   3.143   6.242   6.572
10512SOL    HW232436   3.116   6.086   6.611
10513SOL     OW32437   7.003   1.914   0.518
10513SOL    HW132438   6.963   1.856   0.589
10513SOL    HW232439   6.956   2.002   0.517
10514SOL     OW32440   6.635   3.805   1.504
10514SOL    HW132441   6.542   3.841   1.504
10514SOL    HW232442   6.699   3.879   1.522
10515SOL     OW32443   6.155   2.606   4.342
10515SOL    HW132444   6.240   2.572   4.302
10515SOL    HW232445   6.176   2.676   4.410
10516SOL     OW32446   3.432   0.386   0.084
10516SOL    HW132447   3.379   0.368   0.167
10516SOL    HW232448   3.523   0.419   0.109
10517SOL     OW32449   0.016   2.442   2.773
10517SOL    HW132450   6.941   2.432   2.793
10517SOL    HW232451   0.068   2.375   2.826
10518SOL     OW32452   0.705   6.912   2.520
10518SOL    HW132453   0.793   6.959   2.510
10518SOL    HW232454   0.713   6.820   2.481
10519SOL     OW32455   3.212   3.539   5.265
10519SOL    HW132456   3.168   3.514   5.179
10519SOL    HW232457   3.310   3.557   5.249
10520SOL     OW32458   3.867   4.216   6.175
10520SOL    HW132459   3.928   4.193   6.099
10520SOL    HW232460   3.777   4.242   6.139
10521SOL     OW32461   6.344   5.372   2.359
10521SOL    HW132462   6.312   5.369   2.454
10521SOL    HW232463   6.349   5.467   2.328
10522SOL     OW32464   6.257   0.367   1.989
10522SOL    HW132465   6.235   0.397   2.082
10522SOL    HW232466   6.349   0.327   1.988
10523SOL     OW32467   0.259   5.609   6.830
10523SOL    HW132468   0.159   5.607   6.839
10523SOL    HW232469   0.296   5.684   6.885
10524SOL     OW32470   4.308   0.812   4.540
10524SOL    HW132471   4.211   0.835   4.537
10524SOL    HW232472   4.362   0.888   4.504
10525SOL     OW32473   2.839   6.182   5.214
10525SOL    HW132474   2.932   6.220   5.221
10525SOL    HW232475   2.841   6.102   5.154
10526SOL     OW32476   5.666   6.992   2.046
10526SOL    HW132477   5.682   0.036   2.119
10526SOL    HW232478   5.700   6.903   2.074
10527SOL     OW32479   1.771   2.821   4.380
10527SOL    HW132480   1.691   2.762   4.380
10527SOL    HW232481   1.789   2.853   4.473
10528SOL     OW32482   6.370   4.652   5.614
10528SOL    HW132483   6.307   4.693   5.548
10528SOL    HW232484   6.464   4.659   5.579
10529SOL     OW32485   6.734   6.385   4.134
10529SOL    HW132486   6.674   6.405   4.211
10529SOL    HW232487   6.725   6.288   4.109
10530SOL     OW32488   2.421   1.811   5.631
10530SOL    HW132489   2.461   1.728   5.669
10530SOL    HW232490   2.437   1.815   5.533
10531SOL     OW32491   2.176   2.269   6.013
10531SOL    HW132492   2.265   2.235   5.982
10531SOL    HW232493   2.104   2.227   5.958
10532SOL     OW32494   3.399   3.019   5.407
10532SOL    HW132495   3.335   2.976   5.469
10532SOL    HW232496   3.442   2.949   5.349
10533SOL     OW32497   2.988   0.784   5.935
10533SOL    HW132498   3.040   0.703   5.908
10533SOL    HW232499   3.031   0.826   6.015
10534SOL     OW32500   6.116   5.966   1.078
10534SOL    HW132501   6.019   5.942   1.080
10534SOL    HW232502   6.167   5.895   1.029
10535SOL     OW32503   0.830   1.499   2.606
10535SOL    HW132504   0.865   1.413   2.570
10535SOL    HW232505   0.732   1.504   2.592
10536SOL     OW32506   5.157   6.457   4.121
10536SOL    HW132507   5.113   6.534   4.167
10536SOL    HW232508   5.165   6.477   4.023
10537SOL     OW32509   0.141   5.416   1.667
10537SOL    HW132510   0.134   5.335   1.609
10537SOL    HW232511   0.104   5.495   1.618
10538SOL     OW32512   4.615   4.305   6.716
10538SOL    HW132513   4.538   4.242   6.720
10538SOL    HW232514   4.701   4.254   6.713
10539SOL     OW32515   1.005   3.346   5.548
10539SOL    HW132516   1.095   3.302   5.543
10539SOL    HW232517   0.955   3.310   5.626
10540SOL     OW32518   3.057   0.674   0.348
10540SOL    HW132519   3.069   0.585   0.305
10540SOL    HW232520   2.980   0.670   0.412
10541SOL     OW32521   5.112   2.325   0.616
10541SOL    HW132522   5.047   2.365   0.551
10541SOL    HW232523   5.079   2.234   0.643
10542SOL     OW32524   1.422   2.510   0.410
10542SOL    HW132525   1.402   2.412   0.416
10542SOL    HW232526   1.351   2.560   0.460
10543SOL     OW32527   2.454   1.305   5.441
10543SOL    HW132528   2.468   1.246   5.521
10543SOL    HW232529   2.542   1.325   5.399
10544SOL     OW32530   0.336   2.562   1.634
10544SOL    HW132531   0.370   2.559   1.728
10544SOL    HW232532   0.295   2.652   1.617
10545SOL     OW32533   4.981   0.698   3.449
10545SOL    HW132534   5.077   0.672   3.460
10545SOL    HW232535   4.923   0.619   3.471
10546SOL     OW32536   3.814   1.074   4.981
10546SOL    HW132537   3.809   1.172   4.963
10546SOL    HW232538   3.857   1.027   4.903
10547SOL     OW32539   3.976   0.729   0.997
10547SOL    HW132540   4.004   0.769   1.084
10547SOL    HW232541   3.879   0.704   1.002
10548SOL     OW32542   4.668   4.709   5.103
10548SOL    HW132543   4.583   4.661   5.078
10548SOL    HW232544   4.714   4.741   5.021
10549SOL     OW32545   1.082   1.146   1.712
10549SOL    HW132546   1.169   1.107   1.741
10549SOL    HW232547   1.097   1.237   1.674
10550SOL     OW32548   5.683   6.934   5.283
10550SOL    HW132549   5.643   6.915   5.372
10550SOL    HW232550   5.782   6.945   5.292
10551SOL     OW32551   1.315   2.638   5.842
10551SOL    HW132552   1.312   2.542   5.869
10551SOL    HW232553   1.240   2.687   5.886
10552SOL     OW32554   3.297   2.091   5.205
10552SOL    HW132555   3.383   2.109   5.252
10552SOL    HW232556   3.258   2.177   5.172
10553SOL     OW32557   3.344   4.732   5.906
10553SOL    HW132558   3.351   4.832   5.914
10553SOL    HW232559   3.251   4.709   5.877
10554SOL     OW32560   6.094   4.286   5.583
10554SOL    HW132561   6.118   4.312   5.677
10554SOL    HW232562   6.121   4.359   5.520
10555SOL     OW32563   3.453   2.411   1.441
10555SOL    HW132564   3.545   2.418   1.403
10555SOL    HW232565   3.459   2.394   1.540
10556SOL     OW32566   2.042   3.378   4.341
10556SOL    HW132567   2.059   3.292   4.390
10556SOL    HW232568   2.058   3.455   4.403
10557SOL     OW32569   5.766   1.628   3.623
10557SOL    HW132570   5.724   1.580   3.546
10557SOL    HW232571   5.848   1.580   3.652
10558SOL     OW32572   5.362   6.103   4.755
10558SOL    HW132573   5.446   6.107   4.701
10558SOL    HW232574   5.295   6.046   4.709
10559SOL     OW32575   4.706   2.530   0.856
10559SOL    HW132576   4.633   2.538   0.924
10559SOL    HW232577   4.772   2.605   0.869
10560SOL     OW32578   0.306   3.284   4.003
10560SOL    HW132579   0.313   3.275   3.903
10560SOL    HW232580   0.226   3.339   4.026
10561SOL     OW32581   2.886   4.392   6.066
10561SOL    HW132582   2.836   4.479   6.059
10561SOL    HW232583   2.851   4.329   5.998
10562SOL     OW32584   3.532   1.374   0.597
10562SOL    HW132585   3.517   1.284   0.555
10562SOL    HW232586   3.471   1.441   0.554
10563SOL     OW32587   1.399   1.842   3.788
10563SOL    HW132588   1.432   1.909   3.855
10563SOL    HW232589   1.363   1.763   3.836
10564SOL     OW32590   0.103   2.386   1.669
10564SOL    HW132591   0.132   2.291   1.678
10564SOL    HW232592   0.182   2.447   1.679
10565SOL     OW32593   5.358   1.671   5.176
10565SOL    HW132594   5.374   1.574   5.155
10565SOL    HW232595   5.265   1.696   5.147
10566SOL     OW32596   4.102   5.351   6.956
10566SOL    HW132597   4.124   5.254   6.961
10566SOL    HW232598   4.166   5.403   7.013
10567SOL     OW32599   2.109   4.937   4.098
10567SOL    HW132600   2.152   4.856   4.139
10567SOL    HW232601   2.060   4.910   4.015
10568SOL     OW32602   3.945   1.847   2.740
10568SOL    HW132603   3.888   1.924   2.712
10568SOL    HW232604   3.967   1.791   2.660
10569SOL     OW32605   5.953   3.059   3.510
10569SOL    HW132606   6.021   3.056   3.583
10569SOL    HW232607   5.967   2.982   3.447
10570SOL     OW32608   1.141   4.455   1.546
10570SOL    HW132609   1.085   4.450   1.463
10570SOL    HW232610   1.176   4.364   1.568
10571SOL     OW32611   6.308   6.637   5.045
10571SOL    HW132612   6.217   6.628   5.003
10571SOL    HW232613   6.344   6.728   5.026
10572SOL     OW32614   6.640   3.214   1.556
10572SOL    HW132615   6.580   3.287   1.588
10572SOL    HW232616   6.716   3.203   1.620
10573SOL     OW32617   6.214   4.373   6.274
10573SOL    HW132618   6.147   4.322   6.220
10573SOL    HW232619   6.280   4.309   6.313
10574SOL     OW32620   0.781   2.241   3.117
10574SOL    HW132621   0.699   2.195   3.082
10574SOL    HW232622   0.812   2.310   3.052
10575SOL     OW32623   0.632   6.810   6.195
10575SOL    HW132624   0.729   6.833   6.205
10575SOL    HW232625   0.608   6.737   6.258
10576SOL     OW32626   1.369   4.909   3.039
10576SOL    HW132627   1.458   4.888   3.079
10576SOL    HW232628   1.324   4.981   3.093
10577SOL     OW32629   0.650   3.302   5.720
10577SOL    HW132630   0.730   3.297   5.781
10577SOL    HW232631   0.577   3.245   5.757
10578SOL     OW32632   5.527   1.333   5.614
10578SOL    HW132633   5.524   1.326   5.714
10578SOL    HW232634   5.447   1.382   5.581
10579SOL     OW32635   5.010   0.235   0.922
10579SOL    HW132636   4.973   0.146   0.949
10579SOL    HW232637   5.109   0.235   0.939
10580SOL     OW32638   6.269   6.157   0.546
10580SOL    HW132639   6.326   6.147   0.628
10580SOL    HW232640   6.327   6.186   0.469
10581SOL     OW32641   4.725   1.857   3.669
10581SOL    HW132642   4.816   1.885   3.638
10581SOL    HW232643   4.690   1.925   3.735
10582SOL     OW32644   3.146   4.816   0.169
10582SOL    HW132645   3.150   4.863   0.258
10582SOL    HW232646   3.158   4.883   0.096
10583SOL     OW32647   4.338   1.068   0.974
10583SOL    HW132648   4.415   1.006   0.958
10583SOL    HW232649   4.336   1.095   1.070
10584SOL     OW32650   6.783   0.406   1.463
10584SOL    HW132651   6.746   0.422   1.372
10584SOL    HW232652   6.819   0.313   1.469
10585SOL     OW32653   2.084   4.180   6.430
10585SOL    HW132654   2.169   4.163   6.479
10585SOL    HW232655   2.076   4.278   6.411
10586SOL     OW32656   4.821   1.698   0.380
10586SOL    HW132657   4.821   1.622   0.445
10586SOL    HW232658   4.886   1.680   0.306
10587SOL     OW32659   5.992   3.587   0.768
10587SOL    HW132660   6.013   3.636   0.684
10587SOL    HW232661   5.929   3.512   0.748
10588SOL     OW32662   1.237   5.019   3.254
10588SOL    HW132663   1.320   4.994   3.305
10588SOL    HW232664   1.160   4.964   3.288
10589SOL     OW32665   5.913   1.109   4.328
10589SOL    HW132666   5.927   1.152   4.417
10589SOL    HW232667   5.815   1.091   4.315
10590SOL     OW32668   1.537   0.487   5.122
10590SOL    HW132669   1.635   0.488   5.138
10590SOL    HW232670   1.512   0.564   5.063
10591SOL     OW32671   1.233   2.386   0.661
10591SOL    HW132672   1.322   2.341   0.668
10591SOL    HW232673   1.161   2.317   0.656
10592SOL     OW32674   6.475   1.282   6.877
10592SOL    HW132675   6.391   1.242   6.842
10592SOL    HW232676   6.459   1.317   6.969
10593SOL     OW32677   1.705   4.817   1.796
10593SOL    HW132678   1.646   4.737   1.785
10593SOL    HW232679   1.650   4.897   1.819
10594SOL     OW32680   0.931   1.957   4.360
10594SOL    HW132681   0.925   1.873   4.308
10594SOL    HW232682   0.995   2.020   4.316
10595SOL     OW32683   2.363   5.952   5.071
10595SOL    HW132684   2.402   5.869   5.111
10595SOL    HW232685   2.379   5.953   4.972
10596SOL     OW32686   3.096   0.770   2.215
10596SOL    HW132687   3.061   0.845   2.271
10596SOL    HW232688   3.181   0.798   2.171
10597SOL     OW32689   1.802   0.527   3.594
10597SOL    HW132690   1.897   0.518   3.564
10597SOL    HW232691   1.743   0.541   3.515
10598SOL     OW32692   2.247   1.606   6.954
10598SOL    HW132693   2.202   1.638   0.015
10598SOL    HW232694   2.197   1.527   6.918
10599SOL     OW32695   5.060   0.414   6.503
10599SOL    HW132696   5.024   0.324   6.527
10599SOL    HW232697   5.158   0.406   6.485
10600SOL     OW32698   1.398   2.023   5.627
10600SOL    HW132699   1.442   1.962   5.693
10600SOL    HW232700   1.444   2.112   5.628
10601SOL     OW32701   3.516   5.774   5.345
10601SOL    HW132702   3.602   5.799   5.300
10601SOL    HW232703   3.518   5.677   5.369
10602SOL     OW32704   4.374   1.000   1.715
10602SOL    HW132705   4.469   0.986   1.688
10602SOL    HW232706   4.326   0.913   1.713
10603SOL     OW32707   0.681   5.029   4.473
10603SOL    HW132708   0.653   5.077   4.391
10603SOL    HW232709   0.601   4.991   4.519
10604SOL     OW32710   6.638   4.112   5.191
10604SOL    HW132711   6.574   4.108   5.115
10604SOL    HW232712   6.726   4.072   5.163
10605SOL     OW32713   1.995   4.906   5.935
10605SOL    HW132714   1.929   4.955   5.992
10605SOL    HW232715   1.959   4.898   5.842
10606SOL     OW32716   0.459   0.830   2.864
10606SOL    HW132717   0.432   0.890   2.788
10606SOL    HW232718   0.545   0.861   2.903
10607SOL     OW32719   5.640   4.960   6.812
10607SOL    HW132720   5.669   5.002   6.726
10607SOL    HW232721   5.596   4.872   6.793
10608SOL     OW32722   5.751   0.755   2.660
10608SOL    HW132723   5.725   0.709   2.745
10608SOL    HW232724   5.726   0.851   2.665
10609SOL     OW32725   3.860   6.911   1.831
10609SOL    HW132726   3.893   6.818   1.844
10609SOL    HW232727   3.938   6.972   1.813
10610SOL     OW32728   1.960   4.146   4.430
10610SOL    HW132729   1.944   4.244   4.419
10610SOL    HW232730   2.041   4.131   4.487
10611SOL     OW32731   4.916   2.337   6.421
10611SOL    HW132732   4.964   2.284   6.491
10611SOL    HW232733   4.928   2.292   6.332
10612SOL     OW32734   1.361   6.484   1.391
10612SOL    HW132735   1.359   6.406   1.453
10612SOL    HW232736   1.337   6.567   1.441
10613SOL     OW32737   0.653   6.141   6.767
10613SOL    HW132738   0.572   6.082   6.774
10613SOL    HW232739   0.655   6.182   6.676
10614SOL     OW32740   6.752   0.865   4.302
10614SOL    HW132741   6.689   0.843   4.376
10614SOL    HW232742   6.822   0.794   4.296
10615SOL     OW32743   0.084   5.895   5.400
10615SOL    HW132744   0.050   5.948   5.322
10615SOL    HW232745   0.049   5.933   5.485
10616SOL     OW32746   2.952   6.230   0.663
10616SOL    HW132747   2.975   6.252   0.568
10616SOL    HW232748   2.983   6.304   0.723
10617SOL     OW32749   0.034   1.948   6.615
10617SOL    HW132750   7.014   1.887   6.681
10617SOL    HW232751   0.133   1.935   6.616
10618SOL     OW32752   6.151   4.093   1.368
10618SOL    HW132753   6.085   4.023   1.338
10618SOL    HW232754   6.244   4.063   1.345
10619SOL     OW32755   0.382   4.082   3.506
10619SOL    HW132756   0.320   4.019   3.553
10619SOL    HW232757   0.348   4.176   3.516
10620SOL     OW32758   1.017   5.372   4.017
10620SOL    HW132759   0.992   5.384   4.113
10620SOL    HW232760   1.026   5.275   3.997
10621SOL     OW32761   2.626   6.351   0.602
10621SOL    HW132762   2.644   6.263   0.647
10621SOL    HW232763   2.711   6.405   0.599
10622SOL     OW32764   4.773   1.818   1.507
10622SOL    HW132765   4.764   1.740   1.569
10622SOL    HW232766   4.749   1.902   1.556
10623SOL     OW32767   6.910   0.641   4.352
10623SOL    HW132768   6.928   0.638   4.450
10623SOL    HW232769   6.957   0.565   4.307
10624SOL     OW32770   2.816   1.680   4.122
10624SOL    HW132771   2.720   1.690   4.150
10624SOL    HW232772   2.866   1.763   4.144
10625SOL     OW32773   0.362   3.483   0.114
10625SOL    HW132774   0.352   3.579   0.140
10625SOL    HW232775   0.277   3.451   0.073
10626SOL     OW32776   6.139   1.919   1.717
10626SOL    HW132777   6.096   1.849   1.773
10626SOL    HW232778   6.072   1.958   1.654
10627SOL     OW32779   6.215   5.794   4.684
10627SOL    HW132780   6.181   5.775   4.593
10627SOL    HW232781   6.286   5.728   4.709
10628SOL     OW32782   0.117   6.052   6.272
10628SOL    HW132783   0.170   5.979   6.227
10628SOL    HW232784   0.069   6.106   6.202
10629SOL     OW32785   2.838   5.187   6.324
10629SOL    HW132786   2.911   5.117   6.324
10629SOL    HW232787   2.751   5.144   6.302
10630SOL     OW32788   6.654   0.719   2.885
10630SOL    HW132789   6.690   0.628   2.899
10630SOL    HW232790   6.697   0.783   2.948
10631SOL     OW32791   0.862   6.703   4.980
10631SOL    HW132792   0.949   6.751   4.989
10631SOL    HW232793   0.849   6.642   5.058
10632SOL     OW32794   0.342   3.099   5.475
10632SOL    HW132795   0.286   3.182   5.471
10632SOL    HW232796   0.329   3.054   5.564
10633SOL     OW32797   1.268   4.918   0.850
10633SOL    HW132798   1.190   4.857   0.867
10633SOL    HW232799   1.237   4.999   0.800
10634SOL     OW32800   4.157   6.573   1.403
10634SOL    HW132801   4.156   6.477   1.432
10634SOL    HW232802   4.069   6.596   1.361
10635SOL     OW32803   1.308   0.856   1.375
10635SOL    HW132804   1.358   0.803   1.306
10635SOL    HW232805   1.372   0.917   1.422
10636SOL     OW32806   6.357   1.324   0.737
10636SOL    HW132807   6.305   1.385   0.676
10636SOL    HW232808   6.437   1.372   0.772
10637SOL     OW32809   3.969   4.539   5.697
10637SOL    HW132810   4.013   4.628   5.702
10637SOL    HW232811   4.039   4.468   5.688
10638SOL     OW32812   6.769   0.436   5.973
10638SOL    HW132813   6.765   0.336   5.985
10638SOL    HW232814   6.812   0.457   5.885
10639SOL     OW32815   3.213   1.354   5.519
10639SOL    HW132816   3.171   1.363   5.609
10639SOL    HW232817   3.297   1.408   5.516
10640SOL     OW32818   4.222   6.305   0.828
10640SOL    HW132819   4.133   6.346   0.851
10640SOL    HW232820   4.293   6.374   0.835
10641SOL     OW32821   4.240   0.920   6.777
10641SOL    HW132822   4.210   1.013   6.758
10641SOL    HW232823   4.186   0.856   6.722
10642SOL     OW32824   6.956   4.135   0.588
10642SOL    HW132825   6.962   4.051   0.642
10642SOL    HW232826   6.921   4.209   0.646
10643SOL     OW32827   4.143   3.232   5.291
10643SOL    HW132828   4.219   3.296   5.305
10643SOL    HW232829   4.154   3.154   5.351
10644SOL     OW32830   3.510   1.532   5.085
10644SOL    HW132831   3.551   1.441   5.082
10644SOL    HW232832   3.487   1.562   4.992
10645SOL     OW32833   2.251   6.723   5.373
10645SOL    HW132834   2.235   6.786   5.449
10645SOL    HW232835   2.167   6.715   5.319
10646SOL     OW32836   0.939   4.360   6.586
10646SOL    HW132837   0.845   4.378   6.616
10646SOL    HW232838   0.990   4.445   6.585
10647SOL     OW32839   0.711   5.297   0.823
10647SOL    HW132840   0.771   5.357   0.877
10647SOL    HW232841   0.697   5.211   0.871
10648SOL     OW32842   4.571   5.136   6.113
10648SOL    HW132843   4.652   5.101   6.160
10648SOL    HW232844   4.575   5.236   6.110
10649SOL     OW32845   0.123   4.758   5.846
10649SOL    HW132846   0.096   4.803   5.932
10649SOL    HW232847   0.069   4.675   5.834
10650SOL     OW32848   3.041   0.878   4.634
10650SOL    HW132849   3.131   0.854   4.671
10650SOL    HW232850   2.971   0.864   4.703
10651SOL     OW32851   3.024   0.191   5.436
10651SOL    HW132852   3.072   0.105   5.447
10651SOL    HW232853   3.008   0.233   5.525
10652SOL     OW32854   4.133   1.208   0.577
10652SOL    HW132855   4.191   1.260   0.514
10652SOL    HW232856   4.057   1.168   0.527
10653SOL     OW32857   5.906   2.712   4.141
10653SOL    HW132858   5.998   2.744   4.165
10653SOL    HW232859   5.841   2.788   4.144
10654SOL     OW32860   4.438   1.005   1.260
10654SOL    HW132861   4.391   1.040   1.341
10654SOL    HW232862   4.402   0.915   1.237
10655SOL     OW32863   2.951   5.484   1.217
10655SOL    HW132864   3.008   5.446   1.145
10655SOL    HW232865   3.009   5.525   1.288
10656SOL     OW32866   6.433   2.964   6.304
10656SOL    HW132867   6.492   2.944   6.226
10656SOL    HW232868   6.388   3.052   6.291
10657SOL     OW32869   6.233   0.044   1.636
10657SOL    HW132870   6.265   0.134   1.606
10657SOL    HW232871   6.134   0.046   1.648
10658SOL     OW32872   0.480   6.820   4.874
10658SOL    HW132873   0.550   6.888   4.855
10658SOL    HW232874   0.503   6.770   4.958
10659SOL     OW32875   5.321   0.841   0.552
10659SOL    HW132876   5.407   0.869   0.594
10659SOL    HW232877   5.270   0.782   0.614
10660SOL     OW32878   5.420   5.280   5.721
10660SOL    HW132879   5.359   5.343   5.672
10660SOL    HW232880   5.371   5.195   5.740
10661SOL     OW32881   0.774   0.489   2.219
10661SOL    HW132882   0.776   0.577   2.171
10661SOL    HW232883   0.827   0.496   2.303
10662SOL     OW32884   5.702   1.537   0.713
10662SOL    HW132885   5.711   1.624   0.665
10662SOL    HW232886   5.607   1.506   0.708
10663SOL     OW32887   0.441   0.902   0.536
10663SOL    HW132888   0.533   0.864   0.531
10663SOL    HW232889   0.435   0.966   0.613
10664SOL     OW32890   2.171   4.994   6.212
10664SOL    HW132891   2.108   5.066   6.242
10664SOL    HW232892   2.135   4.949   6.131
10665SOL     OW32893   5.882   1.251   6.607
10665SOL    HW132894   5.876   1.182   6.679
10665SOL    HW232895   5.881   1.206   6.518
10666SOL     OW32896   0.619   7.018   0.245
10666SOL    HW132897   0.608   0.085   0.200
10666SOL    HW232898   0.716   7.002   0.264
10667SOL     OW32899   3.337   2.258   5.701
10667SOL    HW132900   3.292   2.201   5.632
10667SOL    HW232901   3.276   2.269   5.780
10668SOL     OW32902   2.463   0.807   6.250
10668SOL    HW132903   2.419   0.895   6.236
10668SOL    HW232904   2.521   0.785   6.171
10669SOL     OW32905   1.108   6.396   6.754
10669SOL    HW132906   1.165   6.383   6.673
10669SOL    HW232907   1.016   6.423   6.725
10670SOL     OW32908   6.805   4.940   5.103
10670SOL    HW132909   6.842   4.987   5.023
10670SOL    HW232910   6.880   4.914   5.164
10671SOL     OW32911   1.914   2.124   3.497
10671SOL    HW132912   1.835   2.175   3.462
10671SOL    HW232913   1.897   2.098   3.592
10672SOL     OW32914   0.158   2.583   1.161
10672SOL    HW132915   0.183   2.582   1.065
10672SOL    HW232916   0.233   2.548   1.216
10673SOL     OW32917   3.532   3.490   4.780
10673SOL    HW132918   3.519   3.455   4.687
10673SOL    HW232919   3.531   3.413   4.844
10674SOL     OW32920   3.856   1.466   2.742
10674SOL    HW132921   3.952   1.444   2.726
10674SOL    HW232922   3.811   1.486   2.655
10675SOL     OW32923   0.759   0.984   6.136
10675SOL    HW132924   0.751   1.061   6.073
10675SOL    HW232925   0.732   1.012   6.228
10676SOL     OW32926   6.624   0.238   0.255
10676SOL    HW132927   6.592   0.211   0.164
10676SOL    HW232928   6.717   0.274   0.248
10677SOL     OW32929   6.198   1.073   0.508
10677SOL    HW132930   6.141   0.993   0.488
10677SOL    HW232931   6.266   1.048   0.578
10678SOL     OW32932   1.659   5.237   3.710
10678SOL    HW132933   1.683   5.334   3.701
10678SOL    HW232934   1.585   5.216   3.646
10679SOL     OW32935   5.411   5.129   3.515
10679SOL    HW132936   5.377   5.037   3.534
10679SOL    HW232937   5.459   5.164   3.595
10680SOL     OW32938   1.129   2.787   3.735
10680SOL    HW132939   1.158   2.882   3.722
10680SOL    HW232940   1.150   2.735   3.652
10681SOL     OW32941   0.561   2.069   6.299
10681SOL    HW132942   0.481   2.128   6.304
10681SOL    HW232943   0.534   1.974   6.312
10682SOL     OW32944   6.400   1.938   2.595
10682SOL    HW132945   6.325   1.909   2.537
10682SOL    HW232946   6.397   2.038   2.605
10683SOL     OW32947   1.502   0.344   4.008
10683SOL    HW132948   1.499   0.378   3.914
10683SOL    HW232949   1.592   0.363   4.047
10684SOL     OW32950   5.534   6.098   0.615
10684SOL    HW132951   5.604   6.115   0.684
10684SOL    HW232952   5.575   6.051   0.537
10685SOL     OW32953   6.260   2.853   2.399
10685SOL    HW132954   6.294   2.775   2.346
10685SOL    HW232955   6.333   2.919   2.411
10686SOL     OW32956   4.666   4.358   0.630
10686SOL    HW132957   4.653   4.319   0.539
10686SOL    HW232958   4.646   4.455   0.629
10687SOL     OW32959   6.625   5.518   1.015
10687SOL    HW132960   6.575   5.473   0.940
10687SOL    HW232961   6.699   5.458   1.046
10688SOL     OW32962   7.022   5.551   0.941
10688SOL    HW132963   0.050   5.634   0.919
10688SOL    HW232964   0.036   5.475   0.887
10689SOL     OW32965   0.854   0.417   1.156
10689SOL    HW132966   0.918   0.403   1.080
10689SOL    HW232967   0.788   0.342   1.158
10690SOL     OW32968   4.856   6.199   2.846
10690SOL    HW132969   4.881   6.146   2.927
10690SOL    HW232970   4.932   6.197   2.780
10691SOL     OW32971   6.236   1.671   1.557
10691SOL    HW132972   6.199   1.582   1.587
10691SOL    HW232973   6.232   1.735   1.634
10692SOL     OW32974   5.780   6.479   4.158
10692SOL    HW132975   5.689   6.509   4.131
10692SOL    HW232976   5.778   6.445   4.252
10693SOL     OW32977   5.137   2.892   3.578
10693SOL    HW132978   5.118   2.892   3.677
10693SOL    HW232979   5.216   2.833   3.560
10694SOL     OW32980   2.841   6.526   0.693
10694SOL    HW132981   2.816   6.462   0.766
10694SOL    HW232982   2.925   6.574   0.718
10695SOL     OW32983   5.532   2.861   5.375
10695SOL    HW132984   5.567   2.789   5.435
10695SOL    HW232985   5.606   2.926   5.355
10696SOL     OW32986   6.631   6.616   1.769
10696SOL    HW132987   6.719   6.606   1.816
10696SOL    HW232988   6.603   6.712   1.771
10697SOL     OW32989   2.110   6.585   3.055
10697SOL    HW132990   2.105   6.679   3.024
10697SOL    HW232991   2.109   6.583   3.155
10698SOL     OW32992   2.740   0.734   3.883
10698SOL    HW132993   2.793   0.784   3.815
10698SOL    HW232994   2.692   0.798   3.943
10699SOL     OW32995   2.398   2.598   3.367
10699SOL    HW132996   2.477   2.597   3.428
10699SOL    HW232997   2.366   2.692   3.355
10700SOL     OW32998   0.589   1.231   2.201
10700SOL    HW132999   0.563   1.173   2.123
10700SOL    HW233000   0.544   1.320   2.192
10701SOL     OW33001   3.331   0.275   1.401
10701SOL    HW133002   3.406   0.319   1.352
10701SOL    HW233003   3.253   0.264   1.340
10702SOL     OW33004   5.282   2.537   0.615
10702SOL    HW133005   5.224   2.455   0.613
10702SOL    HW233006   5.356   2.526   0.548
10703SOL     OW33007   4.112   3.204   3.850
10703SOL    HW133008   4.086   3.273   3.783
10703SOL    HW233009   4.145   3.249   3.933
10704SOL     OW33010   5.804   6.321   2.206
10704SOL    HW133011   5.709   6.288   2.198
10704SOL    HW233012   5.864   6.261   2.153
10705SOL     OW33013   1.444   3.281   6.086
10705SOL    HW133014   1.540   3.262   6.106
10705SOL    HW233015   1.385   3.223   6.142
10706SOL     OW33016   3.677   2.635   1.141
10706SOL    HW133017   3.618   2.649   1.221
10706SOL    HW233018   3.642   2.559   1.086
10707SOL     OW33019   6.424   6.783   6.229
10707SOL    HW133020   6.411   6.795   6.328
10707SOL    HW233021   6.391   6.864   6.182
10708SOL     OW33022   4.729   1.503   1.427
10708SOL    HW133023   4.690   1.569   1.362
10708SOL    HW233024   4.676   1.503   1.511
10709SOL     OW33025   0.712   0.149   6.096
10709SOL    HW133026   0.718   0.244   6.127
10709SOL    HW233027   0.616   0.122   6.089
10710SOL     OW33028   6.852   6.280   3.777
10710SOL    HW133029   6.907   6.202   3.808
10710SOL    HW233030   6.769   6.246   3.733
10711SOL     OW33031   2.455   5.299   5.212
10711SOL    HW133032   2.550   5.285   5.184
10711SOL    HW233033   2.396   5.302   5.131
10712SOL     OW33034   3.718   1.300   6.205
10712SOL    HW133035   3.755   1.356   6.131
10712SOL    HW233036   3.789   1.239   6.240
10713SOL     OW33037   2.014   6.158   0.850
10713SOL    HW133038   2.021   6.063   0.819
10713SOL    HW233039   1.928   6.198   0.818
10714SOL     OW33040   6.504   5.546   5.043
10714SOL    HW133041   6.558   5.628   5.057
10714SOL    HW233042   6.471   5.512   5.132
10715SOL     OW33043   5.757   1.295   3.190
10715SOL    HW133044   5.830   1.357   3.219
10715SOL    HW233045   5.749   1.219   3.254
10716SOL     OW33046   0.202   1.142   2.322
10716SOL    HW133047   0.265   1.091   2.380
10716SOL    HW233048   0.251   1.175   2.241
10717SOL     OW33049   0.212   6.676   2.000
10717SOL    HW133050   0.285   6.718   2.053
10717SOL    HW233051   0.124   6.716   2.027
10718SOL     OW33052   0.702   3.998   5.491
10718SOL    HW133053   0.611   3.957   5.479
10718SOL    HW233054   0.766   3.953   5.430
10719SOL     OW33055   3.632   6.453   2.029
10719SOL    HW133056   3.699   6.526   2.042
10719SOL    HW233057   3.659   6.397   1.950
10720SOL     OW33058   0.175   3.460   6.300
10720SOL    HW133059   0.078   3.448   6.282
10720SOL    HW233060   0.202   3.402   6.378
10721SOL     OW33061   5.504   2.494   4.814
10721SOL    HW133062   5.418   2.442   4.814
10721SOL    HW233063   5.552   2.480   4.727
10722SOL     OW33064   6.942   4.761   0.083
10722SOL    HW133065   6.961   4.781   7.010
10722SOL    HW233066   6.943   4.662   0.098
10723SOL     OW33067   6.138   4.323   6.814
10723SOL    HW133068   6.187   4.242   6.846
10723SOL    HW233069   6.166   4.344   6.720
10724SOL     OW33070   3.555   0.137   5.641
10724SOL    HW133071   3.626   0.180   5.697
10724SOL    HW233072   3.472   0.127   5.695
10725SOL     OW33073   6.852   0.377   5.342
10725SOL    HW133074   6.774   0.439   5.349
10725SOL    HW233075   6.819   0.283   5.331
10726SOL     OW33076   6.293   0.794   3.702
10726SOL    HW133077   6.391   0.783   3.723
10726SOL    HW233078   6.248   0.705   3.710
10727SOL     OW33079   4.066   6.827   6.477
10727SOL    HW133080   4.042   6.920   6.448
10727SOL    HW233081   4.107   6.831   6.568
10728SOL     OW33082   6.136   5.194   3.745
10728SOL    HW133083   6.115   5.286   3.778
10728SOL    HW233084   6.104   5.127   3.813
10729SOL     OW33085   5.972   3.441   3.857
10729SOL    HW133086   5.886   3.389   3.857
10729SOL    HW233087   6.047   3.380   3.883
10730SOL     OW33088   1.153   6.134   3.964
10730SOL    HW133089   1.232   6.188   3.994
10730SOL    HW233090   1.085   6.130   4.037
10731SOL     OW33091   5.238   5.465   6.243
10731SOL    HW133092   5.267   5.446   6.149
10731SOL    HW233093   5.194   5.384   6.282
10732SOL     OW33094   6.743   5.897   2.323
10732SOL    HW133095   6.838   5.926   2.316
10732SOL    HW233096   6.712   5.860   2.236
10733SOL     OW33097   0.584   1.684   6.067
10733SOL    HW133098   0.494   1.652   6.037
10733SOL    HW233099   0.628   1.735   5.992
10734SOL     OW33100   0.985   0.561   4.714
10734SOL    HW133101   1.071   0.549   4.664
10734SOL    HW233102   0.993   0.639   4.776
10735SOL     OW33103   0.374   0.477   2.158
10735SOL    HW133104   0.417   0.491   2.248
10735SOL    HW233105   0.360   0.379   2.143
10736SOL     OW33106   5.945   5.617   3.626
10736SOL    HW133107   5.986   5.693   3.576
10736SOL    HW233108   5.864   5.648   3.676
10737SOL     OW33109   6.651   0.768   1.724
10737SOL    HW133110   6.716   0.792   1.796
10737SOL    HW233111   6.697   0.772   1.635
10738SOL     OW33112   2.613   0.092   1.426
10738SOL    HW133113   2.656   0.003   1.437
10738SOL    HW233114   2.671   0.163   1.467
10739SOL     OW33115   4.805   3.057   4.146
10739SOL    HW133116   4.780   2.998   4.069
10739SOL    HW233117   4.817   3.151   4.114
10740SOL     OW33118   2.827   0.211   6.135
10740SOL    HW133119   2.792   0.296   6.095
10740SOL    HW233120   2.917   0.227   6.175
10741SOL     OW33121   1.408   2.544   3.662
10741SOL    HW133122   1.342   2.592   3.604
10741SOL    HW233123   1.400   2.579   3.756
10742SOL     OW33124   6.566   0.300   1.910
10742SOL    HW133125   6.587   0.209   1.873
10742SOL    HW233126   6.604   0.370   1.850
10743SOL     OW33127   3.817   2.016   5.905
10743SOL    HW133128   3.746   1.945   5.904
10743SOL    HW233129   3.820   2.061   5.816
10744SOL     OW33130   2.601   2.050   1.548
10744SOL    HW133131   2.685   2.095   1.578
10744SOL    HW233132   2.616   1.951   1.546
10745SOL     OW33133   2.613   4.863   1.421
10745SOL    HW133134   2.684   4.887   1.487
10745SOL    HW233135   2.654   4.824   1.339
10746SOL     OW33136   2.380   5.215   6.258
10746SOL    HW133137   2.285   5.185   6.247
10746SOL    HW233138   2.385   5.282   6.332
10747SOL     OW33139   6.995   1.109   4.684
10747SOL    HW133140   0.038   1.064   4.745
10747SOL    HW233141   6.980   1.203   4.716
10748SOL     OW33142   2.733   6.244   2.527
10748SOL    HW133143   2.636   6.269   2.519
10748SOL    HW233144   2.753   6.218   2.621
10749SOL     OW33145   5.953   4.378   1.992
10749SOL    HW133146   5.889   4.338   1.926
10749SOL    HW233147   5.938   4.476   1.998
10750SOL     OW33148   4.112   2.265   4.381
10750SOL    HW133149   4.159   2.297   4.464
10750SOL    HW233150   4.018   2.300   4.381
10751SOL     OW33151   6.291   6.360   4.445
10751SOL    HW133152   6.343   6.305   4.510
10751SOL    HW233153   6.202   6.317   4.428
10752SOL     OW33154   6.669   6.407   6.845
10752SOL    HW133155   6.636   6.500   6.862
10752SOL    HW233156   6.658   6.352   6.928
10753SOL     OW33157   5.353   6.705   5.271
10753SOL    HW133158   5.258   6.696   5.304
10753SOL    HW233159   5.406   6.756   5.339
10754SOL     OW33160   1.055   5.374   1.952
10754SOL    HW133161   1.022   5.358   1.859
10754SOL    HW233162   1.154   5.363   1.954
10755SOL     OW33163   0.492   2.191   1.660
10755SOL    HW133164   0.426   2.214   1.588
10755SOL    HW233165   0.492   2.093   1.675
10756SOL     OW33166   1.062   0.309   0.002
10756SOL    HW133167   1.003   0.359   6.961
10756SOL    HW233168   1.019   0.306   0.092
10757SOL     OW33169   0.156   2.915   2.408
10757SOL    HW133170   0.131   2.869   2.493
10757SOL    HW233171   0.085   2.898   2.340
10758SOL     OW33172   0.919   0.776   0.320
10758SOL    HW133173   0.967   0.760   0.234
10758SOL    HW233174   0.930   0.697   0.380
10759SOL     OW33175   3.339   2.949   4.830
10759SOL    HW133176   3.347   2.968   4.732
10759SOL    HW233177   3.244   2.964   4.860
10760SOL     OW33178   0.564   4.799   0.327
10760SOL    HW133179   0.561   4.856   0.409
10760SOL    HW233180   0.643   4.825   0.271
10761SOL     OW33181   1.513   1.632   5.952
10761SOL    HW133182   1.541   1.728   5.958
10761SOL    HW233183   1.438   1.624   5.886
10762SOL     OW33184   1.917   6.162   0.177
10762SOL    HW133185   1.821   6.171   0.203
10762SOL    HW233186   1.928   6.084   0.115
10763SOL     OW33187   4.738   0.688   3.291
10763SOL    HW133188   4.652   0.737   3.274
10763SOL    HW233189   4.813   0.753   3.297
10764SOL     OW33190   4.901   6.010   4.445
10764SOL    HW133191   4.951   5.926   4.426
10764SOL    HW233192   4.877   6.055   4.359
10765SOL     OW33193   0.969   1.873   0.950
10765SOL    HW133194   0.976   1.775   0.930
10765SOL    HW233195   0.947   1.922   0.865
10766SOL     OW33196   2.739   5.277   6.571
10766SOL    HW133197   2.775   5.242   6.485
10766SOL    HW233198   2.770   5.371   6.583
10767SOL     OW33199   1.624   4.669   6.984
10767SOL    HW133200   1.708   4.720   7.008
10767SOL    HW233201   1.618   4.660   6.885
10768SOL     OW33202   5.322   6.380   6.995
10768SOL    HW133203   5.389   6.450   6.971
10768SOL    HW233204   5.361   6.289   6.982
10769SOL     OW33205   3.113   3.091   4.561
10769SOL    HW133206   3.119   3.045   4.473
10769SOL    HW233207   3.083   3.186   4.548
10770SOL     OW33208   5.493   0.134   2.917
10770SOL    HW133209   5.545   0.197   2.973
10770SOL    HW233210   5.405   0.114   2.961
10771SOL     OW33211   4.723   6.089   5.731
10771SOL    HW133212   4.712   6.022   5.657
10771SOL    HW233213   4.706   6.181   5.696
10772SOL     OW33214   5.427   4.586   2.473
10772SOL    HW133215   5.381   4.644   2.406
10772SOL    HW233216   5.493   4.641   2.524
10773SOL     OW33217   0.999   3.700   0.252
10773SOL    HW133218   1.004   3.664   0.345
10773SOL    HW233219   1.061   3.648   0.193
10774SOL     OW33220   0.637   3.378   0.796
10774SOL    HW133221   0.733   3.385   0.772
10774SOL    HW233222   0.628   3.342   0.889
10775SOL     OW33223   2.140   3.829   0.373
10775SOL    HW133224   2.100   3.912   0.412
10775SOL    HW233225   2.109   3.749   0.424
10776SOL     OW33226   1.119   3.368   3.490
10776SOL    HW133227   1.119   3.268   3.490
10776SOL    HW233228   1.031   3.401   3.457
10777SOL     OW33229   1.444   0.034   1.088
10777SOL    HW133230   1.477   0.095   1.160
10777SOL    HW233231   1.419   6.969   1.128
10778SOL     OW33232   4.621   0.143   3.013
10778SOL    HW133233   4.536   0.193   2.994
10778SOL    HW233234   4.609   0.047   2.989
10779SOL     OW33235   5.723   2.808   6.052
10779SOL    HW133236   5.678   2.772   5.970
10779SOL    HW233237   5.714   2.742   6.126
10780SOL     OW33238   1.478   5.013   4.843
10780SOL    HW133239   1.442   4.963   4.764
10780SOL    HW233240   1.566   4.973   4.870
10781SOL     OW33241   5.352   1.802   5.680
10781SOL    HW133242   5.427   1.764   5.733
10781SOL    HW233243   5.370   1.790   5.583
10782SOL     OW33244   1.185   2.676   5.332
10782SOL    HW133245   1.136   2.590   5.348
10782SOL    HW233246   1.209   2.683   5.235
10783SOL     OW33247   1.738   3.353   3.304
10783SOL    HW133248   1.743   3.313   3.212
10783SOL    HW233249   1.673   3.300   3.359
10784SOL     OW33250   4.715   5.607   3.981
10784SOL    HW133251   4.791   5.573   4.035
10784SOL    HW233252   4.684   5.535   3.918
10785SOL     OW33253   2.231   5.325   1.913
10785SOL    HW133254   2.282   5.240   1.910
10785SOL    HW233255   2.145   5.310   1.962
10786SOL     OW33256   4.643   1.821   2.357
10786SOL    HW133257   4.627   1.730   2.318
10786SOL    HW233258   4.594   1.889   2.303
10787SOL     OW33259   4.031   2.043   3.760
10787SOL    HW133260   4.025   1.952   3.719
10787SOL    HW233261   4.127   2.063   3.781
10788SOL     OW33262   1.886   3.389   0.323
10788SOL    HW133263   1.970   3.337   0.308
10788SOL    HW233264   1.817   3.361   0.256
10789SOL     OW33265   6.978   1.360   2.072
10789SOL    HW133266   6.995   1.350   2.170
10789SOL    HW233267   6.932   1.446   2.054
10790SOL     OW33268   6.969   2.069   5.548
10790SOL    HW133269   7.013   2.054   5.459
10790SOL    HW233270   6.911   2.151   5.543
10791SOL     OW33271   1.655   2.489   3.597
10791SOL    HW133272   1.559   2.515   3.610
10791SOL    HW233273   1.702   2.561   3.546
10792SOL     OW33274   3.624   1.492   2.358
10792SOL    HW133275   3.716   1.457   2.345
10792SOL    HW233276   3.560   1.442   2.300
10793SOL     OW33277   3.586   2.017   4.650
10793SOL    HW133278   3.538   2.041   4.734
10793SOL    HW233279   3.523   1.968   4.589
10794SOL     OW33280   4.844   2.390   6.950
10794SOL    HW133281   4.849   2.488   6.932
10794SOL    HW233282   4.748   2.361   6.951
10795SOL     OW33283   6.465   3.602   3.172
10795SOL    HW133284   6.472   3.502   3.172
10795SOL    HW233285   6.424   3.632   3.087
10796SOL     OW33286   0.316   1.599   6.010
10796SOL    HW133287   0.297   1.569   6.103
10796SOL    HW233288   0.302   1.522   5.947
10797SOL     OW33289   4.855   4.623   0.074
10797SOL    HW133290   4.797   4.642   0.153
10797SOL    HW233291   4.879   4.708   0.029
10798SOL     OW33292   2.064   6.184   0.401
10798SOL    HW133293   2.154   6.226   0.411
10798SOL    HW233294   2.031   6.195   0.308
10799SOL     OW33295   3.483   0.271   2.380
10799SOL    HW133296   3.435   0.286   2.294
10799SOL    HW233297   3.556   0.204   2.367
10800SOL     OW33298   1.987   6.670   5.599
10800SOL    HW133299   2.040   6.747   5.565
10800SOL    HW233300   2.039   6.585   5.588
10801SOL     OW33301   2.736   6.264   6.685
10801SOL    HW133302   2.675   6.202   6.735
10801SOL    HW233303   2.794   6.211   6.623
10802SOL     OW33304   0.817   4.782   4.424
10802SOL    HW133305   0.903   4.761   4.470
10802SOL    HW233306   0.783   4.870   4.456
10803SOL     OW33307   0.075   4.358   4.459
10803SOL    HW133308   0.044   4.323   4.371
10803SOL    HW233309   0.155   4.417   4.445
10804SOL     OW33310   4.537   4.318   1.339
10804SOL    HW133311   4.567   4.358   1.425
10804SOL    HW233312   4.611   4.325   1.272
10805SOL     OW33313   3.779   6.140   0.879
10805SOL    HW133314   3.703   6.099   0.828
10805SOL    HW233315   3.793   6.090   0.965
10806SOL     OW33316   5.709   3.660   6.271
10806SOL    HW133317   5.678   3.668   6.366
10806SOL    HW233318   5.805   3.632   6.269
10807SOL     OW33319   4.726   2.268   4.357
10807SOL    HW133320   4.730   2.186   4.415
10807SOL    HW233321   4.645   2.321   4.380
10808SOL     OW33322   0.676   1.984   6.944
10808SOL    HW133323   0.637   2.052   6.882
10808SOL    HW233324   0.775   1.997   6.951
10809SOL     OW33325   2.070   1.202   2.205
10809SOL    HW133326   2.017   1.160   2.278
10809SOL    HW233327   2.145   1.255   2.244
10810SOL     OW33328   2.014   1.210   6.427
10810SOL    HW133329   2.051   1.235   6.337
10810SOL    HW233330   1.917   1.185   6.417
10811SOL     OW33331   4.544   5.368   6.452
10811SOL    HW133332   4.643   5.354   6.439
10811SOL    HW233333   4.499   5.278   6.457
10812SOL     OW33334   6.876   2.448   2.451
10812SOL    HW133335   6.950   2.469   2.387
10812SOL    HW233336   6.891   2.358   2.492
10813SOL     OW33337   3.575   5.940   2.527
10813SOL    HW133338   3.621   5.971   2.444
10813SOL    HW233339   3.637   5.885   2.582
10814SOL     OW33340   1.916   6.484   4.085
10814SOL    HW133341   1.850   6.555   4.109
10814SOL    HW233342   1.976   6.468   4.163
10815SOL     OW33343   4.807   1.817   4.905
10815SOL    HW133344   4.770   1.763   4.981
10815SOL    HW233345   4.831   1.757   4.829
10816SOL     OW33346   2.406   2.235   1.500
10816SOL    HW133347   2.372   2.281   1.581
10816SOL    HW233348   2.481   2.174   1.525
10817SOL     OW33349   3.968   1.134   1.813
10817SOL    HW133350   3.942   1.038   1.813
10817SOL    HW233351   4.062   1.143   1.846
10818SOL     OW33352   4.370   3.289   6.694
10818SOL    HW133353   4.343   3.383   6.712
10818SOL    HW233354   4.449   3.265   6.751
10819SOL     OW33355   1.219   3.719   5.462
10819SOL    HW133356   1.290   3.652   5.445
10819SOL    HW233357   1.164   3.690   5.541
10820SOL     OW33358   0.416   6.709   4.582
10820SOL    HW133359   0.365   6.773   4.524
10820SOL    HW233360   0.436   6.752   4.670
10821SOL     OW33361   0.431   0.960   0.002
10821SOL    HW133362   0.494   0.955   0.079
10821SOL    HW233363   0.445   0.881   6.964
10822SOL     OW33364   0.627   4.265   6.841
10822SOL    HW133365   0.563   4.301   6.909
10822SOL    HW233366   0.661   4.340   6.784
10823SOL     OW33367   1.956   2.630   1.204
10823SOL    HW133368   1.921   2.642   1.297
10823SOL    HW233369   2.024   2.702   1.185
10824SOL     OW33370   5.211   1.107   3.650
10824SOL    HW133371   5.244   1.182   3.593
10824SOL    HW233372   5.152   1.047   3.595
10825SOL     OW33373   3.198   1.118   2.536
10825SOL    HW133374   3.283   1.155   2.498
10825SOL    HW233375   3.154   1.187   2.593
10826SOL     OW33376   0.116   3.134   1.480
10826SOL    HW133377   0.038   3.074   1.495
10826SOL    HW233378   0.175   3.134   1.561
10827SOL     OW33379   0.519   2.982   3.977
10827SOL    HW133380   0.609   3.026   3.979
10827SOL    HW233381   0.461   3.030   3.911
10828SOL     OW33382   2.631   5.126   0.449
10828SOL    HW133383   2.555   5.086   0.398
10828SOL    HW233384   2.718   5.093   0.413
10829SOL     OW33385   2.165   3.932   1.603
10829SOL    HW133386   2.151   3.925   1.702
10829SOL    HW233387   2.205   4.021   1.581
10830SOL     OW33388   6.059   0.915   3.771
10830SOL    HW133389   6.033   0.973   3.694
10830SOL    HW233390   6.135   0.855   3.743
10831SOL     OW33391   5.650   2.848   2.198
10831SOL    HW133392   5.605   2.927   2.157
10831SOL    HW233393   5.591   2.768   2.190
10832SOL     OW33394   0.848   3.904   2.645
10832SOL    HW133395   0.928   3.921   2.702
10832SOL    HW233396   0.777   3.971   2.666
10833SOL     OW33397   2.934   6.718   3.994
10833SOL    HW133398   2.842   6.702   3.960
10833SOL    HW233399   2.996   6.736   3.918
10834SOL     OW33400   6.699   1.261   5.939
10834SOL    HW133401   6.788   1.302   5.958
10834SOL    HW233402   6.701   1.164   5.965
10835SOL     OW33403   0.490   2.148   0.986
10835SOL    HW133404   0.586   2.122   0.999
10835SOL    HW233405   0.442   2.076   0.936
10836SOL     OW33406   1.142   2.763   1.217
10836SOL    HW133407   1.042   2.774   1.216
10836SOL    HW233408   1.180   2.796   1.131
10837SOL     OW33409   0.975   5.879   1.601
10837SOL    HW133410   1.023   5.816   1.540
10837SOL    HW233411   1.038   5.916   1.669
10838SOL     OW33412   6.541   6.330   0.451
10838SOL    HW133413   6.568   6.328   0.547
10838SOL    HW233414   6.570   6.416   0.410
10839SOL     OW33415   1.420   1.572   0.030
10839SOL    HW133416   1.396   1.576   0.127
10839SOL    HW233417   1.348   1.617   6.999
10840SOL     OW33418   2.703   0.034   2.747
10840SOL    HW133419   2.733   0.093   2.822
10840SOL    HW233420   2.739   6.964   2.760
10841SOL     OW33421   4.445   3.353   0.372
10841SOL    HW133422   4.473   3.322   0.463
10841SOL    HW233423   4.435   3.453   0.372
10842SOL     OW33424   6.074   2.774   1.526
10842SOL    HW133425   6.122   2.862   1.523
10842SOL    HW233426   6.140   2.700   1.512
10843SOL     OW33427   0.612   1.489   1.840
10843SOL    HW133428   0.521   1.448   1.834
10843SOL    HW233429   0.681   1.421   1.818
10844SOL     OW33430   4.458   0.456   3.302
10844SOL    HW133431   4.418   0.487   3.216
10844SOL    HW233432   4.556   0.474   3.302
10845SOL     OW33433   2.159   3.198   1.085
10845SOL    HW133434   2.230   3.223   1.018
10845SOL    HW233435   2.111   3.117   1.053
10846SOL     OW33436   3.271   2.234   1.342
10846SOL    HW133437   3.317   2.149   1.369
10846SOL    HW233438   3.326   2.312   1.371
10847SOL     OW33439   4.825   2.209   5.266
10847SOL    HW133440   4.753   2.272   5.296
10847SOL    HW233441   4.900   2.210   5.332
10848SOL     OW33442   1.384   0.826   6.523
10848SOL    HW133443   1.388   0.926   6.528
10848SOL    HW233444   1.403   0.787   6.613
10849SOL     OW33445   1.551   5.038   4.023
10849SOL    HW133446   1.615   5.026   4.099
10849SOL    HW233447   1.557   4.960   3.961
10850SOL     OW33448   5.447   0.490   2.183
10850SOL    HW133449   5.366   0.461   2.133
10850SOL    HW233450   5.449   0.445   2.273
10851SOL     OW33451   4.164   2.218   0.146
10851SOL    HW133452   4.163   2.291   0.078
10851SOL    HW233453   4.136   2.132   0.103
10852SOL     OW33454   6.357   0.492   6.107
10852SOL    HW133455   6.346   0.576   6.160
10852SOL    HW233456   6.342   0.512   6.010
10853SOL     OW33457   2.684   0.865   4.639
10853SOL    HW133458   2.763   0.885   4.697
10853SOL    HW233459   2.711   0.800   4.568
10854SOL     OW33460   6.984   0.722   1.158
10854SOL    HW133461   6.963   0.702   1.253
10854SOL    HW233462   6.908   0.772   1.117
10855SOL     OW33463   6.935   5.904   1.115
10855SOL    HW133464   0.005   5.897   1.153
10855SOL    HW233465   6.874   5.844   1.168
10856SOL     OW33466   5.383   6.903   6.420
10856SOL    HW133467   5.478   6.931   6.433
10856SOL    HW233468   5.323   6.962   6.474
10857SOL     OW33469   6.284   0.186   4.816
10857SOL    HW133470   6.232   0.103   4.798
10857SOL    HW233471   6.379   0.172   4.788
10858SOL     OW33472   2.132   1.984   0.146
10858SOL    HW133473   2.223   2.018   0.172
10858SOL    HW233474   2.136   1.885   0.133
10859SOL     OW33475   1.554   5.020   2.481
10859SOL    HW133476   1.620   4.980   2.418
10859SOL    HW233477   1.597   5.033   2.571
10860SOL     OW33478   5.713   2.386   1.288
10860SOL    HW133479   5.713   2.376   1.387
10860SOL    HW233480   5.646   2.456   1.262
10861SOL     OW33481   1.647   4.262   1.867
10861SOL    HW133482   1.622   4.267   1.964
10861SOL    HW233483   1.609   4.178   1.828
10862SOL     OW33484   3.713   4.145   5.245
10862SOL    HW133485   3.663   4.089   5.311
10862SOL    HW233486   3.811   4.125   5.253
10863SOL     OW33487   1.838   6.927   3.425
10863SOL    HW133488   1.887   6.852   3.470
10863SOL    HW233489   1.899   7.006   3.418
10864SOL     OW33490   2.851   3.437   1.817
10864SOL    HW133491   2.940   3.483   1.824
10864SOL    HW233492   2.865   3.342   1.790
10865SOL     OW33493   3.602   1.559   2.855
10865SOL    HW133494   3.607   1.658   2.869
10865SOL    HW233495   3.683   1.529   2.804
10866SOL     OW33496   1.142   3.667   4.280
10866SOL    HW133497   1.214   3.643   4.345
10866SOL    HW233498   1.113   3.586   4.231
10867SOL     OW33499   4.612   3.559   0.049
10867SOL    HW133500   4.556   3.480   0.074
10867SOL    HW233501   4.637   3.552   6.975
10868SOL     OW33502   1.233   6.576   5.034
10868SOL    HW133503   1.151   6.519   5.041
10868SOL    HW233504   1.305   6.537   5.091
10869NA      NA33505   6.997   1.110   6.352
10870NA      NA33506   4.749   4.729   5.335
10871NA      NA33507   0.943   4.808   2.709
10872NA      NA33508   5.903   3.540   3.340
10873NA      NA33509   3.859   2.711   5.453
10874NA      NA33510   2.453   4.385   6.807
10875NA      NA33511   1.752   5.432   0.093
10876NA      NA33512   4.097   5.018   1.949
10877NA      NA33513   5.157   4.304   0.882
10878NA      NA33514   3.601   1.479   0.805
10879NA      NA33515   5.627   6.916   1.323
10880NA      NA33516   2.440   6.622   5.259
10881NA      NA33517   4.444   5.098   3.086
10882NA      NA33518   4.144   4.306   6.472
   7.02242   7.02242   7.02242
