Generated by trjconv : CNT in water t= 126.00000
33518
    1C        C    1   2.840   2.765   4.747
    1C        C    2   2.898   2.717   4.867
    1C        C    3   2.843   2.772   4.984
    1C        C    4   2.844   2.769   4.258
    1C        C    5   2.896   2.723   4.380
    1C        C    6   2.843   2.767   4.504
    1C        C    7   3.007   2.635   4.624
    1C        C    8   2.890   2.713   4.626
    1C        C    9   3.074   2.606   4.746
    1C        C   10   3.007   2.627   4.868
    1C        C   11   3.178   2.486   4.974
    1C        C   12   3.051   2.547   4.974
    1C        C   13   2.851   2.771   3.770
    1C        C   14   2.899   2.723   3.894
    1C        C   15   2.850   2.772   4.017
    1C        C   16   3.015   2.637   4.137
    1C        C   17   2.900   2.719   4.138
    1C        C   18   3.076   2.606   4.261
    1C        C   19   3.012   2.642   4.382
    1C        C   20   3.203   2.547   4.506
    1C        C   21   3.074   2.605   4.504
    1C        C   22   3.274   2.527   4.626
    1C        C   23   3.204   2.550   4.747
    1C        C   24   3.411   2.486   4.865
    1C        C   25   3.269   2.508   4.867
    1C        C   26   3.490   2.477   4.980
    1C        C   27   2.852   2.769   3.281
    1C        C   28   2.902   2.720   3.403
    1C        C   29   2.851   2.769   3.526
    1C        C   30   3.017   2.638   3.650
    1C        C   31   2.905   2.724   3.648
    1C        C   32   3.074   2.601   3.773
    1C        C   33   3.012   2.638   3.894
    1C        C   34   3.206   2.551   4.015
    1C        C   35   3.073   2.597   4.015
    1C        C   36   3.274   2.534   4.139
    1C        C   37   3.208   2.555   4.262
    1C        C   38   3.413   2.511   4.381
    1C        C   39   3.272   2.528   4.384
    1C        C   40   3.484   2.506   4.503
    1C        C   41   3.413   2.503   4.625
    1C        C   42   3.629   2.494   4.743
    1C        C   43   3.486   2.489   4.745
    1C        C   44   3.705   2.490   4.862
    1C        C   45   3.629   2.479   4.979
    1C        C   46   2.837   2.748   2.793
    1C        C   47   2.896   2.711   2.916
    1C        C   48   2.847   2.768   3.036
    1C        C   49   3.017   2.640   3.161
    1C        C   50   2.900   2.719   3.158
    1C        C   51   3.078   2.603   3.283
    1C        C   52   3.018   2.639   3.405
    1C        C   53   3.210   2.550   3.527
    1C        C   54   3.079   2.603   3.528
    1C        C   55   3.276   2.529   3.650
    1C        C   56   3.204   2.545   3.771
    1C        C   57   3.412   2.504   3.892
    1C        C   58   3.272   2.525   3.893
    1C        C   59   3.483   2.507   4.014
    1C        C   60   3.412   2.507   4.137
    1C        C   61   3.623   2.513   4.258
    1C        C   62   3.483   2.502   4.259
    1C        C   63   3.695   2.517   4.379
    1C        C   64   3.625   2.508   4.502
    1C        C   65   3.836   2.546   4.622
    1C        C   66   3.699   2.510   4.622
    1C        C   67   3.907   2.563   4.743
    1C        C   68   3.841   2.529   4.863
    1C        C   69   4.053   2.588   4.978
    1C        C   70   3.924   2.535   4.976
    1C        C   71   2.822   2.731   2.307
    1C        C   72   2.882   2.693   2.429
    1C        C   73   2.833   2.746   2.551
    1C        C   74   3.007   2.620   2.673
    1C        C   75   2.888   2.697   2.671
    1C        C   76   3.070   2.589   2.795
    1C        C   77   3.011   2.630   2.917
    1C        C   78   3.205   2.545   3.037
    1C        C   79   3.075   2.598   3.039
    1C        C   80   3.274   2.528   3.159
    1C        C   81   3.208   2.547   3.283
    1C        C   82   3.415   2.498   3.403
    1C        C   83   3.276   2.525   3.405
    1C        C   84   3.485   2.491   3.526
    1C        C   85   3.414   2.502   3.648
    1C        C   86   3.624   2.502   3.769
    1C        C   87   3.483   2.492   3.771
    1C        C   88   3.694   2.514   3.891
    1C        C   89   3.624   2.511   4.013
    1C        C   90   3.831   2.552   4.134
    1C        C   91   3.695   2.517   4.136
    1C        C   92   3.898   2.577   4.256
    1C        C   93   3.832   2.551   4.378
    1C        C   94   4.021   2.645   4.500
    1C        C   95   3.900   2.573   4.499
    1C        C   96   4.089   2.678   4.619
    1C        C   97   4.030   2.634   4.740
    1C        C   98   4.190   2.769   4.859
    1C        C   99   4.100   2.658   4.862
    1C        C  100   4.217   2.842   4.975
    1C        C  101   2.821   2.726   2.071
    1C        C  102   2.992   2.589   2.192
    1C        C  103   2.879   2.677   2.189
    1C        C  104   3.065   2.569   2.312
    1C        C  105   3.001   2.616   2.429
    1C        C  106   3.196   2.528   2.550
    1C        C  107   3.066   2.583   2.550
    1C        C  108   3.268   2.511   2.671
    1C        C  109   3.201   2.537   2.793
    1C        C  110   3.412   2.499   2.914
    1C        C  111   3.272   2.523   2.914
    1C        C  112   3.484   2.488   3.035
    1C        C  113   3.413   2.500   3.157
    1C        C  114   3.624   2.503   3.280
    1C        C  115   3.483   2.493   3.279
    1C        C  116   3.694   2.514   3.402
    1C        C  117   3.626   2.501   3.525
    1C        C  118   3.832   2.547   3.644
    1C        C  119   3.694   2.516   3.647
    1C        C  120   3.898   2.570   3.767
    1C        C  121   3.832   2.548   3.890
    1C        C  122   4.022   2.643   4.011
    1C        C  123   3.899   2.574   4.011
    1C        C  124   4.084   2.678   4.133
    1C        C  125   4.024   2.641   4.256
    1C        C  126   4.196   2.767   4.376
    1C        C  127   4.081   2.684   4.378
    1C        C  128   4.245   2.821   4.496
    1C        C  129   4.201   2.765   4.618
    1C        C  130   4.330   2.936   4.742
    1C        C  131   4.246   2.821   4.739
    1C        C  132   4.355   3.006   4.862
    1C        C  133   4.289   2.961   4.978
    1C        C  134   3.174   2.469   2.079
    1C        C  135   3.039   2.507   2.084
    1C        C  136   3.260   2.473   2.190
    1C        C  137   3.195   2.511   2.309
    1C        C  138   3.406   2.486   2.427
    1C        C  139   3.265   2.498   2.431
    1C        C  140   3.478   2.488   2.549
    1C        C  141   3.407   2.488   2.671
    1C        C  142   3.622   2.498   2.790
    1C        C  143   3.480   2.491   2.791
    1C        C  144   3.692   2.509   2.912
    1C        C  145   3.625   2.492   3.035
    1C        C  146   3.831   2.543   3.154
    1C        C  147   3.694   2.508   3.157
    1C        C  148   3.898   2.568   3.276
    1C        C  149   3.831   2.546   3.398
    1C        C  150   4.025   2.629   3.520
    1C        C  151   3.898   2.568   3.521
    1C        C  152   4.084   2.669   3.643
    1C        C  153   4.021   2.639   3.766
    1C        C  154   4.191   2.767   3.887
    1C        C  155   4.078   2.682   3.888
    1C        C  156   4.245   2.814   4.009
    1C        C  157   4.191   2.770   4.132
    1C        C  158   4.336   2.925   4.253
    1C        C  159   4.247   2.815   4.253
    1C        C  160   4.377   2.985   4.374
    1C        C  161   4.335   2.930   4.497
    1C        C  162   4.445   3.111   4.615
    1C        C  163   4.374   2.989   4.619
    1C        C  164   4.473   3.181   4.734
    1C        C  165   4.432   3.124   4.857
    1C        C  166   4.513   3.321   4.971
    1C        C  167   4.481   3.186   4.972
    1C        C  168   3.476   2.436   2.073
    1C        C  169   3.399   2.453   2.189
    1C        C  170   3.618   2.472   2.306
    1C        C  171   3.476   2.463   2.307
    1C        C  172   3.692   2.489   2.425
    1C        C  173   3.620   2.490   2.546
    1C        C  174   3.828   2.539   2.665
    1C        C  175   3.692   2.502   2.667
    1C        C  176   3.896   2.560   2.788
    1C        C  177   3.829   2.542   2.911
    1C        C  178   4.026   2.627   3.030
    1C        C  179   3.898   2.567   3.032
    1C        C  180   4.085   2.666   3.153
    1C        C  181   4.024   2.632   3.275
    1C        C  182   4.196   2.754   3.398
    1C        C  183   4.086   2.666   3.398
    1C        C  184   4.245   2.809   3.519
    1C        C  185   4.193   2.758   3.640
    1C        C  186   4.338   2.914   3.764
    1C        C  187   4.245   2.808   3.762
    1C        C  188   4.382   2.974   3.884
    1C        C  189   4.340   2.918   4.007
    1C        C  190   4.452   3.098   4.128
    1C        C  191   4.383   2.975   4.129
    1C        C  192   4.476   3.167   4.249
    1C        C  193   4.445   3.109   4.374
    1C        C  194   4.506   3.316   4.491
    1C        C  195   4.471   3.179   4.494
    1C        C  196   4.522   3.387   4.612
    1C        C  197   4.514   3.317   4.735
    1C        C  198   4.558   3.535   4.849
    1C        C  199   4.534   3.393   4.853
    1C        C  200   4.590   3.620   4.959
    1C        C  201   3.616   2.422   2.072
    1C        C  202   3.827   2.514   2.181
    1C        C  203   3.691   2.468   2.184
    1C        C  204   3.899   2.536   2.302
    1C        C  205   3.830   2.522   2.424
    1C        C  206   4.026   2.614   2.541
    1C        C  207   3.898   2.553   2.544
    1C        C  208   4.085   2.654   2.663
    1C        C  209   4.021   2.625   2.785
    1C        C  210   4.197   2.748   2.905
    1C        C  211   4.084   2.662   2.906
    1C        C  212   4.247   2.797   3.028
    1C        C  213   4.198   2.751   3.152
    1C        C  214   4.337   2.909   3.273
    1C        C  215   4.250   2.797   3.275
    1C        C  216   4.374   2.972   3.394
    1C        C  217   4.335   2.918   3.519
    1C        C  218   4.429   3.105   3.638
    1C        C  219   4.375   2.975   3.642
    1C        C  220   4.458   3.168   3.761
    1C        C  221   4.445   3.101   3.885
    1C        C  222   4.505   3.304   4.003
    1C        C  223   4.475   3.167   4.007
    1C        C  224   4.511   3.375   4.126
    1C        C  225   4.508   3.305   4.248
    1C        C  226   4.520   3.524   4.365
    1C        C  227   4.514   3.382   4.366
    1C        C  228   4.523   3.598   4.485
    1C        C  229   4.530   3.528   4.607
    1C        C  230   4.503   3.741   4.725
    1C        C  231   4.539   3.603   4.726
    1C        C  232   4.493   3.815   4.845
    1C        C  233   4.545   3.753   4.959
    1C        C  234   4.018   2.609   2.064
    1C        C  235   3.896   2.543   2.063
    1C        C  236   4.084   2.653   2.180
    1C        C  237   4.024   2.604   2.297
    1C        C  238   4.196   2.736   2.417
    1C        C  239   4.084   2.648   2.417
    1C        C  240   4.248   2.788   2.538
    1C        C  241   4.196   2.742   2.660
    1C        C  242   4.337   2.903   2.782
    1C        C  243   4.247   2.794   2.781
    1C        C  244   4.375   2.963   2.904
    1C        C  245   4.334   2.908   3.028
    1C        C  246   4.442   3.090   3.149
    1C        C  247   4.373   2.968   3.150
    1C        C  248   4.468   3.158   3.270
    1C        C  249   4.440   3.097   3.394
    1C        C  250   4.505   3.301   3.511
    1C        C  251   4.462   3.166   3.515
    1C        C  252   4.514   3.370   3.634
    1C        C  253   4.496   3.304   3.758
    1C        C  254   4.527   3.513   3.876
    1C        C  255   4.513   3.373   3.880
    1C        C  256   4.524   3.586   3.997
    1C        C  257   4.518   3.516   4.120
    1C        C  258   4.492   3.728   4.241
    1C        C  259   4.517   3.589   4.240
    1C        C  260   4.473   3.802   4.360
    1C        C  261   4.491   3.736   4.483
    1C        C  262   4.425   3.940   4.601
    1C        C  263   4.472   3.807   4.604
    1C        C  264   4.399   4.009   4.722
    1C        C  265   4.434   3.944   4.842
    1C        C  266   4.320   4.129   4.957
    1C        C  267   4.393   4.011   4.958
    1C        C  268   4.267   2.776   2.062
    1C        C  269   4.199   2.735   2.177
    1C        C  270   4.345   2.893   2.296
    1C        C  271   4.255   2.783   2.298
    1C        C  272   4.382   2.954   2.418
    1C        C  273   4.338   2.897   2.540
    1C        C  274   4.452   3.080   2.661
    1C        C  275   4.383   2.957   2.660
    1C        C  276   4.477   3.150   2.781
    1C        C  277   4.445   3.085   2.903
    1C        C  278   4.509   3.287   3.022
    1C        C  279   4.475   3.150   3.025
    1C        C  280   4.511   3.363   3.141
    1C        C  281   4.499   3.296   3.265
    1C        C  282   4.520   3.508   3.389
    1C        C  283   4.515   3.367   3.386
    1C        C  284   4.514   3.580   3.510
    1C        C  285   4.519   3.511   3.633
    1C        C  286   4.490   3.723   3.751
    1C        C  287   4.518   3.584   3.754
    1C        C  288   4.472   3.790   3.874
    1C        C  289   4.491   3.723   3.997
    1C        C  290   4.424   3.927   4.115
    1C        C  291   4.471   3.794   4.118
    1C        C  292   4.395   3.997   4.235
    1C        C  293   4.427   3.936   4.358
    1C        C  294   4.319   4.122   4.478
    1C        C  295   4.391   4.000   4.478
    1C        C  296   4.278   4.184   4.598
    1C        C  297   4.326   4.131   4.720
    1C        C  298   4.198   4.311   4.839
    1C        C  299   4.283   4.196   4.839
    1C        C  300   4.167   4.395   4.951
    1C        C  301   4.353   2.885   2.059
    1C        C  302   4.477   3.067   2.174
    1C        C  303   4.396   2.949   2.176
    1C        C  304   4.487   3.139   2.295
    1C        C  305   4.453   3.076   2.417
    1C        C  306   4.515   3.281   2.534
    1C        C  307   4.481   3.143   2.538
    1C        C  308   4.520   3.354   2.654
    1C        C  309   4.506   3.288   2.778
    1C        C  310   4.520   3.499   2.899
    1C        C  311   4.520   3.358   2.900
    1C        C  312   4.516   3.572   3.020
    1C        C  313   4.521   3.503   3.143
    1C        C  314   4.489   3.713   3.261
    1C        C  315   4.520   3.575   3.265
    1C        C  316   4.472   3.785   3.382
    1C        C  317   4.492   3.720   3.506
    1C        C  318   4.421   3.920   3.626
    1C        C  319   4.472   3.788   3.627
    1C        C  320   4.389   3.985   3.748
    1C        C  321   4.419   3.921   3.870
    1C        C  322   4.313   4.105   3.989
    1C        C  323   4.391   3.987   3.992
    1C        C  324   4.270   4.163   4.110
    1C        C  325   4.319   4.116   4.235
    1C        C  326   4.184   4.283   4.354
    1C        C  327   4.279   4.178   4.355
    1C        C  328   4.132   4.335   4.475
    1C        C  329   4.186   4.291   4.597
    1C        C  330   4.024   4.434   4.714
    1C        C  331   4.137   4.349   4.716
    1C        C  332   3.967   4.490   4.831
    1C        C  333   4.050   4.471   4.942
    1C        C  334   4.556   3.266   2.063
    1C        C  335   4.538   3.127   2.059
    1C        C  336   4.539   3.350   2.174
    1C        C  337   4.519   3.278   2.294
    1C        C  338   4.524   3.495   2.410
    1C        C  339   4.526   3.353   2.413
    1C        C  340   4.521   3.566   2.532
    1C        C  341   4.523   3.495   2.655
    1C        C  342   4.494   3.708   2.774
    1C        C  343   4.517   3.568   2.776
    1C        C  344   4.476   3.781   2.893
    1C        C  345   4.492   3.711   3.016
    1C        C  346   4.417   3.910   3.138
    1C        C  347   4.468   3.778   3.138
    1C        C  348   4.385   3.977   3.259
    1C        C  349   4.418   3.915   3.381
    1C        C  350   4.317   4.102   3.503
    1C        C  351   4.392   3.983   3.503
    1C        C  352   4.272   4.163   3.622
    1C        C  353   4.311   4.103   3.744
    1C        C  354   4.172   4.261   3.868
    1C        C  355   4.272   4.162   3.866
    1C        C  356   4.117   4.310   3.989
    1C        C  357   4.170   4.262   4.111
    1C        C  358   4.010   4.403   4.230
    1C        C  359   4.123   4.318   4.232
    1C        C  360   3.949   4.441   4.352
    1C        C  361   4.013   4.412   4.474
    1C        C  362   3.828   4.523   4.593
    1C        C  363   3.956   4.462   4.593
    1C        C  364   3.762   4.555   4.713
    1C        C  365   3.837   4.546   4.832
    1C        C  366   3.628   4.589   4.953
    1C        C  367   3.767   4.577   4.949
    1C        C  368   4.504   3.563   2.052
    1C        C  369   4.522   3.490   2.170
    1C        C  370   4.500   3.707   2.286
    1C        C  371   4.516   3.566   2.288
    1C        C  372   4.488   3.776   2.409
    1C        C  373   4.502   3.705   2.530
    1C        C  374   4.427   3.906   2.648
    1C        C  375   4.482   3.776   2.651
    1C        C  376   4.386   3.967   2.769
    1C        C  377   4.423   3.912   2.894
    1C        C  378   4.315   4.094   3.011
    1C        C  379   4.392   3.975   3.016
    1C        C  380   4.267   4.149   3.132
    1C        C  381   4.308   4.096   3.256
    1C        C  382   4.176   4.258   3.379
    1C        C  383   4.273   4.155   3.379
    1C        C  384   4.119   4.307   3.498
    1C        C  385   4.169   4.259   3.622
    1C        C  386   4.003   4.388   3.743
    1C        C  387   4.114   4.300   3.745
    1C        C  388   3.944   4.431   3.864
    1C        C  389   4.004   4.394   3.986
    1C        C  390   3.818   4.493   4.111
    1C        C  391   3.946   4.435   4.108
    1C        C  392   3.750   4.521   4.232
    1C        C  393   3.822   4.503   4.353
    1C        C  394   3.616   4.560   4.475
    1C        C  395   3.755   4.535   4.473
    1C        C  396   3.547   4.567   4.598
    1C        C  397   3.622   4.570   4.717
    1C        C  398   3.410   4.548   4.839
    1C        C  399   3.550   4.568   4.839
    1C        C  400   3.337   4.514   4.954
    1C        C  401   4.497   3.702   2.050
    1C        C  402   4.449   3.914   2.167
    1C        C  403   4.492   3.780   2.166
    1C        C  404   4.406   3.975   2.287
    1C        C  405   4.435   3.907   2.407
    1C        C  406   4.322   4.092   2.525
    1C        C  407   4.397   3.972   2.527
    1C        C  408   4.272   4.146   2.646
    1C        C  409   4.310   4.086   2.768
    1C        C  410   4.166   4.245   2.890
    1C        C  411   4.269   4.148   2.889
    1C        C  412   4.115   4.296   3.011
    1C        C  413   4.168   4.251   3.134
    1C        C  414   3.998   4.375   3.253
    1C        C  415   4.117   4.298   3.257
    1C        C  416   3.939   4.414   3.375
    1C        C  417   4.001   4.385   3.499
    1C        C  418   3.814   4.484   3.620
    1C        C  419   3.942   4.424   3.621
    1C        C  420   3.747   4.509   3.742
    1C        C  421   3.814   4.487   3.864
    1C        C  422   3.614   4.549   3.986
    1C        C  423   3.751   4.513   3.988
    1C        C  424   3.544   4.552   4.108
    1C        C  425   3.612   4.549   4.232
    1C        C  426   3.402   4.553   4.355
    1C        C  427   3.543   4.564   4.354
    1C        C  428   3.333   4.543   4.479
    1C        C  429   3.406   4.558   4.599
    1C        C  430   3.194   4.519   4.719
    1C        C  431   3.334   4.545   4.720
    1C        C  432   3.122   4.502   4.840
    1C        C  433   3.200   4.492   4.956
    1C        C  434   4.376   4.120   2.051
    1C        C  435   4.442   3.996   2.054
    1C        C  436   4.296   4.159   2.163
    1C        C  437   4.326   4.093   2.285
    1C        C  438   4.175   4.247   2.403
    1C        C  439   4.280   4.152   2.405
    1C        C  440   4.119   4.292   2.524
    1C        C  441   4.172   4.246   2.646
    1C        C  442   4.003   4.377   2.764
    1C        C  443   4.117   4.294   2.767
    1C        C  444   3.942   4.415   2.886
    1C        C  445   4.000   4.378   3.010
    1C        C  446   3.811   4.477   3.129
    1C        C  447   3.938   4.414   3.132
    1C        C  448   3.749   4.503   3.253
    1C        C  449   3.812   4.477   3.377
    1C        C  450   3.608   4.539   3.495
    1C        C  451   3.746   4.506   3.498
    1C        C  452   3.540   4.547   3.618
    1C        C  453   3.609   4.540   3.741
    1C        C  454   3.400   4.548   3.865
    1C        C  455   3.541   4.555   3.865
    1C        C  456   3.332   4.535   3.988
    1C        C  457   3.403   4.548   4.110
    1C        C  458   3.198   4.496   4.235
    1C        C  459   3.333   4.536   4.233
    1C        C  460   3.128   4.482   4.358
    1C        C  461   3.196   4.513   4.478
    1C        C  462   2.996   4.434   4.602
    1C        C  463   3.124   4.494   4.599
    1C        C  464   2.932   4.399   4.723
    1C        C  465   2.989   4.448   4.844
    1C        C  466   2.801   4.337   4.958
    1C        C  467   2.910   4.426   4.961
    1C        C  468   4.122   4.285   2.040
    1C        C  469   4.185   4.249   2.159
    1C        C  470   4.007   4.375   2.276
    1C        C  471   4.126   4.295   2.280
    1C        C  472   3.941   4.403   2.398
    1C        C  473   4.003   4.374   2.521
    1C        C  474   3.811   4.466   2.641
    1C        C  475   3.942   4.414   2.642
    1C        C  476   3.746   4.494   2.763
    1C        C  477   3.816   4.480   2.885
    1C        C  478   3.608   4.527   3.008
    1C        C  479   3.746   4.500   3.006
    1C        C  480   3.536   4.537   3.129
    1C        C  481   3.610   4.529   3.250
    1C        C  482   3.398   4.542   3.375
    1C        C  483   3.540   4.544   3.372
    1C        C  484   3.329   4.537   3.498
    1C        C  485   3.399   4.549   3.620
    1C        C  486   3.194   4.500   3.743
    1C        C  487   3.330   4.540   3.743
    1C        C  488   3.133   4.473   3.867
    1C        C  489   3.196   4.497   3.991
    1C        C  490   3.003   4.412   4.114
    1C        C  491   3.130   4.473   4.113
    1C        C  492   2.944   4.380   4.238
    1C        C  493   3.002   4.419   4.361
    1C        C  494   2.827   4.299   4.483
    1C        C  495   2.939   4.384   4.483
    1C        C  496   2.769   4.256   4.604
    1C        C  497   2.822   4.309   4.724
    1C        C  498   2.664   4.164   4.844
    1C        C  499   2.759   4.268   4.844
    1C        C  500   2.591   4.117   4.955
    1C        C  501   4.007   4.364   2.039
    1C        C  502   3.813   4.463   2.152
    1C        C  503   3.942   4.406   2.155
    1C        C  504   3.747   4.486   2.274
    1C        C  505   3.810   4.455   2.397
    1C        C  506   3.606   4.514   2.520
    1C        C  507   3.745   4.489   2.518
    1C        C  508   3.535   4.523   2.642
    1C        C  509   3.608   4.520   2.763
    1C        C  510   3.396   4.536   2.884
    1C        C  511   3.538   4.533   2.885
    1C        C  512   3.326   4.527   3.006
    1C        C  513   3.395   4.539   3.129
    1C        C  514   3.192   4.492   3.255
    1C        C  515   3.328   4.530   3.253
    1C        C  516   3.126   4.468   3.377
    1C        C  517   3.194   4.493   3.499
    1C        C  518   3.003   4.406   3.626
    1C        C  519   3.127   4.474   3.621
    1C        C  520   2.944   4.369   3.748
    1C        C  521   3.008   4.406   3.869
    1C        C  522   2.839   4.278   3.994
    1C        C  523   2.948   4.368   3.991
    1C        C  524   2.794   4.230   4.118
    1C        C  525   2.837   4.288   4.240
    1C        C  526   2.699   4.128   4.362
    1C        C  527   2.782   4.242   4.362
    1C        C  528   2.653   4.076   4.485
    1C        C  529   2.680   4.146   4.605
    1C        C  530   2.578   3.961   4.731
    1C        C  531   2.635   4.091   4.727
    1C        C  532   2.542   3.901   4.855
    1C        C  533   2.523   3.994   4.962
    1C        C  534   3.614   4.553   2.037
    1C        C  535   3.744   4.501   2.035
    1C        C  536   3.535   4.535   2.155
    1C        C  537   3.607   4.513   2.276
    1C        C  538   3.395   4.515   2.398
    1C        C  539   3.536   4.521   2.398
    1C        C  540   3.322   4.509   2.519
    1C        C  541   3.394   4.522   2.639
    1C        C  542   3.189   4.484   2.765
    1C        C  543   3.325   4.522   2.763
    1C        C  544   3.126   4.461   2.889
    1C        C  545   3.190   4.489   3.012
    1C        C  546   2.998   4.401   3.131
    1C        C  547   3.123   4.467   3.134
    1C        C  548   2.946   4.361   3.257
    1C        C  549   3.002   4.401   3.380
    1C        C  550   2.835   4.275   3.505
    1C        C  551   2.943   4.366   3.504
    1C        C  552   2.784   4.228   3.628
    1C        C  553   2.834   4.281   3.749
    1C        C  554   2.699   4.118   3.873
    1C        C  555   2.786   4.229   3.872
    1C        C  556   2.661   4.061   3.997
    1C        C  557   2.705   4.120   4.117
    1C        C  558   2.595   3.942   4.246
    1C        C  559   2.665   4.064   4.241
    1C        C  560   2.565   3.880   4.370
    1C        C  561   2.589   3.951   4.490
    1C        C  562   2.535   3.748   4.614
    1C        C  563   2.559   3.887   4.612
    1C        C  564   2.519   3.682   4.738
    1C        C  565   2.528   3.758   4.858
    1C        C  566   2.528   3.543   4.977
    1C        C  567   2.524   3.682   4.975
    1C        C  568   3.325   4.482   2.039
    1C        C  569   3.396   4.508   2.157
    1C        C  570   3.183   4.471   2.278
    1C        C  571   3.321   4.502   2.278
    1C        C  572   3.117   4.452   2.401
    1C        C  573   3.184   4.479   2.522
    1C        C  574   2.989   4.403   2.648
    1C        C  575   3.117   4.462   2.645
    1C        C  576   2.934   4.360   2.770
    1C        C  577   2.998   4.400   2.889
    1C        C  578   2.830   4.269   3.014
    1C        C  579   2.938   4.360   3.010
    1C        C  580   2.783   4.219   3.138
    1C        C  581   2.836   4.273   3.257
    1C        C  582   2.702   4.113   3.383
    1C        C  583   2.787   4.227   3.381
    1C        C  584   2.664   4.054   3.505
    1C        C  585   2.699   4.116   3.628
    1C        C  586   2.593   3.935   3.751
    1C        C  587   2.656   4.062   3.751
    1C        C  588   2.572   3.871   3.875
    1C        C  589   2.596   3.936   3.998
    1C        C  590   2.536   3.739   4.125
    1C        C  591   2.571   3.875   4.124
    1C        C  592   2.524   3.672   4.249
    1C        C  593   2.529   3.744   4.371
    1C        C  594   2.515   3.534   4.496
    1C        C  595   2.519   3.675   4.494
    1C        C  596   2.520   3.466   4.620
    1C        C  597   2.517   3.540   4.740
    1C        C  598   2.532   3.326   4.860
    1C        C  599   2.522   3.467   4.860
    1C        C  600   2.523   3.246   4.975
    1C        C  601   3.196   4.433   2.043
    1C        C  602   2.980   4.393   2.159
    1C        C  603   3.115   4.440   2.157
    1C        C  604   2.919   4.362   2.284
    1C        C  605   2.987   4.396   2.403
    1C        C  606   2.823   4.267   2.530
    1C        C  607   2.928   4.362   2.527
    1C        C  608   2.770   4.219   2.652
    1C        C  609   2.827   4.268   2.772
    1C        C  610   2.685   4.109   2.897
    1C        C  611   2.776   4.217   2.894
    1C        C  612   2.650   4.052   3.021
    1C        C  613   2.693   4.110   3.142
    1C        C  614   2.587   3.927   3.265
    1C        C  615   2.657   4.050   3.265
    1C        C  616   2.563   3.867   3.390
    1C        C  617   2.594   3.932   3.511
    1C        C  618   2.522   3.730   3.638
    1C        C  619   2.564   3.865   3.632
    1C        C  620   2.511   3.663   3.761
    1C        C  621   2.533   3.736   3.880
    1C        C  622   2.514   3.527   4.012
    1C        C  623   2.520   3.668   4.004
    1C        C  624   2.516   3.456   4.134
    1C        C  625   2.516   3.531   4.254
    1C        C  626   2.538   3.320   4.377
    1C        C  627   2.520   3.460   4.376
    1C        C  628   2.559   3.254   4.500
    1C        C  629   2.542   3.326   4.621
    1C        C  630   2.595   3.118   4.742
    1C        C  631   2.549   3.252   4.741
    1C        C  632   2.617   3.050   4.865
    1C        C  633   2.560   3.111   4.981
    1C        C  634   2.776   4.303   2.053
    1C        C  635   2.893   4.380   2.046
    1C        C  636   2.744   4.231   2.169
    1C        C  637   2.808   4.273   2.287
    1C        C  638   2.680   4.107   2.409
    1C        C  639   2.766   4.218   2.411
    1C        C  640   2.641   4.048   2.531
    1C        C  641   2.682   4.108   2.652
    1C        C  642   2.588   3.921   2.778
    1C        C  643   2.645   4.050   2.775
    1C        C  644   2.564   3.857   2.902
    1C        C  645   2.590   3.924   3.023
    1C        C  646   2.523   3.721   3.149
    1C        C  647   2.562   3.857   3.145
    1C        C  648   2.516   3.654   3.273
    1C        C  649   2.530   3.729   3.392
    1C        C  650   2.515   3.520   3.520
    1C        C  651   2.516   3.661   3.514
    1C        C  652   2.517   3.450   3.643
    1C        C  653   2.508   3.522   3.765
    1C        C  654   2.532   3.317   3.886
    1C        C  655   2.510   3.456   3.890
    1C        C  656   2.555   3.252   4.009
    1C        C  657   2.541   3.317   4.134
    1C        C  658   2.609   3.118   4.258
    1C        C  659   2.557   3.249   4.257
    1C        C  660   2.636   3.053   4.381
    1C        C  661   2.607   3.121   4.501
    1C        C  662   2.709   2.934   4.625
    1C        C  663   2.636   3.055   4.622
    1C        C  664   2.750   2.875   4.747
    1C        C  665   2.700   2.933   4.867
    1C        C  666   2.744   2.869   4.984
    1C        C  667   2.673   4.029   2.052
    1C        C  668   2.677   4.106   2.168
    1C        C  669   2.589   3.911   2.291
    1C        C  670   2.638   4.044   2.289
    1C        C  671   2.560   3.849   2.414
    1C        C  672   2.583   3.919   2.534
    1C        C  673   2.516   3.719   2.660
    1C        C  674   2.558   3.854   2.657
    1C        C  675   2.504   3.651   2.783
    1C        C  676   2.525   3.721   2.904
    1C        C  677   2.506   3.511   3.029
    1C        C  678   2.512   3.652   3.026
    1C        C  679   2.504   3.444   3.154
    1C        C  680   2.505   3.513   3.277
    1C        C  681   2.530   3.305   3.402
    1C        C  682   2.507   3.445   3.400
    1C        C  683   2.552   3.238   3.524
    1C        C  684   2.535   3.310   3.644
    1C        C  685   2.605   3.111   3.770
    1C        C  686   2.555   3.244   3.767
    1C        C  687   2.635   3.051   3.894
    1C        C  688   2.605   3.120   4.014
    1C        C  689   2.715   2.936   4.137
    1C        C  690   2.643   3.057   4.135
    1C        C  691   2.754   2.878   4.260
    1C        C  692   2.714   2.935   4.383
    1C        C  693   2.753   2.876   4.505
    1C        C  694   2.622   3.898   2.055
    1C        C  695   2.527   3.704   2.174
    1C        C  696   2.575   3.837   2.171
    1C        C  697   2.507   3.639   2.297
    1C        C  698   2.520   3.713   2.417
    1C        C  699   2.489   3.506   2.541
    1C        C  700   2.504   3.646   2.540
    1C        C  701   2.506   3.437   2.664
    1C        C  702   2.497   3.509   2.784
    1C        C  703   2.529   3.301   2.911
    1C        C  704   2.502   3.440   2.907
    1C        C  705   2.542   3.233   3.034
    1C        C  706   2.526   3.304   3.155
    1C        C  707   2.595   3.105   3.276
    1C        C  708   2.546   3.238   3.279
    1C        C  709   2.632   3.045   3.398
    1C        C  710   2.608   3.108   3.523
    1C        C  711   2.715   2.931   3.648
    1C        C  712   2.637   3.049   3.648
    1C        C  713   2.758   2.878   3.771
    1C        C  714   2.713   2.934   3.893
    1C        C  715   2.758   2.879   4.015
    1C        C  716   2.455   3.499   2.061
    1C        C  717   2.490   3.635   2.058
    1C        C  718   2.468   3.421   2.180
    1C        C  719   2.487   3.498   2.298
    1C        C  720   2.517   3.292   2.425
    1C        C  721   2.486   3.430   2.422
    1C        C  722   2.537   3.223   2.547
    1C        C  723   2.528   3.297   2.666
    1C        C  724   2.597   3.099   2.789
    1C        C  725   2.546   3.231   2.790
    1C        C  726   2.627   3.035   2.912
    1C        C  727   2.592   3.101   3.032
    1C        C  728   2.712   2.927   3.157
    1C        C  729   2.632   3.043   3.154
    1C        C  730   2.758   2.875   3.280
    1C        C  731   2.715   2.931   3.403
    1C        C  732   2.757   2.875   3.525
    1C        C  733   2.490   3.199   2.070
    1C        C  734   2.492   3.280   2.185
    1C        C  735   2.582   3.085   2.305
    1C        C  736   2.524   3.215   2.307
    1C        C  737   2.615   3.022   2.427
    1C        C  738   2.585   3.090   2.547
    1C        C  739   2.699   2.910   2.669
    1C        C  740   2.622   3.029   2.669
    1C        C  741   2.743   2.853   2.790
    1C        C  742   2.700   2.915   2.910
    1C        C  743   2.746   2.866   3.034
    1C        C  744   2.537   3.068   2.073
    1C        C  745   2.681   2.897   2.187
    1C        C  746   2.601   3.014   2.185
    1C        C  747   2.728   2.838   2.306
    1C        C  748   2.685   2.899   2.425
    1C        C  749   2.737   2.850   2.547
    1C        C  750   2.733   2.833   2.073
    1C        C  751   3.674   2.317   1.985
    1C        O  752   3.690   2.200   2.029
    1C        O  753   3.728   2.343   1.858
    1C        C  754   4.633   3.057   1.970
    1C        O  755   4.609   3.055   1.846
    1C        O  756   4.761   3.030   2.020
    1C        C  757   4.420   4.215   1.947
    1C        O  758   4.478   4.322   1.979
    1C        O  759   4.375   4.218   1.814
    1C        C  760   3.596   4.680   1.964
    1C        O  761   3.653   4.787   1.999
    1C        O  762   3.540   4.676   1.836
    1C        C  763   2.894   4.474   1.932
    1C        O  764   2.949   4.445   1.822
    1C        O  765   2.804   4.581   1.924
    1C        C  766   2.339   3.474   1.973
    1C        O  767   2.334   3.439   1.852
    1C        O  768   2.214   3.524   2.012
    1C        C  769   4.705   3.600   5.050
    1C        O  770   4.709   3.577   5.174
    1C        O  771   4.831   3.636   5.000
    1C        C  772   4.275   4.475   5.013
    1C        O  773   4.350   4.452   5.112
    1C        O  774   4.336   4.578   4.940
    1C        C  775   4.144   2.509   5.064
    1C        O  776   4.227   2.424   5.021
    1C        O  777   4.157   2.531   5.202
    1C        C  778   2.903   4.522   5.073
    1C        O  779   2.849   4.635   5.087
    1C        O  780   2.915   4.469   5.202
    1C        C  781   2.459   3.042   5.064
    1C        O  782   2.356   2.976   5.034
    1C        O  783   2.476   3.030   5.201
    1C        C  784   2.394   3.990   5.034
    1C        O  785   2.293   4.054   4.994
    1C        O  786   2.402   3.979   5.173
    1C        C  787   2.949   2.436   1.990
    1C        O  788   2.965   2.450   1.866
    1C        O  789   2.895   2.315   2.031
    1C        C  790   3.175   2.355   5.043
    1C        O  791   3.181   2.249   4.975
    1C        O  792   3.191   2.334   5.181
    1C        H  793   4.244   3.042   5.032
    1C        H  794   4.212   2.789   5.068
    1C        H  795   4.516   3.126   5.054
    1C        H  796   4.487   3.382   5.056
    1C        H  797   4.538   3.801   5.054
    1C        H  798   4.400   3.969   5.056
    1C        H  799   4.320   4.187   5.047
    1C        H  800   4.025   4.532   5.027
    1C        H  801   3.818   4.632   5.025
    1C        H  802   3.579   4.640   5.033
    1C        H  803   3.392   4.469   5.034
    1C        H  804   3.159   4.503   5.054
    1C        H  805   3.876   2.530   5.071
    1C        H  806   3.681   2.456   5.069
    1C        H  807   2.998   2.544   5.067
    1C        H  808   3.438   2.458   5.072
    1C        H  809   2.875   2.735   5.079
    1C        H  810   2.737   2.928   5.073
    1C        H  811   2.487   3.292   5.065
    1C        H  812   2.591   3.506   5.055
    1C        H  813   2.511   3.736   5.067
    1C        H  814   2.598   4.169   5.048
    1C        H  815   2.733   4.344   5.040
    1C        H  816   2.696   2.856   1.975
    1C        H  817   2.878   2.710   1.981
    1C        H  818   3.214   2.460   1.981
    1C        H  819   3.432   2.475   1.984
    1C        H  820   3.836   2.556   1.975
    1C        H  821   4.056   2.641   1.969
    1C        H  822   4.282   2.708   1.981
    1C        H  823   4.401   2.912   1.967
    1C        H  824   4.601   3.313   1.978
    1C        H  825   4.523   3.513   1.959
    1C        H  826   4.492   3.750   1.954
    1C        H  827   3.802   4.520   1.947
    1C        H  828   3.940   4.341   1.959
    1C        H  829   4.139   4.223   1.954
    1C        H  830   4.456   3.952   1.957
    1C        H  831   2.653   3.835   1.974
    1C        H  832   2.710   4.061   1.957
    1C        H  833   2.700   4.324   1.981
    1C        H  834   3.353   4.523   1.944
    1C        H  835   3.157   4.410   1.946
    1C        H  836   2.484   3.002   2.009
    1C        H  837   2.407   3.219   2.006
    1C        H  838   2.471   3.685   1.965
    2V3OU   H29  839   2.800   3.547   1.582
    2V3OU   C27  840   2.782   3.499   1.681
    2V3OU   H27  841   2.721   3.575   1.737
    2V3OU   H28  842   2.722   3.405   1.679
    2V3OU   O11  843   2.911   3.478   1.741
    2V3OU   C15  844   2.922   3.396   1.851
    2V3OU   C13  845   3.052   3.377   1.902
    2V3OU   C14  846   3.077   3.266   1.983
    2V3OU   C16  847   2.974   3.181   2.024
    2V3OU    H6  848   2.991   3.105   2.102
    2V3OU   C12  849   3.211   3.227   2.030
    2V3OU    O2  850   3.238   3.123   2.094
    2V3OU   C10  851   3.325   3.305   1.980
    2V3OU    C8  852   3.457   3.270   2.006
    2V3OU   O10  853   3.491   3.147   2.052
    2V3OU   H26  854   3.404   3.107   2.070
    2V3OU    C6  855   3.565   3.351   1.959
    2V3OU    C5  856   3.539   3.467   1.888
    2V3OU    C4  857   3.704   3.296   1.953
    2V3OU    H4  858   3.718   3.229   2.043
    2V3OU    H5  859   3.712   3.228   1.863
    2V3OU    C2  860   3.816   3.399   1.958
    2V3OU    O6  861   3.810   3.476   2.078
    2V3OU   H21  862   3.766   3.559   2.057
    2V3OU    C3  863   3.783   3.499   1.846
    2V3OU    H2  864   3.865   3.575   1.842
    2V3OU    H3  865   3.785   3.435   1.754
    2V3OU   C25  866   3.951   3.329   1.944
    2V3OU    O7  867   3.987   3.296   1.831
    2V3OU   C26  868   4.035   3.283   2.062
    2V3OU   H22  869   4.073   3.372   2.117
    2V3OU   H23  870   4.123   3.224   2.025
    2V3OU    O8  871   3.964   3.203   2.154
    2V3OU   H24  872   3.930   3.265   2.220
    2V3OU    C1  873   3.648   3.567   1.858
    2V3OU    H1  874   3.627   3.618   1.759
    2V3OU    O3  875   3.661   3.658   1.968
    2V3OU   C19  876   3.619   3.792   1.943
    2V3OU    H9  877   3.518   3.803   1.894
    2V3OU    O4  878   3.717   3.848   1.860
    2V3OU   C20  879   3.847   3.871   1.916
    2V3OU   H10  880   3.889   3.767   1.933
    2V3OU   C24  881   3.610   3.855   2.082
    2V3OU   H16  882   3.543   3.791   2.146
    2V3OU   H17  883   3.559   3.953   2.063
    2V3OU   C23  884   3.749   3.870   2.142
    2V3OU   H15  885   3.793   3.767   2.164
    2V3OU    N1  886   3.739   3.951   2.262
    2V3OU   H19  887   3.804   3.921   2.332
    2V3OU   H20  888   3.647   3.929   2.293
    2V3OU   C21  889   3.847   3.948   2.049
    2V3OU   H11  890   3.955   3.930   2.080
    2V3OU    O5  891   3.825   4.088   2.051
    2V3OU   H18  892   3.777   4.100   2.135
    2V3OU   C22  893   3.914   3.949   1.804
    2V3OU   H12  894   3.858   4.045   1.786
    2V3OU   H13  895   3.909   3.890   1.709
    2V3OU   H14  896   4.021   3.969   1.828
    2V3OU   C11  897   3.161   3.471   1.875
    2V3OU    O1  898   3.143   3.581   1.819
    2V3OU    C9  899   3.298   3.423   1.905
    2V3OU    C7  900   3.403   3.503   1.861
    2V3OU    O9  901   3.387   3.610   1.776
    2V3OU   H25  902   3.291   3.625   1.773
    2V3OU   C17  903   2.817   3.314   1.897
    2V3OU    H7  904   2.715   3.350   1.912
    2V3OU   C18  905   2.844   3.207   1.982
    2V3OU    H8  906   2.765   3.142   2.021
    3SOL     OW  907   2.103   4.446   1.173
    3SOL    HW1  908   2.159   4.527   1.159
    3SOL    HW2  909   2.006   4.469   1.162
    4SOL     OW  910   6.370   6.432   1.849
    4SOL    HW1  911   6.390   6.506   1.914
    4SOL    HW2  912   6.277   6.399   1.864
    5SOL     OW  913   4.238   1.332   1.764
    5SOL    HW1  914   4.199   1.421   1.789
    5SOL    HW2  915   4.234   1.321   1.665
    6SOL     OW  916   3.717   2.100   2.337
    6SOL    HW1  917   3.665   2.174   2.293
    6SOL    HW2  918   3.797   2.078   2.282
    7SOL     OW  919   5.936   2.289   1.995
    7SOL    HW1  920   5.941   2.189   1.996
    7SOL    HW2  921   5.945   2.324   2.088
    8SOL     OW  922   2.296   6.706   4.927
    8SOL    HW1  923   2.336   6.780   4.872
    8SOL    HW2  924   2.269   6.631   4.867
    9SOL     OW  925   1.656   5.869   6.000
    9SOL    HW1  926   1.686   5.955   6.039
    9SOL    HW2  927   1.668   5.871   5.901
   10SOL     OW  928   0.318   4.880   6.164
   10SOL    HW1  929   0.354   4.962   6.208
   10SOL    HW2  930   0.218   4.883   6.163
   11SOL     OW  931   3.231   0.221   0.484
   11SOL    HW1  932   3.235   0.212   0.384
   11SOL    HW2  933   3.174   0.148   0.521
   12SOL     OW  934   4.581   5.937   3.346
   12SOL    HW1  935   4.647   5.961   3.275
   12SOL    HW2  936   4.504   5.888   3.305
   13SOL     OW  937   3.098   6.308   4.090
   13SOL    HW1  938   3.100   6.367   4.009
   13SOL    HW2  939   3.150   6.225   4.071
   14SOL     OW  940   3.571   5.772   6.320
   14SOL    HW1  941   3.482   5.747   6.359
   14SOL    HW2  942   3.644   5.745   6.383
   15SOL     OW  943   1.292   6.001   0.480
   15SOL    HW1  944   1.375   6.044   0.444
   15SOL    HW2  945   1.304   5.985   0.578
   16SOL     OW  946   6.432   2.099   6.024
   16SOL    HW1  947   6.461   2.141   5.938
   16SOL    HW2  948   6.456   2.159   6.101
   17SOL     OW  949   5.200   6.157   4.300
   17SOL    HW1  950   5.162   6.073   4.262
   17SOL    HW2  951   5.282   6.135   4.353
   18SOL     OW  952   2.771   2.287   6.165
   18SOL    HW1  953   2.721   2.373   6.155
   18SOL    HW2  954   2.708   2.214   6.191
   19SOL     OW  955   6.973   0.022   3.437
   19SOL    HW1  956   6.885   0.066   3.419
   19SOL    HW2  957   6.961   6.946   3.446
   20SOL     OW  958   3.594   1.074   4.125
   20SOL    HW1  959   3.653   1.006   4.083
   20SOL    HW2  960   3.607   1.073   4.224
   21SOL     OW  961   2.923   1.828   2.278
   21SOL    HW1  962   2.877   1.740   2.288
   21SOL    HW2  963   2.857   1.902   2.293
   22SOL     OW  964   1.942   0.176   0.085
   22SOL    HW1  965   1.851   0.154   0.050
   22SOL    HW2  966   1.981   0.251   0.032
   23SOL     OW  967   4.617   6.970   3.695
   23SOL    HW1  968   4.518   6.983   3.707
   23SOL    HW2  969   4.638   6.955   3.599
   24SOL     OW  970   5.406   1.264   4.503
   24SOL    HW1  971   5.309   1.239   4.495
   24SOL    HW2  972   5.425   1.341   4.442
   25SOL     OW  973   2.878   6.038   6.940
   25SOL    HW1  974   2.908   5.949   6.978
   25SOL    HW2  975   2.884   6.035   6.840
   26SOL     OW  976   6.402   0.923   1.474
   26SOL    HW1  977   6.439   1.006   1.515
   26SOL    HW2  978   6.350   0.946   1.392
   27SOL     OW  979   0.142   0.473   2.372
   27SOL    HW1  980   0.045   0.449   2.373
   27SOL    HW2  981   0.182   0.458   2.463
   28SOL     OW  982   4.269   0.580   6.677
   28SOL    HW1  983   4.276   0.679   6.691
   28SOL    HW2  984   4.224   0.562   6.590
   29SOL     OW  985   4.867   2.320   2.074
   29SOL    HW1  986   4.931   2.243   2.064
   29SOL    HW2  987   4.782   2.297   2.027
   30SOL     OW  988   2.744   6.842   6.051
   30SOL    HW1  989   2.796   6.866   6.133
   30SOL    HW2  990   2.771   6.752   6.019
   31SOL     OW  991   0.781   0.957   5.663
   31SOL    HW1  992   0.710   1.007   5.614
   31SOL    HW2  993   0.783   0.862   5.631
   32SOL     OW  994   0.608   2.577   2.900
   32SOL    HW1  995   0.619   2.672   2.868
   32SOL    HW2  996   0.686   2.523   2.869
   33SOL     OW  997   1.877   2.792   6.326
   33SOL    HW1  998   1.837   2.882   6.309
   33SOL    HW2  999   1.849   2.760   6.417
   34SOL     OW 1000   1.953   0.296   5.040
   34SOL    HW1 1001   1.922   0.391   5.042
   34SOL    HW2 1002   1.877   0.236   5.065
   35SOL     OW 1003   4.354   2.226   6.176
   35SOL    HW1 1004   4.299   2.175   6.110
   35SOL    HW2 1005   4.423   2.165   6.216
   36SOL     OW 1006   0.664   0.729   6.441
   36SOL    HW1 1007   0.673   0.786   6.522
   36SOL    HW2 1008   0.611   0.777   6.371
   37SOL     OW 1009   2.104   6.593   1.496
   37SOL    HW1 1010   2.165   6.655   1.446
   37SOL    HW2 1011   2.011   6.631   1.497
   38SOL     OW 1012   6.977   6.363   2.684
   38SOL    HW1 1013   7.014   6.316   2.604
   38SOL    HW2 1014   7.020   6.327   2.767
   39SOL     OW 1015   6.490   4.047   6.156
   39SOL    HW1 1016   6.470   3.999   6.241
   39SOL    HW2 1017   6.589   4.048   6.140
   40SOL     OW 1018   5.961   2.325   2.291
   40SOL    HW1 1019   5.966   2.239   2.341
   40SOL    HW2 1020   5.897   2.387   2.338
   41SOL     OW 1021   2.182   6.459   4.466
   41SOL    HW1 1022   2.140   6.549   4.475
   41SOL    HW2 1023   2.116   6.389   4.493
   42SOL     OW 1024   3.187   6.731   5.980
   42SOL    HW1 1025   3.195   6.817   6.031
   42SOL    HW2 1026   3.276   6.686   5.976
   43SOL     OW 1027   5.716   5.876   5.701
   43SOL    HW1 1028   5.724   5.778   5.714
   43SOL    HW2 1029   5.641   5.895   5.636
   44SOL     OW 1030   6.988   2.570   6.400
   44SOL    HW1 1031   6.964   2.665   6.417
   44SOL    HW2 1032   6.989   2.520   6.486
   45SOL     OW 1033   3.432   0.463   2.760
   45SOL    HW1 1034   3.337   0.435   2.773
   45SOL    HW2 1035   3.478   0.463   2.849
   46SOL     OW 1036   0.668   3.653   4.475
   46SOL    HW1 1037   0.699   3.566   4.436
   46SOL    HW2 1038   0.731   3.726   4.447
   47SOL     OW 1039   6.369   3.323   3.951
   47SOL    HW1 1040   6.422   3.261   3.893
   47SOL    HW2 1041   6.359   3.411   3.904
   48SOL     OW 1042   0.599   2.340   5.121
   48SOL    HW1 1043   0.524   2.368   5.181
   48SOL    HW2 1044   0.571   2.350   5.026
   49SOL     OW 1045   4.858   3.961   1.675
   49SOL    HW1 1046   4.770   3.990   1.637
   49SOL    HW2 1047   4.869   3.998   1.767
   50SOL     OW 1048   6.767   3.319   4.695
   50SOL    HW1 1049   6.807   3.402   4.732
   50SOL    HW2 1050   6.808   3.299   4.606
   51SOL     OW 1051   3.059   5.397   2.635
   51SOL    HW1 1052   2.980   5.450   2.663
   51SOL    HW2 1053   3.142   5.436   2.676
   52SOL     OW 1054   3.240   1.834   3.104
   52SOL    HW1 1055   3.263   1.931   3.109
   52SOL    HW2 1056   3.187   1.808   3.185
   53SOL     OW 1057   4.687   0.529   3.752
   53SOL    HW1 1058   4.705   0.574   3.665
   53SOL    HW2 1059   4.704   0.430   3.743
   54SOL     OW 1060   2.989   4.832   6.401
   54SOL    HW1 1061   2.900   4.786   6.394
   54SOL    HW2 1062   3.032   4.807   6.487
   55SOL     OW 1063   3.842   1.489   5.946
   55SOL    HW1 1064   3.747   1.519   5.949
   55SOL    HW2 1065   3.846   1.389   5.944
   56SOL     OW 1066   1.920   0.490   1.860
   56SOL    HW1 1067   1.961   0.549   1.790
   56SOL    HW2 1068   1.905   0.543   1.943
   57SOL     OW 1069   5.125   0.413   0.649
   57SOL    HW1 1070   5.203   0.402   0.587
   57SOL    HW2 1071   5.112   0.330   0.703
   58SOL     OW 1072   0.153   5.947   6.958
   58SOL    HW1 1073   0.182   6.042   6.966
   58SOL    HW2 1074   0.217   5.897   6.900
   59SOL     OW 1075   1.577   0.613   6.380
   59SOL    HW1 1076   1.621   0.533   6.339
   59SOL    HW2 1077   1.642   0.689   6.383
   60SOL     OW 1078   5.019   0.601   6.121
   60SOL    HW1 1079   5.118   0.593   6.107
   60SOL    HW2 1080   4.987   0.525   6.177
   61SOL     OW 1081   4.869   0.494   4.218
   61SOL    HW1 1082   4.959   0.471   4.181
   61SOL    HW2 1083   4.809   0.525   4.144
   62SOL     OW 1084   0.901   0.663   3.814
   62SOL    HW1 1085   0.815   0.612   3.819
   62SOL    HW2 1086   0.976   0.600   3.792
   63SOL     OW 1087   6.420   2.220   3.463
   63SOL    HW1 1088   6.347   2.279   3.427
   63SOL    HW2 1089   6.424   2.136   3.410
   64SOL     OW 1090   6.793   3.776   6.324
   64SOL    HW1 1091   6.741   3.853   6.362
   64SOL    HW2 1092   6.744   3.690   6.343
   65SOL     OW 1093   6.409   4.011   5.471
   65SOL    HW1 1094   6.411   4.110   5.463
   65SOL    HW2 1095   6.482   3.971   5.414
   66SOL     OW 1096   3.381   0.908   6.707
   66SOL    HW1 1097   3.299   0.854   6.725
   66SOL    HW2 1098   3.448   0.892   6.780
   67SOL     OW 1099   5.711   6.279   5.461
   67SOL    HW1 1100   5.636   6.221   5.493
   67SOL    HW2 1101   5.776   6.223   5.410
   68SOL     OW 1102   6.008   1.449   6.623
   68SOL    HW1 1103   6.048   1.382   6.685
   68SOL    HW2 1104   6.007   1.412   6.530
   69SOL     OW 1105   1.291   4.330   6.318
   69SOL    HW1 1106   1.375   4.370   6.354
   69SOL    HW2 1107   1.214   4.389   6.342
   70SOL     OW 1108   6.690   5.643   2.819
   70SOL    HW1 1109   6.701   5.552   2.779
   70SOL    HW2 1110   6.602   5.681   2.792
   71SOL     OW 1111   2.994   2.245   3.615
   71SOL    HW1 1112   2.975   2.341   3.632
   71SOL    HW2 1113   2.927   2.209   3.549
   72SOL     OW 1114   2.775   5.983   4.140
   72SOL    HW1 1115   2.804   5.927   4.217
   72SOL    HW2 1116   2.770   6.079   4.169
   73SOL     OW 1117   3.352   2.370   6.996
   73SOL    HW1 1118   3.292   2.450   7.006
   73SOL    HW2 1119   3.297   2.288   6.981
   74SOL     OW 1120   5.338   6.765   0.295
   74SOL    HW1 1121   5.394   6.732   0.219
   74SOL    HW2 1122   5.307   6.688   0.350
   75SOL     OW 1123   2.966   5.332   5.168
   75SOL    HW1 1124   3.032   5.263   5.138
   75SOL    HW2 1125   2.945   5.394   5.092
   76SOL     OW 1126   2.229   2.643   1.273
   76SOL    HW1 1127   2.282   2.601   1.198
   76SOL    HW2 1128   2.195   2.572   1.333
   77SOL     OW 1129   5.118   5.765   4.581
   77SOL    HW1 1130   5.145   5.683   4.531
   77SOL    HW2 1131   5.029   5.796   4.549
   78SOL     OW 1132   6.985   6.767   6.230
   78SOL    HW1 1133   0.038   6.830   6.244
   78SOL    HW2 1134   7.018   6.685   6.183
   79SOL     OW 1135   3.006   0.037   0.576
   79SOL    HW1 1136   3.026   6.974   0.625
   79SOL    HW2 1137   3.011   0.022   0.478
   80SOL     OW 1138   6.362   0.812   4.854
   80SOL    HW1 1139   6.440   0.841   4.910
   80SOL    HW2 1140   6.296   0.763   4.912
   81SOL     OW 1141   2.539   0.842   2.628
   81SOL    HW1 1142   2.628   0.873   2.661
   81SOL    HW2 1143   2.510   0.762   2.682
   82SOL     OW 1144   6.724   5.421   0.241
   82SOL    HW1 1145   6.769   5.431   0.330
   82SOL    HW2 1146   6.681   5.508   0.215
   83SOL     OW 1147   6.765   6.947   0.571
   83SOL    HW1 1148   6.727   6.945   0.478
   83SOL    HW2 1149   6.763   6.856   0.610
   84SOL     OW 1150   4.991   3.623   2.782
   84SOL    HW1 1151   4.950   3.536   2.806
   84SOL    HW2 1152   4.982   3.639   2.683
   85SOL     OW 1153   0.764   1.353   5.166
   85SOL    HW1 1154   0.769   1.405   5.080
   85SOL    HW2 1155   0.807   1.263   5.153
   86SOL     OW 1156   0.710   0.315   5.639
   86SOL    HW1 1157   0.733   0.311   5.736
   86SOL    HW2 1158   0.777   0.373   5.592
   87SOL     OW 1159   4.502   2.653   0.499
   87SOL    HW1 1160   4.492   2.719   0.425
   87SOL    HW2 1161   4.489   2.560   0.464
   88SOL     OW 1162   4.876   1.930   0.038
   88SOL    HW1 1163   4.829   1.882   6.986
   88SOL    HW2 1164   4.871   2.029   0.022
   89SOL     OW 1165   1.660   2.662   0.175
   89SOL    HW1 1166   1.572   2.664   0.223
   89SOL    HW2 1167   1.731   2.695   0.237
   90SOL     OW 1168   5.041   6.826   3.920
   90SOL    HW1 1169   5.102   6.884   3.866
   90SOL    HW2 1170   4.946   6.853   3.905
   91SOL     OW 1171   4.700   4.664   4.128
   91SOL    HW1 1172   4.745   4.649   4.039
   91SOL    HW2 1173   4.671   4.759   4.135
   92SOL     OW 1174   3.077   5.574   0.467
   92SOL    HW1 1175   3.076   5.612   0.559
   92SOL    HW2 1176   3.140   5.626   0.409
   93SOL     OW 1177   2.851   4.664   6.034
   93SOL    HW1 1178   2.810   4.593   6.092
   93SOL    HW2 1179   2.868   4.627   5.943
   94SOL     OW 1180   3.174   5.419   6.549
   94SOL    HW1 1181   3.148   5.494   6.611
   94SOL    HW2 1182   3.147   5.442   6.456
   95SOL     OW 1183   0.427   1.597   4.017
   95SOL    HW1 1184   0.463   1.626   3.928
   95SOL    HW2 1185   0.394   1.503   4.010
   96SOL     OW 1186   2.529   6.892   5.899
   96SOL    HW1 1187   2.556   6.987   5.879
   96SOL    HW2 1188   2.596   6.852   5.962
   97SOL     OW 1189   7.000   3.966   5.072
   97SOL    HW1 1190   6.994   3.912   4.988
   97SOL    HW2 1191   0.061   4.022   5.069
   98SOL     OW 1192   6.218   3.391   6.784
   98SOL    HW1 1193   6.271   3.460   6.734
   98SOL    HW2 1194   6.193   3.428   6.873
   99SOL     OW 1195   4.378   3.113   0.983
   99SOL    HW1 1196   4.359   3.020   0.952
   99SOL    HW2 1197   4.454   3.112   1.048
  100SOL     OW 1198   0.681   7.015   6.565
  100SOL    HW1 1199   0.629   0.025   6.643
  100SOL    HW2 1200   0.657   6.920   6.545
  101SOL     OW 1201   0.732   5.900   2.736
  101SOL    HW1 1202   0.811   5.956   2.711
  101SOL    HW2 1203   0.754   5.846   2.817
  102SOL     OW 1204   4.467   1.243   2.882
  102SOL    HW1 1205   4.508   1.332   2.904
  102SOL    HW2 1206   4.432   1.245   2.788
  103SOL     OW 1207   4.452   1.511   1.390
  103SOL    HW1 1208   4.542   1.473   1.373
  103SOL    HW2 1209   4.452   1.608   1.369
  104SOL     OW 1210   6.969   5.764   2.824
  104SOL    HW1 1211   7.022   5.720   2.751
  104SOL    HW2 1212   6.877   5.724   2.827
  105SOL     OW 1213   6.407   1.482   6.542
  105SOL    HW1 1214   6.505   1.462   6.534
  105SOL    HW2 1215   6.367   1.419   6.610
  106SOL     OW 1216   3.287   0.050   6.321
  106SOL    HW1 1217   3.269   0.064   6.419
  106SOL    HW2 1218   3.290   6.975   6.302
  107SOL     OW 1219   1.828   2.622   1.883
  107SOL    HW1 1220   1.807   2.684   1.959
  107SOL    HW2 1221   1.890   2.550   1.915
  108SOL     OW 1222   4.817   4.633   0.014
  108SOL    HW1 1223   4.860   4.543   0.014
  108SOL    HW2 1224   4.741   4.634   0.079
  109SOL     OW 1225   0.600   0.493   1.458
  109SOL    HW1 1226   0.677   0.545   1.495
  109SOL    HW2 1227   0.632   0.435   1.384
  110SOL     OW 1228   4.001   6.279   5.205
  110SOL    HW1 1229   3.990   6.367   5.160
  110SOL    HW2 1230   3.993   6.291   5.304
  111SOL     OW 1231   4.049   0.469   3.929
  111SOL    HW1 1232   4.084   0.444   4.020
  111SOL    HW2 1233   4.126   0.490   3.869
  112SOL     OW 1234   5.465   5.685   5.885
  112SOL    HW1 1235   5.560   5.687   5.854
  112SOL    HW2 1236   5.421   5.772   5.863
  113SOL     OW 1237   6.466   4.399   3.288
  113SOL    HW1 1238   6.375   4.361   3.272
  113SOL    HW2 1239   6.525   4.378   3.210
  114SOL     OW 1240   0.950   0.312   0.780
  114SOL    HW1 1241   1.021   0.332   0.713
  114SOL    HW2 1242   0.957   0.376   0.856
  115SOL     OW 1243   4.455   1.096   4.235
  115SOL    HW1 1244   4.538   1.149   4.219
  115SOL    HW2 1245   4.475   1.021   4.298
  116SOL     OW 1246   5.994   4.988   2.186
  116SOL    HW1 1247   6.062   5.030   2.246
  116SOL    HW2 1248   5.947   5.059   2.134
  117SOL     OW 1249   0.707   1.319   6.487
  117SOL    HW1 1250   0.660   1.239   6.449
  117SOL    HW2 1251   0.786   1.290   6.539
  118SOL     OW 1252   0.270   1.649   1.913
  118SOL    HW1 1253   0.214   1.688   1.986
  118SOL    HW2 1254   0.284   1.718   1.841
  119SOL     OW 1255   0.306   2.401   6.417
  119SOL    HW1 1256   0.366   2.325   6.442
  119SOL    HW2 1257   0.276   2.391   6.322
  120SOL     OW 1258   6.526   6.570   1.297
  120SOL    HW1 1259   6.520   6.579   1.397
  120SOL    HW2 1260   6.554   6.477   1.274
  121SOL     OW 1261   2.517   3.831   0.135
  121SOL    HW1 1262   2.517   3.731   0.132
  121SOL    HW2 1263   2.601   3.863   0.180
  122SOL     OW 1264   1.441   4.117   5.759
  122SOL    HW1 1265   1.369   4.156   5.702
  122SOL    HW2 1266   1.486   4.042   5.710
  123SOL     OW 1267   0.291   2.028   1.018
  123SOL    HW1 1268   0.300   1.928   1.021
  123SOL    HW2 1269   0.348   2.069   1.090
  124SOL     OW 1270   5.535   3.358   0.112
  124SOL    HW1 1271   5.559   3.261   0.109
  124SOL    HW2 1272   5.614   3.412   0.083
  125SOL     OW 1273   2.286   1.745   2.681
  125SOL    HW1 1274   2.214   1.725   2.748
  125SOL    HW2 1275   2.350   1.668   2.678
  126SOL     OW 1276   2.851   5.005   1.073
  126SOL    HW1 1277   2.840   5.104   1.059
  126SOL    HW2 1278   2.949   4.983   1.076
  127SOL     OW 1279   6.992   4.553   6.123
  127SOL    HW1 1280   6.903   4.591   6.146
  127SOL    HW2 1281   0.039   4.625   6.128
  128SOL     OW 1282   4.256   2.867   1.594
  128SOL    HW1 1283   4.326   2.798   1.573
  128SOL    HW2 1284   4.297   2.942   1.645
  129SOL     OW 1285   4.299   3.482   5.771
  129SOL    HW1 1286   4.301   3.443   5.863
  129SOL    HW2 1287   4.391   3.509   5.744
  130SOL     OW 1288   0.784   0.855   4.274
  130SOL    HW1 1289   0.721   0.780   4.293
  130SOL    HW2 1290   0.844   0.830   4.199
  131SOL     OW 1291   4.961   1.170   2.441
  131SOL    HW1 1292   4.864   1.153   2.454
  131SOL    HW2 1293   5.010   1.151   2.526
  132SOL     OW 1294   1.776   3.484   0.920
  132SOL    HW1 1295   1.798   3.581   0.921
  132SOL    HW2 1296   1.860   3.430   0.927
  133SOL     OW 1297   5.739   6.785   3.483
  133SOL    HW1 1298   5.784   6.708   3.440
  133SOL    HW2 1299   5.649   6.756   3.517
  134SOL     OW 1300   5.891   2.789   2.774
  134SOL    HW1 1301   5.923   2.702   2.810
  134SOL    HW2 1302   5.831   2.834   2.841
  135SOL     OW 1303   4.930   2.231   2.999
  135SOL    HW1 1304   4.865   2.258   2.928
  135SOL    HW2 1305   5.018   2.275   2.983
  136SOL     OW 1306   4.458   4.270   6.653
  136SOL    HW1 1307   4.536   4.332   6.652
  136SOL    HW2 1308   4.411   4.274   6.565
  137SOL     OW 1309   3.949   0.169   5.561
  137SOL    HW1 1310   4.016   0.165   5.636
  137SOL    HW2 1311   3.861   0.201   5.597
  138SOL     OW 1312   0.206   5.067   4.468
  138SOL    HW1 1313   0.181   5.101   4.377
  138SOL    HW2 1314   0.286   5.007   4.461
  139SOL     OW 1315   2.215   6.178   5.341
  139SOL    HW1 1316   2.270   6.177   5.258
  139SOL    HW2 1317   2.256   6.116   5.409
  140SOL     OW 1318   6.528   5.131   4.264
  140SOL    HW1 1319   6.622   5.099   4.257
  140SOL    HW2 1320   6.495   5.120   4.358
  141SOL     OW 1321   0.343   1.759   5.290
  141SOL    HW1 1322   0.432   1.719   5.270
  141SOL    HW2 1323   0.279   1.687   5.317
  142SOL     OW 1324   2.129   6.358   1.225
  142SOL    HW1 1325   2.127   6.439   1.166
  142SOL    HW2 1326   2.198   6.294   1.192
  143SOL     OW 1327   5.442   4.477   2.096
  143SOL    HW1 1328   5.454   4.546   2.168
  143SOL    HW2 1329   5.362   4.421   2.115
  144SOL     OW 1330   1.712   6.700   6.162
  144SOL    HW1 1331   1.672   6.690   6.253
  144SOL    HW2 1332   1.763   6.617   6.139
  145SOL     OW 1333   1.296   5.211   0.751
  145SOL    HW1 1334   1.205   5.250   0.765
  145SOL    HW2 1335   1.339   5.196   0.839
  146SOL     OW 1336   4.304   6.222   6.423
  146SOL    HW1 1337   4.214   6.264   6.416
  146SOL    HW2 1338   4.303   6.150   6.493
  147SOL     OW 1339   6.259   2.600   0.424
  147SOL    HW1 1340   6.244   2.680   0.367
  147SOL    HW2 1341   6.322   2.537   0.379
  148SOL     OW 1342   0.255   5.015   5.701
  148SOL    HW1 1343   0.246   4.953   5.779
  148SOL    HW2 1344   0.220   4.971   5.619
  149SOL     OW 1345   2.885   1.124   4.010
  149SOL    HW1 1346   2.952   1.180   3.960
  149SOL    HW2 1347   2.888   1.148   4.107
  150SOL     OW 1348   6.462   5.066   6.139
  150SOL    HW1 1349   6.473   5.075   6.238
  150SOL    HW2 1350   6.396   5.135   6.107
  151SOL     OW 1351   3.620   2.282   1.251
  151SOL    HW1 1352   3.704   2.295   1.303
  151SOL    HW2 1353   3.541   2.305   1.308
  152SOL     OW 1354   1.994   0.971   4.550
  152SOL    HW1 1355   1.897   0.954   4.566
  152SOL    HW2 1356   2.023   1.053   4.600
  153SOL     OW 1357   2.559   7.022   1.942
  153SOL    HW1 1358   2.653   0.032   1.946
  153SOL    HW2 1359   2.552   6.933   1.988
  154SOL     OW 1360   6.884   2.906   2.102
  154SOL    HW1 1361   6.828   2.989   2.095
  154SOL    HW2 1362   6.980   2.928   2.088
  155SOL     OW 1363   0.155   1.194   3.728
  155SOL    HW1 1364   0.151   1.283   3.683
  155SOL    HW2 1365   0.250   1.170   3.747
  156SOL     OW 1366   6.821   1.749   1.551
  156SOL    HW1 1367   6.908   1.705   1.528
  156SOL    HW2 1368   6.768   1.688   1.610
  157SOL     OW 1369   6.338   3.351   1.955
  157SOL    HW1 1370   6.305   3.445   1.951
  157SOL    HW2 1371   6.321   3.305   1.868
  158SOL     OW 1372   2.911   0.198   2.162
  158SOL    HW1 1373   2.917   0.140   2.080
  158SOL    HW2 1374   2.975   0.165   2.231
  159SOL     OW 1375   4.687   4.577   1.115
  159SOL    HW1 1376   4.598   4.586   1.161
  159SOL    HW2 1377   4.714   4.667   1.079
  160SOL     OW 1378   6.648   4.885   6.507
  160SOL    HW1 1379   6.561   4.922   6.475
  160SOL    HW2 1380   6.660   4.905   6.604
  161SOL     OW 1381   1.756   5.040   4.698
  161SOL    HW1 1382   1.841   5.010   4.743
  161SOL    HW2 1383   1.718   5.118   4.747
  162SOL     OW 1384   4.118   6.608   0.139
  162SOL    HW1 1385   4.160   6.632   0.227
  162SOL    HW2 1386   4.116   6.509   0.129
  163SOL     OW 1387   4.458   6.125   1.440
  163SOL    HW1 1388   4.363   6.114   1.469
  163SOL    HW2 1389   4.512   6.046   1.469
  164SOL     OW 1390   6.883   3.915   1.364
  164SOL    HW1 1391   6.841   3.911   1.455
  164SOL    HW2 1392   6.899   3.822   1.332
  165SOL     OW 1393   5.081   2.940   0.932
  165SOL    HW1 1394   5.079   3.030   0.974
  165SOL    HW2 1395   5.164   2.931   0.876
  166SOL     OW 1396   0.268   5.269   3.561
  166SOL    HW1 1397   0.169   5.281   3.560
  166SOL    HW2 1398   0.291   5.183   3.606
  167SOL     OW 1399   5.855   2.049   0.298
  167SOL    HW1 1400   5.801   1.972   0.330
  167SOL    HW2 1401   5.812   2.135   0.327
  168SOL     OW 1402   2.744   3.922   0.684
  168SOL    HW1 1403   2.690   3.841   0.707
  168SOL    HW2 1404   2.840   3.905   0.709
  169SOL     OW 1405   3.254   7.012   1.828
  169SOL    HW1 1406   3.347   7.001   1.791
  169SOL    HW2 1407   3.216   0.076   1.798
  170SOL     OW 1408   0.771   1.961   4.363
  170SOL    HW1 1409   0.694   2.024   4.364
  170SOL    HW2 1410   0.756   1.890   4.294
  171SOL     OW 1411   3.443   3.908   6.961
  171SOL    HW1 1412   3.404   3.979   7.018
  171SOL    HW2 1413   3.542   3.922   6.953
  172SOL     OW 1414   6.162   1.563   4.429
  172SOL    HW1 1415   6.249   1.611   4.438
  172SOL    HW2 1416   6.100   1.593   4.501
  173SOL     OW 1417   6.779   0.473   4.218
  173SOL    HW1 1418   6.788   0.539   4.143
  173SOL    HW2 1419   6.799   0.518   4.305
  174SOL     OW 1420   3.046   5.216   3.544
  174SOL    HW1 1421   2.997   5.197   3.629
  174SOL    HW2 1422   3.051   5.315   3.530
  175SOL     OW 1423   2.022   6.794   1.946
  175SOL    HW1 1424   1.980   6.875   1.904
  175SOL    HW2 1425   2.091   6.757   1.884
  176SOL     OW 1426   2.310   4.143   1.014
  176SOL    HW1 1427   2.309   4.065   0.951
  176SOL    HW2 1428   2.398   4.147   1.061
  177SOL     OW 1429   5.893   2.542   3.339
  177SOL    HW1 1430   5.865   2.611   3.273
  177SOL    HW2 1431   5.833   2.545   3.419
  178SOL     OW 1432   4.533   3.596   5.962
  178SOL    HW1 1433   4.621   3.596   6.009
  178SOL    HW2 1434   4.459   3.604   6.029
  179SOL     OW 1435   2.799   1.251   6.527
  179SOL    HW1 1436   2.730   1.321   6.507
  179SOL    HW2 1437   2.887   1.281   6.490
  180SOL     OW 1438   1.096   1.089   6.748
  180SOL    HW1 1439   1.102   1.001   6.701
  180SOL    HW2 1440   1.078   1.073   6.845
  181SOL     OW 1441   3.271   1.991   6.803
  181SOL    HW1 1442   3.220   2.047   6.867
  181SOL    HW2 1443   3.251   1.894   6.819
  182SOL     OW 1444   4.278   2.360   4.450
  182SOL    HW1 1445   4.200   2.410   4.488
  182SOL    HW2 1446   4.348   2.349   4.521
  183SOL     OW 1447   3.666   0.560   2.215
  183SOL    HW1 1448   3.687   0.570   2.312
  183SOL    HW2 1449   3.572   0.591   2.198
  184SOL     OW 1450   1.571   5.806   3.732
  184SOL    HW1 1451   1.473   5.792   3.722
  184SOL    HW2 1452   1.595   5.804   3.829
  185SOL     OW 1453   1.311   2.915   6.713
  185SOL    HW1 1454   1.295   2.824   6.672
  185SOL    HW2 1455   1.246   2.929   6.788
  186SOL     OW 1456   6.721   0.847   3.392
  186SOL    HW1 1457   6.696   0.901   3.472
  186SOL    HW2 1458   6.728   0.751   3.417
  187SOL     OW 1459   5.036   0.993   3.761
  187SOL    HW1 1460   5.061   0.978   3.857
  187SOL    HW2 1461   4.948   0.949   3.743
  188SOL     OW 1462   6.159   2.570   3.269
  188SOL    HW1 1463   6.172   2.639   3.198
  188SOL    HW2 1464   6.061   2.559   3.288
  189SOL     OW 1465   1.541   5.691   2.732
  189SOL    HW1 1466   1.588   5.766   2.778
  189SOL    HW2 1467   1.541   5.610   2.791
  190SOL     OW 1468   3.694   1.307   5.124
  190SOL    HW1 1469   3.769   1.369   5.145
  190SOL    HW2 1470   3.620   1.357   5.080
  191SOL     OW 1471   5.711   5.098   6.145
  191SOL    HW1 1472   5.632   5.053   6.187
  191SOL    HW2 1473   5.789   5.094   6.207
  192SOL     OW 1474   6.980   6.624   1.848
  192SOL    HW1 1475   6.929   6.561   1.788
  192SOL    HW2 1476   6.993   6.711   1.801
  193SOL     OW 1477   4.821   2.724   6.300
  193SOL    HW1 1478   4.896   2.662   6.279
  193SOL    HW2 1479   4.785   2.762   6.214
  194SOL     OW 1480   3.657   0.933   2.926
  194SOL    HW1 1481   3.727   0.863   2.938
  194SOL    HW2 1482   3.586   0.898   2.864
  195SOL     OW 1483   1.478   6.086   3.865
  195SOL    HW1 1484   1.413   6.043   3.927
  195SOL    HW2 1485   1.459   6.058   3.771
  196SOL     OW 1486   2.362   2.275   6.979
  196SOL    HW1 1487   2.389   2.307   0.047
  196SOL    HW2 1488   2.429   2.208   6.946
  197SOL     OW 1489   2.308   1.963   1.286
  197SOL    HW1 1490   2.353   1.898   1.225
  197SOL    HW2 1491   2.310   1.928   1.380
  198SOL     OW 1492   4.444   0.890   3.331
  198SOL    HW1 1493   4.405   0.981   3.319
  198SOL    HW2 1494   4.539   0.898   3.362
  199SOL     OW 1495   1.559   2.645   4.073
  199SOL    HW1 1496   1.582   2.654   3.976
  199SOL    HW2 1497   1.460   2.640   4.084
  200SOL     OW 1498   0.678   2.318   1.004
  200SOL    HW1 1499   0.664   2.322   1.103
  200SOL    HW2 1500   0.749   2.250   0.984
  201SOL     OW 1501   0.006   0.723   5.686
  201SOL    HW1 1502   6.980   0.636   5.675
  201SOL    HW2 1503   7.005   0.784   5.610
  202SOL     OW 1504   4.721   1.059   6.689
  202SOL    HW1 1505   4.658   1.037   6.763
  202SOL    HW2 1506   4.677   1.124   6.626
  203SOL     OW 1507   5.807   2.446   5.263
  203SOL    HW1 1508   5.858   2.375   5.214
  203SOL    HW2 1509   5.742   2.403   5.325
  204SOL     OW 1510   0.626   0.172   5.926
  204SOL    HW1 1511   0.674   0.089   5.898
  204SOL    HW2 1512   0.550   0.189   5.864
  205SOL     OW 1513   1.473   2.201   3.057
  205SOL    HW1 1514   1.469   2.261   3.138
  205SOL    HW2 1515   1.567   2.170   3.044
  206SOL     OW 1516   0.313   3.115   1.599
  206SOL    HW1 1517   0.223   3.071   1.607
  206SOL    HW2 1518   0.380   3.063   1.652
  207SOL     OW 1519   5.137   1.501   2.859
  207SOL    HW1 1520   5.138   1.580   2.920
  207SOL    HW2 1521   5.208   1.512   2.790
  208SOL     OW 1522   7.003   4.040   5.434
  208SOL    HW1 1523   0.024   4.089   5.359
  208SOL    HW2 1524   6.995   4.101   5.513
  209SOL     OW 1525   6.489   4.614   2.245
  209SOL    HW1 1526   6.537   4.619   2.333
  209SOL    HW2 1527   6.390   4.614   2.261
  210SOL     OW 1528   4.346   2.135   0.350
  210SOL    HW1 1529   4.367   2.103   0.257
  210SOL    HW2 1530   4.347   2.235   0.352
  211SOL     OW 1531   1.529   0.358   2.892
  211SOL    HW1 1532   1.495   0.448   2.920
  211SOL    HW2 1533   1.622   0.368   2.856
  212SOL     OW 1534   1.561   3.861   2.442
  212SOL    HW1 1535   1.598   3.918   2.516
  212SOL    HW2 1536   1.637   3.827   2.386
  213SOL     OW 1537   1.703   6.244   1.054
  213SOL    HW1 1538   1.739   6.332   1.084
  213SOL    HW2 1539   1.691   6.246   0.954
  214SOL     OW 1540   3.913   5.169   2.200
  214SOL    HW1 1541   3.981   5.242   2.195
  214SOL    HW2 1542   3.869   5.157   2.111
  215SOL     OW 1543   2.621   4.596   1.148
  215SOL    HW1 1544   2.526   4.608   1.176
  215SOL    HW2 1545   2.680   4.652   1.206
  216SOL     OW 1546   1.299   0.218   2.888
  216SOL    HW1 1547   1.307   0.137   2.830
  216SOL    HW2 1548   1.391   0.254   2.907
  217SOL     OW 1549   1.214   2.661   5.439
  217SOL    HW1 1550   1.267   2.628   5.361
  217SOL    HW2 1551   1.117   2.636   5.427
  218SOL     OW 1552   1.091   1.741   5.063
  218SOL    HW1 1553   1.031   1.799   5.010
  218SOL    HW2 1554   1.038   1.667   5.106
  219SOL     OW 1555   4.136   0.854   0.200
  219SOL    HW1 1556   4.111   0.808   0.285
  219SOL    HW2 1557   4.121   0.952   0.210
  220SOL     OW 1558   3.107   0.549   0.730
  220SOL    HW1 1559   3.133   0.453   0.742
  220SOL    HW2 1560   3.188   0.607   0.745
  221SOL     OW 1561   5.902   4.798   0.991
  221SOL    HW1 1562   5.944   4.789   1.081
  221SOL    HW2 1563   5.802   4.800   1.000
  222SOL     OW 1564   1.471   4.398   6.551
  222SOL    HW1 1565   1.534   4.427   6.479
  222SOL    HW2 1566   1.522   4.375   6.633
  223SOL     OW 1567   0.353   2.780   5.123
  223SOL    HW1 1568   0.377   2.772   5.220
  223SOL    HW2 1569   0.254   2.769   5.112
  224SOL     OW 1570   3.540   2.091   5.848
  224SOL    HW1 1571   3.612   2.024   5.867
  224SOL    HW2 1572   3.572   2.182   5.872
  225SOL     OW 1573   4.549   3.559   5.690
  225SOL    HW1 1574   4.570   3.558   5.787
  225SOL    HW2 1575   4.603   3.629   5.644
  226SOL     OW 1576   0.968   1.489   6.425
  226SOL    HW1 1577   0.957   1.581   6.464
  226SOL    HW2 1578   0.919   1.423   6.481
  227SOL     OW 1579   2.210   4.263   2.834
  227SOL    HW1 1580   2.304   4.250   2.802
  227SOL    HW2 1581   2.200   4.229   2.927
  228SOL     OW 1582   2.275   1.042   3.096
  228SOL    HW1 1583   2.365   1.006   3.072
  228SOL    HW2 1584   2.204   0.977   3.066
  229SOL     OW 1585   4.979   5.022   6.634
  229SOL    HW1 1586   4.970   4.924   6.653
  229SOL    HW2 1587   4.914   5.073   6.690
  230SOL     OW 1588   4.623   6.181   4.463
  230SOL    HW1 1589   4.711   6.199   4.506
  230SOL    HW2 1590   4.597   6.086   4.477
  231SOL     OW 1591   5.494   1.287   0.091
  231SOL    HW1 1592   5.443   1.364   0.129
  231SOL    HW2 1593   5.551   1.319   0.015
  232SOL     OW 1594   0.136   2.915   6.646
  232SOL    HW1 1595   0.060   2.869   6.598
  232SOL    HW2 1596   0.106   3.005   6.677
  233SOL     OW 1597   3.190   2.120   3.437
  233SOL    HW1 1598   3.160   2.204   3.483
  233SOL    HW2 1599   3.112   2.057   3.429
  234SOL     OW 1600   5.842   1.077   6.176
  234SOL    HW1 1601   5.780   1.147   6.140
  234SOL    HW2 1602   5.829   1.069   6.275
  235SOL     OW 1603   5.175   2.956   2.687
  235SOL    HW1 1604   5.091   2.987   2.731
  235SOL    HW2 1605   5.250   3.016   2.713
  236SOL     OW 1606   4.807   3.608   6.762
  236SOL    HW1 1607   4.819   3.671   6.685
  236SOL    HW2 1608   4.829   3.515   6.732
  237SOL     OW 1609   6.972   4.479   2.253
  237SOL    HW1 1610   0.034   4.524   2.224
  237SOL    HW2 1611   6.953   4.501   2.348
  238SOL     OW 1612   6.534   0.849   0.590
  238SOL    HW1 1613   6.616   0.807   0.629
  238SOL    HW2 1614   6.470   0.872   0.663
  239SOL     OW 1615   0.874   3.992   0.500
  239SOL    HW1 1616   0.951   4.039   0.456
  239SOL    HW2 1617   0.843   4.046   0.578
  240SOL     OW 1618   0.159   3.332   3.424
  240SOL    HW1 1619   0.241   3.380   3.455
  240SOL    HW2 1620   0.079   3.373   3.466
  241SOL     OW 1621   2.758   2.294   4.279
  241SOL    HW1 1622   2.666   2.289   4.318
  241SOL    HW2 1623   2.824   2.258   4.345
  242SOL     OW 1624   3.732   3.860   3.456
  242SOL    HW1 1625   3.704   3.831   3.365
  242SOL    HW2 1626   3.827   3.832   3.473
  243SOL     OW 1627   4.717   1.788   6.882
  243SOL    HW1 1628   4.713   1.759   6.977
  243SOL    HW2 1629   4.661   1.727   6.826
  244SOL     OW 1630   6.102   3.388   6.542
  244SOL    HW1 1631   6.009   3.350   6.546
  244SOL    HW2 1632   6.141   3.392   6.634
  245SOL     OW 1633   3.800   1.837   3.969
  245SOL    HW1 1634   3.720   1.896   3.962
  245SOL    HW2 1635   3.836   1.817   3.878
  246SOL     OW 1636   4.978   1.835   3.256
  246SOL    HW1 1637   5.047   1.777   3.299
  246SOL    HW2 1638   5.012   1.929   3.250
  247SOL     OW 1639   2.790   1.942   0.866
  247SOL    HW1 1640   2.787   2.035   0.831
  247SOL    HW2 1641   2.795   1.878   0.789
  248SOL     OW 1642   2.332   1.038   2.501
  248SOL    HW1 1643   2.286   0.988   2.427
  248SOL    HW2 1644   2.384   0.973   2.557
  249SOL     OW 1645   5.066   6.629   5.143
  249SOL    HW1 1646   5.091   6.719   5.107
  249SOL    HW2 1647   4.971   6.630   5.174
  250SOL     OW 1648   4.065   3.510   1.069
  250SOL    HW1 1649   4.157   3.503   1.108
  250SOL    HW2 1650   3.999   3.528   1.142
  251SOL     OW 1651   4.848   3.435   5.338
  251SOL    HW1 1652   4.780   3.374   5.377
  251SOL    HW2 1653   4.807   3.488   5.263
  252SOL     OW 1654   6.317   0.012   5.520
  252SOL    HW1 1655   6.376   0.088   5.544
  252SOL    HW2 1656   6.230   0.046   5.484
  253SOL     OW 1657   3.657   4.828   5.823
  253SOL    HW1 1658   3.737   4.836   5.763
  253SOL    HW2 1659   3.596   4.757   5.788
  254SOL     OW 1660   6.612   2.374   3.578
  254SOL    HW1 1661   6.600   2.442   3.650
  254SOL    HW2 1662   6.532   2.313   3.576
  255SOL     OW 1663   1.562   4.910   5.691
  255SOL    HW1 1664   1.530   4.863   5.609
  255SOL    HW2 1665   1.577   4.842   5.763
  256SOL     OW 1666   5.752   3.374   6.285
  256SOL    HW1 1667   5.664   3.370   6.238
  256SOL    HW2 1668   5.821   3.323   6.233
  257SOL     OW 1669   5.495   6.740   3.237
  257SOL    HW1 1670   5.459   6.657   3.193
  257SOL    HW2 1671   5.568   6.778   3.180
  258SOL     OW 1672   2.170   4.123   5.512
  258SOL    HW1 1673   2.132   4.037   5.478
  258SOL    HW2 1674   2.218   4.171   5.438
  259SOL     OW 1675   5.079   1.029   1.953
  259SOL    HW1 1676   5.140   1.001   1.880
  259SOL    HW2 1677   5.024   0.951   1.984
  260SOL     OW 1678   3.732   5.163   3.076
  260SOL    HW1 1679   3.784   5.232   3.025
  260SOL    HW2 1680   3.659   5.208   3.127
  261SOL     OW 1681   5.545   4.537   1.278
  261SOL    HW1 1682   5.533   4.491   1.366
  261SOL    HW2 1683   5.641   4.531   1.250
  262SOL     OW 1684   1.755   4.182   0.948
  262SOL    HW1 1685   1.827   4.177   1.017
  262SOL    HW2 1686   1.676   4.128   0.978
  263SOL     OW 1687   1.296   0.438   4.252
  263SOL    HW1 1688   1.231   0.363   4.264
  263SOL    HW2 1689   1.318   0.478   4.341
  264SOL     OW 1690   6.454   2.637   0.665
  264SOL    HW1 1691   6.445   2.725   0.711
  264SOL    HW2 1692   6.368   2.614   0.619
  265SOL     OW 1693   5.951   6.500   3.086
  265SOL    HW1 1694   5.858   6.495   3.124
  265SOL    HW2 1695   6.002   6.572   3.132
  266SOL     OW 1696   4.562   3.136   5.861
  266SOL    HW1 1697   4.599   3.044   5.851
  266SOL    HW2 1698   4.603   3.196   5.791
  267SOL     OW 1699   1.054   1.086   5.563
  267SOL    HW1 1700   0.973   1.118   5.513
  267SOL    HW2 1701   1.025   1.031   5.641
  268SOL     OW 1702   3.214   1.072   5.887
  268SOL    HW1 1703   3.307   1.091   5.856
  268SOL    HW2 1704   3.186   1.140   5.954
  269SOL     OW 1705   3.094   2.808   0.376
  269SOL    HW1 1706   3.105   2.892   0.428
  269SOL    HW2 1707   3.146   2.815   0.291
  270SOL     OW 1708   0.689   6.388   0.415
  270SOL    HW1 1709   0.686   6.312   0.479
  270SOL    HW2 1710   0.781   6.427   0.414
  271SOL     OW 1711   0.080   1.589   6.718
  271SOL    HW1 1712   0.130   1.534   6.784
  271SOL    HW2 1713   0.085   1.686   6.745
  272SOL     OW 1714   3.693   6.220   3.900
  272SOL    HW1 1715   3.596   6.223   3.925
  272SOL    HW2 1716   3.735   6.139   3.941
  273SOL     OW 1717   1.732   4.997   5.266
  273SOL    HW1 1718   1.812   5.001   5.206
  273SOL    HW2 1719   1.649   4.991   5.211
  274SOL     OW 1720   3.625   0.863   3.435
  274SOL    HW1 1721   3.586   0.807   3.361
  274SOL    HW2 1722   3.691   0.927   3.396
  275SOL     OW 1723   6.759   6.544   2.662
  275SOL    HW1 1724   6.716   6.550   2.752
  275SOL    HW2 1725   6.837   6.481   2.667
  276SOL     OW 1726   0.657   6.575   3.657
  276SOL    HW1 1727   0.704   6.661   3.640
  276SOL    HW2 1728   0.679   6.510   3.584
  277SOL     OW 1729   1.728   3.685   0.199
  277SOL    HW1 1730   1.816   3.733   0.200
  277SOL    HW2 1731   1.736   3.597   0.245
  278SOL     OW 1732   0.352   3.432   2.521
  278SOL    HW1 1733   0.300   3.349   2.537
  278SOL    HW2 1734   0.437   3.429   2.573
  279SOL     OW 1735   5.093   2.943   4.427
  279SOL    HW1 1736   5.193   2.944   4.438
  279SOL    HW2 1737   5.049   2.953   4.516
  280SOL     OW 1738   2.521   5.381   1.387
  280SOL    HW1 1739   2.526   5.299   1.444
  280SOL    HW2 1740   2.499   5.356   1.293
  281SOL     OW 1741   2.166   4.639   1.668
  281SOL    HW1 1742   2.213   4.566   1.618
  281SOL    HW2 1743   2.195   4.638   1.763
  282SOL     OW 1744   3.126   1.381   5.012
  282SOL    HW1 1745   3.086   1.337   4.931
  282SOL    HW2 1746   3.177   1.313   5.064
  283SOL     OW 1747   5.818   2.533   6.884
  283SOL    HW1 1748   5.820   2.615   6.827
  283SOL    HW2 1749   5.731   2.485   6.870
  284SOL     OW 1750   0.949   3.614   3.912
  284SOL    HW1 1751   0.910   3.692   3.961
  284SOL    HW2 1752   0.879   3.544   3.899
  285SOL     OW 1753   5.587   4.762   3.844
  285SOL    HW1 1754   5.520   4.764   3.770
  285SOL    HW2 1755   5.671   4.806   3.814
  286SOL     OW 1756   3.266   4.089   6.820
  286SOL    HW1 1757   3.293   4.088   6.916
  286SOL    HW2 1758   3.300   4.007   6.774
  287SOL     OW 1759   1.573   3.529   1.526
  287SOL    HW1 1760   1.672   3.537   1.530
  287SOL    HW2 1761   1.532   3.620   1.519
  288SOL     OW 1762   3.630   1.593   6.341
  288SOL    HW1 1763   3.703   1.566   6.404
  288SOL    HW2 1764   3.594   1.683   6.369
  289SOL     OW 1765   1.751   4.480   5.252
  289SOL    HW1 1766   1.737   4.402   5.191
  289SOL    HW2 1767   1.685   4.475   5.327
  290SOL     OW 1768   6.905   1.695   5.239
  290SOL    HW1 1769   6.953   1.611   5.264
  290SOL    HW2 1770   6.970   1.763   5.206
  291SOL     OW 1771   1.005   1.299   3.621
  291SOL    HW1 1772   1.065   1.269   3.695
  291SOL    HW2 1773   0.911   1.304   3.654
  292SOL     OW 1774   2.138   0.781   3.487
  292SOL    HW1 1775   2.128   0.807   3.391
  292SOL    HW2 1776   2.235   0.763   3.506
  293SOL     OW 1777   5.030   5.928   4.127
  293SOL    HW1 1778   4.965   5.857   4.098
  293SOL    HW2 1779   5.096   5.888   4.190
  294SOL     OW 1780   5.164   5.959   6.762
  294SOL    HW1 1781   5.221   5.888   6.720
  294SOL    HW2 1782   5.187   6.047   6.722
  295SOL     OW 1783   4.962   0.575   3.041
  295SOL    HW1 1784   5.026   0.623   3.101
  295SOL    HW2 1785   4.874   0.564   3.088
  296SOL     OW 1786   3.542   1.407   3.015
  296SOL    HW1 1787   3.539   1.316   2.975
  296SOL    HW2 1788   3.464   1.419   3.076
  297SOL     OW 1789   1.992   3.965   2.935
  297SOL    HW1 1790   1.930   3.900   2.892
  297SOL    HW2 1791   1.940   4.034   2.986
  298SOL     OW 1792   6.033   5.954   0.849
  298SOL    HW1 1793   6.127   5.985   0.866
  298SOL    HW2 1794   6.035   5.872   0.792
  299SOL     OW 1795   6.361   2.484   4.688
  299SOL    HW1 1796   6.299   2.562   4.686
  299SOL    HW2 1797   6.443   2.504   4.635
  300SOL     OW 1798   6.379   0.792   2.844
  300SOL    HW1 1799   6.361   0.714   2.785
  300SOL    HW2 1800   6.323   0.870   2.814
  301SOL     OW 1801   5.771   3.402   6.789
  301SOL    HW1 1802   5.765   3.422   6.886
  301SOL    HW2 1803   5.800   3.485   6.740
  302SOL     OW 1804   0.950   0.258   3.759
  302SOL    HW1 1805   0.873   0.195   3.748
  302SOL    HW2 1806   0.976   0.264   3.855
  303SOL     OW 1807   5.107   0.922   2.828
  303SOL    HW1 1808   5.118   0.869   2.912
  303SOL    HW2 1809   5.123   0.863   2.749
  304SOL     OW 1810   2.342   0.193   3.405
  304SOL    HW1 1811   2.276   0.267   3.415
  304SOL    HW2 1812   2.435   0.229   3.417
  305SOL     OW 1813   0.865   4.101   6.803
  305SOL    HW1 1814   0.879   4.002   6.796
  305SOL    HW2 1815   0.859   4.127   6.899
  306SOL     OW 1816   2.481   0.812   3.803
  306SOL    HW1 1817   2.425   0.892   3.822
  306SOL    HW2 1818   2.497   0.761   3.888
  307SOL     OW 1819   4.460   0.368   0.941
  307SOL    HW1 1820   4.395   0.360   0.865
  307SOL    HW2 1821   4.487   0.464   0.951
  308SOL     OW 1822   1.294   6.294   3.262
  308SOL    HW1 1823   1.205   6.249   3.272
  308SOL    HW2 1824   1.364   6.240   3.307
  309SOL     OW 1825   3.518   4.506   5.297
  309SOL    HW1 1826   3.448   4.560   5.250
  309SOL    HW2 1827   3.493   4.409   5.294
  310SOL     OW 1828   0.085   6.330   5.598
  310SOL    HW1 1829   0.057   6.251   5.653
  310SOL    HW2 1830   0.152   6.383   5.649
  311SOL     OW 1831   0.085   5.976   1.681
  311SOL    HW1 1832   0.112   5.902   1.620
  311SOL    HW2 1833   7.009   5.973   1.697
  312SOL     OW 1834   5.220   1.428   5.007
  312SOL    HW1 1835   5.267   1.363   4.948
  312SOL    HW2 1836   5.224   1.395   5.102
  313SOL     OW 1837   2.149   4.471   1.951
  313SOL    HW1 1838   2.052   4.490   1.936
  313SOL    HW2 1839   2.196   4.555   1.976
  314SOL     OW 1840   3.354   5.478   0.494
  314SOL    HW1 1841   3.319   5.564   0.457
  314SOL    HW2 1842   3.336   5.404   0.428
  315SOL     OW 1843   0.477   2.549   3.445
  315SOL    HW1 1844   0.467   2.606   3.364
  315SOL    HW2 1845   0.559   2.576   3.496
  316SOL     OW 1846   2.270   2.820   3.740
  316SOL    HW1 1847   2.329   2.770   3.676
  316SOL    HW2 1848   2.295   2.796   3.834
  317SOL     OW 1849   6.963   1.550   0.264
  317SOL    HW1 1850   6.990   1.571   0.358
  317SOL    HW2 1851   6.888   1.611   0.236
  318SOL     OW 1852   1.368   4.530   0.431
  318SOL    HW1 1853   1.433   4.549   0.358
  318SOL    HW2 1854   1.370   4.605   0.498
  319SOL     OW 1855   1.106   6.958   1.058
  319SOL    HW1 1856   1.146   6.985   1.145
  319SOL    HW2 1857   1.178   6.934   0.993
  320SOL     OW 1858   6.210   3.192   0.916
  320SOL    HW1 1859   6.303   3.229   0.924
  320SOL    HW2 1860   6.215   3.092   0.908
  321SOL     OW 1861   1.759   2.356   2.259
  321SOL    HW1 1862   1.842   2.314   2.222
  321SOL    HW2 1863   1.784   2.424   2.327
  322SOL     OW 1864   3.727   2.915   5.062
  322SOL    HW1 1865   3.749   2.864   4.979
  322SOL    HW2 1866   3.635   2.955   5.054
  323SOL     OW 1867   0.022   4.285   0.767
  323SOL    HW1 1868   0.100   4.224   0.754
  323SOL    HW2 1869   6.959   4.234   0.756
  324SOL     OW 1870   0.951   3.272   4.520
  324SOL    HW1 1871   0.935   3.192   4.577
  324SOL    HW2 1872   1.032   3.258   4.463
  325SOL     OW 1873   1.955   3.044   1.738
  325SOL    HW1 1874   2.001   2.969   1.786
  325SOL    HW2 1875   1.882   3.007   1.680
  326SOL     OW 1876   1.745   6.596   6.649
  326SOL    HW1 1877   1.698   6.538   6.716
  326SOL    HW2 1878   1.812   6.540   6.599
  327SOL     OW 1879   6.360   4.769   4.986
  327SOL    HW1 1880   6.424   4.816   4.926
  327SOL    HW2 1881   6.286   4.832   5.012
  328SOL     OW 1882   4.486   4.848   1.963
  328SOL    HW1 1883   4.466   4.859   1.865
  328SOL    HW2 1884   4.475   4.751   1.988
  329SOL     OW 1885   3.513   3.758   3.287
  329SOL    HW1 1886   3.506   3.740   3.385
  329SOL    HW2 1887   3.509   3.672   3.236
  330SOL     OW 1888   3.418   6.798   1.253
  330SOL    HW1 1889   3.417   6.819   1.155
  330SOL    HW2 1890   3.359   6.719   1.270
  331SOL     OW 1891   4.826   5.077   5.831
  331SOL    HW1 1892   4.826   5.166   5.785
  331SOL    HW2 1893   4.840   5.005   5.764
  332SOL     OW 1894   2.968   1.538   3.798
  332SOL    HW1 1895   2.873   1.547   3.828
  332SOL    HW2 1896   2.989   1.609   3.731
  333SOL     OW 1897   3.981   6.641   5.728
  333SOL    HW1 1898   4.076   6.644   5.759
  333SOL    HW2 1899   3.978   6.608   5.634
  334SOL     OW 1900   3.630   6.896   2.120
  334SOL    HW1 1901   3.568   6.932   2.190
  334SOL    HW2 1902   3.684   6.821   2.159
  335SOL     OW 1903   3.405   5.485   3.556
  335SOL    HW1 1904   3.369   5.475   3.463
  335SOL    HW2 1905   3.497   5.523   3.552
  336SOL     OW 1906   3.463   1.145   3.512
  336SOL    HW1 1907   3.402   1.086   3.459
  336SOL    HW2 1908   3.473   1.108   3.604
  337SOL     OW 1909   0.530   3.769   1.836
  337SOL    HW1 1910   0.548   3.735   1.928
  337SOL    HW2 1911   0.518   3.868   1.838
  338SOL     OW 1912   2.501   2.963   1.670
  338SOL    HW1 1913   2.429   3.026   1.644
  338SOL    HW2 1914   2.578   2.971   1.607
  339SOL     OW 1915   3.994   6.688   2.969
  339SOL    HW1 1916   4.025   6.778   2.997
  339SOL    HW2 1917   3.929   6.652   3.036
  340SOL     OW 1918   4.737   4.088   4.550
  340SOL    HW1 1919   4.644   4.071   4.517
  340SOL    HW2 1920   4.749   4.043   4.639
  341SOL     OW 1921   5.785   5.526   3.967
  341SOL    HW1 1922   5.877   5.487   3.973
  341SOL    HW2 1923   5.791   5.619   3.933
  342SOL     OW 1924   5.977   4.960   0.472
  342SOL    HW1 1925   5.879   4.974   0.469
  342SOL    HW2 1926   6.019   5.024   0.536
  343SOL     OW 1927   3.764   6.575   1.830
  343SOL    HW1 1928   3.822   6.636   1.776
  343SOL    HW2 1929   3.797   6.481   1.820
  344SOL     OW 1930   2.105   5.346   0.565
  344SOL    HW1 1931   2.057   5.399   0.635
  344SOL    HW2 1932   2.164   5.278   0.609
  345SOL     OW 1933   0.898   0.437   5.499
  345SOL    HW1 1934   0.917   0.535   5.490
  345SOL    HW2 1935   0.904   0.394   5.409
  346SOL     OW 1936   1.602   0.158   3.289
  346SOL    HW1 1937   1.592   0.145   3.190
  346SOL    HW2 1938   1.681   0.105   3.321
  347SOL     OW 1939   5.467   0.050   6.621
  347SOL    HW1 1940   5.474   0.149   6.637
  347SOL    HW2 1941   5.549   0.005   6.657
  348SOL     OW 1942   3.724   5.156   1.127
  348SOL    HW1 1943   3.821   5.169   1.110
  348SOL    HW2 1944   3.673   5.237   1.099
  349SOL     OW 1945   0.406   4.739   2.126
  349SOL    HW1 1946   0.410   4.823   2.072
  349SOL    HW2 1947   0.326   4.685   2.100
  350SOL     OW 1948   3.719   3.536   1.513
  350SOL    HW1 1949   3.711   3.442   1.480
  350SOL    HW2 1950   3.629   3.580   1.511
  351SOL     OW 1951   2.884   1.507   0.262
  351SOL    HW1 1952   2.921   1.597   0.238
  351SOL    HW2 1953   2.827   1.516   0.344
  352SOL     OW 1954   3.203   0.345   5.948
  352SOL    HW1 1955   3.206   0.427   6.005
  352SOL    HW2 1956   3.114   0.300   5.957
  353SOL     OW 1957   1.525   5.979   0.958
  353SOL    HW1 1958   1.425   5.975   0.969
  353SOL    HW2 1959   1.555   6.074   0.962
  354SOL     OW 1960   4.196   1.627   6.779
  354SOL    HW1 1961   4.229   1.623   6.685
  354SOL    HW2 1962   4.180   1.535   6.814
  355SOL     OW 1963   6.923   3.216   2.281
  355SOL    HW1 1964   6.873   3.206   2.367
  355SOL    HW2 1965   6.861   3.205   2.204
  356SOL     OW 1966   4.116   4.797   3.949
  356SOL    HW1 1967   4.181   4.728   3.918
  356SOL    HW2 1968   4.166   4.872   3.993
  357SOL     OW 1969   0.415   5.672   5.167
  357SOL    HW1 1970   0.499   5.726   5.173
  357SOL    HW2 1971   0.357   5.691   5.246
  358SOL     OW 1972   5.856   0.268   1.673
  358SOL    HW1 1973   5.837   0.244   1.578
  358SOL    HW2 1974   5.839   0.366   1.686
  359SOL     OW 1975   1.626   2.275   2.574
  359SOL    HW1 1976   1.590   2.352   2.521
  359SOL    HW2 1977   1.580   2.271   2.663
  360SOL     OW 1978   4.535   7.016   6.947
  360SOL    HW1 1979   4.572   6.925   6.928
  360SOL    HW2 1980   4.448   0.004   6.899
  361SOL     OW 1981   5.243   6.117   2.869
  361SOL    HW1 1982   5.279   6.051   2.935
  361SOL    HW2 1983   5.264   6.086   2.776
  362SOL     OW 1984   2.942   4.177   0.782
  362SOL    HW1 1985   2.972   4.081   0.785
  362SOL    HW2 1986   2.878   4.189   0.707
  363SOL     OW 1987   4.416   5.298   4.050
  363SOL    HW1 1988   4.415   5.232   4.125
  363SOL    HW2 1989   4.395   5.389   4.085
  364SOL     OW 1990   1.560   5.512   5.883
  364SOL    HW1 1991   1.585   5.437   5.944
  364SOL    HW2 1992   1.529   5.475   5.795
  365SOL     OW 1993   5.361   5.976   2.291
  365SOL    HW1 1994   5.335   5.915   2.216
  365SOL    HW2 1995   5.279   6.018   2.329
  366SOL     OW 1996   5.888   0.949   6.941
  366SOL    HW1 1997   5.855   0.928   6.849
  366SOL    HW2 1998   5.931   0.867   6.979
  367SOL     OW 1999   5.509   3.263   1.249
  367SOL    HW1 2000   5.532   3.313   1.333
  367SOL    HW2 2001   5.584   3.203   1.224
  368SOL     OW 2002   1.344   4.542   5.340
  368SOL    HW1 2003   1.377   4.534   5.246
  368SOL    HW2 2004   1.415   4.513   5.404
  369SOL     OW 2005   0.422   4.261   1.732
  369SOL    HW1 2006   0.450   4.334   1.670
  369SOL    HW2 2007   0.427   4.294   1.827
  370SOL     OW 2008   2.947   1.346   5.552
  370SOL    HW1 2009   2.967   1.442   5.531
  370SOL    HW2 2010   2.854   1.324   5.523
  371SOL     OW 2011   3.078   3.455   0.012
  371SOL    HW1 2012   3.089   3.447   6.935
  371SOL    HW2 2013   3.079   3.364   0.053
  372SOL     OW 2014   7.004   6.313   5.992
  372SOL    HW1 2015   0.001   6.403   5.953
  372SOL    HW2 2016   7.010   6.244   5.919
  373SOL     OW 2017   0.439   6.172   0.646
  373SOL    HW1 2018   0.435   6.076   0.672
  373SOL    HW2 2019   0.354   6.217   0.673
  374SOL     OW 2020   3.307   0.369   1.917
  374SOL    HW1 2021   3.236   0.310   1.877
  374SOL    HW2 2022   3.268   0.458   1.940
  375SOL     OW 2023   6.809   4.863   3.439
  375SOL    HW1 2024   6.794   4.764   3.442
  375SOL    HW2 2025   6.834   4.895   3.530
  376SOL     OW 2026   1.945   2.843   4.175
  376SOL    HW1 2027   1.929   2.781   4.099
  376SOL    HW2 2028   2.034   2.823   4.216
  377SOL     OW 2029   5.049   2.105   3.222
  377SOL    HW1 2030   5.009   2.141   3.137
  377SOL    HW2 2031   5.021   2.163   3.299
  378SOL     OW 2032   4.761   3.130   5.419
  378SOL    HW1 2033   4.715   3.194   5.479
  378SOL    HW2 2034   4.701   3.052   5.399
  379SOL     OW 2035   5.722   3.794   1.257
  379SOL    HW1 2036   5.689   3.706   1.223
  379SOL    HW2 2037   5.647   3.861   1.258
  380SOL     OW 2038   1.819   1.889   1.269
  380SOL    HW1 2039   1.721   1.880   1.288
  380SOL    HW2 2040   1.870   1.870   1.353
  381SOL     OW 2041   3.325   4.423   1.135
  381SOL    HW1 2042   3.275   4.380   1.060
  381SOL    HW2 2043   3.378   4.500   1.100
  382SOL     OW 2044   3.430   5.922   0.493
  382SOL    HW1 2045   3.378   5.872   0.424
  382SOL    HW2 2046   3.455   5.860   0.567
  383SOL     OW 2047   6.516   2.487   0.347
  383SOL    HW1 2048   6.579   2.516   0.420
  383SOL    HW2 2049   6.538   2.537   0.263
  384SOL     OW 2050   0.877   5.304   5.093
  384SOL    HW1 2051   0.931   5.220   5.101
  384SOL    HW2 2052   0.865   5.326   4.996
  385SOL     OW 2053   4.396   6.353   0.319
  385SOL    HW1 2054   4.323   6.338   0.252
  385SOL    HW2 2055   4.378   6.300   0.402
  386SOL     OW 2056   3.689   6.352   5.305
  386SOL    HW1 2057   3.624   6.287   5.265
  386SOL    HW2 2058   3.696   6.433   5.246
  387SOL     OW 2059   0.298   0.697   5.251
  387SOL    HW1 2060   0.298   0.785   5.297
  387SOL    HW2 2061   0.365   0.637   5.294
  388SOL     OW 2062   0.203   2.527   5.331
  388SOL    HW1 2063   0.117   2.558   5.290
  388SOL    HW2 2064   0.260   2.606   5.352
  389SOL     OW 2065   4.299   4.437   1.404
  389SOL    HW1 2066   4.296   4.491   1.488
  389SOL    HW2 2067   4.339   4.348   1.423
  390SOL     OW 2068   3.549   1.977   0.443
  390SOL    HW1 2069   3.513   2.062   0.482
  390SOL    HW2 2070   3.554   1.907   0.515
  391SOL     OW 2071   2.999   4.040   6.482
  391SOL    HW1 2072   2.977   4.079   6.572
  391SOL    HW2 2073   2.979   4.107   6.411
  392SOL     OW 2074   1.439   3.739   2.038
  392SOL    HW1 2075   1.509   3.668   2.051
  392SOL    HW2 2076   1.384   3.746   2.121
  393SOL     OW 2077   0.986   4.626   1.091
  393SOL    HW1 2078   0.951   4.601   1.182
  393SOL    HW2 2079   1.025   4.545   1.048
  394SOL     OW 2080   6.635   1.243   6.113
  394SOL    HW1 2081   6.647   1.341   6.127
  394SOL    HW2 2082   6.720   1.195   6.133
  395SOL     OW 2083   5.309   4.634   1.170
  395SOL    HW1 2084   5.395   4.619   1.220
  395SOL    HW2 2085   5.329   4.669   1.079
  396SOL     OW 2086   2.879   1.306   2.708
  396SOL    HW1 2087   2.781   1.325   2.720
  396SOL    HW2 2088   2.903   1.223   2.759
  397SOL     OW 2089   4.411   1.518   5.303
  397SOL    HW1 2090   4.361   1.539   5.387
  397SOL    HW2 2091   4.348   1.520   5.226
  398SOL     OW 2092   2.501   1.176   4.731
  398SOL    HW1 2093   2.591   1.216   4.713
  398SOL    HW2 2094   2.476   1.191   4.826
  399SOL     OW 2095   5.766   6.549   3.754
  399SOL    HW1 2096   5.687   6.575   3.809
  399SOL    HW2 2097   5.735   6.523   3.662
  400SOL     OW 2098   6.702   0.607   4.813
  400SOL    HW1 2099   6.624   0.578   4.758
  400SOL    HW2 2100   6.694   0.569   4.906
  401SOL     OW 2101   6.934   5.611   5.902
  401SOL    HW1 2102   6.854   5.643   5.852
  401SOL    HW2 2103   6.924   5.631   5.999
  402SOL     OW 2104   6.923   0.441   2.439
  402SOL    HW1 2105   6.858   0.387   2.494
  402SOL    HW2 2106   6.872   0.508   2.385
  403SOL     OW 2107   2.782   0.994   5.956
  403SOL    HW1 2108   2.696   1.044   5.945
  403SOL    HW2 2109   2.846   1.021   5.884
  404SOL     OW 2110   4.050   4.820   4.375
  404SOL    HW1 2111   4.115   4.748   4.350
  404SOL    HW2 2112   4.050   4.832   4.474
  405SOL     OW 2113   2.721   4.794   3.885
  405SOL    HW1 2114   2.795   4.829   3.827
  405SOL    HW2 2115   2.686   4.709   3.846
  406SOL     OW 2116   0.568   5.807   5.971
  406SOL    HW1 2117   0.538   5.718   6.005
  406SOL    HW2 2118   0.648   5.795   5.911
  407SOL     OW 2119   2.211   3.158   4.573
  407SOL    HW1 2120   2.187   3.249   4.607
  407SOL    HW2 2121   2.210   3.093   4.649
  408SOL     OW 2122   3.023   1.155   3.652
  408SOL    HW1 2123   2.939   1.128   3.605
  408SOL    HW2 2124   3.050   1.247   3.623
  409SOL     OW 2125   1.145   3.813   2.600
  409SOL    HW1 2126   1.151   3.886   2.668
  409SOL    HW2 2127   1.071   3.833   2.536
  410SOL     OW 2128   1.971   2.131   1.446
  410SOL    HW1 2129   1.879   2.166   1.427
  410SOL    HW2 2130   1.971   2.031   1.438
  411SOL     OW 2131   0.893   2.221   1.219
  411SOL    HW1 2132   0.972   2.280   1.230
  411SOL    HW2 2133   0.821   2.249   1.282
  412SOL     OW 2134   1.782   4.918   1.638
  412SOL    HW1 2135   1.764   4.957   1.548
  412SOL    HW2 2136   1.711   4.852   1.662
  413SOL     OW 2137   5.094   5.234   2.697
  413SOL    HW1 2138   5.179   5.252   2.649
  413SOL    HW2 2139   5.091   5.138   2.725
  414SOL     OW 2140   2.574   6.539   3.722
  414SOL    HW1 2141   2.482   6.531   3.685
  414SOL    HW2 2142   2.605   6.449   3.754
  415SOL     OW 2143   6.641   0.596   0.227
  415SOL    HW1 2144   6.569   0.565   0.289
  415SOL    HW2 2145   6.710   0.525   0.218
  416SOL     OW 2146   4.991   3.235   4.729
  416SOL    HW1 2147   5.046   3.246   4.646
  416SOL    HW2 2148   4.938   3.151   4.722
  417SOL     OW 2149   3.573   2.188   6.231
  417SOL    HW1 2150   3.541   2.210   6.139
  417SOL    HW2 2151   3.593   2.272   6.281
  418SOL     OW 2152   3.993   5.749   4.852
  418SOL    HW1 2153   4.078   5.706   4.822
  418SOL    HW2 2154   3.940   5.777   4.772
  419SOL     OW 2155   1.067   6.977   1.335
  419SOL    HW1 2156   1.077   7.012   1.428
  419SOL    HW2 2157   1.025   6.886   1.338
  420SOL     OW 2158   5.305   1.226   5.945
  420SOL    HW1 2159   5.367   1.247   5.869
  420SOL    HW2 2160   5.220   1.186   5.909
  421SOL     OW 2161   5.167   3.409   2.544
  421SOL    HW1 2162   5.208   3.457   2.467
  421SOL    HW2 2163   5.147   3.315   2.518
  422SOL     OW 2164   4.866   3.466   1.702
  422SOL    HW1 2165   4.842   3.383   1.652
  422SOL    HW2 2166   4.783   3.518   1.724
  423SOL     OW 2167   3.429   1.251   6.067
  423SOL    HW1 2168   3.438   1.243   6.166
  423SOL    HW2 2169   3.463   1.167   6.024
  424SOL     OW 2170   1.089   3.715   3.242
  424SOL    HW1 2171   1.124   3.791   3.297
  424SOL    HW2 2172   1.109   3.628   3.288
  425SOL     OW 2173   2.492   0.824   5.331
  425SOL    HW1 2174   2.467   0.875   5.413
  425SOL    HW2 2175   2.435   0.742   5.323
  426SOL     OW 2176   2.491   2.637   4.244
  426SOL    HW1 2177   2.514   2.564   4.308
  426SOL    HW2 2178   2.442   2.709   4.293
  427SOL     OW 2179   3.594   2.034   3.155
  427SOL    HW1 2180   3.500   2.064   3.173
  427SOL    HW2 2181   3.594   1.940   3.123
  428SOL     OW 2182   2.462   1.781   5.980
  428SOL    HW1 2183   2.388   1.823   6.033
  428SOL    HW2 2184   2.486   1.839   5.903
  429SOL     OW 2185   1.260   5.922   3.969
  429SOL    HW1 2186   1.173   5.960   3.938
  429SOL    HW2 2187   1.302   5.871   3.894
  430SOL     OW 2188   1.494   7.015   3.890
  430SOL    HW1 2189   1.550   0.075   3.881
  430SOL    HW2 2190   1.500   6.962   3.806
  431SOL     OW 2191   3.216   1.544   2.038
  431SOL    HW1 2192   3.251   1.612   2.102
  431SOL    HW2 2193   3.265   1.552   1.951
  432SOL     OW 2194   4.235   2.368   1.857
  432SOL    HW1 2195   4.304   2.398   1.923
  432SOL    HW2 2196   4.190   2.448   1.818
  433SOL     OW 2197   2.418   5.807   0.408
  433SOL    HW1 2198   2.501   5.780   0.456
  433SOL    HW2 2199   2.435   5.809   0.310
  434SOL     OW 2200   4.143   5.921   3.625
  434SOL    HW1 2201   4.236   5.929   3.661
  434SOL    HW2 2202   4.132   5.830   3.584
  435SOL     OW 2203   3.017   1.420   6.421
  435SOL    HW1 2204   3.086   1.458   6.482
  435SOL    HW2 2205   3.008   1.479   6.341
  436SOL     OW 2206   5.152   6.675   2.724
  436SOL    HW1 2207   5.122   6.766   2.694
  436SOL    HW2 2208   5.173   6.677   2.821
  437SOL     OW 2209   6.724   0.644   5.138
  437SOL    HW1 2210   6.727   0.553   5.096
  437SOL    HW2 2211   6.792   0.703   5.095
  438SOL     OW 2212   0.592   4.159   2.693
  438SOL    HW1 2213   0.624   4.120   2.606
  438SOL    HW2 2214   0.493   4.174   2.688
  439SOL     OW 2215   6.478   0.584   3.886
  439SOL    HW1 2216   6.478   0.622   3.978
  439SOL    HW2 2217   6.420   0.503   3.882
  440SOL     OW 2218   4.322   1.006   0.717
  440SOL    HW1 2219   4.315   0.907   0.732
  440SOL    HW2 2220   4.264   1.032   0.640
  441SOL     OW 2221   0.168   4.296   2.355
  441SOL    HW1 2222   0.141   4.207   2.391
  441SOL    HW2 2223   0.090   4.339   2.310
  442SOL     OW 2224   5.403   3.046   6.216
  442SOL    HW1 2225   5.361   2.964   6.256
  442SOL    HW2 2226   5.468   3.019   6.145
  443SOL     OW 2227   4.861   3.067   2.580
  443SOL    HW1 2228   4.870   3.041   2.484
  443SOL    HW2 2229   4.855   3.167   2.588
  444SOL     OW 2230   4.047   1.023   1.400
  444SOL    HW1 2231   4.016   1.073   1.319
  444SOL    HW2 2232   4.023   1.074   1.482
  445SOL     OW 2233   1.414   5.605   2.146
  445SOL    HW1 2234   1.334   5.663   2.129
  445SOL    HW2 2235   1.490   5.662   2.178
  446SOL     OW 2236   5.450   6.993   1.492
  446SOL    HW1 2237   5.448   0.069   1.511
  446SOL    HW2 2238   5.357   6.962   1.473
  447SOL     OW 2239   6.286   4.308   0.577
  447SOL    HW1 2240   6.331   4.247   0.512
  447SOL    HW2 2241   6.204   4.346   0.535
  448SOL     OW 2242   2.916   6.824   3.370
  448SOL    HW1 2243   3.009   6.787   3.361
  448SOL    HW2 2244   2.852   6.749   3.386
  449SOL     OW 2245   2.127   3.753   5.047
  449SOL    HW1 2246   2.197   3.746   5.119
  449SOL    HW2 2247   2.065   3.828   5.068
  450SOL     OW 2248   0.747   4.977   3.602
  450SOL    HW1 2249   0.750   5.043   3.678
  450SOL    HW2 2250   0.816   4.907   3.616
  451SOL     OW 2251   0.781   2.173   2.703
  451SOL    HW1 2252   0.849   2.243   2.678
  451SOL    HW2 2253   0.719   2.210   2.772
  452SOL     OW 2254   5.010   5.460   1.948
  452SOL    HW1 2255   5.045   5.536   1.893
  452SOL    HW2 2256   4.911   5.455   1.938
  453SOL     OW 2257   3.562   0.617   6.684
  453SOL    HW1 2258   3.572   0.630   6.783
  453SOL    HW2 2259   3.641   0.657   6.637
  454SOL     OW 2260   6.587   3.518   6.788
  454SOL    HW1 2261   6.651   3.593   6.797
  454SOL    HW2 2262   6.555   3.513   6.693
  455SOL     OW 2263   5.940   4.524   6.353
  455SOL    HW1 2264   5.945   4.548   6.450
  455SOL    HW2 2265   6.000   4.584   6.301
  456SOL     OW 2266   3.077   0.768   2.301
  456SOL    HW1 2267   3.122   0.823   2.232
  456SOL    HW2 2268   3.139   0.752   2.378
  457SOL     OW 2269   2.599   0.691   0.270
  457SOL    HW1 2270   2.521   0.653   0.321
  457SOL    HW2 2271   2.598   0.656   0.177
  458SOL     OW 2272   3.299   0.982   3.403
  458SOL    HW1 2273   3.343   0.905   3.450
  458SOL    HW2 2274   3.277   0.955   3.309
  459SOL     OW 2275   3.179   0.126   4.313
  459SOL    HW1 2276   3.222   0.192   4.374
  459SOL    HW2 2277   3.222   0.037   4.324
  460SOL     OW 2278   1.176   1.593   5.800
  460SOL    HW1 2279   1.090   1.618   5.755
  460SOL    HW2 2280   1.168   1.610   5.898
  461SOL     OW 2281   0.587   4.934   6.029
  461SOL    HW1 2282   0.524   4.876   6.082
  461SOL    HW2 2283   0.535   4.998   5.974
  462SOL     OW 2284   3.022   3.950   5.148
  462SOL    HW1 2285   3.025   4.000   5.234
  462SOL    HW2 2286   3.079   3.995   5.080
  463SOL     OW 2287   5.670   6.795   3.035
  463SOL    HW1 2288   5.637   6.724   2.973
  463SOL    HW2 2289   5.767   6.813   3.016
  464SOL     OW 2290   3.788   5.332   5.720
  464SOL    HW1 2291   3.846   5.410   5.743
  464SOL    HW2 2292   3.834   5.247   5.746
  465SOL     OW 2293   0.622   3.376   0.601
  465SOL    HW1 2294   0.645   3.346   0.694
  465SOL    HW2 2295   0.696   3.434   0.567
  466SOL     OW 2296   4.205   5.617   4.782
  466SOL    HW1 2297   4.263   5.601   4.701
  466SOL    HW2 2298   4.236   5.558   4.857
  467SOL     OW 2299   6.569   0.231   1.383
  467SOL    HW1 2300   6.496   0.281   1.430
  467SOL    HW2 2301   6.594   0.151   1.438
  468SOL     OW 2302   3.601   0.295   6.797
  468SOL    HW1 2303   3.593   0.263   6.703
  468SOL    HW2 2304   3.652   0.228   6.851
  469SOL     OW 2305   3.153   5.263   5.660
  469SOL    HW1 2306   3.232   5.212   5.626
  469SOL    HW2 2307   3.092   5.286   5.584
  470SOL     OW 2308   2.048   5.044   2.969
  470SOL    HW1 2309   1.989   4.973   3.009
  470SOL    HW2 2310   2.080   5.105   3.041
  471SOL     OW 2311   2.105   2.436   4.329
  471SOL    HW1 2312   2.164   2.385   4.391
  471SOL    HW2 2313   2.025   2.469   4.378
  472SOL     OW 2314   5.818   3.645   6.636
  472SOL    HW1 2315   5.823   3.629   6.537
  472SOL    HW2 2316   5.904   3.684   6.668
  473SOL     OW 2317   6.764   2.675   2.016
  473SOL    HW1 2318   6.837   2.608   2.030
  473SOL    HW2 2319   6.798   2.767   2.037
  474SOL     OW 2320   5.237   6.067   3.584
  474SOL    HW1 2321   5.179   6.143   3.612
  474SOL    HW2 2322   5.329   6.081   3.620
  475SOL     OW 2323   5.782   2.031   0.734
  475SOL    HW1 2324   5.873   2.035   0.776
  475SOL    HW2 2325   5.748   2.125   0.720
  476SOL     OW 2326   0.933   4.686   1.516
  476SOL    HW1 2327   0.875   4.650   1.589
  476SOL    HW2 2328   1.008   4.739   1.556
  477SOL     OW 2329   1.851   4.379   3.967
  477SOL    HW1 2330   1.924   4.312   3.979
  477SOL    HW2 2331   1.886   4.470   3.985
  478SOL     OW 2332   5.233   5.926   1.879
  478SOL    HW1 2333   5.257   5.872   1.960
  478SOL    HW2 2334   5.170   5.999   1.906
  479SOL     OW 2335   3.503   3.831   3.595
  479SOL    HW1 2336   3.473   3.905   3.655
  479SOL    HW2 2337   3.594   3.852   3.559
  480SOL     OW 2338   2.190   0.489   2.769
  480SOL    HW1 2339   2.258   0.550   2.809
  480SOL    HW2 2340   2.143   0.440   2.841
  481SOL     OW 2341   0.288   0.039   0.602
  481SOL    HW1 2342   0.194   0.019   0.628
  481SOL    HW2 2343   0.309   0.134   0.623
  482SOL     OW 2344   3.986   5.199   1.557
  482SOL    HW1 2345   4.040   5.255   1.494
  482SOL    HW2 2346   3.918   5.147   1.504
  483SOL     OW 2347   5.353   1.957   3.739
  483SOL    HW1 2348   5.451   1.973   3.729
  483SOL    HW2 2349   5.317   1.913   3.657
  484SOL     OW 2350   1.966   4.765   4.505
  484SOL    HW1 2351   2.027   4.845   4.507
  484SOL    HW2 2352   1.980   4.716   4.419
  485SOL     OW 2353   5.293   3.312   1.904
  485SOL    HW1 2354   5.302   3.281   1.809
  485SOL    HW2 2355   5.202   3.352   1.918
  486SOL     OW 2356   5.966   6.307   6.308
  486SOL    HW1 2357   5.954   6.210   6.326
  486SOL    HW2 2358   5.981   6.356   6.394
  487SOL     OW 2359   6.725   6.704   5.574
  487SOL    HW1 2360   6.814   6.660   5.563
  487SOL    HW2 2361   6.707   6.764   5.496
  488SOL     OW 2362   1.724   6.277   3.374
  488SOL    HW1 2363   1.767   6.352   3.325
  488SOL    HW2 2364   1.785   6.246   3.448
  489SOL     OW 2365   1.178   6.272   6.479
  489SOL    HW1 2366   1.194   6.180   6.444
  489SOL    HW2 2367   1.247   6.334   6.443
  490SOL     OW 2368   1.041   3.903   5.097
  490SOL    HW1 2369   1.117   3.849   5.062
  490SOL    HW2 2370   1.036   3.893   5.197
  491SOL     OW 2371   0.618   2.676   0.630
  491SOL    HW1 2372   0.628   2.582   0.595
  491SOL    HW2 2373   0.538   2.680   0.690
  492SOL     OW 2374   1.663   2.470   6.030
  492SOL    HW1 2375   1.597   2.395   6.027
  492SOL    HW2 2376   1.689   2.496   5.937
  493SOL     OW 2377   2.303   5.694   4.758
  493SOL    HW1 2378   2.219   5.642   4.746
  493SOL    HW2 2379   2.281   5.790   4.773
  494SOL     OW 2380   2.575   6.246   4.831
  494SOL    HW1 2381   2.574   6.302   4.748
  494SOL    HW2 2382   2.615   6.299   4.906
  495SOL     OW 2383   3.740   4.313   6.093
  495SOL    HW1 2384   3.692   4.367   6.024
  495SOL    HW2 2385   3.747   4.218   6.062
  496SOL     OW 2386   4.901   1.498   3.235
  496SOL    HW1 2387   4.890   1.499   3.135
  496SOL    HW2 2388   4.973   1.434   3.260
  497SOL     OW 2389   4.096   1.998   0.118
  497SOL    HW1 2390   4.125   1.959   0.205
  497SOL    HW2 2391   4.064   1.925   0.058
  498SOL     OW 2392   0.828   6.864   1.666
  498SOL    HW1 2393   0.771   6.927   1.613
  498SOL    HW2 2394   0.884   6.810   1.604
  499SOL     OW 2395   2.973   5.912   6.720
  499SOL    HW1 2396   3.048   5.909   6.653
  499SOL    HW2 2397   2.899   5.852   6.689
  500SOL     OW 2398   6.199   2.309   0.598
  500SOL    HW1 2399   6.258   2.234   0.570
  500SOL    HW2 2400   6.227   2.341   0.688
  501SOL     OW 2401   1.185   1.024   3.650
  501SOL    HW1 2402   1.233   1.080   3.583
  501SOL    HW2 2403   1.119   0.965   3.603
  502SOL     OW 2404   1.881   5.184   6.685
  502SOL    HW1 2405   1.858   5.213   6.779
  502SOL    HW2 2406   1.915   5.090   6.687
  503SOL     OW 2407   3.751   4.664   6.758
  503SOL    HW1 2408   3.745   4.630   6.665
  503SOL    HW2 2409   3.685   4.616   6.816
  504SOL     OW 2410   6.198   6.483   1.649
  504SOL    HW1 2411   6.268   6.473   1.719
  504SOL    HW2 2412   6.238   6.465   1.559
  505SOL     OW 2413   4.957   6.398   4.920
  505SOL    HW1 2414   5.037   6.375   4.865
  505SOL    HW2 2415   4.974   6.374   5.016
  506SOL     OW 2416   4.278   5.135   2.849
  506SOL    HW1 2417   4.265   5.053   2.904
  506SOL    HW2 2418   4.204   5.142   2.782
  507SOL     OW 2419   3.246   1.152   0.625
  507SOL    HW1 2420   3.248   1.075   0.688
  507SOL    HW2 2421   3.334   1.161   0.579
  508SOL     OW 2422   6.854   4.456   3.053
  508SOL    HW1 2423   6.861   4.473   3.151
  508SOL    HW2 2424   6.849   4.543   3.004
  509SOL     OW 2425   4.388   6.726   6.368
  509SOL    HW1 2426   4.378   6.672   6.284
  509SOL    HW2 2427   4.484   6.746   6.384
  510SOL     OW 2428   6.984   3.653   0.710
  510SOL    HW1 2429   6.905   3.690   0.758
  510SOL    HW2 2430   0.005   3.583   0.767
  511SOL     OW 2431   0.974   2.025   0.575
  511SOL    HW1 2432   0.984   1.948   0.638
  511SOL    HW2 2433   0.989   1.994   0.481
  512SOL     OW 2434   6.897   2.142   5.264
  512SOL    HW1 2435   6.943   2.214   5.212
  512SOL    HW2 2436   6.880   2.173   5.357
  513SOL     OW 2437   5.467   1.068   2.878
  513SOL    HW1 2438   5.485   0.974   2.848
  513SOL    HW2 2439   5.436   1.068   2.973
  514SOL     OW 2440   6.391   6.961   4.453
  514SOL    HW1 2441   6.349   0.027   4.434
  514SOL    HW2 2442   6.369   6.933   4.546
  515SOL     OW 2443   3.906   0.591   5.963
  515SOL    HW1 2444   3.954   0.599   6.050
  515SOL    HW2 2445   3.966   0.622   5.889
  516SOL     OW 2446   2.218   6.036   1.619
  516SOL    HW1 2447   2.183   6.126   1.593
  516SOL    HW2 2448   2.288   6.008   1.553
  517SOL     OW 2449   3.624   5.744   1.011
  517SOL    HW1 2450   3.602   5.787   1.098
  517SOL    HW2 2451   3.658   5.651   1.027
  518SOL     OW 2452   2.047   3.490   3.922
  518SOL    HW1 2453   1.962   3.443   3.946
  518SOL    HW2 2454   2.030   3.588   3.915
  519SOL     OW 2455   0.257   0.169   2.942
  519SOL    HW1 2456   0.180   0.219   2.901
  519SOL    HW2 2457   0.241   0.071   2.935
  520SOL     OW 2458   0.874   3.118   0.517
  520SOL    HW1 2459   0.918   3.202   0.548
  520SOL    HW2 2460   0.779   3.136   0.494
  521SOL     OW 2461   6.312   5.684   5.098
  521SOL    HW1 2462   6.278   5.737   5.019
  521SOL    HW2 2463   6.238   5.673   5.165
  522SOL     OW 2464   3.664   3.911   1.586
  522SOL    HW1 2465   3.626   3.828   1.546
  522SOL    HW2 2466   3.696   3.893   1.679
  523SOL     OW 2467   0.742   6.943   1.167
  523SOL    HW1 2468   0.737   6.868   1.102
  523SOL    HW2 2469   0.759   0.006   1.118
  524SOL     OW 2470   6.978   2.176   1.898
  524SOL    HW1 2471   6.951   2.116   1.821
  524SOL    HW2 2472   0.054   2.190   1.896
  525SOL     OW 2473   1.476   3.400   5.557
  525SOL    HW1 2474   1.571   3.368   5.558
  525SOL    HW2 2475   1.419   3.334   5.509
  526SOL     OW 2476   2.796   6.887   4.597
  526SOL    HW1 2477   2.779   6.986   4.601
  526SOL    HW2 2478   2.802   6.859   4.501
  527SOL     OW 2479   0.560   0.877   0.585
  527SOL    HW1 2480   0.609   0.861   0.670
  527SOL    HW2 2481   0.564   0.794   0.528
  528SOL     OW 2482   6.810   3.265   4.050
  528SOL    HW1 2483   6.850   3.320   4.123
  528SOL    HW2 2484   6.717   3.239   4.074
  529SOL     OW 2485   1.413   0.803   6.984
  529SOL    HW1 2486   1.495   0.805   0.018
  529SOL    HW2 2487   1.390   0.709   6.961
  530SOL     OW 2488   4.315   3.742   0.675
  530SOL    HW1 2489   4.350   3.702   0.760
  530SOL    HW2 2490   4.391   3.768   0.617
  531SOL     OW 2491   1.257   1.074   0.994
  531SOL    HW1 2492   1.230   1.002   1.058
  531SOL    HW2 2493   1.247   1.041   0.900
  532SOL     OW 2494   2.455   2.341   0.661
  532SOL    HW1 2495   2.534   2.294   0.700
  532SOL    HW2 2496   2.391   2.364   0.734
  533SOL     OW 2497   3.942   0.650   4.267
  533SOL    HW1 2498   3.972   0.721   4.331
  533SOL    HW2 2499   4.022   0.598   4.236
  534SOL     OW 2500   1.389   5.079   1.246
  534SOL    HW1 2501   1.344   4.999   1.287
  534SOL    HW2 2502   1.337   5.161   1.267
  535SOL     OW 2503   5.123   3.525   3.561
  535SOL    HW1 2504   5.067   3.467   3.620
  535SOL    HW2 2505   5.078   3.536   3.472
  536SOL     OW 2506   6.567   6.842   2.600
  536SOL    HW1 2507   6.590   6.830   2.696
  536SOL    HW2 2508   6.651   6.855   2.547
  537SOL     OW 2509   3.857   1.543   4.051
  537SOL    HW1 2510   3.811   1.505   4.131
  537SOL    HW2 2511   3.831   1.639   4.040
  538SOL     OW 2512   2.889   4.587   5.766
  538SOL    HW1 2513   2.964   4.640   5.726
  538SOL    HW2 2514   2.918   4.492   5.777
  539SOL     OW 2515   1.349   0.073   0.196
  539SOL    HW1 2516   1.259   0.063   0.237
  539SOL    HW2 2517   1.396   0.151   0.237
  540SOL     OW 2518   0.654   0.237   4.298
  540SOL    HW1 2519   0.604   0.297   4.362
  540SOL    HW2 2520   0.669   0.286   4.212
  541SOL     OW 2521   4.506   5.713   4.645
  541SOL    HW1 2522   4.471   5.743   4.733
  541SOL    HW2 2523   4.601   5.682   4.655
  542SOL     OW 2524   3.238   0.515   6.273
  542SOL    HW1 2525   3.265   0.499   6.367
  542SOL    HW2 2526   3.176   0.442   6.243
  543SOL     OW 2527   5.870   2.154   4.146
  543SOL    HW1 2528   5.776   2.168   4.177
  543SOL    HW2 2529   5.924   2.114   4.220
  544SOL     OW 2530   1.204   3.861   1.192
  544SOL    HW1 2531   1.174   3.938   1.136
  544SOL    HW2 2532   1.154   3.779   1.166
  545SOL     OW 2533   5.744   1.612   0.984
  545SOL    HW1 2534   5.689   1.646   0.907
  545SOL    HW2 2535   5.690   1.617   1.068
  546SOL     OW 2536   0.666   4.078   2.434
  546SOL    HW1 2537   0.650   4.170   2.398
  546SOL    HW2 2538   0.584   4.022   2.422
  547SOL     OW 2539   3.948   1.372   6.253
  547SOL    HW1 2540   4.007   1.447   6.283
  547SOL    HW2 2541   3.895   1.401   6.174
  548SOL     OW 2542   3.220   2.610   0.012
  548SOL    HW1 2543   3.271   2.638   0.094
  548SOL    HW2 2544   3.241   2.672   6.959
  549SOL     OW 2545   6.213   1.907   1.511
  549SOL    HW1 2546   6.197   1.810   1.493
  549SOL    HW2 2547   6.310   1.922   1.529
  550SOL     OW 2548   0.244   5.216   3.222
  550SOL    HW1 2549   0.315   5.217   3.293
  550SOL    HW2 2550   0.263   5.142   3.158
  551SOL     OW 2551   6.281   0.932   0.379
  551SOL    HW1 2552   6.367   0.913   0.330
  551SOL    HW2 2553   6.259   0.854   0.437
  552SOL     OW 2554   5.910   5.185   5.785
  552SOL    HW1 2555   5.913   5.281   5.759
  552SOL    HW2 2556   5.829   5.168   5.842
  553SOL     OW 2557   3.265   0.896   6.123
  553SOL    HW1 2558   3.222   0.945   6.047
  553SOL    HW2 2559   3.232   0.802   6.125
  554SOL     OW 2560   5.867   6.108   0.975
  554SOL    HW1 2561   5.926   6.046   0.924
  554SOL    HW2 2562   5.923   6.160   1.040
  555SOL     OW 2563   1.538   4.159   6.001
  555SOL    HW1 2564   1.514   4.156   5.904
  555SOL    HW2 2565   1.459   4.134   6.056
  556SOL     OW 2566   5.328   0.499   3.742
  556SOL    HW1 2567   5.283   0.567   3.800
  556SOL    HW2 2568   5.263   0.426   3.719
  557SOL     OW 2569   6.329   4.678   6.731
  557SOL    HW1 2570   6.370   4.768   6.741
  557SOL    HW2 2571   6.385   4.611   6.780
  558SOL     OW 2572   3.172   3.900   2.418
  558SOL    HW1 2573   3.078   3.865   2.424
  558SOL    HW2 2574   3.233   3.826   2.390
  559SOL     OW 2575   6.515   6.644   5.730
  559SOL    HW1 2576   6.595   6.657   5.672
  559SOL    HW2 2577   6.436   6.688   5.688
  560SOL     OW 2578   6.550   3.166   2.913
  560SOL    HW1 2579   6.643   3.141   2.937
  560SOL    HW2 2580   6.495   3.083   2.901
  561SOL     OW 2581   0.791   2.823   6.694
  561SOL    HW1 2582   0.835   2.753   6.751
  561SOL    HW2 2583   0.790   2.910   6.743
  562SOL     OW 2584   4.313   0.422   5.363
  562SOL    HW1 2585   4.349   0.337   5.403
  562SOL    HW2 2586   4.215   0.411   5.344
  563SOL     OW 2587   2.023   1.553   4.613
  563SOL    HW1 2588   2.052   1.639   4.571
  563SOL    HW2 2589   2.102   1.493   4.624
  564SOL     OW 2590   0.009   2.344   5.141
  564SOL    HW1 2591   0.004   2.367   5.044
  564SOL    HW2 2592   0.016   2.428   5.195
  565SOL     OW 2593   3.858   3.191   3.823
  565SOL    HW1 2594   3.780   3.206   3.762
  565SOL    HW2 2595   3.862   3.094   3.848
  566SOL     OW 2596   3.372   6.628   2.985
  566SOL    HW1 2597   3.324   6.697   2.930
  566SOL    HW2 2598   3.306   6.577   3.039
  567SOL     OW 2599   2.180   2.827   6.986
  567SOL    HW1 2600   2.094   2.790   6.953
  567SOL    HW2 2601   2.242   2.841   6.908
  568SOL     OW 2602   6.817   6.526   0.518
  568SOL    HW1 2603   6.885   6.589   0.480
  568SOL    HW2 2604   6.781   6.564   0.603
  569SOL     OW 2605   6.694   2.051   0.516
  569SOL    HW1 2606   6.611   2.055   0.460
  569SOL    HW2 2607   6.750   2.132   0.498
  570SOL     OW 2608   2.348   0.329   5.772
  570SOL    HW1 2609   2.436   0.296   5.805
  570SOL    HW2 2610   2.297   0.253   5.732
  571SOL     OW 2611   2.642   5.019   2.317
  571SOL    HW1 2612   2.683   4.929   2.331
  571SOL    HW2 2613   2.678   5.059   2.233
  572SOL     OW 2614   2.561   6.796   3.800
  572SOL    HW1 2615   2.549   6.699   3.778
  572SOL    HW2 2616   2.545   6.811   3.897
  573SOL     OW 2617   6.894   1.001   5.838
  573SOL    HW1 2618   6.838   0.958   5.767
  573SOL    HW2 2619   6.985   0.961   5.836
  574SOL     OW 2620   2.709   2.103   5.912
  574SOL    HW1 2621   2.675   2.061   5.827
  574SOL    HW2 2622   2.792   2.055   5.941
  575SOL     OW 2623   3.249   3.807   0.807
  575SOL    HW1 2624   3.299   3.825   0.722
  575SOL    HW2 2625   3.262   3.712   0.834
  576SOL     OW 2626   2.353   2.758   3.125
  576SOL    HW1 2627   2.406   2.714   3.197
  576SOL    HW2 2628   2.341   2.855   3.146
  577SOL     OW 2629   0.786   1.420   1.706
  577SOL    HW1 2630   0.818   1.480   1.780
  577SOL    HW2 2631   0.702   1.374   1.735
  578SOL     OW 2632   2.113   6.114   6.888
  578SOL    HW1 2633   2.034   6.125   6.947
  578SOL    HW2 2634   2.114   6.186   6.818
  579SOL     OW 2635   2.296   4.714   1.944
  579SOL    HW1 2636   2.316   4.812   1.948
  579SOL    HW2 2637   2.381   4.663   1.935
  580SOL     OW 2638   4.366   5.463   4.930
  580SOL    HW1 2639   4.393   5.398   5.001
  580SOL    HW2 2640   4.447   5.492   4.879
  581SOL     OW 2641   1.715   2.684   4.292
  581SOL    HW1 2642   1.653   2.685   4.214
  581SOL    HW2 2643   1.796   2.739   4.271
  582SOL     OW 2644   5.988   5.394   3.612
  582SOL    HW1 2645   6.021   5.471   3.666
  582SOL    HW2 2646   5.959   5.426   3.522
  583SOL     OW 2647   3.523   5.328   5.721
  583SOL    HW1 2648   3.621   5.341   5.704
  583SOL    HW2 2649   3.509   5.241   5.768
  584SOL     OW 2650   4.527   0.849   6.477
  584SOL    HW1 2651   4.470   0.931   6.470
  584SOL    HW2 2652   4.623   0.873   6.468
  585SOL     OW 2653   2.917   6.442   1.474
  585SOL    HW1 2654   2.950   6.466   1.383
  585SOL    HW2 2655   2.956   6.505   1.541
  586SOL     OW 2656   4.591   0.071   0.741
  586SOL    HW1 2657   4.670   0.010   0.742
  586SOL    HW2 2658   4.572   0.103   0.834
  587SOL     OW 2659   5.069   1.993   2.236
  587SOL    HW1 2660   5.089   2.081   2.279
  587SOL    HW2 2661   5.044   2.007   2.140
  588SOL     OW 2662   0.922   5.589   2.367
  588SOL    HW1 2663   0.873   5.578   2.281
  588SOL    HW2 2664   0.954   5.499   2.399
  589SOL     OW 2665   3.644   5.839   1.273
  589SOL    HW1 2666   3.638   5.897   1.355
  589SOL    HW2 2667   3.739   5.838   1.241
  590SOL     OW 2668   4.519   1.670   0.155
  590SOL    HW1 2669   4.468   1.607   0.214
  590SOL    HW2 2670   4.523   1.760   0.198
  591SOL     OW 2671   4.231   6.022   4.613
  591SOL    HW1 2672   4.291   5.999   4.690
  591SOL    HW2 2673   4.147   6.064   4.647
  592SOL     OW 2674   4.355   2.373   3.890
  592SOL    HW1 2675   4.281   2.337   3.946
  592SOL    HW2 2676   4.329   2.368   3.793
  593SOL     OW 2677   3.420   1.166   5.742
  593SOL    HW1 2678   3.435   1.265   5.738
  593SOL    HW2 2679   3.405   1.131   5.649
  594SOL     OW 2680   5.901   1.153   2.091
  594SOL    HW1 2681   5.830   1.138   2.022
  594SOL    HW2 2682   5.895   1.247   2.125
  595SOL     OW 2683   5.248   6.027   2.619
  595SOL    HW1 2684   5.193   5.985   2.547
  595SOL    HW2 2685   5.341   5.989   2.617
  596SOL     OW 2686   6.807   4.253   4.049
  596SOL    HW1 2687   6.714   4.280   4.023
  596SOL    HW2 2688   6.863   4.246   3.966
  597SOL     OW 2689   2.799   0.469   6.178
  597SOL    HW1 2690   2.767   0.517   6.260
  597SOL    HW2 2691   2.801   0.533   6.101
  598SOL     OW 2692   3.287   3.220   4.611
  598SOL    HW1 2693   3.329   3.242   4.523
  598SOL    HW2 2694   3.197   3.180   4.595
  599SOL     OW 2695   1.060   5.980   2.038
  599SOL    HW1 2696   1.147   6.028   2.045
  599SOL    HW2 2697   0.986   6.047   2.033
  600SOL     OW 2698   6.896   3.833   4.837
  600SOL    HW1 2699   6.981   3.826   4.785
  600SOL    HW2 2700   6.850   3.745   4.838
  601SOL     OW 2701   1.619   0.531   5.174
  601SOL    HW1 2702   1.581   0.601   5.234
  601SOL    HW2 2703   1.663   0.460   5.229
  602SOL     OW 2704   2.937   5.992   3.924
  602SOL    HW1 2705   2.967   5.898   3.912
  602SOL    HW2 2706   2.858   5.995   3.985
  603SOL     OW 2707   1.823   1.225   5.452
  603SOL    HW1 2708   1.775   1.187   5.531
  603SOL    HW2 2709   1.773   1.305   5.418
  604SOL     OW 2710   6.340   2.509   1.336
  604SOL    HW1 2711   6.288   2.457   1.405
  604SOL    HW2 2712   6.320   2.606   1.347
  605SOL     OW 2713   0.233   5.291   2.691
  605SOL    HW1 2714   0.282   5.302   2.604
  605SOL    HW2 2715   0.192   5.378   2.717
  606SOL     OW 2716   3.870   6.971   4.864
  606SOL    HW1 2717   3.939   6.914   4.908
  606SOL    HW2 2718   3.886   0.044   4.887
  607SOL     OW 2719   1.026   4.681   6.151
  607SOL    HW1 2720   1.097   4.746   6.124
  607SOL    HW2 2721   1.004   4.621   6.075
  608SOL     OW 2722   3.070   1.057   5.224
  608SOL    HW1 2723   3.056   1.112   5.306
  608SOL    HW2 2724   2.983   1.017   5.195
  609SOL     OW 2725   3.803   2.659   1.505
  609SOL    HW1 2726   3.846   2.608   1.431
  609SOL    HW2 2727   3.867   2.725   1.543
  610SOL     OW 2728   4.942   3.486   0.531
  610SOL    HW1 2729   4.975   3.462   0.623
  610SOL    HW2 2730   5.019   3.509   0.472
  611SOL     OW 2731   3.709   0.297   2.348
  611SOL    HW1 2732   3.654   0.301   2.431
  611SOL    HW2 2733   3.695   0.380   2.295
  612SOL     OW 2734   3.928   4.617   5.917
  612SOL    HW1 2735   3.913   4.520   5.933
  612SOL    HW2 2736   3.896   4.641   5.825
  613SOL     OW 2737   4.166   5.098   5.191
  613SOL    HW1 2738   4.086   5.146   5.154
  613SOL    HW2 2739   4.227   5.164   5.236
  614SOL     OW 2740   4.575   5.454   5.895
  614SOL    HW1 2741   4.645   5.522   5.871
  614SOL    HW2 2742   4.493   5.501   5.926
  615SOL     OW 2743   0.312   4.966   1.228
  615SOL    HW1 2744   0.269   4.888   1.184
  615SOL    HW2 2745   0.269   4.981   1.318
  616SOL     OW 2746   5.754   3.414   3.092
  616SOL    HW1 2747   5.791   3.349   3.025
  616SOL    HW2 2748   5.656   3.397   3.103
  617SOL     OW 2749   2.212   5.134   6.170
  617SOL    HW1 2750   2.118   5.168   6.172
  617SOL    HW2 2751   2.274   5.210   6.148
  618SOL     OW 2752   1.520   0.803   2.192
  618SOL    HW1 2753   1.545   0.777   2.099
  618SOL    HW2 2754   1.484   0.724   2.241
  619SOL     OW 2755   1.237   1.458   6.470
  619SOL    HW1 2756   1.144   1.474   6.437
  619SOL    HW2 2757   1.257   1.360   6.466
  620SOL     OW 2758   4.953   3.699   0.188
  620SOL    HW1 2759   4.886   3.630   0.216
  620SOL    HW2 2760   4.953   3.774   0.254
  621SOL     OW 2761   0.411   4.507   1.389
  621SOL    HW1 2762   0.357   4.534   1.469
  621SOL    HW2 2763   0.429   4.588   1.333
  622SOL     OW 2764   2.245   1.830   0.247
  622SOL    HW1 2765   2.256   1.760   0.317
  622SOL    HW2 2766   2.259   1.789   0.156
  623SOL     OW 2767   0.545   4.685   6.289
  623SOL    HW1 2768   0.571   4.654   6.198
  623SOL    HW2 2769   0.549   4.785   6.292
  624SOL     OW 2770   1.024   2.799   2.757
  624SOL    HW1 2771   1.095   2.804   2.827
  624SOL    HW2 2772   0.965   2.879   2.764
  625SOL     OW 2773   2.597   1.729   2.359
  625SOL    HW1 2774   2.510   1.682   2.369
  625SOL    HW2 2775   2.609   1.793   2.435
  626SOL     OW 2776   2.603   6.386   4.597
  626SOL    HW1 2777   2.554   6.435   4.524
  626SOL    HW2 2778   2.696   6.421   4.603
  627SOL     OW 2779   5.280   0.572   0.320
  627SOL    HW1 2780   5.195   0.544   0.275
  627SOL    HW2 2781   5.261   0.650   0.380
  628SOL     OW 2782   5.106   4.105   3.873
  628SOL    HW1 2783   5.049   4.023   3.877
  628SOL    HW2 2784   5.048   4.187   3.874
  629SOL     OW 2785   0.653   0.234   1.239
  629SOL    HW1 2786   0.656   0.262   1.143
  629SOL    HW2 2787   0.741   0.193   1.264
  630SOL     OW 2788   4.469   1.939   0.958
  630SOL    HW1 2789   4.449   2.006   0.887
  630SOL    HW2 2790   4.568   1.922   0.962
  631SOL     OW 2791   2.631   6.945   5.373
  631SOL    HW1 2792   2.590   7.022   5.423
  631SOL    HW2 2793   2.622   6.861   5.427
  632SOL     OW 2794   2.201   1.216   1.208
  632SOL    HW1 2795   2.191   1.121   1.178
  632SOL    HW2 2796   2.144   1.275   1.152
  633SOL     OW 2797   2.888   0.053   6.357
  633SOL    HW1 2798   2.789   0.064   6.365
  633SOL    HW2 2799   2.933   0.109   6.426
  634SOL     OW 2800   3.723   5.400   0.748
  634SOL    HW1 2801   3.717   5.500   0.739
  634SOL    HW2 2802   3.748   5.376   0.842
  635SOL     OW 2803   3.218   6.961   2.567
  635SOL    HW1 2804   3.243   6.936   2.473
  635SOL    HW2 2805   3.135   7.016   2.565
  636SOL     OW 2806   4.924   4.872   0.062
  636SOL    HW1 2807   4.894   4.781   0.031
  636SOL    HW2 2808   5.019   4.886   0.033
  637SOL     OW 2809   4.906   3.982   1.106
  637SOL    HW1 2810   4.827   3.951   1.160
  637SOL    HW2 2811   4.873   4.029   1.024
  638SOL     OW 2812   4.714   1.415   2.119
  638SOL    HW1 2813   4.636   1.388   2.063
  638SOL    HW2 2814   4.685   1.487   2.183
  639SOL     OW 2815   4.198   4.728   2.316
  639SOL    HW1 2816   4.192   4.640   2.270
  639SOL    HW2 2817   4.126   4.788   2.281
  640SOL     OW 2818   3.114   4.427   5.377
  640SOL    HW1 2819   3.045   4.425   5.304
  640SOL    HW2 2820   3.170   4.509   5.368
  641SOL     OW 2821   0.073   6.003   4.940
  641SOL    HW1 2822   0.125   6.082   4.908
  641SOL    HW2 2823   0.055   6.012   5.038
  642SOL     OW 2824   0.426   5.171   5.037
  642SOL    HW1 2825   0.469   5.106   5.100
  642SOL    HW2 2826   0.451   5.264   5.062
  643SOL     OW 2827   5.885   5.473   6.177
  643SOL    HW1 2828   5.978   5.510   6.170
  643SOL    HW2 2829   5.842   5.474   6.086
  644SOL     OW 2830   0.865   6.817   2.334
  644SOL    HW1 2831   0.877   6.861   2.423
  644SOL    HW2 2832   0.806   6.737   2.344
  645SOL     OW 2833   6.069   2.842   4.016
  645SOL    HW1 2834   6.013   2.881   4.090
  645SOL    HW2 2835   6.096   2.749   4.041
  646SOL     OW 2836   1.732   1.609   4.779
  646SOL    HW1 2837   1.826   1.643   4.775
  646SOL    HW2 2838   1.728   1.532   4.843
  647SOL     OW 2839   6.256   3.227   0.392
  647SOL    HW1 2840   6.274   3.167   0.470
  647SOL    HW2 2841   6.311   3.310   0.400
  648SOL     OW 2842   6.040   3.858   2.297
  648SOL    HW1 2843   5.958   3.808   2.269
  648SOL    HW2 2844   6.085   3.894   2.216
  649SOL     OW 2845   4.166   4.643   0.680
  649SOL    HW1 2846   4.118   4.564   0.643
  649SOL    HW2 2847   4.194   4.625   0.774
  650SOL     OW 2848   4.660   4.449   0.761
  650SOL    HW1 2849   4.706   4.391   0.827
  650SOL    HW2 2850   4.599   4.513   0.810
  651SOL     OW 2851   0.927   6.114   0.320
  651SOL    HW1 2852   0.855   6.182   0.308
  651SOL    HW2 2853   0.959   6.117   0.415
  652SOL     OW 2854   4.255   0.950   2.305
  652SOL    HW1 2855   4.304   0.954   2.392
  652SOL    HW2 2856   4.319   0.969   2.230
  653SOL     OW 2857   3.941   4.813   3.738
  653SOL    HW1 2858   3.845   4.805   3.764
  653SOL    HW2 2859   3.998   4.798   3.819
  654SOL     OW 2860   6.902   4.789   0.399
  654SOL    HW1 2861   6.853   4.873   0.377
  654SOL    HW2 2862   7.000   4.805   0.394
  655SOL     OW 2863   0.711   0.586   1.116
  655SOL    HW1 2864   0.709   0.648   1.194
  655SOL    HW2 2865   0.638   0.610   1.052
  656SOL     OW 2866   2.598   6.463   2.146
  656SOL    HW1 2867   2.601   6.378   2.199
  656SOL    HW2 2868   2.504   6.498   2.143
  657SOL     OW 2869   3.691   1.379   0.624
  657SOL    HW1 2870   3.654   1.365   0.532
  657SOL    HW2 2871   3.777   1.428   0.618
  658SOL     OW 2872   2.846   3.802   6.872
  658SOL    HW1 2873   2.752   3.770   6.872
  658SOL    HW2 2874   2.853   3.886   6.926
  659SOL     OW 2875   2.756   6.834   6.940
  659SOL    HW1 2876   2.827   6.839   6.869
  659SOL    HW2 2877   2.669   6.865   6.902
  660SOL     OW 2878   3.544   5.450   2.682
  660SOL    HW1 2879   3.494   5.418   2.601
  660SOL    HW2 2880   3.585   5.539   2.663
  661SOL     OW 2881   4.892   5.412   2.665
  661SOL    HW1 2882   4.797   5.387   2.682
  661SOL    HW2 2883   4.952   5.336   2.690
  662SOL     OW 2884   3.525   1.300   6.354
  662SOL    HW1 2885   3.584   1.379   6.335
  662SOL    HW2 2886   3.450   1.328   6.413
  663SOL     OW 2887   2.277   4.527   5.389
  663SOL    HW1 2888   2.251   4.575   5.306
  663SOL    HW2 2889   2.362   4.475   5.373
  664SOL     OW 2890   6.647   0.831   6.962
  664SOL    HW1 2891   6.625   0.895   0.013
  664SOL    HW2 2892   6.570   0.827   6.898
  665SOL     OW 2893   2.274   5.767   3.080
  665SOL    HW1 2894   2.329   5.808   3.007
  665SOL    HW2 2895   2.296   5.670   3.088
  666SOL     OW 2896   4.142   0.610   1.667
  666SOL    HW1 2897   4.225   0.619   1.613
  666SOL    HW2 2898   4.068   0.662   1.623
  667SOL     OW 2899   0.953   6.419   2.471
  667SOL    HW1 2900   0.895   6.484   2.520
  667SOL    HW2 2901   0.909   6.329   2.470
  668SOL     OW 2902   5.349   4.014   6.367
  668SOL    HW1 2903   5.448   4.016   6.356
  668SOL    HW2 2904   5.310   3.944   6.307
  669SOL     OW 2905   5.247   1.343   3.086
  669SOL    HW1 2906   5.179   1.275   3.112
  669SOL    HW2 2907   5.219   1.387   3.001
  670SOL     OW 2908   1.670   2.147   3.544
  670SOL    HW1 2909   1.751   2.202   3.564
  670SOL    HW2 2910   1.669   2.067   3.604
  671SOL     OW 2911   2.434   6.445   1.322
  671SOL    HW1 2912   2.412   6.350   1.299
  671SOL    HW2 2913   2.531   6.462   1.304
  672SOL     OW 2914   0.901   7.004   2.595
  672SOL    HW1 2915   0.972   6.944   2.632
  672SOL    HW2 2916   0.941   0.043   2.528
  673SOL     OW 2917   5.483   6.570   0.686
  673SOL    HW1 2918   5.531   6.657   0.676
  673SOL    HW2 2919   5.439   6.546   0.600
  674SOL     OW 2920   0.129   0.757   5.020
  674SOL    HW1 2921   0.191   0.705   5.080
  674SOL    HW2 2922   0.085   0.694   4.955
  675SOL     OW 2923   6.308   3.230   2.637
  675SOL    HW1 2924   6.324   3.230   2.736
  675SOL    HW2 2925   6.247   3.154   2.614
  676SOL     OW 2926   2.207   5.356   5.764
  676SOL    HW1 2927   2.196   5.288   5.690
  676SOL    HW2 2928   2.299   5.395   5.760
  677SOL     OW 2929   4.612   0.924   1.070
  677SOL    HW1 2930   4.624   0.909   0.971
  677SOL    HW2 2931   4.643   0.842   1.119
  678SOL     OW 2932   2.022   4.365   5.264
  678SOL    HW1 2933   2.044   4.369   5.361
  678SOL    HW2 2934   1.929   4.399   5.249
  679SOL     OW 2935   5.062   2.040   5.191
  679SOL    HW1 2936   5.001   1.961   5.186
  679SOL    HW2 2937   5.155   2.012   5.167
  680SOL     OW 2938   5.040   6.541   3.973
  680SOL    HW1 2939   5.085   6.631   3.978
  680SOL    HW2 2940   5.103   6.475   3.932
  681SOL     OW 2941   5.111   5.216   2.037
  681SOL    HW1 2942   5.209   5.232   2.050
  681SOL    HW2 2943   5.072   5.289   1.981
  682SOL     OW 2944   0.958   0.583   3.072
  682SOL    HW1 2945   0.886   0.521   3.039
  682SOL    HW2 2946   1.043   0.563   3.024
  683SOL     OW 2947   4.118   3.382   1.455
  683SOL    HW1 2948   4.197   3.419   1.406
  683SOL    HW2 2949   4.105   3.435   1.539
  684SOL     OW 2950   6.404   0.275   5.629
  684SOL    HW1 2951   6.344   0.344   5.670
  684SOL    HW2 2952   6.469   0.241   5.697
  685SOL     OW 2953   3.754   0.605   3.066
  685SOL    HW1 2954   3.814   0.583   3.142
  685SOL    HW2 2955   3.735   0.522   3.013
  686SOL     OW 2956   4.170   1.343   4.641
  686SOL    HW1 2957   4.160   1.354   4.542
  686SOL    HW2 2958   4.141   1.251   4.667
  687SOL     OW 2959   1.632   1.840   4.417
  687SOL    HW1 2960   1.572   1.919   4.431
  687SOL    HW2 2961   1.580   1.756   4.432
  688SOL     OW 2962   6.134   1.235   6.817
  688SOL    HW1 2963   6.116   1.181   6.899
  688SOL    HW2 2964   6.231   1.260   6.814
  689SOL     OW 2965   1.372   5.109   5.723
  689SOL    HW1 2966   1.294   5.070   5.773
  689SOL    HW2 2967   1.437   5.036   5.701
  690SOL     OW 2968   5.894   3.828   2.566
  690SOL    HW1 2969   5.838   3.746   2.565
  690SOL    HW2 2970   5.908   3.861   2.472
  691SOL     OW 2971   4.230   2.054   6.851
  691SOL    HW1 2972   4.268   2.066   6.943
  691SOL    HW2 2973   4.285   1.988   6.801
  692SOL     OW 2974   3.082   1.392   4.466
  692SOL    HW1 2975   3.028   1.432   4.540
  692SOL    HW2 2976   3.161   1.345   4.505
  693SOL     OW 2977   5.513   6.180   3.620
  693SOL    HW1 2978   5.526   6.187   3.719
  693SOL    HW2 2979   5.480   6.268   3.584
  694SOL     OW 2980   4.450   5.733   4.919
  694SOL    HW1 2981   4.399   5.649   4.935
  694SOL    HW2 2982   4.387   5.806   4.892
  695SOL     OW 2983   3.158   6.678   4.440
  695SOL    HW1 2984   3.117   6.755   4.489
  695SOL    HW2 2985   3.253   6.666   4.471
  696SOL     OW 2986   4.879   4.755   2.976
  696SOL    HW1 2987   4.962   4.754   3.031
  696SOL    HW2 2988   4.883   4.681   2.908
  697SOL     OW 2989   0.325   5.061   2.192
  697SOL    HW1 2990   0.277   4.994   2.248
  697SOL    HW2 2991   0.258   5.122   2.148
  698SOL     OW 2992   5.385   6.725   1.048
  698SOL    HW1 2993   5.402   6.654   0.981
  698SOL    HW2 2994   5.360   6.810   1.002
  699SOL     OW 2995   2.915   2.239   0.704
  699SOL    HW1 2996   2.819   2.249   0.729
  699SOL    HW2 2997   2.966   2.200   0.781
  700SOL     OW 2998   3.707   6.703   2.613
  700SOL    HW1 2999   3.650   6.630   2.576
  700SOL    HW2 3000   3.687   6.788   2.564
  701SOL     OW 3001   5.955   5.288   1.179
  701SOL    HW1 3002   6.042   5.245   1.202
  701SOL    HW2 3003   5.881   5.241   1.228
  702SOL     OW 3004   2.836   0.806   4.275
  702SOL    HW1 3005   2.755   0.863   4.290
  702SOL    HW2 3006   2.891   0.802   4.358
  703SOL     OW 3007   3.014   2.518   6.118
  703SOL    HW1 3008   3.040   2.593   6.058
  703SOL    HW2 3009   2.987   2.439   6.064
  704SOL     OW 3010   1.380   2.847   6.152
  704SOL    HW1 3011   1.433   2.763   6.162
  704SOL    HW2 3012   1.324   2.861   6.234
  705SOL     OW 3013   6.835   6.266   4.278
  705SOL    HW1 3014   6.808   6.184   4.226
  705SOL    HW2 3015   6.754   6.302   4.326
  706SOL     OW 3016   4.610   1.217   4.999
  706SOL    HW1 3017   4.705   1.234   5.024
  706SOL    HW2 3018   4.576   1.137   5.049
  707SOL     OW 3019   3.474   4.947   3.278
  707SOL    HW1 3020   3.449   4.946   3.181
  707SOL    HW2 3021   3.570   4.924   3.289
  708SOL     OW 3022   3.409   0.709   3.569
  708SOL    HW1 3023   3.493   0.729   3.517
  708SOL    HW2 3024   3.390   0.785   3.631
  709SOL     OW 3025   2.043   0.520   1.498
  709SOL    HW1 3026   1.993   0.449   1.548
  709SOL    HW2 3027   2.007   0.610   1.523
  710SOL     OW 3028   4.769   2.877   1.732
  710SOL    HW1 3029   4.707   2.940   1.780
  710SOL    HW2 3030   4.859   2.878   1.777
  711SOL     OW 3031   0.040   2.401   5.993
  711SOL    HW1 3032   0.048   2.481   6.052
  711SOL    HW2 3033   0.120   2.342   6.005
  712SOL     OW 3034   5.120   2.964   0.365
  712SOL    HW1 3035   5.140   3.020   0.284
  712SOL    HW2 3036   5.203   2.950   0.417
  713SOL     OW 3037   4.133   2.762   5.328
  713SOL    HW1 3038   4.169   2.675   5.292
  713SOL    HW2 3039   4.036   2.769   5.306
  714SOL     OW 3040   5.646   4.815   3.373
  714SOL    HW1 3041   5.645   4.842   3.277
  714SOL    HW2 3042   5.740   4.817   3.408
  715SOL     OW 3043   6.258   5.325   5.834
  715SOL    HW1 3044   6.337   5.280   5.792
  715SOL    HW2 3045   6.262   5.313   5.933
  716SOL     OW 3046   1.782   0.976   2.451
  716SOL    HW1 3047   1.689   0.947   2.429
  716SOL    HW2 3048   1.831   0.996   2.366
  717SOL     OW 3049   5.808   4.873   3.736
  717SOL    HW1 3050   5.895   4.858   3.691
  717SOL    HW2 3051   5.764   4.954   3.698
  718SOL     OW 3052   5.238   1.820   4.298
  718SOL    HW1 3053   5.206   1.915   4.306
  718SOL    HW2 3054   5.245   1.796   4.201
  719SOL     OW 3055   5.851   0.293   3.045
  719SOL    HW1 3056   5.821   0.301   2.950
  719SOL    HW2 3057   5.950   0.290   3.049
  720SOL     OW 3058   2.222   1.165   0.077
  720SOL    HW1 3059   2.270   1.239   0.029
  720SOL    HW2 3060   2.203   1.194   0.171
  721SOL     OW 3061   7.004   2.540   2.836
  721SOL    HW1 3062   0.016   2.487   2.759
  721SOL    HW2 3063   6.910   2.513   2.856
  722SOL     OW 3064   4.544   6.714   6.917
  722SOL    HW1 3065   4.445   6.725   6.915
  722SOL    HW2 3066   4.575   6.679   6.828
  723SOL     OW 3067   2.477   5.703   3.759
  723SOL    HW1 3068   2.543   5.759   3.810
  723SOL    HW2 3069   2.503   5.606   3.766
  724SOL     OW 3070   1.089   0.488   3.683
  724SOL    HW1 3071   1.033   0.406   3.700
  724SOL    HW2 3072   1.104   0.499   3.585
  725SOL     OW 3073   1.708   4.507   2.290
  725SOL    HW1 3074   1.807   4.521   2.293
  725SOL    HW2 3075   1.686   4.416   2.324
  726SOL     OW 3076   1.944   4.656   0.763
  726SOL    HW1 3077   1.965   4.704   0.848
  726SOL    HW2 3078   1.950   4.721   0.686
  727SOL     OW 3079   4.629   5.030   5.256
  727SOL    HW1 3080   4.589   5.055   5.344
  727SOL    HW2 3081   4.726   5.010   5.268
  728SOL     OW 3082   0.007   2.965   4.804
  728SOL    HW1 3083   0.034   3.024   4.880
  728SOL    HW2 3084   6.937   2.988   4.775
  729SOL     OW 3085   0.345   3.670   1.582
  729SOL    HW1 3086   0.396   3.716   1.655
  729SOL    HW2 3087   0.404   3.603   1.538
  730SOL     OW 3088   4.907   0.481   2.766
  730SOL    HW1 3089   5.001   0.510   2.748
  730SOL    HW2 3090   4.884   0.502   2.861
  731SOL     OW 3091   4.177   4.441   6.187
  731SOL    HW1 3092   4.265   4.443   6.234
  731SOL    HW2 3093   4.143   4.534   6.176
  732SOL     OW 3094   4.707   1.819   3.321
  732SOL    HW1 3095   4.799   1.826   3.282
  732SOL    HW2 3096   4.706   1.751   3.394
  733SOL     OW 3097   6.171   6.456   3.591
  733SOL    HW1 3098   6.256   6.439   3.641
  733SOL    HW2 3099   6.118   6.371   3.584
  734SOL     OW 3100   5.432   5.806   2.815
  734SOL    HW1 3101   5.459   5.862   2.736
  734SOL    HW2 3102   5.363   5.739   2.786
  735SOL     OW 3103   5.409   0.750   2.234
  735SOL    HW1 3104   5.354   0.715   2.158
  735SOL    HW2 3105   5.466   0.826   2.202
  736SOL     OW 3106   1.437   1.642   4.406
  736SOL    HW1 3107   1.361   1.707   4.415
  736SOL    HW2 3108   1.409   1.567   4.346
  737SOL     OW 3109   5.185   1.437   6.302
  737SOL    HW1 3110   5.248   1.500   6.346
  737SOL    HW2 3111   5.137   1.384   6.372
  738SOL     OW 3112   2.749   4.347   1.144
  738SOL    HW1 3113   2.689   4.275   1.109
  738SOL    HW2 3114   2.707   4.436   1.126
  739SOL     OW 3115   3.112   6.885   4.908
  739SOL    HW1 3116   3.122   6.884   5.007
  739SOL    HW2 3117   3.086   6.795   4.875
  740SOL     OW 3118   5.691   2.349   3.209
  740SOL    HW1 3119   5.771   2.402   3.238
  740SOL    HW2 3120   5.609   2.407   3.214
  741SOL     OW 3121   2.990   0.288   3.372
  741SOL    HW1 3122   3.031   0.346   3.443
  741SOL    HW2 3123   2.975   0.196   3.408
  742SOL     OW 3124   1.864   0.225   1.356
  742SOL    HW1 3125   1.936   0.228   1.426
  742SOL    HW2 3126   1.793   0.292   1.378
  743SOL     OW 3127   0.972   6.004   3.528
  743SOL    HW1 3128   0.933   6.027   3.439
  743SOL    HW2 3129   0.997   5.907   3.529
  744SOL     OW 3130   5.138   1.460   0.327
  744SOL    HW1 3131   5.109   1.553   0.348
  744SOL    HW2 3132   5.058   1.400   0.321
  745SOL     OW 3133   2.493   5.661   4.946
  745SOL    HW1 3134   2.417   5.675   4.883
  745SOL    HW2 3135   2.458   5.635   5.036
  746SOL     OW 3136   5.879   4.683   5.747
  746SOL    HW1 3137   5.875   4.717   5.841
  746SOL    HW2 3138   5.974   4.684   5.715
  747SOL     OW 3139   5.576   5.565   3.193
  747SOL    HW1 3140   5.641   5.634   3.221
  747SOL    HW2 3141   5.495   5.609   3.153
  748SOL     OW 3142   5.342   5.552   2.521
  748SOL    HW1 3143   5.283   5.506   2.455
  748SOL    HW2 3144   5.392   5.626   2.475
  749SOL     OW 3145   5.146   4.402   3.508
  749SOL    HW1 3146   5.208   4.455   3.566
  749SOL    HW2 3147   5.187   4.390   3.417
  750SOL     OW 3148   2.344   1.769   2.080
  750SOL    HW1 3149   2.410   1.714   2.130
  750SOL    HW2 3150   2.335   1.858   2.125
  751SOL     OW 3151   4.601   0.499   0.037
  751SOL    HW1 3152   4.637   0.406   0.037
  751SOL    HW2 3153   4.502   0.496   0.026
  752SOL     OW 3154   3.240   2.561   5.321
  752SOL    HW1 3155   3.209   2.544   5.415
  752SOL    HW2 3156   3.231   2.477   5.267
  753SOL     OW 3157   3.560   4.063   4.841
  753SOL    HW1 3158   3.604   4.114   4.915
  753SOL    HW2 3159   3.523   4.127   4.774
  754SOL     OW 3160   5.182   0.537   6.401
  754SOL    HW1 3161   5.115   0.610   6.419
  754SOL    HW2 3162   5.225   0.553   6.313
  755SOL     OW 3163   3.745   4.668   5.345
  755SOL    HW1 3164   3.658   4.623   5.326
  755SOL    HW2 3165   3.811   4.600   5.377
  756SOL     OW 3166   2.358   5.167   6.543
  756SOL    HW1 3167   2.419   5.095   6.509
  756SOL    HW2 3168   2.271   5.164   6.494
  757SOL     OW 3169   2.257   6.963   2.228
  757SOL    HW1 3170   2.259   0.016   2.293
  757SOL    HW2 3171   2.339   6.907   2.238
  758SOL     OW 3172   3.034   1.915   4.032
  758SOL    HW1 3173   3.075   1.931   4.122
  758SOL    HW2 3174   3.084   1.967   3.963
  759SOL     OW 3175   0.696   2.865   4.544
  759SOL    HW1 3176   0.601   2.834   4.537
  759SOL    HW2 3177   0.751   2.820   4.474
  760SOL     OW 3178   6.591   6.276   3.769
  760SOL    HW1 3179   6.602   6.178   3.754
  760SOL    HW2 3180   6.588   6.293   3.868
  761SOL     OW 3181   4.993   4.193   5.509
  761SOL    HW1 3182   4.979   4.143   5.424
  761SOL    HW2 3183   4.914   4.179   5.569
  762SOL     OW 3184   2.839   5.822   4.334
  762SOL    HW1 3185   2.775   5.802   4.408
  762SOL    HW2 3186   2.895   5.740   4.316
  763SOL     OW 3187   5.594   0.739   6.849
  763SOL    HW1 3188   5.626   0.650   6.884
  763SOL    HW2 3189   5.532   0.780   6.916
  764SOL     OW 3190   5.373   6.650   4.986
  764SOL    HW1 3191   5.326   6.727   4.942
  764SOL    HW2 3192   5.323   6.566   4.967
  765SOL     OW 3193   0.444   6.794   0.715
  765SOL    HW1 3194   0.408   6.886   0.732
  765SOL    HW2 3195   0.373   6.737   0.674
  766SOL     OW 3196   1.656   2.387   5.380
  766SOL    HW1 3197   1.726   2.374   5.450
  766SOL    HW2 3198   1.571   2.418   5.422
  767SOL     OW 3199   0.486   6.606   4.180
  767SOL    HW1 3200   0.584   6.585   4.182
  767SOL    HW2 3201   0.469   6.677   4.111
  768SOL     OW 3202   2.706   5.987   2.808
  768SOL    HW1 3203   2.802   5.966   2.828
  768SOL    HW2 3204   2.650   5.906   2.826
  769SOL     OW 3205   2.949   2.211   4.828
  769SOL    HW1 3206   2.884   2.265   4.882
  769SOL    HW2 3207   3.038   2.210   4.874
  770SOL     OW 3208   1.702   4.790   4.582
  770SOL    HW1 3209   1.721   4.857   4.653
  770SOL    HW2 3210   1.788   4.754   4.546
  771SOL     OW 3211   1.193   6.075   2.977
  771SOL    HW1 3212   1.278   6.090   3.028
  771SOL    HW2 3213   1.193   5.982   2.940
  772SOL     OW 3214   5.315   4.368   0.112
  772SOL    HW1 3215   5.328   4.382   0.014
  772SOL    HW2 3216   5.218   4.368   0.134
  773SOL     OW 3217   0.668   3.544   3.643
  773SOL    HW1 3218   0.578   3.543   3.599
  773SOL    HW2 3219   0.668   3.608   3.719
  774SOL     OW 3220   2.549   0.113   3.118
  774SOL    HW1 3221   2.588   0.060   3.193
  774SOL    HW2 3222   2.459   0.148   3.145
  775SOL     OW 3223   2.078   4.252   3.968
  775SOL    HW1 3224   2.148   4.256   3.896
  775SOL    HW2 3225   2.105   4.183   4.036
  776SOL     OW 3226   2.735   6.159   6.344
  776SOL    HW1 3227   2.721   6.151   6.246
  776SOL    HW2 3228   2.659   6.117   6.393
  777SOL     OW 3229   1.966   3.800   0.184
  777SOL    HW1 3230   2.008   3.849   0.108
  777SOL    HW2 3231   2.020   3.718   0.205
  778SOL     OW 3232   3.141   6.953   1.557
  778SOL    HW1 3233   3.189   6.876   1.599
  778SOL    HW2 3234   3.067   6.918   1.499
  779SOL     OW 3235   0.342   1.980   3.014
  779SOL    HW1 3236   0.329   2.035   2.932
  779SOL    HW2 3237   0.332   1.883   2.990
  780SOL     OW 3238   1.491   1.642   5.339
  780SOL    HW1 3239   1.440   1.642   5.425
  780SOL    HW2 3240   1.556   1.718   5.340
  781SOL     OW 3241   0.684   3.868   0.907
  781SOL    HW1 3242   0.589   3.844   0.928
  781SOL    HW2 3243   0.704   3.840   0.813
  782SOL     OW 3244   1.668   3.628   5.650
  782SOL    HW1 3245   1.671   3.722   5.616
  782SOL    HW2 3246   1.702   3.566   5.580
  783SOL     OW 3247   5.598   4.651   6.540
  783SOL    HW1 3248   5.586   4.724   6.473
  783SOL    HW2 3249   5.696   4.637   6.557
  784SOL     OW 3250   3.230   6.776   0.441
  784SOL    HW1 3251   3.151   6.835   0.453
  784SOL    HW2 3252   3.253   6.731   0.528
  785SOL     OW 3253   0.979   6.968   4.710
  785SOL    HW1 3254   0.934   6.920   4.634
  785SOL    HW2 3255   1.070   6.929   4.724
  786SOL     OW 3256   7.006   1.376   3.204
  786SOL    HW1 3257   0.059   1.331   3.155
  786SOL    HW2 3258   6.947   1.306   3.244
  787SOL     OW 3259   2.839   0.178   0.742
  787SOL    HW1 3260   2.894   0.137   0.670
  787SOL    HW2 3261   2.754   0.214   0.703
  788SOL     OW 3262   3.561   3.116   1.251
  788SOL    HW1 3263   3.617   3.194   1.278
  788SOL    HW2 3264   3.485   3.106   1.315
  789SOL     OW 3265   4.232   5.385   1.661
  789SOL    HW1 3266   4.273   5.329   1.589
  789SOL    HW2 3267   4.236   5.481   1.635
  790SOL     OW 3268   0.914   3.123   2.565
  790SOL    HW1 3269   0.984   3.077   2.511
  790SOL    HW2 3270   0.934   3.221   2.570
  791SOL     OW 3271   2.924   5.209   4.893
  791SOL    HW1 3272   2.854   5.273   4.859
  791SOL    HW2 3273   2.959   5.155   4.816
  792SOL     OW 3274   0.987   1.228   0.933
  792SOL    HW1 3275   0.892   1.233   0.963
  792SOL    HW2 3276   1.047   1.253   1.010
  793SOL     OW 3277   3.205   6.088   3.948
  793SOL    HW1 3278   3.106   6.076   3.948
  793SOL    HW2 3279   3.241   6.062   3.858
  794SOL     OW 3280   3.270   3.450   3.489
  794SOL    HW1 3281   3.353   3.500   3.514
  794SOL    HW2 3282   3.259   3.454   3.390
  795SOL     OW 3283   4.051   0.009   6.098
  795SOL    HW1 3284   3.985   6.961   6.124
  795SOL    HW2 3285   4.142   6.991   6.095
  796SOL     OW 3286   1.456   3.546   6.896
  796SOL    HW1 3287   1.384   3.569   6.832
  796SOL    HW2 3288   1.421   3.481   6.964
  797SOL     OW 3289   4.999   6.446   1.097
  797SOL    HW1 3290   4.908   6.407   1.102
  797SOL    HW2 3291   4.993   6.542   1.068
  798SOL     OW 3292   3.884   6.713   0.053
  798SOL    HW1 3293   3.890   6.813   0.044
  798SOL    HW2 3294   3.969   6.678   0.093
  799SOL     OW 3295   1.516   2.465   6.559
  799SOL    HW1 3296   1.542   2.561   6.567
  799SOL    HW2 3297   1.511   2.424   6.650
  800SOL     OW 3298   6.194   2.371   1.517
  800SOL    HW1 3299   6.169   2.309   1.443
  800SOL    HW2 3300   6.185   2.324   1.605
  801SOL     OW 3301   2.049   5.472   5.570
  801SOL    HW1 3302   1.974   5.529   5.604
  801SOL    HW2 3303   2.104   5.439   5.646
  802SOL     OW 3304   6.065   2.855   6.927
  802SOL    HW1 3305   6.040   2.772   6.976
  802SOL    HW2 3306   6.044   2.845   6.830
  803SOL     OW 3307   2.628   1.607   5.450
  803SOL    HW1 3308   2.593   1.695   5.416
  803SOL    HW2 3309   2.695   1.571   5.385
  804SOL     OW 3310   6.522   0.624   1.882
  804SOL    HW1 3311   6.553   0.608   1.975
  804SOL    HW2 3312   6.424   0.602   1.875
  805SOL     OW 3313   3.598   0.494   3.696
  805SOL    HW1 3314   3.541   0.559   3.746
  805SOL    HW2 3315   3.690   0.494   3.735
  806SOL     OW 3316   1.655   6.321   5.420
  806SOL    HW1 3317   1.715   6.401   5.423
  806SOL    HW2 3318   1.561   6.350   5.435
  807SOL     OW 3319   1.080   6.055   5.780
  807SOL    HW1 3320   1.083   6.023   5.875
  807SOL    HW2 3321   1.089   6.155   5.779
  808SOL     OW 3322   5.663   2.946   0.335
  808SOL    HW1 3323   5.615   3.002   0.267
  808SOL    HW2 3324   5.752   2.987   0.354
  809SOL     OW 3325   1.499   4.826   0.133
  809SOL    HW1 3326   1.547   4.846   0.047
  809SOL    HW2 3327   1.413   4.778   0.113
  810SOL     OW 3328   3.357   3.637   0.088
  810SOL    HW1 3329   3.374   3.724   0.043
  810SOL    HW2 3330   3.392   3.563   0.030
  811SOL     OW 3331   5.403   4.692   4.045
  811SOL    HW1 3332   5.323   4.751   4.041
  811SOL    HW2 3333   5.475   4.728   3.986
  812SOL     OW 3334   0.666   2.511   1.693
  812SOL    HW1 3335   0.734   2.449   1.731
  812SOL    HW2 3336   0.577   2.464   1.689
  813SOL     OW 3337   1.351   2.049   4.832
  813SOL    HW1 3338   1.419   2.070   4.903
  813SOL    HW2 3339   1.361   1.954   4.803
  814SOL     OW 3340   0.998   5.123   3.608
  814SOL    HW1 3341   0.965   5.110   3.701
  814SOL    HW2 3342   0.945   5.195   3.563
  815SOL     OW 3343   4.791   2.077   3.595
  815SOL    HW1 3344   4.818   2.037   3.683
  815SOL    HW2 3345   4.695   2.103   3.598
  816SOL     OW 3346   5.539   3.802   6.988
  816SOL    HW1 3347   5.607   3.819   0.037
  816SOL    HW2 3348   5.449   3.787   0.008
  817SOL     OW 3349   0.945   4.797   6.861
  817SOL    HW1 3350   0.887   4.844   6.794
  817SOL    HW2 3351   0.921   4.700   6.865
  818SOL     OW 3352   6.097   2.602   4.104
  818SOL    HW1 3353   6.079   2.505   4.092
  818SOL    HW2 3354   6.032   2.640   4.170
  819SOL     OW 3355   5.155   2.731   2.171
  819SOL    HW1 3356   5.087   2.700   2.105
  819SOL    HW2 3357   5.109   2.779   2.246
  820SOL     OW 3358   2.658   1.984   5.164
  820SOL    HW1 3359   2.592   2.050   5.200
  820SOL    HW2 3360   2.750   2.020   5.176
  821SOL     OW 3361   5.762   3.687   5.088
  821SOL    HW1 3362   5.669   3.656   5.068
  821SOL    HW2 3363   5.825   3.651   5.018
  822SOL     OW 3364   0.711   4.318   3.267
  822SOL    HW1 3365   0.712   4.229   3.221
  822SOL    HW2 3366   0.624   4.330   3.316
  823SOL     OW 3367   0.873   3.634   6.018
  823SOL    HW1 3368   0.781   3.673   6.028
  823SOL    HW2 3369   0.888   3.608   5.923
  824SOL     OW 3370   5.743   1.453   5.711
  824SOL    HW1 3371   5.652   1.486   5.735
  824SOL    HW2 3372   5.779   1.507   5.635
  825SOL     OW 3373   0.041   5.802   0.927
  825SOL    HW1 3374   0.076   5.893   0.904
  825SOL    HW2 3375   0.108   5.753   0.983
  826SOL     OW 3376   3.787   1.027   5.446
  826SOL    HW1 3377   3.794   1.071   5.535
  826SOL    HW2 3378   3.700   1.052   5.404
  827SOL     OW 3379   3.398   3.832   4.060
  827SOL    HW1 3380   3.407   3.765   3.986
  827SOL    HW2 3381   3.302   3.842   4.085
  828SOL     OW 3382   6.144   5.663   5.309
  828SOL    HW1 3383   6.047   5.648   5.291
  828SOL    HW2 3384   6.168   5.623   5.398
  829SOL     OW 3385   3.501   2.902   2.504
  829SOL    HW1 3386   3.459   2.860   2.424
  829SOL    HW2 3387   3.473   2.998   2.510
  830SOL     OW 3388   6.578   4.709   0.151
  830SOL    HW1 3389   6.632   4.659   0.083
  830SOL    HW2 3390   6.634   4.780   0.194
  831SOL     OW 3391   5.536   6.495   1.267
  831SOL    HW1 3392   5.630   6.468   1.290
  831SOL    HW2 3393   5.533   6.529   1.173
  832SOL     OW 3394   3.272   2.151   4.708
  832SOL    HW1 3395   3.329   2.207   4.648
  832SOL    HW2 3396   3.249   2.202   4.791
  833SOL     OW 3397   2.019   3.255   6.327
  833SOL    HW1 3398   1.953   3.321   6.292
  833SOL    HW2 3399   1.983   3.213   6.410
  834SOL     OW 3400   4.939   3.844   6.630
  834SOL    HW1 3401   4.935   3.872   6.726
  834SOL    HW2 3402   5.031   3.811   6.609
  835SOL     OW 3403   0.656   6.384   4.365
  835SOL    HW1 3404   0.591   6.422   4.430
  835SOL    HW2 3405   0.705   6.308   4.408
  836SOL     OW 3406   3.265   1.213   4.644
  836SOL    HW1 3407   3.287   1.308   4.666
  836SOL    HW2 3408   3.193   1.180   4.704
  837SOL     OW 3409   1.352   0.683   0.769
  837SOL    HW1 3410   1.296   0.724   0.696
  837SOL    HW2 3411   1.431   0.741   0.787
  838SOL     OW 3412   2.055   5.892   3.195
  838SOL    HW1 3413   2.041   5.883   3.293
  838SOL    HW2 3414   2.136   5.841   3.167
  839SOL     OW 3415   1.616   1.907   0.777
  839SOL    HW1 3416   1.670   1.867   0.703
  839SOL    HW2 3417   1.675   1.961   0.836
  840SOL     OW 3418   4.728   6.101   0.074
  840SOL    HW1 3419   4.802   6.108   0.007
  840SOL    HW2 3420   4.684   6.012   0.066
  841SOL     OW 3421   3.870   5.104   5.821
  841SOL    HW1 3422   3.815   5.122   5.903
  841SOL    HW2 3423   3.949   5.048   5.846
  842SOL     OW 3424   3.258   0.289   0.133
  842SOL    HW1 3425   3.293   0.269   0.041
  842SOL    HW2 3426   3.170   0.336   0.126
  843SOL     OW 3427   1.578   1.774   2.506
  843SOL    HW1 3428   1.671   1.809   2.499
  843SOL    HW2 3429   1.579   1.674   2.498
  844SOL     OW 3430   6.090   0.061   1.066
  844SOL    HW1 3431   6.160   0.108   1.012
  844SOL    HW2 3432   6.107   6.985   1.066
  845SOL     OW 3433   3.634   1.614   2.521
  845SOL    HW1 3434   3.645   1.523   2.562
  845SOL    HW2 3435   3.725   1.653   2.504
  846SOL     OW 3436   2.902   1.997   0.311
  846SOL    HW1 3437   2.994   1.967   0.285
  846SOL    HW2 3438   2.908   2.064   0.384
  847SOL     OW 3439   2.436   4.747   1.305
  847SOL    HW1 3440   2.490   4.736   1.389
  847SOL    HW2 3441   2.339   4.742   1.328
  848SOL     OW 3442   6.756   5.938   6.502
  848SOL    HW1 3443   6.664   5.977   6.501
  848SOL    HW2 3444   6.821   6.006   6.538
  849SOL     OW 3445   5.794   4.112   0.361
  849SOL    HW1 3446   5.857   4.190   0.368
  849SOL    HW2 3447   5.729   4.130   0.287
  850SOL     OW 3448   0.302   0.655   5.633
  850SOL    HW1 3449   0.327   0.723   5.564
  850SOL    HW2 3450   0.205   0.663   5.654
  851SOL     OW 3451   6.701   3.218   6.032
  851SOL    HW1 3452   6.610   3.197   6.068
  851SOL    HW2 3453   6.697   3.303   5.980
  852SOL     OW 3454   0.108   3.722   2.168
  852SOL    HW1 3455   0.143   3.736   2.075
  852SOL    HW2 3456   0.176   3.673   2.223
  853SOL     OW 3457   2.451   4.139   0.182
  853SOL    HW1 3458   2.495   4.071   0.240
  853SOL    HW2 3459   2.478   4.126   0.087
  854SOL     OW 3460   5.585   6.391   6.545
  854SOL    HW1 3461   5.549   6.311   6.497
  854SOL    HW2 3462   5.556   6.389   6.640
  855SOL     OW 3463   5.834   0.868   0.231
  855SOL    HW1 3464   5.799   0.842   0.321
  855SOL    HW2 3465   5.904   0.938   0.242
  856SOL     OW 3466   2.051   6.345   0.171
  856SOL    HW1 3467   2.076   6.265   0.226
  856SOL    HW2 3468   1.972   6.323   0.114
  857SOL     OW 3469   6.591   5.102   4.948
  857SOL    HW1 3470   6.518   5.162   4.980
  857SOL    HW2 3471   6.553   5.032   4.887
  858SOL     OW 3472   3.704   4.077   0.405
  858SOL    HW1 3473   3.676   4.062   0.500
  858SOL    HW2 3474   3.791   4.031   0.388
  859SOL     OW 3475   4.148   6.696   5.205
  859SOL    HW1 3476   4.247   6.682   5.205
  859SOL    HW2 3477   4.106   6.636   5.273
  860SOL     OW 3478   5.337   3.167   5.962
  860SOL    HW1 3479   5.388   3.248   5.932
  860SOL    HW2 3480   5.367   3.140   6.053
  861SOL     OW 3481   2.271   6.501   2.604
  861SOL    HW1 3482   2.237   6.571   2.667
  861SOL    HW2 3483   2.229   6.513   2.515
  862SOL     OW 3484   1.253   4.472   3.524
  862SOL    HW1 3485   1.236   4.412   3.445
  862SOL    HW2 3486   1.321   4.540   3.499
  863SOL     OW 3487   7.000   0.868   6.609
  863SOL    HW1 3488   0.018   0.959   6.607
  863SOL    HW2 3489   0.049   0.798   6.603
  864SOL     OW 3490   5.523   0.149   5.393
  864SOL    HW1 3491   5.612   0.188   5.370
  864SOL    HW2 3492   5.452   0.218   5.378
  865SOL     OW 3493   2.011   6.267   4.603
  865SOL    HW1 3494   1.948   6.205   4.556
  865SOL    HW2 3495   1.960   6.323   4.668
  866SOL     OW 3496   2.609   6.224   2.317
  866SOL    HW1 3497   2.657   6.253   2.400
  866SOL    HW2 3498   2.526   6.174   2.343
  867SOL     OW 3499   5.689   2.028   0.059
  867SOL    HW1 3500   5.771   2.039   0.116
  867SOL    HW2 3501   5.611   2.069   0.106
  868SOL     OW 3502   6.599   2.309   2.216
  868SOL    HW1 3503   6.650   2.252   2.152
  868SOL    HW2 3504   6.643   2.398   2.223
  869SOL     OW 3505   6.991   3.870   3.536
  869SOL    HW1 3506   7.011   3.916   3.623
  869SOL    HW2 3507   7.015   3.930   3.460
  870SOL     OW 3508   3.409   5.266   1.587
  870SOL    HW1 3509   3.393   5.234   1.680
  870SOL    HW2 3510   3.325   5.257   1.534
  871SOL     OW 3511   4.623   2.051   3.212
  871SOL    HW1 3512   4.526   2.034   3.228
  871SOL    HW2 3513   4.678   1.977   3.251
  872SOL     OW 3514   0.023   2.624   4.465
  872SOL    HW1 3515   0.028   2.709   4.517
  872SOL    HW2 3516   6.953   2.611   4.431
  873SOL     OW 3517   4.371   6.539   6.148
  873SOL    HW1 3518   4.276   6.510   6.145
  873SOL    HW2 3519   4.426   6.478   6.091
  874SOL     OW 3520   4.910   4.018   0.599
  874SOL    HW1 3521   4.833   4.071   0.563
  874SOL    HW2 3522   4.897   3.921   0.578
  875SOL     OW 3523   4.939   5.679   0.684
  875SOL    HW1 3524   4.891   5.736   0.752
  875SOL    HW2 3525   4.966   5.593   0.727
  876SOL     OW 3526   0.434   6.024   1.954
  876SOL    HW1 3527   0.492   5.985   2.025
  876SOL    HW2 3528   0.478   6.104   1.915
  877SOL     OW 3529   2.768   4.408   6.799
  877SOL    HW1 3530   2.861   4.428   6.769
  877SOL    HW2 3531   2.724   4.493   6.828
  878SOL     OW 3532   4.270   6.678   4.190
  878SOL    HW1 3533   4.277   6.702   4.093
  878SOL    HW2 3534   4.194   6.729   4.231
  879SOL     OW 3535   4.794   0.429   0.376
  879SOL    HW1 3536   4.801   0.413   0.474
  879SOL    HW2 3537   4.886   0.434   0.336
  880SOL     OW 3538   3.017   3.209   2.903
  880SOL    HW1 3539   2.959   3.284   2.933
  880SOL    HW2 3540   2.997   3.186   2.808
  881SOL     OW 3541   4.504   2.752   6.037
  881SOL    HW1 3542   4.440   2.803   5.980
  881SOL    HW2 3543   4.480   2.655   6.036
  882SOL     OW 3544   0.855   3.644   4.995
  882SOL    HW1 3545   0.919   3.625   5.070
  882SOL    HW2 3546   0.813   3.559   4.965
  883SOL     OW 3547   3.149   0.358   2.835
  883SOL    HW1 3548   3.077   0.309   2.785
  883SOL    HW2 3549   3.157   0.321   2.927
  884SOL     OW 3550   4.779   2.747   5.170
  884SOL    HW1 3551   4.822   2.828   5.130
  884SOL    HW2 3552   4.722   2.774   5.248
  885SOL     OW 3553   3.245   1.435   6.016
  885SOL    HW1 3554   3.171   1.401   5.957
  885SOL    HW2 3555   3.301   1.359   6.046
  886SOL     OW 3556   3.539   1.024   0.139
  886SOL    HW1 3557   3.483   1.099   0.106
  886SOL    HW2 3558   3.627   1.025   0.092
  887SOL     OW 3559   4.098   0.754   3.741
  887SOL    HW1 3560   4.107   0.755   3.840
  887SOL    HW2 3561   4.137   0.837   3.702
  888SOL     OW 3562   0.691   0.495   3.247
  888SOL    HW1 3563   0.698   0.464   3.152
  888SOL    HW2 3564   0.720   0.422   3.309
  889SOL     OW 3565   0.586   4.119   6.726
  889SOL    HW1 3566   0.544   4.035   6.692
  889SOL    HW2 3567   0.680   4.101   6.753
  890SOL     OW 3568   2.095   5.760   3.441
  890SOL    HW1 3569   2.051   5.670   3.440
  890SOL    HW2 3570   2.031   5.827   3.480
  891SOL     OW 3571   5.589   5.582   0.727
  891SOL    HW1 3572   5.533   5.660   0.698
  891SOL    HW2 3573   5.657   5.613   0.793
  892SOL     OW 3574   2.361   3.772   5.570
  892SOL    HW1 3575   2.273   3.812   5.595
  892SOL    HW2 3576   2.422   3.844   5.536
  893SOL     OW 3577   2.417   6.520   3.153
  893SOL    HW1 3578   2.517   6.520   3.166
  893SOL    HW2 3579   2.375   6.574   3.226
  894SOL     OW 3580   1.542   4.167   1.546
  894SOL    HW1 3581   1.600   4.096   1.585
  894SOL    HW2 3582   1.451   4.129   1.528
  895SOL     OW 3583   0.611   5.485   3.157
  895SOL    HW1 3584   0.557   5.427   3.218
  895SOL    HW2 3585   0.693   5.516   3.206
  896SOL     OW 3586   6.537   5.628   6.590
  896SOL    HW1 3587   6.484   5.561   6.537
  896SOL    HW2 3588   6.475   5.683   6.645
  897SOL     OW 3589   5.281   0.824   0.520
  897SOL    HW1 3590   5.297   0.894   0.589
  897SOL    HW2 3591   5.217   0.756   0.555
  898SOL     OW 3592   3.207   5.302   3.001
  898SOL    HW1 3593   3.294   5.350   2.991
  898SOL    HW2 3594   3.188   5.288   3.098
  899SOL     OW 3595   1.025   5.237   6.147
  899SOL    HW1 3596   0.998   5.298   6.072
  899SOL    HW2 3597   0.977   5.149   6.137
  900SOL     OW 3598   5.989   6.815   6.925
  900SOL    HW1 3599   6.013   6.821   7.021
  900SOL    HW2 3600   5.965   6.721   6.902
  901SOL     OW 3601   1.895   0.736   2.328
  901SOL    HW1 3602   1.938   0.742   2.238
  901SOL    HW2 3603   1.869   0.828   2.359
  902SOL     OW 3604   5.927   3.464   0.660
  902SOL    HW1 3605   5.953   3.560   0.665
  902SOL    HW2 3606   5.848   3.454   0.600
  903SOL     OW 3607   0.141   2.134   6.968
  903SOL    HW1 3608   0.211   2.162   6.903
  903SOL    HW2 3609   0.060   2.191   6.956
  904SOL     OW 3610   3.098   2.153   3.872
  904SOL    HW1 3611   3.081   2.143   3.774
  904SOL    HW2 3612   3.017   2.192   3.916
  905SOL     OW 3613   5.868   2.712   0.244
  905SOL    HW1 3614   5.785   2.696   0.190
  905SOL    HW2 3615   5.853   2.683   0.338
  906SOL     OW 3616   0.374   2.231   5.727
  906SOL    HW1 3617   0.452   2.187   5.771
  906SOL    HW2 3618   0.405   2.310   5.674
  907SOL     OW 3619   5.048   3.658   6.953
  907SOL    HW1 3620   5.005   3.609   6.877
  907SOL    HW2 3621   4.992   3.647   0.013
  908SOL     OW 3622   2.669   4.668   2.147
  908SOL    HW1 3623   2.727   4.634   2.074
  908SOL    HW2 3624   2.606   4.595   2.176
  909SOL     OW 3625   4.319   5.084   6.059
  909SOL    HW1 3626   4.408   5.044   6.035
  909SOL    HW2 3627   4.317   5.105   6.157
  910SOL     OW 3628   2.527   2.696   1.736
  910SOL    HW1 3629   2.526   2.788   1.698
  910SOL    HW2 3630   2.619   2.657   1.730
  911SOL     OW 3631   1.977   6.102   6.257
  911SOL    HW1 3632   2.069   6.139   6.272
  911SOL    HW2 3633   1.925   6.105   6.342
  912SOL     OW 3634   5.232   2.927   3.620
  912SOL    HW1 3635   5.258   2.994   3.550
  912SOL    HW2 3636   5.286   2.944   3.703
  913SOL     OW 3637   5.345   6.528   3.142
  913SOL    HW1 3638   5.317   6.462   3.212
  913SOL    HW2 3639   5.354   6.481   3.054
  914SOL     OW 3640   2.537   0.116   6.556
  914SOL    HW1 3641   2.477   0.195   6.570
  914SOL    HW2 3642   2.548   0.100   6.457
  915SOL     OW 3643   5.796   5.457   0.913
  915SOL    HW1 3644   5.860   5.506   0.854
  915SOL    HW2 3645   5.807   5.358   0.898
  916SOL     OW 3646   0.950   2.354   2.544
  916SOL    HW1 3647   1.035   2.313   2.576
  916SOL    HW2 3648   0.926   2.316   2.454
  917SOL     OW 3649   0.554   6.943   0.439
  917SOL    HW1 3650   0.582   6.853   0.473
  917SOL    HW2 3651   0.501   6.991   0.509
  918SOL     OW 3652   1.975   6.214   0.974
  918SOL    HW1 3653   2.011   6.307   0.970
  918SOL    HW2 3654   1.895   6.211   1.035
  919SOL     OW 3655   5.783   1.760   3.332
  919SOL    HW1 3656   5.825   1.735   3.245
  919SOL    HW2 3657   5.830   1.839   3.371
  920SOL     OW 3658   2.523   4.931   1.772
  920SOL    HW1 3659   2.543   4.840   1.734
  920SOL    HW2 3660   2.577   4.944   1.855
  921SOL     OW 3661   5.249   5.849   4.276
  921SOL    HW1 3662   5.340   5.883   4.253
  921SOL    HW2 3663   5.255   5.756   4.311
  922SOL     OW 3664   3.656   3.889   3.955
  922SOL    HW1 3665   3.705   3.804   3.970
  922SOL    HW2 3666   3.561   3.879   3.985
  923SOL     OW 3667   1.896   2.652   5.412
  923SOL    HW1 3668   1.896   2.582   5.341
  923SOL    HW2 3669   1.963   2.629   5.482
  924SOL     OW 3670   6.651   3.855   2.222
  924SOL    HW1 3671   6.634   3.873   2.319
  924SOL    HW2 3672   6.626   3.936   2.168
  925SOL     OW 3673   6.034   1.722   0.334
  925SOL    HW1 3674   5.984   1.788   0.390
  925SOL    HW2 3675   5.971   1.653   0.299
  926SOL     OW 3676   0.521   1.646   2.005
  926SOL    HW1 3677   0.437   1.613   1.961
  926SOL    HW2 3678   0.498   1.716   2.072
  927SOL     OW 3679   5.499   3.745   3.541
  927SOL    HW1 3680   5.460   3.790   3.461
  927SOL    HW2 3681   5.431   3.740   3.614
  928SOL     OW 3682   3.351   6.037   6.584
  928SOL    HW1 3683   3.353   5.937   6.589
  928SOL    HW2 3684   3.441   6.071   6.558
  929SOL     OW 3685   6.639   1.506   5.764
  929SOL    HW1 3686   6.655   1.534   5.669
  929SOL    HW2 3687   6.714   1.448   5.795
  930SOL     OW 3688   5.034   5.205   6.416
  930SOL    HW1 3689   5.014   5.151   6.498
  930SOL    HW2 3690   5.006   5.299   6.431
  931SOL     OW 3691   6.495   2.793   3.536
  931SOL    HW1 3692   6.502   2.721   3.468
  931SOL    HW2 3693   6.563   2.864   3.518
  932SOL     OW 3694   4.149   0.539   3.416
  932SOL    HW1 3695   4.145   0.450   3.461
  932SOL    HW2 3696   4.074   0.597   3.449
  933SOL     OW 3697   1.613   4.849   2.835
  933SOL    HW1 3698   1.619   4.944   2.803
  933SOL    HW2 3699   1.665   4.790   2.774
  934SOL     OW 3700   1.671   5.230   6.535
  934SOL    HW1 3701   1.753   5.208   6.588
  934SOL    HW2 3702   1.630   5.313   6.571
  935SOL     OW 3703   5.501   3.398   3.247
  935SOL    HW1 3704   5.504   3.495   3.226
  935SOL    HW2 3705   5.563   3.378   3.323
  936SOL     OW 3706   1.718   0.448   6.810
  936SOL    HW1 3707   1.680   0.473   6.899
  936SOL    HW2 3708   1.719   0.528   6.751
  937SOL     OW 3709   5.079   0.773   5.594
  937SOL    HW1 3710   5.010   0.842   5.614
  937SOL    HW2 3711   5.148   0.811   5.532
  938SOL     OW 3712   6.393   5.380   4.457
  938SOL    HW1 3713   6.401   5.280   4.458
  938SOL    HW2 3714   6.484   5.421   4.444
  939SOL     OW 3715   0.086   6.817   5.003
  939SOL    HW1 3716   0.063   6.834   5.099
  939SOL    HW2 3717   0.050   6.728   4.975
  940SOL     OW 3718   2.291   5.184   0.665
  940SOL    HW1 3719   2.244   5.182   0.753
  940SOL    HW2 3720   2.276   5.098   0.616
  941SOL     OW 3721   3.812   0.111   6.598
  941SOL    HW1 3722   3.849   0.158   6.679
  941SOL    HW2 3723   3.770   0.179   6.537
  942SOL     OW 3724   6.917   5.454   0.442
  942SOL    HW1 3725   6.929   5.553   0.453
  942SOL    HW2 3726   6.999   5.407   0.475
  943SOL     OW 3727   3.147   4.914   2.875
  943SOL    HW1 3728   3.127   5.009   2.849
  943SOL    HW2 3729   3.224   4.881   2.820
  944SOL     OW 3730   0.757   6.603   4.221
  944SOL    HW1 3731   0.853   6.615   4.198
  944SOL    HW2 3732   0.748   6.535   4.294
  945SOL     OW 3733   1.088   5.640   6.334
  945SOL    HW1 3734   1.072   5.702   6.411
  945SOL    HW2 3735   1.184   5.647   6.305
  946SOL     OW 3736   4.816   4.087   3.663
  946SOL    HW1 3737   4.805   4.046   3.754
  946SOL    HW2 3738   4.891   4.043   3.615
  947SOL     OW 3739   3.708   4.121   4.075
  947SOL    HW1 3740   3.784   4.173   4.035
  947SOL    HW2 3741   3.708   4.028   4.036
  948SOL     OW 3742   4.663   1.466   2.542
  948SOL    HW1 3743   4.755   1.469   2.579
  948SOL    HW2 3744   4.639   1.371   2.520
  949SOL     OW 3745   3.069   6.571   6.674
  949SOL    HW1 3746   3.024   6.594   6.588
  949SOL    HW2 3747   3.015   6.502   6.722
  950SOL     OW 3748   6.801   6.312   2.252
  950SOL    HW1 3749   6.769   6.355   2.167
  950SOL    HW2 3750   6.849   6.379   2.308
  951SOL     OW 3751   1.715   0.032   3.510
  951SOL    HW1 3752   1.787   0.041   3.579
  951SOL    HW2 3753   1.641   6.997   3.546
  952SOL     OW 3754   3.868   1.491   1.919
  952SOL    HW1 3755   3.860   1.442   2.006
  952SOL    HW2 3756   3.804   1.568   1.918
  953SOL     OW 3757   6.663   5.091   5.367
  953SOL    HW1 3758   6.660   4.991   5.371
  953SOL    HW2 3759   6.749   5.122   5.408
  954SOL     OW 3760   5.049   5.787   2.728
  954SOL    HW1 3761   4.982   5.782   2.803
  954SOL    HW2 3762   5.127   5.728   2.749
  955SOL     OW 3763   1.248   4.546   6.686
  955SOL    HW1 3764   1.236   4.453   6.720
  955SOL    HW2 3765   1.317   4.546   6.614
  956SOL     OW 3766   6.505   0.509   1.254
  956SOL    HW1 3767   6.465   0.442   1.318
  956SOL    HW2 3768   6.441   0.526   1.180
  957SOL     OW 3769   6.356   2.403   4.055
  957SOL    HW1 3770   6.347   2.414   4.154
  957SOL    HW2 3771   6.273   2.359   4.019
  958SOL     OW 3772   5.536   6.666   2.117
  958SOL    HW1 3773   5.456   6.611   2.093
  958SOL    HW2 3774   5.620   6.617   2.096
  959SOL     OW 3775   3.827   7.012   4.133
  959SOL    HW1 3776   3.786   0.051   4.200
  959SOL    HW2 3777   3.757   6.951   4.096
  960SOL     OW 3778   1.070   0.279   0.112
  960SOL    HW1 3779   1.082   0.244   0.204
  960SOL    HW2 3780   0.987   0.335   0.107
  961SOL     OW 3781   3.543   6.424   2.903
  961SOL    HW1 3782   3.631   6.461   2.874
  961SOL    HW2 3783   3.476   6.497   2.910
  962SOL     OW 3784   6.602   0.140   4.706
  962SOL    HW1 3785   6.527   0.080   4.734
  962SOL    HW2 3786   6.569   0.205   4.637
  963SOL     OW 3787   4.879   2.953   1.164
  963SOL    HW1 3788   4.973   2.952   1.129
  963SOL    HW2 3789   4.870   2.885   1.237
  964SOL     OW 3790   5.090   4.327   5.062
  964SOL    HW1 3791   5.032   4.308   4.983
  964SOL    HW2 3792   5.153   4.250   5.077
  965SOL     OW 3793   5.628   2.613   3.491
  965SOL    HW1 3794   5.705   2.668   3.522
  965SOL    HW2 3795   5.547   2.633   3.546
  966SOL     OW 3796   5.051   2.175   4.052
  966SOL    HW1 3797   4.991   2.252   4.030
  966SOL    HW2 3798   5.085   2.134   3.967
  967SOL     OW 3799   4.974   4.231   6.134
  967SOL    HW1 3800   4.964   4.136   6.103
  967SOL    HW2 3801   5.012   4.232   6.227
  968SOL     OW 3802   3.736   0.203   1.341
  968SOL    HW1 3803   3.772   0.263   1.270
  968SOL    HW2 3804   3.664   0.145   1.302
  969SOL     OW 3805   3.473   4.227   5.723
  969SOL    HW1 3806   3.516   4.286   5.654
  969SOL    HW2 3807   3.408   4.280   5.776
  970SOL     OW 3808   5.795   0.275   6.243
  970SOL    HW1 3809   5.857   0.198   6.260
  970SOL    HW2 3810   5.701   0.247   6.266
  971SOL     OW 3811   6.184   4.172   2.865
  971SOL    HW1 3812   6.257   4.179   2.933
  971SOL    HW2 3813   6.095   4.177   2.910
  972SOL     OW 3814   0.437   2.637   0.822
  972SOL    HW1 3815   0.370   2.661   0.752
  972SOL    HW2 3816   0.471   2.545   0.806
  973SOL     OW 3817   6.957   3.508   6.303
  973SOL    HW1 3818   7.004   3.590   6.269
  973SOL    HW2 3819   6.867   3.502   6.261
  974SOL     OW 3820   6.699   4.798   4.308
  974SOL    HW1 3821   6.738   4.873   4.361
  974SOL    HW2 3822   6.620   4.761   4.356
  975SOL     OW 3823   2.153   0.103   1.977
  975SOL    HW1 3824   2.184   0.014   2.011
  975SOL    HW2 3825   2.221   0.173   1.998
  976SOL     OW 3826   6.662   4.083   2.062
  976SOL    HW1 3827   6.567   4.103   2.084
  976SOL    HW2 3828   6.710   4.169   2.040
  977SOL     OW 3829   0.316   1.362   2.656
  977SOL    HW1 3830   0.303   1.460   2.675
  977SOL    HW2 3831   0.405   1.348   2.612
  978SOL     OW 3832   5.462   2.477   2.120
  978SOL    HW1 3833   5.486   2.558   2.173
  978SOL    HW2 3834   5.521   2.401   2.147
  979SOL     OW 3835   6.432   3.756   0.336
  979SOL    HW1 3836   6.479   3.842   0.317
  979SOL    HW2 3837   6.349   3.751   0.281
  980SOL     OW 3838   3.433   1.632   5.258
  980SOL    HW1 3839   3.520   1.678   5.278
  980SOL    HW2 3840   3.362   1.667   5.319
  981SOL     OW 3841   6.710   6.568   5.210
  981SOL    HW1 3842   6.682   6.512   5.132
  981SOL    HW2 3843   6.809   6.562   5.222
  982SOL     OW 3844   0.075   1.513   4.964
  982SOL    HW1 3845   0.110   1.516   5.058
  982SOL    HW2 3846   0.046   1.604   4.936
  983SOL     OW 3847   0.143   4.327   3.851
  983SOL    HW1 3848   0.218   4.311   3.786
  983SOL    HW2 3849   0.175   4.305   3.943
  984SOL     OW 3850   1.669   1.718   3.054
  984SOL    HW1 3851   1.612   1.641   3.026
  984SOL    HW2 3852   1.712   1.759   2.973
  985SOL     OW 3853   6.301   3.469   4.387
  985SOL    HW1 3854   6.256   3.522   4.315
  985SOL    HW2 3855   6.373   3.413   4.346
  986SOL     OW 3856   5.166   4.397   1.140
  986SOL    HW1 3857   5.220   4.477   1.168
  986SOL    HW2 3858   5.221   4.314   1.150
  987SOL     OW 3859   6.052   4.849   3.575
  987SOL    HW1 3860   6.124   4.805   3.629
  987SOL    HW2 3861   6.027   4.936   3.618
  988SOL     OW 3862   3.076   4.031   1.602
  988SOL    HW1 3863   3.095   4.108   1.663
  988SOL    HW2 3864   2.977   4.017   1.596
  989SOL     OW 3865   0.547   1.508   1.128
  989SOL    HW1 3866   0.638   1.519   1.167
  989SOL    HW2 3867   0.491   1.451   1.190
  990SOL     OW 3868   4.243   0.335   3.623
  990SOL    HW1 3869   4.179   0.270   3.664
  990SOL    HW2 3870   4.326   0.288   3.594
  991SOL     OW 3871   6.559   4.348   3.949
  991SOL    HW1 3872   6.527   4.293   3.872
  991SOL    HW2 3873   6.496   4.424   3.964
  992SOL     OW 3874   0.597   2.709   1.170
  992SOL    HW1 3875   0.692   2.726   1.197
  992SOL    HW2 3876   0.553   2.796   1.150
  993SOL     OW 3877   1.992   5.517   0.784
  993SOL    HW1 3878   1.948   5.441   0.831
  993SOL    HW2 3879   2.081   5.534   0.825
  994SOL     OW 3880   3.307   6.734   0.743
  994SOL    HW1 3881   3.347   6.789   0.670
  994SOL    HW2 3882   3.368   6.734   0.822
  995SOL     OW 3883   5.456   3.604   5.572
  995SOL    HW1 3884   5.405   3.519   5.560
  995SOL    HW2 3885   5.512   3.622   5.491
  996SOL     OW 3886   3.631   6.208   5.807
  996SOL    HW1 3887   3.722   6.168   5.818
  996SOL    HW2 3888   3.616   6.230   5.710
  997SOL     OW 3889   1.537   5.824   4.045
  997SOL    HW1 3890   1.441   5.824   4.074
  997SOL    HW2 3891   1.596   5.811   4.125
  998SOL     OW 3892   5.514   0.155   6.353
  998SOL    HW1 3893   5.575   0.078   6.335
  998SOL    HW2 3894   5.464   0.139   6.438
  999SOL     OW 3895   4.923   3.725   1.987
  999SOL    HW1 3896   4.993   3.656   1.966
  999SOL    HW2 3897   4.839   3.704   1.938
 1000SOL     OW 3898   3.917   1.859   1.525
 1000SOL    HW1 3899   3.948   1.765   1.531
 1000SOL    HW2 3900   3.823   1.866   1.558
 1001SOL     OW 3901   2.493   6.802   2.250
 1001SOL    HW1 3902   2.569   6.770   2.307
 1001SOL    HW2 3903   2.482   6.739   2.173
 1002SOL     OW 3904   5.559   2.946   1.399
 1002SOL    HW1 3905   5.536   3.016   1.467
 1002SOL    HW2 3906   5.636   2.892   1.431
 1003SOL     OW 3907   0.763   6.513   2.655
 1003SOL    HW1 3908   0.688   6.579   2.665
 1003SOL    HW2 3909   0.725   6.423   2.633
 1004SOL     OW 3910   5.116   1.545   3.693
 1004SOL    HW1 3911   5.197   1.496   3.661
 1004SOL    HW2 3912   5.140   1.604   3.770
 1005SOL     OW 3913   1.723   4.719   4.171
 1005SOL    HW1 3914   1.634   4.674   4.158
 1005SOL    HW2 3915   1.708   4.818   4.179
 1006SOL     OW 3916   2.108   3.638   0.575
 1006SOL    HW1 3917   2.064   3.722   0.544
 1006SOL    HW2 3918   2.156   3.596   0.498
 1007SOL     OW 3919   4.425   2.079   6.588
 1007SOL    HW1 3920   4.442   2.117   6.497
 1007SOL    HW2 3921   4.452   1.983   6.590
 1008SOL     OW 3922   0.376   4.499   4.869
 1008SOL    HW1 3923   0.379   4.451   4.782
 1008SOL    HW2 3924   0.318   4.580   4.861
 1009SOL     OW 3925   6.464   5.223   5.630
 1009SOL    HW1 3926   6.556   5.229   5.670
 1009SOL    HW2 3927   6.468   5.253   5.534
 1010SOL     OW 3928   2.315   3.760   1.204
 1010SOL    HW1 3929   2.239   3.812   1.163
 1010SOL    HW2 3930   2.332   3.678   1.150
 1011SOL     OW 3931   0.451   4.874   2.775
 1011SOL    HW1 3932   0.496   4.838   2.856
 1011SOL    HW2 3933   0.418   4.799   2.718
 1012SOL     OW 3934   5.883   0.313   2.280
 1012SOL    HW1 3935   5.898   0.322   2.379
 1012SOL    HW2 3936   5.970   0.294   2.235
 1013SOL     OW 3937   6.471   0.895   6.572
 1013SOL    HW1 3938   6.450   0.986   6.535
 1013SOL    HW2 3939   6.569   0.877   6.564
 1014SOL     OW 3940   1.085   4.841   4.552
 1014SOL    HW1 3941   1.050   4.847   4.459
 1014SOL    HW2 3942   1.161   4.904   4.563
 1015SOL     OW 3943   3.642   6.899   6.285
 1015SOL    HW1 3944   3.619   6.836   6.210
 1015SOL    HW2 3945   3.577   6.887   6.360
 1016SOL     OW 3946   5.528   4.038   1.767
 1016SOL    HW1 3947   5.429   4.029   1.753
 1016SOL    HW2 3948   5.545   4.107   1.838
 1017SOL     OW 3949   2.410   1.499   2.605
 1017SOL    HW1 3950   2.328   1.471   2.654
 1017SOL    HW2 3951   2.387   1.519   2.509
 1018SOL     OW 3952   0.272   4.770   3.392
 1018SOL    HW1 3953   0.315   4.733   3.310
 1018SOL    HW2 3954   0.194   4.827   3.367
 1019SOL     OW 3955   0.106   5.165   0.737
 1019SOL    HW1 3956   0.096   5.066   0.734
 1019SOL    HW2 3957   0.118   5.201   0.645
 1020SOL     OW 3958   0.210   6.913   0.973
 1020SOL    HW1 3959   0.203   6.816   0.997
 1020SOL    HW2 3960   0.292   6.951   1.017
 1021SOL     OW 3961   6.282   5.959   1.937
 1021SOL    HW1 3962   6.297   5.862   1.955
 1021SOL    HW2 3963   6.310   5.981   1.844
 1022SOL     OW 3964   2.655   6.417   6.196
 1022SOL    HW1 3965   2.574   6.375   6.237
 1022SOL    HW2 3966   2.731   6.415   6.262
 1023SOL     OW 3967   0.349   1.636   3.344
 1023SOL    HW1 3968   0.394   1.617   3.431
 1023SOL    HW2 3969   0.253   1.610   3.349
 1024SOL     OW 3970   1.473   2.087   5.086
 1024SOL    HW1 3971   1.567   2.060   5.067
 1024SOL    HW2 3972   1.471   2.153   5.161
 1025SOL     OW 3973   4.660   3.676   6.961
 1025SOL    HW1 3974   4.632   3.611   0.009
 1025SOL    HW2 3975   4.713   3.629   6.891
 1026SOL     OW 3976   2.922   2.575   1.265
 1026SOL    HW1 3977   2.935   2.674   1.267
 1026SOL    HW2 3978   2.840   2.552   1.318
 1027SOL     OW 3979   0.702   6.482   1.184
 1027SOL    HW1 3980   0.669   6.406   1.241
 1027SOL    HW2 3981   0.711   6.564   1.241
 1028SOL     OW 3982   0.458   6.016   2.739
 1028SOL    HW1 3983   0.413   6.044   2.823
 1028SOL    HW2 3984   0.550   5.983   2.759
 1029SOL     OW 3985   1.187   1.933   5.814
 1029SOL    HW1 3986   1.209   1.846   5.770
 1029SOL    HW2 3987   1.097   1.964   5.785
 1030SOL     OW 3988   3.092   3.449   1.362
 1030SOL    HW1 3989   3.138   3.419   1.446
 1030SOL    HW2 3990   3.026   3.379   1.333
 1031SOL     OW 3991   3.341   3.309   1.545
 1031SOL    HW1 3992   3.424   3.276   1.592
 1031SOL    HW2 3993   3.366   3.345   1.455
 1032SOL     OW 3994   1.828   1.719   6.052
 1032SOL    HW1 3995   1.921   1.732   6.018
 1032SOL    HW2 3996   1.763   1.759   5.987
 1033SOL     OW 3997   0.914   6.210   2.056
 1033SOL    HW1 3998   0.974   6.276   2.102
 1033SOL    HW2 3999   0.841   6.259   2.009
 1034SOL     OW 4000   3.594   6.991   4.810
 1034SOL    HW1 4001   3.536   6.951   4.881
 1034SOL    HW2 4002   3.689   6.993   4.842
 1035SOL     OW 4003   0.553   1.581   5.890
 1035SOL    HW1 4004   0.499   1.665   5.896
 1035SOL    HW2 4005   0.645   1.603   5.857
 1036SOL     OW 4006   5.209   1.713   0.829
 1036SOL    HW1 4007   5.203   1.646   0.903
 1036SOL    HW2 4008   5.295   1.701   0.779
 1037SOL     OW 4009   1.557   2.471   3.143
 1037SOL    HW1 4010   1.642   2.478   3.194
 1037SOL    HW2 4011   1.570   2.510   3.052
 1038SOL     OW 4012   2.850   0.247   6.918
 1038SOL    HW1 4013   2.868   0.210   7.009
 1038SOL    HW2 4014   2.850   0.347   6.921
 1039SOL     OW 4015   3.690   3.426   3.898
 1039SOL    HW1 4016   3.591   3.414   3.885
 1039SOL    HW2 4017   3.738   3.347   3.859
 1040SOL     OW 4018   4.128   0.836   2.710
 1040SOL    HW1 4019   4.049   0.814   2.768
 1040SOL    HW2 4020   4.211   0.801   2.753
 1041SOL     OW 4021   6.706   6.136   5.862
 1041SOL    HW1 4022   6.708   6.197   5.941
 1041SOL    HW2 4023   6.652   6.055   5.884
 1042SOL     OW 4024   5.040   4.597   2.384
 1042SOL    HW1 4025   4.961   4.558   2.432
 1042SOL    HW2 4026   5.022   4.597   2.286
 1043SOL     OW 4027   3.417   1.454   3.613
 1043SOL    HW1 4028   3.461   1.516   3.549
 1043SOL    HW2 4029   3.451   1.361   3.597
 1044SOL     OW 4030   5.859   4.990   1.374
 1044SOL    HW1 4031   5.900   4.905   1.341
 1044SOL    HW2 4032   5.930   5.059   1.385
 1045SOL     OW 4033   2.397   0.518   4.092
 1045SOL    HW1 4034   2.408   0.456   4.014
 1045SOL    HW2 4035   2.448   0.603   4.074
 1046SOL     OW 4036   3.304   1.429   0.922
 1046SOL    HW1 4037   3.373   1.394   0.858
 1046SOL    HW2 4038   3.277   1.355   0.984
 1047SOL     OW 4039   3.697   0.148   3.240
 1047SOL    HW1 4040   3.649   0.087   3.304
 1047SOL    HW2 4041   3.735   0.094   3.165
 1048SOL     OW 4042   1.306   6.114   2.439
 1048SOL    HW1 4043   1.234   6.124   2.370
 1048SOL    HW2 4044   1.310   6.196   2.495
 1049SOL     OW 4045   4.096   6.867   4.997
 1049SOL    HW1 4046   4.121   6.792   5.058
 1049SOL    HW2 4047   4.101   6.954   5.046
 1050SOL     OW 4048   3.407   5.248   3.933
 1050SOL    HW1 4049   3.356   5.168   3.901
 1050SOL    HW2 4050   3.387   5.263   4.030
 1051SOL     OW 4051   0.036   0.242   0.339
 1051SOL    HW1 4052   0.095   0.273   0.265
 1051SOL    HW2 4053   0.077   0.268   0.427
 1052SOL     OW 4054   3.804   0.458   6.840
 1052SOL    HW1 4055   3.871   0.389   6.869
 1052SOL    HW2 4056   3.726   0.412   6.797
 1053SOL     OW 4057   6.082   3.600   2.742
 1053SOL    HW1 4058   6.029   3.655   2.678
 1053SOL    HW2 4059   6.148   3.544   2.692
 1054SOL     OW 4060   3.302   4.304   0.404
 1054SOL    HW1 4061   3.383   4.281   0.349
 1054SOL    HW2 4062   3.222   4.308   0.345
 1055SOL     OW 4063   4.292   5.742   6.560
 1055SOL    HW1 4064   4.316   5.713   6.653
 1055SOL    HW2 4065   4.246   5.668   6.512
 1056SOL     OW 4066   2.441   4.325   6.846
 1056SOL    HW1 4067   2.392   4.317   6.933
 1056SOL    HW2 4068   2.485   4.238   6.825
 1057SOL     OW 4069   3.168   1.633   1.578
 1057SOL    HW1 4070   3.101   1.560   1.567
 1057SOL    HW2 4071   3.122   1.722   1.576
 1058SOL     OW 4072   2.933   1.883   2.880
 1058SOL    HW1 4073   2.907   1.817   2.951
 1058SOL    HW2 4074   2.980   1.835   2.806
 1059SOL     OW 4075   2.412   5.935   1.408
 1059SOL    HW1 4076   2.495   5.970   1.451
 1059SOL    HW2 4077   2.432   5.849   1.361
 1060SOL     OW 4078   6.616   6.124   5.593
 1060SOL    HW1 4079   6.662   6.164   5.672
 1060SOL    HW2 4080   6.575   6.197   5.538
 1061SOL     OW 4081   6.637   3.995   0.536
 1061SOL    HW1 4082   6.690   3.994   0.451
 1061SOL    HW2 4083   6.613   3.902   0.561
 1062SOL     OW 4084   3.688   6.563   5.106
 1062SOL    HW1 4085   3.676   6.534   5.011
 1062SOL    HW2 4086   3.699   6.663   5.110
 1063SOL     OW 4087   1.415   6.403   5.647
 1063SOL    HW1 4088   1.457   6.425   5.735
 1063SOL    HW2 4089   1.464   6.449   5.573
 1064SOL     OW 4090   0.536   4.669   0.911
 1064SOL    HW1 4091   0.519   4.586   0.964
 1064SOL    HW2 4092   0.449   4.713   0.889
 1065SOL     OW 4093   4.125   0.367   4.606
 1065SOL    HW1 4094   4.054   0.417   4.655
 1065SOL    HW2 4095   4.167   0.301   4.668
 1066SOL     OW 4096   4.684   0.123   1.902
 1066SOL    HW1 4097   4.780   0.127   1.875
 1066SOL    HW2 4098   4.663   0.198   1.965
 1067SOL     OW 4099   2.977   1.117   0.422
 1067SOL    HW1 4100   2.879   1.132   0.441
 1067SOL    HW2 4101   3.023   1.205   0.414
 1068SOL     OW 4102   5.808   3.269   1.482
 1068SOL    HW1 4103   5.716   3.310   1.483
 1068SOL    HW2 4104   5.815   3.202   1.555
 1069SOL     OW 4105   6.522   4.275   1.411
 1069SOL    HW1 4106   6.483   4.278   1.503
 1069SOL    HW2 4107   6.620   4.255   1.416
 1070SOL     OW 4108   1.067   1.009   2.123
 1070SOL    HW1 4109   1.088   0.913   2.140
 1070SOL    HW2 4110   1.015   1.047   2.199
 1071SOL     OW 4111   0.068   2.815   5.094
 1071SOL    HW1 4112   0.046   2.759   5.013
 1071SOL    HW2 4113   0.038   2.909   5.078
 1072SOL     OW 4114   3.066   1.356   2.531
 1072SOL    HW1 4115   3.138   1.411   2.575
 1072SOL    HW2 4116   2.993   1.340   2.597
 1073SOL     OW 4117   5.105   1.662   3.411
 1073SOL    HW1 4118   5.188   1.613   3.386
 1073SOL    HW2 4119   5.027   1.600   3.411
 1074SOL     OW 4120   3.273   5.085   2.231
 1074SOL    HW1 4121   3.192   5.142   2.221
 1074SOL    HW2 4122   3.273   5.014   2.160
 1075SOL     OW 4123   5.720   2.698   4.836
 1075SOL    HW1 4124   5.799   2.638   4.843
 1075SOL    HW2 4125   5.698   2.735   4.927
 1076SOL     OW 4126   2.100   3.996   4.807
 1076SOL    HW1 4127   2.132   3.997   4.901
 1076SOL    HW2 4128   2.108   4.088   4.769
 1077SOL     OW 4129   6.580   0.198   0.386
 1077SOL    HW1 4130   6.531   0.141   0.320
 1077SOL    HW2 4131   6.656   0.244   0.340
 1078SOL     OW 4132   6.514   5.983   4.045
 1078SOL    HW1 4133   6.597   5.970   3.991
 1078SOL    HW2 4134   6.446   5.915   4.018
 1079SOL     OW 4135   0.944   5.758   2.859
 1079SOL    HW1 4136   1.042   5.768   2.878
 1079SOL    HW2 4137   0.931   5.693   2.785
 1080SOL     OW 4138   2.049   4.797   5.642
 1080SOL    HW1 4139   2.006   4.785   5.552
 1080SOL    HW2 4140   2.064   4.707   5.684
 1081SOL     OW 4141   6.275   5.515   4.669
 1081SOL    HW1 4142   6.310   5.460   4.593
 1081SOL    HW2 4143   6.331   5.597   4.679
 1082SOL     OW 4144   5.739   6.968   6.323
 1082SOL    HW1 4145   5.705   6.874   6.317
 1082SOL    HW2 4146   5.799   6.986   6.245
 1083SOL     OW 4147   5.300   4.146   0.886
 1083SOL    HW1 4148   5.305   4.179   0.980
 1083SOL    HW2 4149   5.296   4.046   0.887
 1084SOL     OW 4150   0.154   0.009   6.466
 1084SOL    HW1 4151   0.200   0.095   6.445
 1084SOL    HW2 4152   0.128   0.008   6.563
 1085SOL     OW 4153   2.140   4.051   4.154
 1085SOL    HW1 4154   2.153   3.970   4.097
 1085SOL    HW2 4155   2.184   4.036   4.243
 1086SOL     OW 4156   6.056   4.600   6.898
 1086SOL    HW1 4157   6.132   4.653   6.936
 1086SOL    HW2 4158   5.980   4.598   6.963
 1087SOL     OW 4159   1.925   0.611   5.589
 1087SOL    HW1 4160   1.897   0.668   5.511
 1087SOL    HW2 4161   1.891   0.652   5.674
 1088SOL     OW 4162   6.862   4.506   3.341
 1088SOL    HW1 4163   6.793   4.555   3.394
 1088SOL    HW2 4164   6.952   4.521   3.382
 1089SOL     OW 4165   6.456   4.394   4.701
 1089SOL    HW1 4166   6.358   4.379   4.693
 1089SOL    HW2 4167   6.491   4.345   4.781
 1090SOL     OW 4168   5.142   1.384   4.575
 1090SOL    HW1 4169   5.213   1.439   4.531
 1090SOL    HW2 4170   5.065   1.374   4.511
 1091SOL     OW 4171   2.226   2.865   3.462
 1091SOL    HW1 4172   2.281   2.784   3.443
 1091SOL    HW2 4173   2.217   2.876   3.561
 1092SOL     OW 4174   0.630   4.994   0.502
 1092SOL    HW1 4175   0.620   4.917   0.565
 1092SOL    HW2 4176   0.620   5.080   0.553
 1093SOL     OW 4177   2.114   6.973   1.260
 1093SOL    HW1 4178   2.116   6.885   1.213
 1093SOL    HW2 4179   2.057   6.966   1.342
 1094SOL     OW 4180   1.261   0.348   3.215
 1094SOL    HW1 4181   1.310   0.410   3.154
 1094SOL    HW2 4182   1.197   0.293   3.162
 1095SOL     OW 4183   6.906   3.223   0.076
 1095SOL    HW1 4184   6.937   3.198   0.167
 1095SOL    HW2 4185   6.984   3.240   0.017
 1096SOL     OW 4186   2.854   5.452   1.298
 1096SOL    HW1 4187   2.887   5.362   1.327
 1096SOL    HW2 4188   2.805   5.496   1.373
 1097SOL     OW 4189   2.356   5.160   3.519
 1097SOL    HW1 4190   2.432   5.221   3.542
 1097SOL    HW2 4191   2.382   5.066   3.542
 1098SOL     OW 4192   6.192   4.901   0.329
 1098SOL    HW1 4193   6.276   4.861   0.365
 1098SOL    HW2 4194   6.128   4.919   0.404
 1099SOL     OW 4195   4.769   1.443   6.364
 1099SOL    HW1 4196   4.786   1.442   6.265
 1099SOL    HW2 4197   4.725   1.530   6.389
 1100SOL     OW 4198   3.694   1.227   3.385
 1100SOL    HW1 4199   3.689   1.191   3.292
 1100SOL    HW2 4200   3.613   1.200   3.436
 1101SOL     OW 4201   6.181   3.008   5.695
 1101SOL    HW1 4202   6.097   3.010   5.748
 1101SOL    HW2 4203   6.249   3.068   5.738
 1102SOL     OW 4204   2.073   0.813   4.762
 1102SOL    HW1 4205   2.045   0.865   4.681
 1102SOL    HW2 4206   2.127   0.871   4.822
 1103SOL     OW 4207   2.918   0.467   6.523
 1103SOL    HW1 4208   2.846   0.502   6.464
 1103SOL    HW2 4209   3.003   0.516   6.506
 1104SOL     OW 4210   0.308   3.818   3.223
 1104SOL    HW1 4211   0.342   3.729   3.255
 1104SOL    HW2 4212   0.263   3.806   3.134
 1105SOL     OW 4213   5.335   1.246   4.845
 1105SOL    HW1 4214   5.334   1.146   4.840
 1105SOL    HW2 4215   5.424   1.280   4.815
 1106SOL     OW 4216   0.590   1.328   0.577
 1106SOL    HW1 4217   0.554   1.239   0.549
 1106SOL    HW2 4218   0.690   1.326   0.569
 1107SOL     OW 4219   0.372   0.821   0.175
 1107SOL    HW1 4220   0.465   0.850   0.152
 1107SOL    HW2 4221   0.359   0.726   0.149
 1108SOL     OW 4222   2.728   6.488   4.021
 1108SOL    HW1 4223   2.718   6.424   3.945
 1108SOL    HW2 4224   2.759   6.577   3.986
 1109SOL     OW 4225   5.273   1.609   4.474
 1109SOL    HW1 4226   5.247   1.665   4.396
 1109SOL    HW2 4227   5.343   1.656   4.527
 1110SOL     OW 4228   3.383   0.526   2.485
 1110SOL    HW1 4229   3.316   0.601   2.494
 1110SOL    HW2 4230   3.430   0.513   2.572
 1111SOL     OW 4231   4.781   3.588   6.110
 1111SOL    HW1 4232   4.854   3.637   6.062
 1111SOL    HW2 4233   4.799   3.591   6.208
 1112SOL     OW 4234   5.758   0.568   2.263
 1112SOL    HW1 4235   5.777   0.470   2.266
 1112SOL    HW2 4236   5.699   0.593   2.340
 1113SOL     OW 4237   6.212   4.656   2.271
 1113SOL    HW1 4238   6.179   4.728   2.210
 1113SOL    HW2 4239   6.178   4.673   2.364
 1114SOL     OW 4240   4.400   3.005   5.635
 1114SOL    HW1 4241   4.475   3.072   5.625
 1114SOL    HW2 4242   4.384   2.960   5.548
 1115SOL     OW 4243   2.767   3.965   6.151
 1115SOL    HW1 4244   2.683   4.015   6.131
 1115SOL    HW2 4245   2.745   3.875   6.189
 1116SOL     OW 4246   4.857   0.426   6.275
 1116SOL    HW1 4247   4.770   0.439   6.228
 1116SOL    HW2 4248   4.870   0.500   6.341
 1117SOL     OW 4249   1.113   2.686   1.652
 1117SOL    HW1 4250   1.139   2.776   1.689
 1117SOL    HW2 4251   1.025   2.693   1.606
 1118SOL     OW 4252   3.114   4.989   7.013
 1118SOL    HW1 4253   3.032   5.034   0.025
 1118SOL    HW2 4254   3.165   4.948   0.066
 1119SOL     OW 4255   3.984   5.127   3.621
 1119SOL    HW1 4256   4.026   5.073   3.694
 1119SOL    HW2 4257   3.997   5.081   3.533
 1120SOL     OW 4258   6.842   5.441   1.115
 1120SOL    HW1 4259   6.931   5.483   1.129
 1120SOL    HW2 4260   6.850   5.342   1.124
 1121SOL     OW 4261   0.346   4.593   4.404
 1121SOL    HW1 4262   0.439   4.601   4.369
 1121SOL    HW2 4263   0.344   4.526   4.478
 1122SOL     OW 4264   5.547   2.586   1.881
 1122SOL    HW1 4265   5.528   2.512   1.945
 1122SOL    HW2 4266   5.645   2.587   1.861
 1123SOL     OW 4267   4.132   2.199   3.175
 1123SOL    HW1 4268   4.096   2.159   3.090
 1123SOL    HW2 4269   4.071   2.177   3.251
 1124SOL     OW 4270   2.203   2.977   4.809
 1124SOL    HW1 4271   2.130   2.914   4.835
 1124SOL    HW2 4272   2.273   2.978   4.880
 1125SOL     OW 4273   1.301   3.803   4.212
 1125SOL    HW1 4274   1.317   3.815   4.114
 1125SOL    HW2 4275   1.252   3.882   4.248
 1126SOL     OW 4276   4.108   5.557   5.173
 1126SOL    HW1 4277   4.166   5.637   5.158
 1126SOL    HW2 4278   4.057   5.569   5.258
 1127SOL     OW 4279   5.345   5.965   3.236
 1127SOL    HW1 4280   5.399   6.049   3.248
 1127SOL    HW2 4281   5.360   5.905   3.315
 1128SOL     OW 4282   6.466   1.430   3.330
 1128SOL    HW1 4283   6.392   1.483   3.372
 1128SOL    HW2 4284   6.440   1.405   3.237
 1129SOL     OW 4285   1.702   0.546   1.059
 1129SOL    HW1 4286   1.714   0.516   0.964
 1129SOL    HW2 4287   1.789   0.540   1.107
 1130SOL     OW 4288   2.258   5.457   2.999
 1130SOL    HW1 4289   2.342   5.401   3.003
 1130SOL    HW2 4290   2.228   5.465   2.904
 1131SOL     OW 4291   1.317   6.538   4.337
 1131SOL    HW1 4292   1.320   6.451   4.289
 1131SOL    HW2 4293   1.409   6.578   4.340
 1132SOL     OW 4294   3.922   1.308   3.115
 1132SOL    HW1 4295   3.907   1.401   3.148
 1132SOL    HW2 4296   3.998   1.307   3.051
 1133SOL     OW 4297   0.569   6.489   5.233
 1133SOL    HW1 4298   0.491   6.536   5.192
 1133SOL    HW2 4299   0.551   6.391   5.238
 1134SOL     OW 4300   4.256   0.108   1.364
 1134SOL    HW1 4301   4.260   0.053   1.448
 1134SOL    HW2 4302   4.292   0.200   1.383
 1135SOL     OW 4303   1.754   6.082   3.770
 1135SOL    HW1 4304   1.657   6.077   3.793
 1135SOL    HW2 4305   1.801   6.144   3.833
 1136SOL     OW 4306   3.019   5.708   2.225
 1136SOL    HW1 4307   2.922   5.691   2.244
 1136SOL    HW2 4308   3.030   5.798   2.183
 1137SOL     OW 4309   0.330   5.511   6.702
 1137SOL    HW1 4310   0.270   5.498   6.623
 1137SOL    HW2 4311   0.423   5.527   6.671
 1138SOL     OW 4312   2.159   3.109   5.123
 1138SOL    HW1 4313   2.221   3.037   5.090
 1138SOL    HW2 4314   2.213   3.186   5.156
 1139SOL     OW 4315   2.874   5.073   4.282
 1139SOL    HW1 4316   2.929   5.066   4.199
 1139SOL    HW2 4317   2.823   5.158   4.282
 1140SOL     OW 4318   1.640   1.417   2.003
 1140SOL    HW1 4319   1.644   1.517   2.006
 1140SOL    HW2 4320   1.623   1.382   2.095
 1141SOL     OW 4321   5.879   5.004   5.592
 1141SOL    HW1 4322   5.875   4.907   5.617
 1141SOL    HW2 4323   5.895   5.059   5.674
 1142SOL     OW 4324   2.698   7.002   3.342
 1142SOL    HW1 4325   2.789   7.013   3.382
 1142SOL    HW2 4326   2.651   6.926   3.386
 1143SOL     OW 4327   0.958   3.928   1.784
 1143SOL    HW1 4328   0.984   4.003   1.723
 1143SOL    HW2 4329   0.871   3.888   1.753
 1144SOL     OW 4330   5.683   4.438   2.305
 1144SOL    HW1 4331   5.731   4.361   2.347
 1144SOL    HW2 4332   5.586   4.416   2.298
 1145SOL     OW 4333   0.793   1.936   6.761
 1145SOL    HW1 4334   0.856   1.859   6.760
 1145SOL    HW2 4335   0.843   2.020   6.783
 1146SOL     OW 4336   0.565   1.220   1.570
 1146SOL    HW1 4337   0.661   1.207   1.543
 1146SOL    HW2 4338   0.553   1.313   1.604
 1147SOL     OW 4339   3.123   6.213   1.131
 1147SOL    HW1 4340   3.168   6.241   1.046
 1147SOL    HW2 4341   3.180   6.146   1.178
 1148SOL     OW 4342   3.797   6.282   2.037
 1148SOL    HW1 4343   3.842   6.231   2.110
 1148SOL    HW2 4344   3.782   6.376   2.066
 1149SOL     OW 4345   5.208   2.063   1.656
 1149SOL    HW1 4346   5.253   2.089   1.570
 1149SOL    HW2 4347   5.124   2.116   1.667
 1150SOL     OW 4348   1.145   4.240   6.971
 1150SOL    HW1 4349   1.176   4.271   6.882
 1150SOL    HW2 4350   1.045   4.237   6.972
 1151SOL     OW 4351   6.617   5.306   3.430
 1151SOL    HW1 4352   6.585   5.234   3.368
 1151SOL    HW2 4353   6.583   5.288   3.522
 1152SOL     OW 4354   4.922   0.437   6.810
 1152SOL    HW1 4355   4.978   0.395   6.738
 1152SOL    HW2 4356   4.825   0.417   6.793
 1153SOL     OW 4357   6.354   0.275   1.183
 1153SOL    HW1 4358   6.449   0.273   1.212
 1153SOL    HW2 4359   6.339   0.203   1.115
 1154SOL     OW 4360   1.415   3.347   2.141
 1154SOL    HW1 4361   1.490   3.407   2.171
 1154SOL    HW2 4362   1.413   3.266   2.199
 1155SOL     OW 4363   2.531   6.769   4.648
 1155SOL    HW1 4364   2.546   6.673   4.671
 1155SOL    HW2 4365   2.619   6.815   4.638
 1156SOL     OW 4366   4.131   1.674   4.891
 1156SOL    HW1 4367   4.064   1.601   4.899
 1156SOL    HW2 4368   4.083   1.761   4.875
 1157SOL     OW 4369   4.060   0.384   5.768
 1157SOL    HW1 4370   4.001   0.320   5.818
 1157SOL    HW2 4371   4.005   0.437   5.703
 1158SOL     OW 4372   5.991   5.859   3.075
 1158SOL    HW1 4373   5.895   5.882   3.094
 1158SOL    HW2 4374   6.021   5.908   2.993
 1159SOL     OW 4375   6.619   6.255   2.703
 1159SOL    HW1 4376   6.530   6.296   2.684
 1159SOL    HW2 4377   6.607   6.166   2.746
 1160SOL     OW 4378   4.419   0.355   0.304
 1160SOL    HW1 4379   4.450   0.272   0.258
 1160SOL    HW2 4380   4.484   0.429   0.284
 1161SOL     OW 4381   0.188   5.398   0.081
 1161SOL    HW1 4382   0.195   5.336   0.003
 1161SOL    HW2 4383   0.272   5.394   0.135
 1162SOL     OW 4384   2.078   3.039   5.390
 1162SOL    HW1 4385   2.090   3.073   5.296
 1162SOL    HW2 4386   2.078   3.116   5.454
 1163SOL     OW 4387   6.062   4.592   1.617
 1163SOL    HW1 4388   6.028   4.518   1.560
 1163SOL    HW2 4389   5.986   4.636   1.664
 1164SOL     OW 4390   4.997   1.644   4.184
 1164SOL    HW1 4391   4.980   1.718   4.249
 1164SOL    HW2 4392   4.960   1.559   4.219
 1165SOL     OW 4393   3.945   6.103   3.581
 1165SOL    HW1 4394   4.027   6.056   3.611
 1165SOL    HW2 4395   3.927   6.182   3.640
 1166SOL     OW 4396   2.533   6.130   6.793
 1166SOL    HW1 4397   2.604   6.201   6.793
 1166SOL    HW2 4398   2.468   6.149   6.719
 1167SOL     OW 4399   5.278   4.539   2.503
 1167SOL    HW1 4400   5.278   4.566   2.599
 1167SOL    HW2 4401   5.188   4.556   2.463
 1168SOL     OW 4402   5.965   2.549   2.848
 1168SOL    HW1 4403   6.057   2.525   2.818
 1168SOL    HW2 4404   5.918   2.467   2.880
 1169SOL     OW 4405   5.467   0.787   5.030
 1169SOL    HW1 4406   5.405   0.826   5.098
 1169SOL    HW2 4407   5.559   0.777   5.070
 1170SOL     OW 4408   4.852   6.966   3.309
 1170SOL    HW1 4409   4.791   6.895   3.344
 1170SOL    HW2 4410   4.870   0.011   3.380
 1171SOL     OW 4411   1.266   0.595   1.040
 1171SOL    HW1 4412   1.318   0.607   0.956
 1171SOL    HW2 4413   1.317   0.536   1.103
 1172SOL     OW 4414   6.669   4.053   6.972
 1172SOL    HW1 4415   6.665   3.965   7.020
 1172SOL    HW2 4416   6.743   4.052   6.905
 1173SOL     OW 4417   2.905   1.468   1.555
 1173SOL    HW1 4418   2.866   1.521   1.631
 1173SOL    HW2 4419   2.971   1.402   1.591
 1174SOL     OW 4420   3.692   3.756   1.241
 1174SOL    HW1 4421   3.634   3.694   1.292
 1174SOL    HW2 4422   3.650   3.777   1.153
 1175SOL     OW 4423   3.833   3.144   5.175
 1175SOL    HW1 4424   3.925   3.179   5.157
 1175SOL    HW2 4425   3.808   3.077   5.105
 1176SOL     OW 4426   5.215   3.803   6.247
 1176SOL    HW1 4427   5.150   3.857   6.300
 1176SOL    HW2 4428   5.183   3.709   6.241
 1177SOL     OW 4429   6.337   2.223   4.589
 1177SOL    HW1 4430   6.248   2.178   4.581
 1177SOL    HW2 4431   6.324   2.315   4.625
 1178SOL     OW 4432   3.223   4.771   0.412
 1178SOL    HW1 4433   3.317   4.805   0.421
 1178SOL    HW2 4434   3.166   4.813   0.482
 1179SOL     OW 4435   2.684   5.481   0.449
 1179SOL    HW1 4436   2.692   5.537   0.532
 1179SOL    HW2 4437   2.619   5.407   0.464
 1180SOL     OW 4438   2.925   6.041   0.883
 1180SOL    HW1 4439   2.906   5.991   0.798
 1180SOL    HW2 4440   2.999   6.106   0.867
 1181SOL     OW 4441   0.573   5.594   6.649
 1181SOL    HW1 4442   0.645   5.631   6.590
 1181SOL    HW2 4443   0.612   5.573   6.739
 1182SOL     OW 4444   3.431   5.448   2.960
 1182SOL    HW1 4445   3.453   5.538   2.998
 1182SOL    HW2 4446   3.479   5.436   2.873
 1183SOL     OW 4447   1.722   4.120   6.653
 1183SOL    HW1 4448   1.674   4.125   6.565
 1183SOL    HW2 4449   1.759   4.210   6.676
 1184SOL     OW 4450   1.255   0.149   5.308
 1184SOL    HW1 4451   1.217   0.202   5.232
 1184SOL    HW2 4452   1.355   0.155   5.305
 1185SOL     OW 4453   6.770   1.310   6.915
 1185SOL    HW1 4454   6.770   1.409   6.928
 1185SOL    HW2 4455   6.744   1.288   6.821
 1186SOL     OW 4456   4.728   5.916   4.240
 1186SOL    HW1 4457   4.678   6.003   4.235
 1186SOL    HW2 4458   4.766   5.895   4.149
 1187SOL     OW 4459   6.669   6.972   6.109
 1187SOL    HW1 4460   6.719   0.029   6.077
 1187SOL    HW2 4461   6.595   6.950   6.046
 1188SOL     OW 4462   2.827   6.554   4.626
 1188SOL    HW1 4463   2.841   6.594   4.536
 1188SOL    HW2 4464   2.890   6.596   4.692
 1189SOL     OW 4465   6.708   3.353   2.771
 1189SOL    HW1 4466   6.640   3.297   2.817
 1189SOL    HW2 4467   6.774   3.388   2.837
 1190SOL     OW 4468   1.986   6.239   3.546
 1190SOL    HW1 4469   1.968   6.141   3.540
 1190SOL    HW2 4470   2.074   6.259   3.505
 1191SOL     OW 4471   4.081   5.348   3.215
 1191SOL    HW1 4472   4.031   5.333   3.129
 1191SOL    HW2 4473   4.116   5.261   3.250
 1192SOL     OW 4474   3.872   5.694   3.045
 1192SOL    HW1 4475   3.904   5.768   2.986
 1192SOL    HW2 4476   3.838   5.619   2.988
 1193SOL     OW 4477   6.125   4.551   4.475
 1193SOL    HW1 4478   6.162   4.523   4.563
 1193SOL    HW2 4479   6.040   4.501   4.457
 1194SOL     OW 4480   5.434   0.581   1.300
 1194SOL    HW1 4481   5.354   0.599   1.359
 1194SOL    HW2 4482   5.403   0.569   1.206
 1195SOL     OW 4483   6.055   4.115   1.973
 1195SOL    HW1 4484   6.054   4.171   2.055
 1195SOL    HW2 4485   5.964   4.114   1.931
 1196SOL     OW 4486   6.682   6.509   3.647
 1196SOL    HW1 4487   6.622   6.437   3.682
 1196SOL    HW2 4488   6.771   6.502   3.692
 1197SOL     OW 4489   3.551   0.876   6.916
 1197SOL    HW1 4490   3.506   0.915   6.996
 1197SOL    HW2 4491   3.576   0.781   6.935
 1198SOL     OW 4492   1.584   2.486   0.842
 1198SOL    HW1 4493   1.666   2.525   0.800
 1198SOL    HW2 4494   1.561   2.400   0.798
 1199SOL     OW 4495   5.032   5.165   1.672
 1199SOL    HW1 4496   4.995   5.095   1.732
 1199SOL    HW2 4497   4.976   5.172   1.590
 1200SOL     OW 4498   3.228   3.404   2.941
 1200SOL    HW1 4499   3.259   3.462   2.866
 1200SOL    HW2 4500   3.162   3.337   2.905
 1201SOL     OW 4501   1.361   1.399   4.786
 1201SOL    HW1 4502   1.401   1.398   4.878
 1201SOL    HW2 4503   1.405   1.471   4.732
 1202SOL     OW 4504   1.060   5.411   6.690
 1202SOL    HW1 4505   1.109   5.498   6.696
 1202SOL    HW2 4506   1.041   5.390   6.594
 1203SOL     OW 4507   4.780   5.790   6.076
 1203SOL    HW1 4508   4.877   5.765   6.078
 1203SOL    HW2 4509   4.769   5.879   6.031
 1204SOL     OW 4510   2.504   0.418   1.308
 1204SOL    HW1 4511   2.415   0.459   1.328
 1204SOL    HW2 4512   2.512   0.330   1.355
 1205SOL     OW 4513   5.260   3.984   1.669
 1205SOL    HW1 4514   5.265   3.890   1.702
 1205SOL    HW2 4515   5.228   3.985   1.574
 1206SOL     OW 4516   3.025   3.132   4.599
 1206SOL    HW1 4517   2.983   3.195   4.665
 1206SOL    HW2 4518   2.962   3.057   4.580
 1207SOL     OW 4519   2.439   6.880   1.700
 1207SOL    HW1 4520   2.478   6.792   1.670
 1207SOL    HW2 4521   2.509   6.951   1.694
 1208SOL     OW 4522   3.529   4.291   0.237
 1208SOL    HW1 4523   3.542   4.388   0.260
 1208SOL    HW2 4524   3.615   4.242   0.249
 1209SOL     OW 4525   3.639   0.408   5.340
 1209SOL    HW1 4526   3.645   0.483   5.406
 1209SOL    HW2 4527   3.610   0.324   5.387
 1210SOL     OW 4528   2.914   6.828   3.765
 1210SOL    HW1 4529   2.932   6.855   3.860
 1210SOL    HW2 4530   2.861   6.900   3.720
 1211SOL     OW 4531   0.834   4.005   1.062
 1211SOL    HW1 4532   0.908   4.037   1.003
 1211SOL    HW2 4533   0.764   3.960   1.007
 1212SOL     OW 4534   0.248   0.271   6.711
 1212SOL    HW1 4535   0.184   0.310   6.645
 1212SOL    HW2 4536   0.332   0.324   6.711
 1213SOL     OW 4537   6.061   2.589   0.614
 1213SOL    HW1 4538   6.053   2.523   0.689
 1213SOL    HW2 4539   6.142   2.568   0.559
 1214SOL     OW 4540   0.004   1.853   0.989
 1214SOL    HW1 4541   0.009   1.941   0.942
 1214SOL    HW2 4542   0.051   1.784   0.934
 1215SOL     OW 4543   1.600   4.377   4.405
 1215SOL    HW1 4544   1.696   4.396   4.425
 1215SOL    HW2 4545   1.593   4.338   4.313
 1216SOL     OW 4546   4.318   0.538   7.011
 1216SOL    HW1 4547   4.298   0.445   6.979
 1216SOL    HW2 4548   4.232   0.586   0.006
 1217SOL     OW 4549   2.102   4.835   0.552
 1217SOL    HW1 4550   2.129   4.741   0.532
 1217SOL    HW2 4551   2.022   4.859   0.496
 1218SOL     OW 4552   0.887   4.753   4.313
 1218SOL    HW1 4553   0.975   4.746   4.264
 1218SOL    HW2 4554   0.879   4.678   4.378
 1219SOL     OW 4555   4.661   6.284   1.862
 1219SOL    HW1 4556   4.576   6.253   1.906
 1219SOL    HW2 4557   4.647   6.289   1.763
 1220SOL     OW 4558   1.215   4.899   2.964
 1220SOL    HW1 4559   1.243   4.961   2.890
 1220SOL    HW2 4560   1.118   4.876   2.952
 1221SOL     OW 4561   5.765   3.130   5.520
 1221SOL    HW1 4562   5.760   3.066   5.444
 1221SOL    HW2 4563   5.717   3.093   5.599
 1222SOL     OW 4564   6.454   6.879   6.746
 1222SOL    HW1 4565   6.500   6.945   6.805
 1222SOL    HW2 4566   6.357   6.877   6.768
 1223SOL     OW 4567   3.715   6.818   0.444
 1223SOL    HW1 4568   3.754   6.810   0.536
 1223SOL    HW2 4569   3.787   6.846   0.381
 1224SOL     OW 4570   2.598   0.371   1.061
 1224SOL    HW1 4571   2.531   0.407   0.996
 1224SOL    HW2 4572   2.562   0.381   1.154
 1225SOL     OW 4573   3.215   3.850   6.202
 1225SOL    HW1 4574   3.246   3.900   6.283
 1225SOL    HW2 4575   3.279   3.777   6.181
 1226SOL     OW 4576   2.133   4.710   1.378
 1226SOL    HW1 4577   2.110   4.770   1.455
 1226SOL    HW2 4578   2.168   4.623   1.413
 1227SOL     OW 4579   6.775   3.693   6.872
 1227SOL    HW1 4580   6.844   3.640   6.921
 1227SOL    HW2 4581   6.725   3.750   6.936
 1228SOL     OW 4582   3.474   2.532   6.113
 1228SOL    HW1 4583   3.397   2.507   6.172
 1228SOL    HW2 4584   3.555   2.478   6.139
 1229SOL     OW 4585   4.140   4.732   6.467
 1229SOL    HW1 4586   4.055   4.736   6.415
 1229SOL    HW2 4587   4.207   4.679   6.416
 1230SOL     OW 4588   4.362   0.016   3.747
 1230SOL    HW1 4589   4.316   0.075   3.814
 1230SOL    HW2 4590   4.326   0.037   3.655
 1231SOL     OW 4591   2.132   3.500   4.947
 1231SOL    HW1 4592   2.111   3.597   4.952
 1231SOL    HW2 4593   2.197   3.476   5.019
 1232SOL     OW 4594   1.353   2.558   5.196
 1232SOL    HW1 4595   1.360   2.459   5.214
 1232SOL    HW2 4596   1.345   2.573   5.098
 1233SOL     OW 4597   1.095   2.405   5.564
 1233SOL    HW1 4598   1.194   2.407   5.551
 1233SOL    HW2 4599   1.073   2.435   5.657
 1234SOL     OW 4600   6.554   4.385   4.313
 1234SOL    HW1 4601   6.477   4.321   4.320
 1234SOL    HW2 4602   6.578   4.398   4.217
 1235SOL     OW 4603   6.493   5.737   3.226
 1235SOL    HW1 4604   6.549   5.691   3.294
 1235SOL    HW2 4605   6.551   5.781   3.158
 1236SOL     OW 4606   5.119   0.799   6.494
 1236SOL    HW1 4607   5.206   0.811   6.445
 1236SOL    HW2 4608   5.064   0.882   6.484
 1237SOL     OW 4609   2.527   4.846   6.231
 1237SOL    HW1 4610   2.448   4.797   6.192
 1237SOL    HW2 4611   2.501   4.883   6.321
 1238SOL     OW 4612   1.986   1.492   1.246
 1238SOL    HW1 4613   1.935   1.549   1.182
 1238SOL    HW2 4614   2.047   1.549   1.301
 1239SOL     OW 4615   6.939   6.057   6.682
 1239SOL    HW1 4616   6.922   6.056   6.781
 1239SOL    HW2 4617   6.989   5.974   6.656
 1240SOL     OW 4618   5.444   5.976   1.701
 1240SOL    HW1 4619   5.456   6.069   1.667
 1240SOL    HW2 4620   5.360   5.971   1.756
 1241SOL     OW 4621   6.525   3.311   4.397
 1241SOL    HW1 4622   6.524   3.275   4.304
 1241SOL    HW2 4623   6.532   3.236   4.463
 1242SOL     OW 4624   1.539   3.445   0.760
 1242SOL    HW1 4625   1.537   3.519   0.692
 1242SOL    HW2 4626   1.614   3.461   0.824
 1243SOL     OW 4627   2.111   5.376   5.117
 1243SOL    HW1 4628   2.032   5.336   5.071
 1243SOL    HW2 4629   2.131   5.465   5.077
 1244SOL     OW 4630   0.622   1.040   3.400
 1244SOL    HW1 4631   0.677   1.121   3.381
 1244SOL    HW2 4632   0.649   0.966   3.339
 1245SOL     OW 4633   3.020   3.662   0.211
 1245SOL    HW1 4634   3.106   3.641   0.258
 1245SOL    HW2 4635   3.016   3.613   0.125
 1246SOL     OW 4636   2.408   6.690   1.978
 1246SOL    HW1 4637   2.382   6.595   1.994
 1246SOL    HW2 4638   2.353   6.728   1.903
 1247SOL     OW 4639   2.266   6.536   6.524
 1247SOL    HW1 4640   2.280   6.522   6.426
 1247SOL    HW2 4641   2.245   6.633   6.540
 1248SOL     OW 4642   1.648   5.624   3.015
 1248SOL    HW1 4643   1.678   5.716   3.038
 1248SOL    HW2 4644   1.679   5.560   3.086
 1249SOL     OW 4645   6.028   3.359   3.139
 1249SOL    HW1 4646   6.075   3.447   3.150
 1249SOL    HW2 4647   5.929   3.374   3.139
 1250SOL     OW 4648   1.201   4.775   4.123
 1250SOL    HW1 4649   1.201   4.802   4.026
 1250SOL    HW2 4650   1.269   4.704   4.137
 1251SOL     OW 4651   4.027   0.915   4.367
 1251SOL    HW1 4652   4.000   0.922   4.271
 1251SOL    HW2 4653   3.958   0.959   4.425
 1252SOL     OW 4654   3.212   4.020   5.788
 1252SOL    HW1 4655   3.154   4.013   5.869
 1252SOL    HW2 4656   3.306   4.039   5.814
 1253SOL     OW 4657   3.565   5.445   2.382
 1253SOL    HW1 4658   3.615   5.359   2.380
 1253SOL    HW2 4659   3.629   5.520   2.400
 1254SOL     OW 4660   6.307   2.203   2.781
 1254SOL    HW1 4661   6.263   2.140   2.845
 1254SOL    HW2 4662   6.327   2.156   2.695
 1255SOL     OW 4663   0.377   0.224   5.853
 1255SOL    HW1 4664   0.383   0.259   5.760
 1255SOL    HW2 4665   0.281   0.206   5.876
 1256SOL     OW 4666   6.490   0.060   3.300
 1256SOL    HW1 4667   6.407   0.086   3.250
 1256SOL    HW2 4668   6.511   6.987   3.280
 1257SOL     OW 4669   0.040   0.600   3.388
 1257SOL    HW1 4670   0.071   0.561   3.475
 1257SOL    HW2 4671   6.965   0.621   3.394
 1258SOL     OW 4672   0.684   6.683   3.091
 1258SOL    HW1 4673   0.678   6.599   3.037
 1258SOL    HW2 4674   0.774   6.689   3.133
 1259SOL     OW 4675   4.178   2.053   4.924
 1259SOL    HW1 4676   4.215   1.999   4.848
 1259SOL    HW2 4677   4.164   2.147   4.894
 1260SOL     OW 4678   1.093   1.272   0.061
 1260SOL    HW1 4679   1.182   1.227   0.055
 1260SOL    HW2 4680   1.103   1.360   0.108
 1261SOL     OW 4681   0.524   5.402   0.505
 1261SOL    HW1 4682   0.476   5.337   0.446
 1261SOL    HW2 4683   0.462   5.478   0.527
 1262SOL     OW 4684   5.333   5.529   1.795
 1262SOL    HW1 4685   5.312   5.577   1.709
 1262SOL    HW2 4686   5.255   5.473   1.822
 1263SOL     OW 4687   1.122   2.278   3.582
 1263SOL    HW1 4688   1.151   2.302   3.675
 1263SOL    HW2 4689   1.201   2.247   3.529
 1264SOL     OW 4690   0.942   3.072   5.365
 1264SOL    HW1 4691   1.025   3.016   5.363
 1264SOL    HW2 4692   0.867   3.019   5.403
 1265SOL     OW 4693   5.926   5.866   5.328
 1265SOL    HW1 4694   5.838   5.911   5.318
 1265SOL    HW2 4695   5.991   5.905   5.263
 1266SOL     OW 4696   1.469   0.478   4.955
 1266SOL    HW1 4697   1.488   0.543   4.882
 1266SOL    HW2 4698   1.520   0.504   5.037
 1267SOL     OW 4699   4.632   0.289   2.200
 1267SOL    HW1 4700   4.569   0.282   2.277
 1267SOL    HW2 4701   4.710   0.228   2.216
 1268SOL     OW 4702   4.290   2.371   5.425
 1268SOL    HW1 4703   4.371   2.329   5.384
 1268SOL    HW2 4704   4.234   2.413   5.354
 1269SOL     OW 4705   6.211   2.292   3.654
 1269SOL    HW1 4706   6.121   2.252   3.674
 1269SOL    HW2 4707   6.223   2.299   3.555
 1270SOL     OW 4708   0.969   4.617   2.529
 1270SOL    HW1 4709   0.959   4.530   2.577
 1270SOL    HW2 4710   0.924   4.690   2.580
 1271SOL     OW 4711   1.561   1.464   1.596
 1271SOL    HW1 4712   1.643   1.415   1.569
 1271SOL    HW2 4713   1.481   1.423   1.552
 1272SOL     OW 4714   0.095   4.185   0.126
 1272SOL    HW1 4715   0.028   4.155   0.194
 1272SOL    HW2 4716   0.186   4.191   0.169
 1273SOL     OW 4717   1.625   3.888   5.016
 1273SOL    HW1 4718   1.686   3.918   5.089
 1273SOL    HW2 4719   1.678   3.876   4.932
 1274SOL     OW 4720   0.766   4.840   2.182
 1274SOL    HW1 4721   0.699   4.907   2.152
 1274SOL    HW2 4722   0.741   4.750   2.148
 1275SOL     OW 4723   2.927   0.570   3.079
 1275SOL    HW1 4724   3.004   0.507   3.068
 1275SOL    HW2 4725   2.847   0.519   3.110
 1276SOL     OW 4726   5.061   4.391   4.132
 1276SOL    HW1 4727   5.043   4.438   4.045
 1276SOL    HW2 4728   5.151   4.418   4.166
 1277SOL     OW 4729   7.016   5.848   0.203
 1277SOL    HW1 4730   0.066   5.837   0.135
 1277SOL    HW2 4731   6.981   5.758   0.230
 1278SOL     OW 4732   1.467   6.083   2.874
 1278SOL    HW1 4733   1.395   6.106   2.809
 1278SOL    HW2 4734   1.477   6.157   2.940
 1279SOL     OW 4735   2.782   2.316   6.533
 1279SOL    HW1 4736   2.797   2.230   6.485
 1279SOL    HW2 4737   2.823   2.391   6.482
 1280SOL     OW 4738   3.091   1.418   3.329
 1280SOL    HW1 4739   3.067   1.385   3.421
 1280SOL    HW2 4740   3.040   1.367   3.261
 1281SOL     OW 4741   3.835   6.004   4.054
 1281SOL    HW1 4742   3.872   6.055   4.131
 1281SOL    HW2 4743   3.910   5.976   3.994
 1282SOL     OW 4744   6.999   2.818   0.778
 1282SOL    HW1 4745   0.026   2.764   0.845
 1282SOL    HW2 4746   6.974   2.906   0.818
 1283SOL     OW 4747   6.007   3.394   5.219
 1283SOL    HW1 4748   6.002   3.297   5.241
 1283SOL    HW2 4749   6.071   3.439   5.281
 1284SOL     OW 4750   3.988   1.971   1.299
 1284SOL    HW1 4751   4.070   1.916   1.285
 1284SOL    HW2 4752   3.946   1.946   1.387
 1285SOL     OW 4753   3.585   1.213   4.662
 1285SOL    HW1 4754   3.514   1.229   4.730
 1285SOL    HW2 4755   3.543   1.210   4.571
 1286SOL     OW 4756   4.567   2.126   2.059
 1286SOL    HW1 4757   4.628   2.080   2.123
 1286SOL    HW2 4758   4.499   2.061   2.025
 1287SOL     OW 4759   6.566   4.242   4.921
 1287SOL    HW1 4760   6.589   4.170   4.856
 1287SOL    HW2 4761   6.489   4.212   4.978
 1288SOL     OW 4762   4.320   4.040   6.673
 1288SOL    HW1 4763   4.394   3.976   6.693
 1288SOL    HW2 4764   4.353   4.134   6.686
 1289SOL     OW 4765   0.066   0.234   1.929
 1289SOL    HW1 4766   7.018   0.291   1.972
 1289SOL    HW2 4767   0.058   0.241   1.829
 1290SOL     OW 4768   1.145   0.109   6.655
 1290SOL    HW1 4769   1.161   0.096   6.753
 1290SOL    HW2 4770   1.144   0.020   6.609
 1291SOL     OW 4771   6.913   5.179   2.733
 1291SOL    HW1 4772   6.956   5.256   2.778
 1291SOL    HW2 4773   6.893   5.107   2.800
 1292SOL     OW 4774   0.886   6.124   2.363
 1292SOL    HW1 4775   0.942   6.179   2.300
 1292SOL    HW2 4776   0.901   6.027   2.344
 1293SOL     OW 4777   2.942   1.100   6.695
 1293SOL    HW1 4778   2.984   1.049   6.620
 1293SOL    HW2 4779   2.891   1.178   6.658
 1294SOL     OW 4780   2.035   3.897   5.378
 1294SOL    HW1 4781   2.105   3.834   5.346
 1294SOL    HW2 4782   1.968   3.848   5.435
 1295SOL     OW 4783   6.954   3.511   1.208
 1295SOL    HW1 4784   7.009   3.585   1.169
 1295SOL    HW2 4785   7.014   3.443   1.249
 1296SOL     OW 4786   5.586   6.746   6.316
 1296SOL    HW1 4787   5.571   6.730   6.218
 1296SOL    HW2 4788   5.620   6.662   6.358
 1297SOL     OW 4789   0.286   0.234   2.316
 1297SOL    HW1 4790   0.383   0.249   2.329
 1297SOL    HW2 4791   0.236   0.319   2.331
 1298SOL     OW 4792   5.619   5.358   2.156
 1298SOL    HW1 4793   5.630   5.312   2.245
 1298SOL    HW2 4794   5.708   5.389   2.124
 1299SOL     OW 4795   1.838   3.427   4.682
 1299SOL    HW1 4796   1.815   3.481   4.763
 1299SOL    HW2 4797   1.791   3.465   4.602
 1300SOL     OW 4798   1.489   4.365   1.204
 1300SOL    HW1 4799   1.447   4.305   1.272
 1300SOL    HW2 4800   1.577   4.327   1.175
 1301SOL     OW 4801   1.016   1.011   1.645
 1301SOL    HW1 4802   1.024   1.031   1.743
 1301SOL    HW2 4803   0.952   1.075   1.603
 1302SOL     OW 4804   5.457   6.174   5.849
 1302SOL    HW1 4805   5.532   6.199   5.911
 1302SOL    HW2 4806   5.420   6.257   5.807
 1303SOL     OW 4807   4.336   6.744   1.593
 1303SOL    HW1 4808   4.298   6.681   1.525
 1303SOL    HW2 4809   4.309   6.714   1.685
 1304SOL     OW 4810   0.358   0.807   1.252
 1304SOL    HW1 4811   0.442   0.803   1.199
 1304SOL    HW2 4812   0.346   0.899   1.289
 1305SOL     OW 4813   5.556   3.835   0.294
 1305SOL    HW1 4814   5.482   3.772   0.317
 1305SOL    HW2 4815   5.522   3.904   0.230
 1306SOL     OW 4816   1.772   5.601   4.754
 1306SOL    HW1 4817   1.703   5.626   4.823
 1306SOL    HW2 4818   1.783   5.678   4.690
 1307SOL     OW 4819   2.156   2.522   3.978
 1307SOL    HW1 4820   2.112   2.437   4.007
 1307SOL    HW2 4821   2.087   2.586   3.945
 1308SOL     OW 4822   6.656   5.354   6.165
 1308SOL    HW1 4823   6.609   5.327   6.081
 1308SOL    HW2 4824   6.746   5.392   6.143
 1309SOL     OW 4825   5.351   4.742   6.477
 1309SOL    HW1 4826   5.404   4.661   6.499
 1309SOL    HW2 4827   5.387   4.821   6.527
 1310SOL     OW 4828   0.963   4.013   4.130
 1310SOL    HW1 4829   0.968   4.058   4.041
 1310SOL    HW2 4830   1.008   4.070   4.199
 1311SOL     OW 4831   6.673   5.675   0.189
 1311SOL    HW1 4832   6.681   5.773   0.206
 1311SOL    HW2 4833   6.686   5.657   0.091
 1312SOL     OW 4834   1.853   0.715   5.830
 1312SOL    HW1 4835   1.767   0.669   5.854
 1312SOL    HW2 4836   1.894   0.754   5.913
 1313SOL     OW 4837   6.648   5.178   3.001
 1313SOL    HW1 4838   6.667   5.082   3.025
 1313SOL    HW2 4839   6.733   5.229   2.998
 1314SOL     OW 4840   2.801   1.778   4.764
 1314SOL    HW1 4841   2.710   1.764   4.803
 1314SOL    HW2 4842   2.810   1.873   4.735
 1315SOL     OW 4843   5.603   0.434   4.343
 1315SOL    HW1 4844   5.573   0.351   4.296
 1315SOL    HW2 4845   5.524   0.493   4.359
 1316SOL     OW 4846   4.169   0.740   4.990
 1316SOL    HW1 4847   4.192   0.798   4.912
 1316SOL    HW2 4848   4.092   0.681   4.967
 1317SOL     OW 4849   2.733   3.311   5.473
 1317SOL    HW1 4850   2.832   3.311   5.460
 1317SOL    HW2 4851   2.706   3.389   5.529
 1318SOL     OW 4852   1.970   2.831   6.797
 1318SOL    HW1 4853   1.883   2.798   6.761
 1318SOL    HW2 4854   2.044   2.771   6.765
 1319SOL     OW 4855   6.852   6.257   0.554
 1319SOL    HW1 4856   6.775   6.225   0.609
 1319SOL    HW2 4857   6.836   6.352   0.527
 1320SOL     OW 4858   3.318   2.747   6.103
 1320SOL    HW1 4859   3.319   2.780   6.009
 1320SOL    HW2 4860   3.392   2.682   6.117
 1321SOL     OW 4861   5.649   2.254   6.539
 1321SOL    HW1 4862   5.670   2.333   6.482
 1321SOL    HW2 4863   5.625   2.176   6.481
 1322SOL     OW 4864   3.241   1.164   6.753
 1322SOL    HW1 4865   3.151   1.123   6.769
 1322SOL    HW2 4866   3.307   1.092   6.731
 1323SOL     OW 4867   3.547   0.351   0.435
 1323SOL    HW1 4868   3.558   0.405   0.352
 1323SOL    HW2 4869   3.518   0.258   0.412
 1324SOL     OW 4870   1.077   3.536   0.039
 1324SOL    HW1 4871   1.155   3.474   0.025
 1324SOL    HW2 4872   1.087   3.582   0.127
 1325SOL     OW 4873   2.438   5.782   6.329
 1325SOL    HW1 4874   2.394   5.816   6.246
 1325SOL    HW2 4875   2.448   5.857   6.395
 1326SOL     OW 4876   4.761   4.059   3.965
 1326SOL    HW1 4877   4.732   4.028   4.055
 1326SOL    HW2 4878   4.771   4.158   3.964
 1327SOL     OW 4879   0.143   6.572   1.021
 1327SOL    HW1 4880   0.212   6.552   0.951
 1327SOL    HW2 4881   0.181   6.550   1.111
 1328SOL     OW 4882   0.850   3.427   6.205
 1328SOL    HW1 4883   0.870   3.485   6.126
 1328SOL    HW2 4884   0.933   3.379   6.233
 1329SOL     OW 4885   0.259   2.840   3.432
 1329SOL    HW1 4886   0.166   2.813   3.457
 1329SOL    HW2 4887   0.269   2.939   3.445
 1330SOL     OW 4888   6.802   2.351   0.849
 1330SOL    HW1 4889   6.887   2.401   0.841
 1330SOL    HW2 4890   6.797   2.307   0.938
 1331SOL     OW 4891   4.263   1.836   2.503
 1331SOL    HW1 4892   4.190   1.837   2.571
 1331SOL    HW2 4893   4.305   1.745   2.500
 1332SOL     OW 4894   1.836   0.330   0.591
 1332SOL    HW1 4895   1.928   0.329   0.552
 1332SOL    HW2 4896   1.842   0.340   0.690
 1333SOL     OW 4897   3.334   4.073   2.864
 1333SOL    HW1 4898   3.419   4.040   2.823
 1333SOL    HW2 4899   3.263   4.078   2.794
 1334SOL     OW 4900   6.975   1.664   2.659
 1334SOL    HW1 4901   7.014   1.717   2.734
 1334SOL    HW2 4902   6.921   1.589   2.696
 1335SOL     OW 4903   1.940   4.156   1.565
 1335SOL    HW1 4904   2.036   4.147   1.541
 1335SOL    HW2 4905   1.887   4.086   1.517
 1336SOL     OW 4906   3.683   0.640   5.515
 1336SOL    HW1 4907   3.624   0.679   5.586
 1336SOL    HW2 4908   3.703   0.710   5.446
 1337SOL     OW 4909   6.364   1.516   3.672
 1337SOL    HW1 4910   6.305   1.512   3.591
 1337SOL    HW2 4911   6.400   1.609   3.683
 1338SOL     OW 4912   6.103   3.768   4.533
 1338SOL    HW1 4913   6.175   3.707   4.566
 1338SOL    HW2 4914   6.038   3.716   4.477
 1339SOL     OW 4915   0.231   0.480   6.378
 1339SOL    HW1 4916   0.201   0.487   6.283
 1339SOL    HW2 4917   0.169   0.420   6.429
 1340SOL     OW 4918   5.382   1.496   1.729
 1340SOL    HW1 4919   5.389   1.556   1.650
 1340SOL    HW2 4920   5.461   1.509   1.788
 1341SOL     OW 4921   4.668   6.775   6.387
 1341SOL    HW1 4922   4.716   6.723   6.316
 1341SOL    HW2 4923   4.710   6.866   6.396
 1342SOL     OW 4924   3.192   5.975   1.252
 1342SOL    HW1 4925   3.095   5.952   1.250
 1342SOL    HW2 4926   3.238   5.922   1.323
 1343SOL     OW 4927   5.466   5.264   2.789
 1343SOL    HW1 4928   5.372   5.287   2.815
 1343SOL    HW2 4929   5.491   5.176   2.829
 1344SOL     OW 4930   0.152   0.025   4.514
 1344SOL    HW1 4931   0.247   0.016   4.545
 1344SOL    HW2 4932   0.151   0.065   4.423
 1345SOL     OW 4933   0.436   5.495   2.065
 1345SOL    HW1 4934   0.417   5.543   1.980
 1345SOL    HW2 4935   0.463   5.401   2.045
 1346SOL     OW 4936   2.501   5.183   5.807
 1346SOL    HW1 4937   2.421   5.125   5.819
 1346SOL    HW2 4938   2.581   5.127   5.784
 1347SOL     OW 4939   1.639   0.372   0.060
 1347SOL    HW1 4940   1.611   0.355   0.154
 1347SOL    HW2 4941   1.641   0.286   0.009
 1348SOL     OW 4942   6.960   6.036   5.188
 1348SOL    HW1 4943   6.904   5.962   5.152
 1348SOL    HW2 4944   6.922   6.068   5.275
 1349SOL     OW 4945   5.311   3.921   3.839
 1349SOL    HW1 4946   5.253   4.002   3.840
 1349SOL    HW2 4947   5.260   3.842   3.873
 1350SOL     OW 4948   3.312   3.911   0.237
 1350SOL    HW1 4949   3.253   3.921   0.157
 1350SOL    HW2 4950   3.276   3.839   0.297
 1351SOL     OW 4951   6.516   2.908   4.786
 1351SOL    HW1 4952   6.500   2.887   4.883
 1351SOL    HW2 4953   6.587   2.979   4.778
 1352SOL     OW 4954   6.963   0.097   2.774
 1352SOL    HW1 4955   6.937   0.061   2.684
 1352SOL    HW2 4956   6.899   0.062   2.842
 1353SOL     OW 4957   0.856   1.630   0.905
 1353SOL    HW1 4958   0.763   1.639   0.869
 1353SOL    HW2 4959   0.853   1.595   0.998
 1354SOL     OW 4960   6.376   4.259   1.996
 1354SOL    HW1 4961   6.427   4.243   2.080
 1354SOL    HW2 4962   6.278   4.267   2.018
 1355SOL     OW 4963   6.276   3.375   4.640
 1355SOL    HW1 4964   6.279   3.369   4.540
 1355SOL    HW2 4965   6.274   3.283   4.680
 1356SOL     OW 4966   3.487   2.953   1.705
 1356SOL    HW1 4967   3.483   2.853   1.713
 1356SOL    HW2 4968   3.486   2.993   1.796
 1357SOL     OW 4969   6.746   3.311   5.313
 1357SOL    HW1 4970   6.754   3.411   5.311
 1357SOL    HW2 4971   6.709   3.283   5.402
 1358SOL     OW 4972   1.314   6.548   6.943
 1358SOL    HW1 4973   1.335   6.629   6.997
 1358SOL    HW2 4974   1.227   6.560   6.896
 1359SOL     OW 4975   6.381   4.205   1.673
 1359SOL    HW1 4976   6.331   4.173   1.753
 1359SOL    HW2 4977   6.345   4.160   1.591
 1360SOL     OW 4978   2.903   2.514   6.373
 1360SOL    HW1 4979   2.940   2.509   6.280
 1360SOL    HW2 4980   2.973   2.545   6.436
 1361SOL     OW 4981   0.024   4.407   4.146
 1361SOL    HW1 4982   0.107   4.378   4.097
 1361SOL    HW2 4983   6.974   4.340   4.131
 1362SOL     OW 4984   3.877   3.031   2.487
 1362SOL    HW1 4985   3.802   3.014   2.552
 1362SOL    HW2 4986   3.839   3.036   2.394
 1363SOL     OW 4987   0.295   5.509   5.670
 1363SOL    HW1 4988   0.197   5.503   5.651
 1363SOL    HW2 4989   0.328   5.601   5.650
 1364SOL     OW 4990   4.500   4.327   0.579
 1364SOL    HW1 4991   4.543   4.353   0.666
 1364SOL    HW2 4992   4.571   4.314   0.509
 1365SOL     OW 4993   0.806   3.420   6.778
 1365SOL    HW1 4994   0.763   3.349   6.835
 1365SOL    HW2 4995   0.767   3.417   6.686
 1366SOL     OW 4996   1.806   0.086   5.141
 1366SOL    HW1 4997   1.871   0.010   5.145
 1366SOL    HW2 4998   1.732   0.063   5.078
 1367SOL     OW 4999   2.605   1.022   2.305
 1367SOL    HW1 5000   2.596   1.080   2.387
 1367SOL    HW2 5001   2.678   1.057   2.247
 1368SOL     OW 5002   6.093   6.558   4.795
 1368SOL    HW1 5003   6.153   6.505   4.855
 1368SOL    HW2 5004   6.110   6.534   4.700
 1369SOL     OW 5005   1.092   0.554   3.374
 1369SOL    HW1 5006   0.997   0.584   3.378
 1369SOL    HW2 5007   1.105   0.495   3.294
 1370SOL     OW 5008   2.995   0.936   1.764
 1370SOL    HW1 5009   3.085   0.977   1.782
 1370SOL    HW2 5010   3.002   0.871   1.689
 1371SOL     OW 5011   3.546   0.551   6.002
 1371SOL    HW1 5012   3.518   0.533   6.096
 1371SOL    HW2 5013   3.587   0.469   5.962
 1372SOL     OW 5014   2.773   2.046   2.252
 1372SOL    HW1 5015   2.730   2.112   2.314
 1372SOL    HW2 5016   2.739   2.060   2.160
 1373SOL     OW 5017   0.778   6.063   0.996
 1373SOL    HW1 5018   0.867   6.080   1.038
 1373SOL    HW2 5019   0.785   5.986   0.933
 1374SOL     OW 5020   4.384   2.428   0.353
 1374SOL    HW1 5021   4.322   2.503   0.331
 1374SOL    HW2 5022   4.435   2.402   0.271
 1375SOL     OW 5023   0.384   4.400   6.006
 1375SOL    HW1 5024   0.472   4.442   6.029
 1375SOL    HW2 5025   0.369   4.407   5.908
 1376SOL     OW 5026   5.037   2.630   2.786
 1376SOL    HW1 5027   5.093   2.611   2.705
 1376SOL    HW2 5028   4.942   2.645   2.759
 1377SOL     OW 5029   0.123   5.494   5.036
 1377SOL    HW1 5030   0.094   5.583   5.071
 1377SOL    HW2 5031   0.148   5.435   5.112
 1378SOL     OW 5032   1.239   2.324   0.262
 1378SOL    HW1 5033   1.181   2.404   0.248
 1378SOL    HW2 5034   1.292   2.336   0.346
 1379SOL     OW 5035   3.967   6.202   2.278
 1379SOL    HW1 5036   4.004   6.293   2.295
 1379SOL    HW2 5037   4.007   6.137   2.342
 1380SOL     OW 5038   6.387   6.615   2.856
 1380SOL    HW1 5039   6.346   6.643   2.942
 1380SOL    HW2 5040   6.467   6.672   2.837
 1381SOL     OW 5041   6.297   1.683   0.899
 1381SOL    HW1 5042   6.394   1.709   0.905
 1381SOL    HW2 5043   6.245   1.733   0.968
 1382SOL     OW 5044   5.416   4.461   6.520
 1382SOL    HW1 5045   5.485   4.532   6.536
 1382SOL    HW2 5046   5.393   4.418   6.607
 1383SOL     OW 5047   2.659   0.106   0.951
 1383SOL    HW1 5048   2.639   0.189   1.002
 1383SOL    HW2 5049   2.725   0.125   0.878
 1384SOL     OW 5050   3.116   2.077   2.647
 1384SOL    HW1 5051   3.045   2.008   2.659
 1384SOL    HW2 5052   3.164   2.060   2.561
 1385SOL     OW 5053   6.794   2.973   2.739
 1385SOL    HW1 5054   6.809   3.047   2.804
 1385SOL    HW2 5055   6.783   3.010   2.647
 1386SOL     OW 5056   2.020   2.299   4.090
 1386SOL    HW1 5057   1.931   2.345   4.079
 1386SOL    HW2 5058   2.056   2.317   4.182
 1387SOL     OW 5059   2.286   0.316   5.195
 1387SOL    HW1 5060   2.238   0.335   5.109
 1387SOL    HW2 5061   2.368   0.264   5.175
 1388SOL     OW 5062   6.316   1.125   4.157
 1388SOL    HW1 5063   6.260   1.208   4.165
 1388SOL    HW2 5064   6.306   1.072   4.241
 1389SOL     OW 5065   5.754   0.512   4.749
 1389SOL    HW1 5066   5.677   0.456   4.779
 1389SOL    HW2 5067   5.839   0.460   4.761
 1390SOL     OW 5068   4.728   2.553   2.882
 1390SOL    HW1 5069   4.677   2.551   2.796
 1390SOL    HW2 5070   4.663   2.562   2.958
 1391SOL     OW 5071   5.200   0.651   4.866
 1391SOL    HW1 5072   5.236   0.730   4.915
 1391SOL    HW2 5073   5.103   0.640   4.888
 1392SOL     OW 5074   4.694   5.633   6.508
 1392SOL    HW1 5075   4.686   5.607   6.411
 1392SOL    HW2 5076   4.641   5.717   6.524
 1393SOL     OW 5077   6.370   0.649   0.103
 1393SOL    HW1 5078   6.358   0.683   0.196
 1393SOL    HW2 5079   6.467   0.654   0.078
 1394SOL     OW 5080   4.741   6.509   3.975
 1394SOL    HW1 5081   4.760   6.584   4.038
 1394SOL    HW2 5082   4.650   6.522   3.934
 1395SOL     OW 5083   1.262   5.099   2.112
 1395SOL    HW1 5084   1.287   5.190   2.144
 1395SOL    HW2 5085   1.339   5.059   2.062
 1396SOL     OW 5086   2.053   1.567   4.062
 1396SOL    HW1 5087   2.041   1.519   4.148
 1396SOL    HW2 5088   2.070   1.664   4.080
 1397SOL     OW 5089   0.046   5.212   4.729
 1397SOL    HW1 5090   0.050   5.132   4.669
 1397SOL    HW2 5091   6.975   5.223   4.764
 1398SOL     OW 5092   0.421   0.432   0.304
 1398SOL    HW1 5093   0.394   0.339   0.281
 1398SOL    HW2 5094   0.359   0.497   0.258
 1399SOL     OW 5095   4.181   0.339   0.422
 1399SOL    HW1 5096   4.124   0.420   0.406
 1399SOL    HW2 5097   4.270   0.352   0.379
 1400SOL     OW 5098   6.592   0.177   5.147
 1400SOL    HW1 5099   6.624   0.256   5.095
 1400SOL    HW2 5100   6.653   0.100   5.131
 1401SOL     OW 5101   5.319   0.046   3.489
 1401SOL    HW1 5102   5.391   0.037   3.421
 1401SOL    HW2 5103   5.314   6.985   3.544
 1402SOL     OW 5104   0.148   4.809   1.915
 1402SOL    HW1 5105   0.050   4.792   1.926
 1402SOL    HW2 5106   0.169   4.825   1.819
 1403SOL     OW 5107   2.789   2.996   6.596
 1403SOL    HW1 5108   2.732   2.961   6.671
 1403SOL    HW2 5109   2.782   3.096   6.594
 1404SOL     OW 5110   4.307   6.632   0.339
 1404SOL    HW1 5111   4.332   6.699   0.410
 1404SOL    HW2 5112   4.341   6.542   0.366
 1405SOL     OW 5113   1.063   3.637   1.131
 1405SOL    HW1 5114   1.017   3.644   1.043
 1405SOL    HW2 5115   1.075   3.541   1.155
 1406SOL     OW 5116   2.398   3.263   0.918
 1406SOL    HW1 5117   2.364   3.292   0.828
 1406SOL    HW2 5118   2.355   3.177   0.944
 1407SOL     OW 5119   0.277   2.982   1.339
 1407SOL    HW1 5120   0.281   3.067   1.391
 1407SOL    HW2 5121   0.296   2.905   1.401
 1408SOL     OW 5122   6.084   6.594   0.833
 1408SOL    HW1 5123   5.994   6.635   0.839
 1408SOL    HW2 5124   6.109   6.553   0.921
 1409SOL     OW 5125   6.579   1.764   5.874
 1409SOL    HW1 5126   6.597   1.665   5.871
 1409SOL    HW2 5127   6.484   1.781   5.849
 1410SOL     OW 5128   4.335   0.903   5.777
 1410SOL    HW1 5129   4.293   0.989   5.749
 1410SOL    HW2 5130   4.277   0.827   5.747
 1411SOL     OW 5131   3.582   5.092   6.859
 1411SOL    HW1 5132   3.486   5.070   6.878
 1411SOL    HW2 5133   3.588   5.184   6.820
 1412SOL     OW 5134   2.379   3.228   0.241
 1412SOL    HW1 5135   2.473   3.224   0.208
 1412SOL    HW2 5136   2.320   3.265   0.170
 1413SOL     OW 5137   1.355   1.642   5.085
 1413SOL    HW1 5138   1.265   1.680   5.062
 1413SOL    HW2 5139   1.385   1.679   5.173
 1414SOL     OW 5140   1.544   4.084   2.623
 1414SOL    HW1 5141   1.563   4.148   2.698
 1414SOL    HW2 5142   1.475   4.124   2.562
 1415SOL     OW 5143   2.113   1.776   4.516
 1415SOL    HW1 5144   2.155   1.767   4.606
 1415SOL    HW2 5145   2.183   1.802   4.449
 1416SOL     OW 5146   4.471   0.634   4.730
 1416SOL    HW1 5147   4.477   0.599   4.823
 1416SOL    HW2 5148   4.423   0.568   4.672
 1417SOL     OW 5149   3.360   3.195   5.828
 1417SOL    HW1 5150   3.332   3.170   5.735
 1417SOL    HW2 5151   3.325   3.286   5.850
 1418SOL     OW 5152   3.478   4.623   5.647
 1418SOL    HW1 5153   3.456   4.698   5.585
 1418SOL    HW2 5154   3.553   4.569   5.609
 1419SOL     OW 5155   1.922   5.371   2.501
 1419SOL    HW1 5156   1.961   5.333   2.585
 1419SOL    HW2 5157   1.906   5.469   2.513
 1420SOL     OW 5158   2.689   6.548   3.200
 1420SOL    HW1 5159   2.750   6.522   3.275
 1420SOL    HW2 5160   2.704   6.644   3.176
 1421SOL     OW 5161   1.111   4.686   5.381
 1421SOL    HW1 5162   1.099   4.730   5.292
 1421SOL    HW2 5163   1.180   4.614   5.373
 1422SOL     OW 5164   2.315   3.823   6.186
 1422SOL    HW1 5165   2.301   3.822   6.087
 1422SOL    HW2 5166   2.252   3.759   6.229
 1423SOL     OW 5167   4.519   0.479   4.966
 1423SOL    HW1 5168   4.488   0.519   5.052
 1423SOL    HW2 5169   4.593   0.414   4.983
 1424SOL     OW 5170   6.462   2.958   0.238
 1424SOL    HW1 5171   6.390   3.008   0.192
 1424SOL    HW2 5172   6.439   2.947   0.335
 1425SOL     OW 5173   5.035   6.314   3.536
 1425SOL    HW1 5174   4.959   6.256   3.505
 1425SOL    HW2 5175   4.998   6.388   3.591
 1426SOL     OW 5176   3.389   2.112   0.269
 1426SOL    HW1 5177   3.456   2.049   0.307
 1426SOL    HW2 5178   3.433   2.199   0.247
 1427SOL     OW 5179   1.942   0.374   4.105
 1427SOL    HW1 5180   1.997   0.457   4.116
 1427SOL    HW2 5181   1.845   0.399   4.103
 1428SOL     OW 5182   0.867   3.035   3.835
 1428SOL    HW1 5183   0.886   3.078   3.747
 1428SOL    HW2 5184   0.898   3.096   3.909
 1429SOL     OW 5185   6.267   1.090   1.305
 1429SOL    HW1 5186   6.201   1.121   1.373
 1429SOL    HW2 5187   6.304   1.168   1.255
 1430SOL     OW 5188   2.160   3.697   4.238
 1430SOL    HW1 5189   2.235   3.759   4.259
 1430SOL    HW2 5190   2.182   3.605   4.271
 1431SOL     OW 5191   2.597   1.435   6.524
 1431SOL    HW1 5192   2.535   1.413   6.450
 1431SOL    HW2 5193   2.545   1.461   6.605
 1432SOL     OW 5194   2.992   0.400   2.353
 1432SOL    HW1 5195   2.959   0.492   2.334
 1432SOL    HW2 5196   2.986   0.345   2.269
 1433SOL     OW 5197   2.287   0.198   4.021
 1433SOL    HW1 5198   2.261   0.161   4.110
 1433SOL    HW2 5199   2.382   0.229   4.024
 1434SOL     OW 5200   0.098   3.307   0.878
 1434SOL    HW1 5201   0.002   3.308   0.907
 1434SOL    HW2 5202   0.125   3.213   0.854
 1435SOL     OW 5203   1.799   6.669   4.155
 1435SOL    HW1 5204   1.846   6.631   4.235
 1435SOL    HW2 5205   1.841   6.756   4.130
 1436SOL     OW 5206   5.427   1.613   0.087
 1436SOL    HW1 5207   5.461   1.659   0.005
 1436SOL    HW2 5208   5.333   1.582   0.071
 1437SOL     OW 5209   3.742   0.376   5.994
 1437SOL    HW1 5210   3.778   0.469   5.992
 1437SOL    HW2 5211   3.805   0.314   5.947
 1438SOL     OW 5212   2.778   0.450   2.075
 1438SOL    HW1 5213   2.793   0.512   2.152
 1438SOL    HW2 5214   2.825   0.363   2.093
 1439SOL     OW 5215   0.164   4.605   7.005
 1439SOL    HW1 5216   0.066   4.612   6.987
 1439SOL    HW2 5217   0.213   4.581   6.921
 1440SOL     OW 5218   3.756   3.223   3.063
 1440SOL    HW1 5219   3.789   3.317   3.068
 1440SOL    HW2 5220   3.667   3.221   3.017
 1441SOL     OW 5221   6.435   2.908   3.893
 1441SOL    HW1 5222   6.361   2.904   3.960
 1441SOL    HW2 5223   6.495   2.829   3.905
 1442SOL     OW 5224   5.692   5.748   0.266
 1442SOL    HW1 5225   5.705   5.839   0.303
 1442SOL    HW2 5226   5.771   5.722   0.211
 1443SOL     OW 5227   0.644   2.836   2.838
 1443SOL    HW1 5228   0.556   2.884   2.844
 1443SOL    HW2 5229   0.718   2.902   2.851
 1444SOL     OW 5230   4.816   0.987   4.203
 1444SOL    HW1 5231   4.909   0.960   4.228
 1444SOL    HW2 5232   4.761   0.905   4.186
 1445SOL     OW 5233   6.175   2.062   1.081
 1445SOL    HW1 5234   6.186   2.089   1.177
 1445SOL    HW2 5235   6.261   2.078   1.032
 1446SOL     OW 5236   4.200   0.610   1.293
 1446SOL    HW1 5237   4.257   0.690   1.276
 1446SOL    HW2 5238   4.125   0.635   1.354
 1447SOL     OW 5239   5.822   0.957   5.618
 1447SOL    HW1 5240   5.865   1.043   5.590
 1447SOL    HW2 5241   5.885   0.882   5.601
 1448SOL     OW 5242   5.332   0.531   6.638
 1448SOL    HW1 5243   5.303   0.530   6.543
 1448SOL    HW2 5244   5.262   0.575   6.694
 1449SOL     OW 5245   4.640   5.483   1.287
 1449SOL    HW1 5246   4.734   5.479   1.322
 1449SOL    HW2 5247   4.611   5.392   1.260
 1450SOL     OW 5248   5.752   2.862   3.903
 1450SOL    HW1 5249   5.839   2.832   3.944
 1450SOL    HW2 5250   5.752   2.962   3.895
 1451SOL     OW 5251   1.674   6.835   2.869
 1451SOL    HW1 5252   1.645   6.810   2.777
 1451SOL    HW2 5253   1.716   6.755   2.913
 1452SOL     OW 5254   4.574   0.984   5.148
 1452SOL    HW1 5255   4.523   0.904   5.116
 1452SOL    HW2 5256   4.642   0.956   5.215
 1453SOL     OW 5257   5.213   4.462   4.686
 1453SOL    HW1 5258   5.211   4.535   4.755
 1453SOL    HW2 5259   5.120   4.440   4.658
 1454SOL     OW 5260   4.314   3.593   1.398
 1454SOL    HW1 5261   4.366   3.597   1.484
 1454SOL    HW2 5262   4.277   3.683   1.377
 1455SOL     OW 5263   1.850   2.713   1.621
 1455SOL    HW1 5264   1.847   2.659   1.705
 1455SOL    HW2 5265   1.780   2.784   1.624
 1456SOL     OW 5266   6.519   5.678   3.627
 1456SOL    HW1 5267   6.578   5.602   3.652
 1456SOL    HW2 5268   6.557   5.725   3.547
 1457SOL     OW 5269   2.027   0.027   3.105
 1457SOL    HW1 5270   1.990   0.016   3.197
 1457SOL    HW2 5271   1.952   0.025   3.039
 1458SOL     OW 5272   6.317   5.367   6.800
 1458SOL    HW1 5273   6.383   5.297   6.772
 1458SOL    HW2 5274   6.323   5.380   6.899
 1459SOL     OW 5275   2.325   0.259   0.695
 1459SOL    HW1 5276   2.301   0.190   0.763
 1459SOL    HW2 5277   2.361   0.340   0.740
 1460SOL     OW 5278   0.829   6.425   0.025
 1460SOL    HW1 5279   0.878   6.477   6.978
 1460SOL    HW2 5280   0.840   6.328   0.008
 1461SOL     OW 5281   5.341   5.312   1.435
 1461SOL    HW1 5282   5.300   5.282   1.349
 1461SOL    HW2 5283   5.361   5.233   1.492
 1462SOL     OW 5284   5.130   0.401   5.854
 1462SOL    HW1 5285   5.168   0.343   5.782
 1462SOL    HW2 5286   5.200   0.417   5.924
 1463SOL     OW 5287   0.759   1.042   4.947
 1463SOL    HW1 5288   0.745   1.003   4.856
 1463SOL    HW2 5289   0.677   1.027   5.003
 1464SOL     OW 5290   7.015   6.407   0.874
 1464SOL    HW1 5291   0.043   6.455   0.946
 1464SOL    HW2 5292   6.982   6.473   0.807
 1465SOL     OW 5293   0.354   0.071   4.829
 1465SOL    HW1 5294   0.434   0.084   4.770
 1465SOL    HW2 5295   0.330   6.997   4.831
 1466SOL     OW 5296   6.108   5.155   3.886
 1466SOL    HW1 5297   6.060   5.139   3.799
 1466SOL    HW2 5298   6.079   5.085   3.952
 1467SOL     OW 5299   0.145   3.258   3.125
 1467SOL    HW1 5300   0.164   3.279   3.221
 1467SOL    HW2 5301   0.227   3.276   3.070
 1468SOL     OW 5302   5.774   6.159   2.876
 1468SOL    HW1 5303   5.766   6.159   2.776
 1468SOL    HW2 5304   5.706   6.221   2.915
 1469SOL     OW 5305   0.347   1.128   2.799
 1469SOL    HW1 5306   0.403   1.060   2.751
 1469SOL    HW2 5307   0.318   1.199   2.735
 1470SOL     OW 5308   0.121   0.862   3.313
 1470SOL    HW1 5309   0.219   0.872   3.334
 1470SOL    HW2 5310   0.093   0.768   3.331
 1471SOL     OW 5311   6.873   0.203   6.967
 1471SOL    HW1 5312   6.860   0.243   6.877
 1471SOL    HW2 5313   6.964   0.162   6.973
 1472SOL     OW 5314   4.639   0.209   5.350
 1472SOL    HW1 5315   4.652   0.261   5.434
 1472SOL    HW2 5316   4.569   0.139   5.365
 1473SOL     OW 5317   6.047   4.259   3.935
 1473SOL    HW1 5318   6.111   4.335   3.924
 1473SOL    HW2 5319   6.054   4.223   4.028
 1474SOL     OW 5320   4.890   5.434   3.437
 1474SOL    HW1 5321   4.805   5.481   3.414
 1474SOL    HW2 5322   4.869   5.348   3.483
 1475SOL     OW 5323   0.294   0.853   2.540
 1475SOL    HW1 5324   0.360   0.927   2.552
 1475SOL    HW2 5325   0.264   0.850   2.444
 1476SOL     OW 5326   6.118   1.699   1.853
 1476SOL    HW1 5327   6.135   1.743   1.764
 1476SOL    HW2 5328   6.184   1.626   1.868
 1477SOL     OW 5329   2.812   6.355   3.498
 1477SOL    HW1 5330   2.814   6.291   3.574
 1477SOL    HW2 5331   2.897   6.407   3.496
 1478SOL     OW 5332   6.757   4.462   1.614
 1478SOL    HW1 5333   6.780   4.369   1.642
 1478SOL    HW2 5334   6.658   4.474   1.617
 1479SOL     OW 5335   1.717   5.286   0.652
 1479SOL    HW1 5336   1.734   5.193   0.686
 1479SOL    HW2 5337   1.715   5.350   0.729
 1480SOL     OW 5338   2.685   0.948   0.040
 1480SOL    HW1 5339   2.591   0.968   0.067
 1480SOL    HW2 5340   2.688   0.858   7.018
 1481SOL     OW 5341   6.087   2.085   6.188
 1481SOL    HW1 5342   6.071   2.139   6.105
 1481SOL    HW2 5343   6.019   2.111   6.258
 1482SOL     OW 5344   5.783   0.594   6.497
 1482SOL    HW1 5345   5.744   0.681   6.468
 1482SOL    HW2 5346   5.709   0.531   6.521
 1483SOL     OW 5347   5.934   2.179   6.421
 1483SOL    HW1 5348   5.875   2.259   6.433
 1483SOL    HW2 5349   5.943   2.131   6.509
 1484SOL     OW 5350   6.295   5.915   2.921
 1484SOL    HW1 5351   6.208   5.959   2.898
 1484SOL    HW2 5352   6.351   5.978   2.976
 1485SOL     OW 5353   5.077   3.218   4.227
 1485SOL    HW1 5354   5.050   3.225   4.323
 1485SOL    HW2 5355   5.075   3.122   4.199
 1486SOL     OW 5356   4.735   2.326   2.330
 1486SOL    HW1 5357   4.788   2.318   2.246
 1486SOL    HW2 5358   4.709   2.421   2.344
 1487SOL     OW 5359   6.252   1.486   5.454
 1487SOL    HW1 5360   6.230   1.441   5.367
 1487SOL    HW2 5361   6.171   1.531   5.490
 1488SOL     OW 5362   3.870   1.810   2.927
 1488SOL    HW1 5363   3.824   1.722   2.915
 1488SOL    HW2 5364   3.806   1.884   2.904
 1489SOL     OW 5365   3.896   5.774   5.097
 1489SOL    HW1 5366   3.973   5.758   5.159
 1489SOL    HW2 5367   3.931   5.783   5.004
 1490SOL     OW 5368   2.061   2.797   0.660
 1490SOL    HW1 5369   2.144   2.744   0.647
 1490SOL    HW2 5370   2.070   2.853   0.742
 1491SOL     OW 5371   0.607   2.694   4.898
 1491SOL    HW1 5372   0.509   2.679   4.897
 1491SOL    HW2 5373   0.640   2.695   4.993
 1492SOL     OW 5374   5.426   2.615   2.506
 1492SOL    HW1 5375   5.337   2.570   2.517
 1492SOL    HW2 5376   5.434   2.653   2.414
 1493SOL     OW 5377   4.915   0.574   4.927
 1493SOL    HW1 5378   4.876   0.665   4.940
 1493SOL    HW2 5379   4.867   0.528   4.851
 1494SOL     OW 5380   5.221   3.209   5.362
 1494SOL    HW1 5381   5.167   3.247   5.287
 1494SOL    HW2 5382   5.163   3.151   5.419
 1495SOL     OW 5383   2.150   2.903   2.677
 1495SOL    HW1 5384   2.060   2.861   2.681
 1495SOL    HW2 5385   2.212   2.855   2.740
 1496SOL     OW 5386   1.073   1.208   2.528
 1496SOL    HW1 5387   1.096   1.250   2.616
 1496SOL    HW2 5388   1.141   1.235   2.459
 1497SOL     OW 5389   5.449   4.838   5.437
 1497SOL    HW1 5390   5.459   4.749   5.393
 1497SOL    HW2 5391   5.497   4.838   5.525
 1498SOL     OW 5392   2.662   6.268   0.626
 1498SOL    HW1 5393   2.642   6.328   0.548
 1498SOL    HW2 5394   2.610   6.298   0.706
 1499SOL     OW 5395   0.302   4.516   5.509
 1499SOL    HW1 5396   0.317   4.569   5.426
 1499SOL    HW2 5397   0.354   4.430   5.505
 1500SOL     OW 5398   4.741   6.864   5.837
 1500SOL    HW1 5399   4.838   6.887   5.850
 1500SOL    HW2 5400   4.690   6.945   5.810
 1501SOL     OW 5401   4.088   0.010   6.530
 1501SOL    HW1 5402   4.101   6.950   6.475
 1501SOL    HW2 5403   3.990   0.029   6.538
 1502SOL     OW 5404   6.307   6.016   6.902
 1502SOL    HW1 5405   6.366   5.997   6.981
 1502SOL    HW2 5406   6.228   6.069   6.932
 1503SOL     OW 5407   2.969   3.330   6.151
 1503SOL    HW1 5408   3.059   3.299   6.183
 1503SOL    HW2 5409   2.979   3.380   6.065
 1504SOL     OW 5410   2.374   5.897   4.399
 1504SOL    HW1 5411   2.390   5.811   4.350
 1504SOL    HW2 5412   2.416   5.972   4.350
 1505SOL     OW 5413   4.799   5.191   0.621
 1505SOL    HW1 5414   4.706   5.189   0.582
 1505SOL    HW2 5415   4.821   5.101   0.658
 1506SOL     OW 5416   0.593   5.846   3.359
 1506SOL    HW1 5417   0.535   5.784   3.412
 1506SOL    HW2 5418   0.688   5.817   3.366
 1507SOL     OW 5419   1.731   1.351   6.498
 1507SOL    HW1 5420   1.828   1.329   6.508
 1507SOL    HW2 5421   1.721   1.431   6.438
 1508SOL     OW 5422   5.200   6.996   0.264
 1508SOL    HW1 5423   5.106   6.988   0.297
 1508SOL    HW2 5424   5.254   6.920   0.299
 1509SOL     OW 5425   5.227   2.232   0.255
 1509SOL    HW1 5426   5.198   2.240   0.350
 1509SOL    HW2 5427   5.227   2.136   0.228
 1510SOL     OW 5428   6.857   1.399   3.902
 1510SOL    HW1 5429   6.837   1.301   3.900
 1510SOL    HW2 5430   6.955   1.412   3.920
 1511SOL     OW 5431   2.084   2.571   0.937
 1511SOL    HW1 5432   2.163   2.546   0.994
 1511SOL    HW2 5433   2.112   2.577   0.842
 1512SOL     OW 5434   6.336   0.492   2.273
 1512SOL    HW1 5435   6.297   0.567   2.220
 1512SOL    HW2 5436   6.418   0.523   2.320
 1513SOL     OW 5437   3.519   1.414   1.999
 1513SOL    HW1 5438   3.495   1.328   1.955
 1513SOL    HW2 5439   3.532   1.485   1.930
 1514SOL     OW 5440   5.306   1.677   5.147
 1514SOL    HW1 5441   5.281   1.627   5.064
 1514SOL    HW2 5442   5.223   1.702   5.197
 1515SOL     OW 5443   0.069   4.407   4.459
 1515SOL    HW1 5444   0.062   4.505   4.438
 1515SOL    HW2 5445   7.000   4.370   4.476
 1516SOL     OW 5446   1.016   1.889   0.933
 1516SOL    HW1 5447   0.985   1.892   1.028
 1516SOL    HW2 5448   0.966   1.818   0.884
 1517SOL     OW 5449   3.819   5.404   3.361
 1517SOL    HW1 5450   3.768   5.473   3.310
 1517SOL    HW2 5451   3.908   5.390   3.318
 1518SOL     OW 5452   0.748   4.790   1.086
 1518SOL    HW1 5453   0.690   4.759   1.010
 1518SOL    HW2 5454   0.834   4.738   1.086
 1519SOL     OW 5455   6.809   4.649   0.595
 1519SOL    HW1 5456   6.711   4.663   0.612
 1519SOL    HW2 5457   6.841   4.718   0.530
 1520SOL     OW 5458   1.398   3.456   3.356
 1520SOL    HW1 5459   1.371   3.548   3.330
 1520SOL    HW2 5460   1.327   3.415   3.414
 1521SOL     OW 5461   2.496   4.277   5.829
 1521SOL    HW1 5462   2.506   4.329   5.913
 1521SOL    HW2 5463   2.523   4.334   5.751
 1522SOL     OW 5464   6.201   2.361   6.412
 1522SOL    HW1 5465   6.108   2.326   6.425
 1522SOL    HW2 5466   6.264   2.284   6.404
 1523SOL     OW 5467   7.000   1.521   0.766
 1523SOL    HW1 5468   0.008   1.437   0.810
 1523SOL    HW2 5469   6.901   1.529   0.774
 1524SOL     OW 5470   6.927   0.911   2.804
 1524SOL    HW1 5471   6.833   0.900   2.836
 1524SOL    HW2 5472   6.987   0.853   2.858
 1525SOL     OW 5473   4.290   1.931   6.105
 1525SOL    HW1 5474   4.366   1.912   6.166
 1525SOL    HW2 5475   4.233   1.849   6.096
 1526SOL     OW 5476   0.216   2.194   1.792
 1526SOL    HW1 5477   0.257   2.264   1.851
 1526SOL    HW2 5478   0.268   2.109   1.801
 1527SOL     OW 5479   3.132   1.158   5.483
 1527SOL    HW1 5480   3.054   1.215   5.509
 1527SOL    HW2 5481   3.217   1.206   5.504
 1528SOL     OW 5482   5.398   6.379   3.444
 1528SOL    HW1 5483   5.313   6.353   3.398
 1528SOL    HW2 5484   5.378   6.444   3.518
 1529SOL     OW 5485   2.867   0.636   5.972
 1529SOL    HW1 5486   2.815   0.715   5.939
 1529SOL    HW2 5487   2.875   0.569   5.898
 1530SOL     OW 5488   3.793   6.332   1.520
 1530SOL    HW1 5489   3.831   6.315   1.611
 1530SOL    HW2 5490   3.748   6.249   1.487
 1531SOL     OW 5491   6.857   6.976   4.630
 1531SOL    HW1 5492   6.947   6.998   4.593
 1531SOL    HW2 5493   6.797   0.033   4.622
 1532SOL     OW 5494   3.112   1.652   4.955
 1532SOL    HW1 5495   3.162   1.641   4.869
 1532SOL    HW2 5496   3.114   1.567   5.006
 1533SOL     OW 5497   6.285   3.009   6.985
 1533SOL    HW1 5498   6.206   2.957   6.951
 1533SOL    HW2 5499   6.364   2.990   6.926
 1534SOL     OW 5500   0.254   6.321   1.879
 1534SOL    HW1 5501   0.154   6.321   1.873
 1534SOL    HW2 5502   0.289   6.233   1.847
 1535SOL     OW 5503   5.139   5.227   4.396
 1535SOL    HW1 5504   5.179   5.136   4.384
 1535SOL    HW2 5505   5.158   5.283   4.315
 1536SOL     OW 5506   2.291   5.807   4.078
 1536SOL    HW1 5507   2.290   5.741   4.154
 1536SOL    HW2 5508   2.326   5.762   3.996
 1537SOL     OW 5509   1.842   5.410   4.313
 1537SOL    HW1 5510   1.865   5.493   4.263
 1537SOL    HW2 5511   1.747   5.386   4.297
 1538SOL     OW 5512   2.667   5.314   6.379
 1538SOL    HW1 5513   2.685   5.220   6.408
 1538SOL    HW2 5514   2.609   5.359   6.447
 1539SOL     OW 5515   3.316   4.788   1.758
 1539SOL    HW1 5516   3.243   4.732   1.799
 1539SOL    HW2 5517   3.404   4.763   1.799
 1540SOL     OW 5518   0.406   6.464   4.531
 1540SOL    HW1 5519   0.329   6.418   4.486
 1540SOL    HW2 5520   0.376   6.554   4.563
 1541SOL     OW 5521   5.018   2.276   1.581
 1541SOL    HW1 5522   5.055   2.366   1.604
 1541SOL    HW2 5523   5.012   2.267   1.482
 1542SOL     OW 5524   1.217   6.655   1.204
 1542SOL    HW1 5525   1.214   6.709   1.288
 1542SOL    HW2 5526   1.149   6.689   1.140
 1543SOL     OW 5527   3.124   3.817   4.071
 1543SOL    HW1 5528   3.038   3.795   4.024
 1543SOL    HW2 5529   3.106   3.833   4.168
 1544SOL     OW 5530   3.764   4.089   2.694
 1544SOL    HW1 5531   3.858   4.055   2.683
 1544SOL    HW2 5532   3.727   4.056   2.780
 1545SOL     OW 5533   5.861   0.760   4.826
 1545SOL    HW1 5534   5.907   0.796   4.745
 1545SOL    HW2 5535   5.829   0.667   4.807
 1546SOL     OW 5536   0.799   6.913   6.068
 1546SOL    HW1 5537   0.870   6.843   6.057
 1546SOL    HW2 5538   0.817   6.966   6.151
 1547SOL     OW 5539   3.728   6.102   6.833
 1547SOL    HW1 5540   3.657   6.064   6.774
 1547SOL    HW2 5541   3.798   6.032   6.850
 1548SOL     OW 5542   5.589   4.085   4.550
 1548SOL    HW1 5543   5.670   4.041   4.511
 1548SOL    HW2 5544   5.594   4.083   4.649
 1549SOL     OW 5545   6.663   1.861   1.363
 1549SOL    HW1 5546   6.706   1.851   1.274
 1549SOL    HW2 5547   6.719   1.815   1.433
 1550SOL     OW 5548   2.367   5.939   4.669
 1550SOL    HW1 5549   2.344   6.028   4.707
 1550SOL    HW2 5550   2.365   5.943   4.569
 1551SOL     OW 5551   1.494   2.927   0.242
 1551SOL    HW1 5552   1.451   2.927   0.332
 1551SOL    HW2 5553   1.590   2.951   0.251
 1552SOL     OW 5554   0.605   0.216   0.705
 1552SOL    HW1 5555   0.507   0.217   0.727
 1552SOL    HW2 5556   0.657   0.245   0.786
 1553SOL     OW 5557   5.736   1.047   6.416
 1553SOL    HW1 5558   5.660   1.109   6.437
 1553SOL    HW2 5559   5.774   1.011   6.501
 1554SOL     OW 5560   3.165   1.677   1.170
 1554SOL    HW1 5561   3.124   1.634   1.090
 1554SOL    HW2 5562   3.122   1.765   1.188
 1555SOL     OW 5563   4.066   1.132   5.300
 1555SOL    HW1 5564   3.990   1.069   5.296
 1555SOL    HW2 5565   4.118   1.127   5.214
 1556SOL     OW 5566   4.114   1.670   0.716
 1556SOL    HW1 5567   4.121   1.699   0.812
 1556SOL    HW2 5568   4.192   1.612   0.694
 1557SOL     OW 5569   1.816   2.816   0.548
 1557SOL    HW1 5570   1.730   2.818   0.599
 1557SOL    HW2 5571   1.893   2.809   0.613
 1558SOL     OW 5572   5.558   3.159   6.436
 1558SOL    HW1 5573   5.475   3.116   6.401
 1558SOL    HW2 5574   5.542   3.257   6.451
 1559SOL     OW 5575   2.141   4.682   3.608
 1559SOL    HW1 5576   2.091   4.610   3.656
 1559SOL    HW2 5577   2.096   4.770   3.622
 1560SOL     OW 5578   4.176   1.631   1.340
 1560SOL    HW1 5579   4.131   1.635   1.430
 1560SOL    HW2 5580   4.196   1.536   1.317
 1561SOL     OW 5581   6.081   6.137   1.149
 1561SOL    HW1 5582   6.094   6.052   1.199
 1561SOL    HW2 5583   6.168   6.171   1.115
 1562SOL     OW 5584   4.091   6.437   2.335
 1562SOL    HW1 5585   4.108   6.409   2.429
 1562SOL    HW2 5586   4.019   6.507   2.333
 1563SOL     OW 5587   3.830   2.170   4.352
 1563SOL    HW1 5588   3.909   2.157   4.412
 1563SOL    HW2 5589   3.862   2.190   4.259
 1564SOL     OW 5590   1.057   2.291   3.206
 1564SOL    HW1 5591   1.138   2.311   3.261
 1564SOL    HW2 5592   1.083   2.237   3.126
 1565SOL     OW 5593   4.052   1.285   4.117
 1565SOL    HW1 5594   4.062   1.335   4.203
 1565SOL    HW2 5595   3.998   1.339   4.053
 1566SOL     OW 5596   4.814   5.035   3.068
 1566SOL    HW1 5597   4.880   4.961   3.050
 1566SOL    HW2 5598   4.864   5.119   3.087
 1567SOL     OW 5599   5.176   0.269   5.093
 1567SOL    HW1 5600   5.099   0.329   5.114
 1567SOL    HW2 5601   5.245   0.321   5.042
 1568SOL     OW 5602   2.252   5.174   2.140
 1568SOL    HW1 5603   2.262   5.115   2.220
 1568SOL    HW2 5604   2.158   5.209   2.136
 1569SOL     OW 5605   3.189   0.365   3.187
 1569SOL    HW1 5606   3.140   0.320   3.261
 1569SOL    HW2 5607   3.239   0.444   3.223
 1570SOL     OW 5608   3.581   6.580   6.528
 1570SOL    HW1 5609   3.509   6.619   6.586
 1570SOL    HW2 5610   3.637   6.517   6.582
 1571SOL     OW 5611   0.908   2.731   4.406
 1571SOL    HW1 5612   0.944   2.744   4.314
 1571SOL    HW2 5613   0.961   2.662   4.454
 1572SOL     OW 5614   2.028   5.083   1.825
 1572SOL    HW1 5615   2.123   5.068   1.851
 1572SOL    HW2 5616   1.970   5.011   1.864
 1573SOL     OW 5617   5.583   5.495   0.360
 1573SOL    HW1 5618   5.642   5.443   0.421
 1573SOL    HW2 5619   5.625   5.585   0.342
 1574SOL     OW 5620   0.144   3.637   3.486
 1574SOL    HW1 5621   0.114   3.732   3.492
 1574SOL    HW2 5622   0.099   3.582   3.556
 1575SOL     OW 5623   6.785   1.280   0.470
 1575SOL    HW1 5624   6.708   1.218   0.457
 1575SOL    HW2 5625   6.752   1.370   0.497
 1576SOL     OW 5626   0.896   0.368   2.180
 1576SOL    HW1 5627   0.854   0.428   2.248
 1576SOL    HW2 5628   0.942   0.424   2.110
 1577SOL     OW 5629   4.234   5.951   5.470
 1577SOL    HW1 5630   4.213   5.869   5.524
 1577SOL    HW2 5631   4.152   5.979   5.419
 1578SOL     OW 5632   5.402   1.256   0.934
 1578SOL    HW1 5633   5.449   1.319   0.996
 1578SOL    HW2 5634   5.307   1.286   0.922
 1579SOL     OW 5635   1.828   2.805   1.292
 1579SOL    HW1 5636   1.840   2.708   1.313
 1579SOL    HW2 5637   1.877   2.860   1.359
 1580SOL     OW 5638   3.100   3.684   2.684
 1580SOL    HW1 5639   3.035   3.608   2.687
 1580SOL    HW2 5640   3.050   3.770   2.693
 1581SOL     OW 5641   6.218   4.029   5.804
 1581SOL    HW1 5642   6.221   4.128   5.790
 1581SOL    HW2 5643   6.130   3.993   5.774
 1582SOL     OW 5644   4.546   6.560   5.487
 1582SOL    HW1 5645   4.509   6.528   5.400
 1582SOL    HW2 5646   4.639   6.526   5.499
 1583SOL     OW 5647   1.525   6.055   5.218
 1583SOL    HW1 5648   1.562   6.032   5.128
 1583SOL    HW2 5649   1.477   6.142   5.214
 1584SOL     OW 5650   0.138   5.116   0.235
 1584SOL    HW1 5651   0.108   5.031   0.277
 1584SOL    HW2 5652   0.059   5.177   0.225
 1585SOL     OW 5653   4.129   6.366   3.387
 1585SOL    HW1 5654   4.075   6.387   3.469
 1585SOL    HW2 5655   4.072   6.379   3.306
 1586SOL     OW 5656   3.422   5.007   3.545
 1586SOL    HW1 5657   3.436   4.968   3.455
 1586SOL    HW2 5658   3.464   5.098   3.550
 1587SOL     OW 5659   2.459   6.090   6.128
 1587SOL    HW1 5660   2.549   6.098   6.085
 1587SOL    HW2 5661   2.426   5.996   6.119
 1588SOL     OW 5662   5.749   1.306   3.452
 1588SOL    HW1 5663   5.742   1.280   3.356
 1588SOL    HW2 5664   5.783   1.229   3.506
 1589SOL     OW 5665   5.911   4.588   4.028
 1589SOL    HW1 5666   5.854   4.541   3.961
 1589SOL    HW2 5667   5.995   4.621   3.984
 1590SOL     OW 5668   6.275   2.653   3.662
 1590SOL    HW1 5669   6.330   2.575   3.694
 1590SOL    HW2 5670   6.337   2.724   3.627
 1591SOL     OW 5671   1.561   6.640   2.199
 1591SOL    HW1 5672   1.625   6.702   2.153
 1591SOL    HW2 5673   1.473   6.686   2.210
 1592SOL     OW 5674   6.954   4.246   6.642
 1592SOL    HW1 5675   0.013   4.223   6.590
 1592SOL    HW2 5676   6.902   4.317   6.594
 1593SOL     OW 5677   3.186   0.481   0.424
 1593SOL    HW1 5678   3.221   0.411   0.486
 1593SOL    HW2 5679   3.205   0.571   0.461
 1594SOL     OW 5680   6.261   0.132   1.940
 1594SOL    HW1 5681   6.339   0.138   2.003
 1594SOL    HW2 5682   6.176   0.125   1.993
 1595SOL     OW 5683   0.124   3.831   6.912
 1595SOL    HW1 5684   0.179   3.905   6.872
 1595SOL    HW2 5685   0.036   3.826   6.864
 1596SOL     OW 5686   4.718   4.777   2.643
 1596SOL    HW1 5687   4.655   4.820   2.579
 1596SOL    HW2 5688   4.668   4.708   2.697
 1597SOL     OW 5689   3.904   6.465   6.564
 1597SOL    HW1 5690   3.963   6.538   6.598
 1597SOL    HW2 5691   3.863   6.416   6.641
 1598SOL     OW 5692   2.062   5.339   0.286
 1598SOL    HW1 5693   2.115   5.297   0.212
 1598SOL    HW2 5694   2.124   5.369   0.358
 1599SOL     OW 5695   4.579   5.296   3.619
 1599SOL    HW1 5696   4.621   5.370   3.671
 1599SOL    HW2 5697   4.551   5.329   3.529
 1600SOL     OW 5698   4.734   6.945   2.210
 1600SOL    HW1 5699   4.640   6.920   2.190
 1600SOL    HW2 5700   4.759   6.910   2.300
 1601SOL     OW 5701   6.690   6.807   4.453
 1601SOL    HW1 5702   6.709   6.905   4.450
 1601SOL    HW2 5703   6.746   6.760   4.386
 1602SOL     OW 5704   3.841   5.026   3.919
 1602SOL    HW1 5705   3.841   4.952   3.986
 1602SOL    HW2 5706   3.934   5.040   3.886
 1603SOL     OW 5707   3.238   5.554   2.753
 1603SOL    HW1 5708   3.284   5.572   2.666
 1603SOL    HW2 5709   3.305   5.536   2.824
 1604SOL     OW 5710   4.253   5.180   2.057
 1604SOL    HW1 5711   4.300   5.267   2.073
 1604SOL    HW2 5712   4.283   5.113   2.125
 1605SOL     OW 5713   4.591   5.331   0.846
 1605SOL    HW1 5714   4.672   5.299   0.895
 1605SOL    HW2 5715   4.598   5.430   0.832
 1606SOL     OW 5716   3.706   6.068   4.798
 1606SOL    HW1 5717   3.761   6.055   4.880
 1606SOL    HW2 5718   3.717   5.988   4.738
 1607SOL     OW 5719   4.438   6.158   3.037
 1607SOL    HW1 5720   4.476   6.239   3.083
 1607SOL    HW2 5721   4.497   6.133   2.961
 1608SOL     OW 5722   5.840   0.988   3.145
 1608SOL    HW1 5723   5.895   0.943   3.075
 1608SOL    HW2 5724   5.849   0.938   3.231
 1609SOL     OW 5725   2.982   6.574   0.069
 1609SOL    HW1 5726   2.956   6.493   0.017
 1609SOL    HW2 5727   2.951   6.564   0.163
 1610SOL     OW 5728   5.600   0.326   0.776
 1610SOL    HW1 5729   5.565   0.343   0.868
 1610SOL    HW2 5730   5.537   0.264   0.727
 1611SOL     OW 5731   1.284   4.062   1.575
 1611SOL    HW1 5732   1.201   4.107   1.541
 1611SOL    HW2 5733   1.261   3.970   1.607
 1612SOL     OW 5734   3.896   0.050   1.805
 1612SOL    HW1 5735   3.901   0.099   1.718
 1612SOL    HW2 5736   3.815   0.079   1.855
 1613SOL     OW 5737   7.020   5.301   2.301
 1613SOL    HW1 5738   0.002   5.400   2.317
 1613SOL    HW2 5739   0.078   5.272   2.249
 1614SOL     OW 5740   6.561   2.067   6.286
 1614SOL    HW1 5741   6.473   2.045   6.327
 1614SOL    HW2 5742   6.568   2.023   6.196
 1615SOL     OW 5743   1.252   4.831   6.079
 1615SOL    HW1 5744   1.235   4.909   6.019
 1615SOL    HW2 5745   1.264   4.863   6.173
 1616SOL     OW 5746   2.273   1.415   4.638
 1616SOL    HW1 5747   2.317   1.501   4.609
 1616SOL    HW2 5748   2.309   1.339   4.585
 1617SOL     OW 5749   5.544   6.175   3.300
 1617SOL    HW1 5750   5.643   6.168   3.308
 1617SOL    HW2 5751   5.506   6.216   3.383
 1618SOL     OW 5752   3.042   5.143   2.792
 1618SOL    HW1 5753   2.971   5.164   2.859
 1618SOL    HW2 5754   3.050   5.219   2.727
 1619SOL     OW 5755   1.187   4.839   6.661
 1619SOL    HW1 5756   1.166   4.836   6.758
 1619SOL    HW2 5757   1.282   4.869   6.649
 1620SOL     OW 5758   3.742   5.438   6.212
 1620SOL    HW1 5759   3.700   5.401   6.129
 1620SOL    HW2 5760   3.691   5.517   6.243
 1621SOL     OW 5761   5.224   6.239   0.990
 1621SOL    HW1 5762   5.217   6.339   0.993
 1621SOL    HW2 5763   5.143   6.202   0.944
 1622SOL     OW 5764   0.461   4.200   4.370
 1622SOL    HW1 5765   0.388   4.132   4.363
 1622SOL    HW2 5766   0.470   4.231   4.464
 1623SOL     OW 5767   0.701   2.126   3.835
 1623SOL    HW1 5768   0.744   2.118   3.745
 1623SOL    HW2 5769   0.603   2.113   3.826
 1624SOL     OW 5770   4.499   1.686   0.812
 1624SOL    HW1 5771   4.483   1.758   0.880
 1624SOL    HW2 5772   4.578   1.712   0.755
 1625SOL     OW 5773   1.211   5.570   0.968
 1625SOL    HW1 5774   1.182   5.646   1.026
 1625SOL    HW2 5775   1.256   5.500   1.023
 1626SOL     OW 5776   3.066   2.011   1.116
 1626SOL    HW1 5777   3.018   1.925   1.099
 1626SOL    HW2 5778   3.011   2.069   1.175
 1627SOL     OW 5779   4.122   1.701   4.281
 1627SOL    HW1 5780   4.167   1.749   4.207
 1627SOL    HW2 5781   4.024   1.722   4.281
 1628SOL     OW 5782   5.303   6.538   0.450
 1628SOL    HW1 5783   5.213   6.538   0.407
 1628SOL    HW2 5784   5.334   6.444   0.464
 1629SOL     OW 5785   1.944   0.634   3.626
 1629SOL    HW1 5786   1.880   0.706   3.600
 1629SOL    HW2 5787   2.038   0.663   3.604
 1630SOL     OW 5788   0.278   3.589   0.072
 1630SOL    HW1 5789   0.189   3.597   0.117
 1630SOL    HW2 5790   0.291   3.667   0.011
 1631SOL     OW 5791   6.642   3.197   0.476
 1631SOL    HW1 5792   6.631   3.124   0.543
 1631SOL    HW2 5793   6.639   3.158   0.384
 1632SOL     OW 5794   6.423   4.935   2.705
 1632SOL    HW1 5795   6.369   4.926   2.621
 1632SOL    HW2 5796   6.511   4.977   2.684
 1633SOL     OW 5797   5.047   2.953   4.072
 1633SOL    HW1 5798   5.026   2.884   4.002
 1633SOL    HW2 5799   5.144   2.950   4.095
 1634SOL     OW 5800   5.744   0.702   4.573
 1634SOL    HW1 5801   5.684   0.700   4.493
 1634SOL    HW2 5802   5.707   0.643   4.644
 1635SOL     OW 5803   3.451   5.648   4.071
 1635SOL    HW1 5804   3.400   5.602   3.998
 1635SOL    HW2 5805   3.524   5.703   4.031
 1636SOL     OW 5806   5.881   6.581   1.645
 1636SOL    HW1 5807   5.970   6.578   1.601
 1636SOL    HW2 5808   5.892   6.605   1.742
 1637SOL     OW 5809   0.327   0.245   2.031
 1637SOL    HW1 5810   0.300   0.233   2.127
 1637SOL    HW2 5811   0.248   0.271   1.976
 1638SOL     OW 5812   6.512   2.955   1.972
 1638SOL    HW1 5813   6.492   2.869   2.018
 1638SOL    HW2 5814   6.444   3.024   1.999
 1639SOL     OW 5815   5.176   2.487   2.530
 1639SOL    HW1 5816   5.108   2.552   2.496
 1639SOL    HW2 5817   5.141   2.394   2.522
 1640SOL     OW 5818   6.226   0.127   0.040
 1640SOL    HW1 5819   6.275   0.128   6.976
 1640SOL    HW2 5820   6.128   0.140   0.023
 1641SOL     OW 5821   6.460   2.623   3.268
 1641SOL    HW1 5822   6.539   2.564   3.257
 1641SOL    HW2 5823   6.377   2.567   3.274
 1642SOL     OW 5824   6.147   2.313   5.744
 1642SOL    HW1 5825   6.196   2.343   5.826
 1642SOL    HW2 5826   6.209   2.263   5.684
 1643SOL     OW 5827   2.627   5.802   3.551
 1643SOL    HW1 5828   2.596   5.809   3.645
 1643SOL    HW2 5829   2.549   5.790   3.490
 1644SOL     OW 5830   6.004   2.888   1.299
 1644SOL    HW1 5831   6.092   2.935   1.305
 1644SOL    HW2 5832   6.016   2.798   1.257
 1645SOL     OW 5833   2.149   0.911   5.774
 1645SOL    HW1 5834   2.080   0.947   5.838
 1645SOL    HW2 5835   2.167   0.815   5.796
 1646SOL     OW 5836   1.311   5.412   1.168
 1646SOL    HW1 5837   1.360   5.492   1.203
 1646SOL    HW2 5838   1.241   5.384   1.234
 1647SOL     OW 5839   5.897   2.971   4.203
 1647SOL    HW1 5840   5.946   3.037   4.260
 1647SOL    HW2 5841   5.824   3.018   4.153
 1648SOL     OW 5842   5.377   6.276   1.351
 1648SOL    HW1 5843   5.404   6.370   1.327
 1648SOL    HW2 5844   5.288   6.278   1.395
 1649SOL     OW 5845   3.560   0.007   3.551
 1649SOL    HW1 5846   3.605   0.084   3.597
 1649SOL    HW2 5847   3.617   6.948   3.560
 1650SOL     OW 5848   2.747   4.698   6.362
 1650SOL    HW1 5849   2.697   4.657   6.439
 1650SOL    HW2 5850   2.685   4.757   6.310
 1651SOL     OW 5851   1.159   3.010   3.861
 1651SOL    HW1 5852   1.061   3.032   3.862
 1651SOL    HW2 5853   1.177   2.944   3.788
 1652SOL     OW 5854   0.543   2.368   1.269
 1652SOL    HW1 5855   0.494   2.412   1.193
 1652SOL    HW2 5856   0.554   2.434   1.344
 1653SOL     OW 5857   0.109   4.442   3.445
 1653SOL    HW1 5858   0.070   4.514   3.503
 1653SOL    HW2 5859   0.180   4.394   3.497
 1654SOL     OW 5860   0.398   3.025   2.003
 1654SOL    HW1 5861   0.385   2.983   2.092
 1654SOL    HW2 5862   0.392   3.124   2.012
 1655SOL     OW 5863   0.193   6.705   4.604
 1655SOL    HW1 5864   0.132   6.629   4.628
 1655SOL    HW2 5865   0.158   6.752   4.524
 1656SOL     OW 5866   1.781   4.690   3.765
 1656SOL    HW1 5867   1.840   4.687   3.846
 1656SOL    HW2 5868   1.759   4.596   3.737
 1657SOL     OW 5869   1.211   6.909   5.269
 1657SOL    HW1 5870   1.220   7.008   5.281
 1657SOL    HW2 5871   1.141   6.875   5.331
 1658SOL     OW 5872   6.319   0.178   6.795
 1658SOL    HW1 5873   6.412   0.171   6.832
 1658SOL    HW2 5874   6.320   0.153   6.698
 1659SOL     OW 5875   4.981   6.515   6.402
 1659SOL    HW1 5876   5.013   6.590   6.343
 1659SOL    HW2 5877   5.021   6.525   6.493
 1660SOL     OW 5878   2.280   0.113   2.430
 1660SOL    HW1 5879   2.260   0.166   2.513
 1660SOL    HW2 5880   2.315   0.175   2.359
 1661SOL     OW 5881   4.214   4.815   2.825
 1661SOL    HW1 5882   4.185   4.811   2.729
 1661SOL    HW2 5883   4.134   4.817   2.884
 1662SOL     OW 5884   0.232   0.964   5.196
 1662SOL    HW1 5885   0.181   1.046   5.222
 1662SOL    HW2 5886   0.167   0.894   5.166
 1663SOL     OW 5887   4.069   4.969   0.661
 1663SOL    HW1 5888   4.149   5.012   0.703
 1663SOL    HW2 5889   4.064   4.873   0.690
 1664SOL     OW 5890   1.185   0.174   5.576
 1664SOL    HW1 5891   1.095   0.215   5.583
 1664SOL    HW2 5892   1.206   0.154   5.480
 1665SOL     OW 5893   2.294   3.821   0.302
 1665SOL    HW1 5894   2.359   3.835   0.226
 1665SOL    HW2 5895   2.259   3.909   0.332
 1666SOL     OW 5896   6.001   6.551   6.182
 1666SOL    HW1 5897   5.961   6.621   6.242
 1666SOL    HW2 5898   5.971   6.461   6.211
 1667SOL     OW 5899   1.117   6.465   1.416
 1667SOL    HW1 5900   1.147   6.510   1.332
 1667SOL    HW2 5901   1.039   6.406   1.396
 1668SOL     OW 5902   5.547   4.648   3.035
 1668SOL    HW1 5903   5.529   4.602   2.948
 1668SOL    HW2 5904   5.486   4.726   3.045
 1669SOL     OW 5905   6.163   3.649   5.321
 1669SOL    HW1 5906   6.161   3.736   5.371
 1669SOL    HW2 5907   6.154   3.666   5.223
 1670SOL     OW 5908   2.364   4.944   5.746
 1670SOL    HW1 5909   2.293   4.975   5.810
 1670SOL    HW2 5910   2.329   4.867   5.693
 1671SOL     OW 5911   6.061   1.818   0.983
 1671SOL    HW1 5912   6.105   1.905   1.005
 1671SOL    HW2 5913   5.979   1.806   1.039
 1672SOL     OW 5914   0.839   3.611   6.986
 1672SOL    HW1 5915   0.810   3.555   6.909
 1672SOL    HW2 5916   0.926   3.576   7.022
 1673SOL     OW 5917   2.335   1.551   4.885
 1673SOL    HW1 5918   2.258   1.542   4.947
 1673SOL    HW2 5919   2.327   1.485   4.810
 1674SOL     OW 5920   4.759   2.005   2.971
 1674SOL    HW1 5921   4.831   2.074   2.974
 1674SOL    HW2 5922   4.692   2.024   3.042
 1675SOL     OW 5923   5.518   0.760   0.786
 1675SOL    HW1 5924   5.596   0.751   0.848
 1675SOL    HW2 5925   5.526   0.845   0.734
 1676SOL     OW 5926   1.504   1.504   2.941
 1676SOL    HW1 5927   1.555   1.449   2.875
 1676SOL    HW2 5928   1.497   1.453   3.027
 1677SOL     OW 5929   3.770   4.082   3.619
 1677SOL    HW1 5930   3.835   4.046   3.686
 1677SOL    HW2 5931   3.768   4.021   3.540
 1678SOL     OW 5932   1.204   0.132   0.746
 1678SOL    HW1 5933   1.265   0.206   0.772
 1678SOL    HW2 5934   1.114   0.148   0.787
 1679SOL     OW 5935   1.369   2.373   5.771
 1679SOL    HW1 5936   1.302   2.314   5.817
 1679SOL    HW2 5937   1.425   2.419   5.839
 1680SOL     OW 5938   4.817   2.400   4.039
 1680SOL    HW1 5939   4.871   2.435   4.116
 1680SOL    HW2 5940   4.733   2.358   4.074
 1681SOL     OW 5941   1.913   6.173   4.006
 1681SOL    HW1 5942   1.880   6.216   4.089
 1681SOL    HW2 5943   1.969   6.094   4.029
 1682SOL     OW 5944   3.142   0.443   5.317
 1682SOL    HW1 5945   3.135   0.344   5.326
 1682SOL    HW2 5946   3.235   0.468   5.290
 1683SOL     OW 5947   5.886   4.856   2.424
 1683SOL    HW1 5948   5.823   4.778   2.429
 1683SOL    HW2 5949   5.920   4.867   2.331
 1684SOL     OW 5950   2.523   4.544   1.866
 1684SOL    HW1 5951   2.499   4.452   1.835
 1684SOL    HW2 5952   2.622   4.555   1.866
 1685SOL     OW 5953   0.338   0.878   5.474
 1685SOL    HW1 5954   0.429   0.913   5.496
 1685SOL    HW2 5955   0.269   0.936   5.517
 1686SOL     OW 5956   4.962   5.862   3.059
 1686SOL    HW1 5957   4.923   5.773   3.034
 1686SOL    HW2 5958   5.023   5.850   3.138
 1687SOL     OW 5959   5.891   3.922   2.924
 1687SOL    HW1 5960   5.988   3.906   2.903
 1687SOL    HW2 5961   5.843   3.834   2.928
 1688SOL     OW 5962   2.097   1.421   3.675
 1688SOL    HW1 5963   2.092   1.515   3.643
 1688SOL    HW2 5964   2.166   1.371   3.623
 1689SOL     OW 5965   5.230   0.704   1.446
 1689SOL    HW1 5966   5.174   0.701   1.528
 1689SOL    HW2 5967   5.278   0.791   1.441
 1690SOL     OW 5968   0.827   4.164   4.572
 1690SOL    HW1 5969   0.766   4.101   4.620
 1690SOL    HW2 5970   0.907   4.114   4.539
 1691SOL     OW 5971   4.609   2.906   5.360
 1691SOL    HW1 5972   4.638   2.828   5.415
 1691SOL    HW2 5973   4.510   2.903   5.347
 1692SOL     OW 5974   5.716   5.198   1.255
 1692SOL    HW1 5975   5.764   5.128   1.308
 1692SOL    HW2 5976   5.636   5.158   1.211
 1693SOL     OW 5977   5.523   6.974   5.184
 1693SOL    HW1 5978   5.521   0.010   5.265
 1693SOL    HW2 5979   5.452   6.904   5.191
 1694SOL     OW 5980   4.775   1.006   5.356
 1694SOL    HW1 5981   4.823   0.994   5.442
 1694SOL    HW2 5982   4.709   1.081   5.364
 1695SOL     OW 5983   3.936   1.062   6.072
 1695SOL    HW1 5984   3.981   0.984   6.027
 1695SOL    HW2 5985   3.998   1.102   6.139
 1696SOL     OW 5986   4.535   6.170   0.890
 1696SOL    HW1 5987   4.487   6.253   0.919
 1696SOL    HW2 5988   4.564   6.180   0.795
 1697SOL     OW 5989   5.760   2.541   2.287
 1697SOL    HW1 5990   5.753   2.605   2.364
 1697SOL    HW2 5991   5.844   2.560   2.236
 1698SOL     OW 5992   3.890   1.160   1.608
 1698SOL    HW1 5993   3.848   1.249   1.627
 1698SOL    HW2 5994   3.961   1.142   1.676
 1699SOL     OW 5995   2.503   0.359   0.169
 1699SOL    HW1 5996   2.523   0.445   0.121
 1699SOL    HW2 5997   2.406   0.337   0.158
 1700SOL     OW 5998   6.178   2.776   2.748
 1700SOL    HW1 5999   6.078   2.782   2.746
 1700SOL    HW2 6000   6.205   2.680   2.738
 1701SOL     OW 6001   0.252   5.695   4.270
 1701SOL    HW1 6002   0.287   5.611   4.311
 1701SOL    HW2 6003   0.155   5.706   4.295
 1702SOL     OW 6004   1.986   2.754   5.694
 1702SOL    HW1 6005   1.974   2.669   5.745
 1702SOL    HW2 6006   2.077   2.756   5.653
 1703SOL     OW 6007   3.356   2.174   0.598
 1703SOL    HW1 6008   3.280   2.162   0.535
 1703SOL    HW2 6009   3.419   2.242   0.562
 1704SOL     OW 6010   2.426   2.139   1.097
 1704SOL    HW1 6011   2.509   2.095   1.128
 1704SOL    HW2 6012   2.347   2.097   1.142
 1705SOL     OW 6013   4.276   1.989   0.554
 1705SOL    HW1 6014   4.176   1.986   0.557
 1705SOL    HW2 6015   4.306   2.048   0.479
 1706SOL     OW 6016   4.084   2.630   0.037
 1706SOL    HW1 6017   4.138   2.548   0.021
 1706SOL    HW2 6018   3.987   2.609   0.030
 1707SOL     OW 6019   4.328   1.930   2.072
 1707SOL    HW1 6020   4.256   1.987   2.031
 1707SOL    HW2 6021   4.334   1.950   2.170
 1708SOL     OW 6022   3.326   5.131   1.831
 1708SOL    HW1 6023   3.277   5.061   1.778
 1708SOL    HW2 6024   3.408   5.091   1.872
 1709SOL     OW 6025   4.534   5.279   0.581
 1709SOL    HW1 6026   4.585   5.349   0.532
 1709SOL    HW2 6027   4.551   5.287   0.679
 1710SOL     OW 6028   4.164   5.117   3.302
 1710SOL    HW1 6029   4.211   5.041   3.257
 1710SOL    HW2 6030   4.067   5.095   3.311
 1711SOL     OW 6031   3.618   4.618   6.235
 1711SOL    HW1 6032   3.650   4.622   6.141
 1711SOL    HW2 6033   3.533   4.670   6.244
 1712SOL     OW 6034   7.002   1.815   3.289
 1712SOL    HW1 6035   0.045   1.876   3.333
 1712SOL    HW2 6036   6.940   1.868   3.233
 1713SOL     OW 6037   4.079   0.907   3.144
 1713SOL    HW1 6038   4.160   0.854   3.167
 1713SOL    HW2 6039   4.076   0.990   3.200
 1714SOL     OW 6040   3.984   3.498   0.334
 1714SOL    HW1 6041   3.890   3.528   0.352
 1714SOL    HW2 6042   4.047   3.545   0.396
 1715SOL     OW 6043   1.817   0.028   2.895
 1715SOL    HW1 6044   1.771   6.962   2.892
 1715SOL    HW2 6045   1.846   0.053   2.803
 1716SOL     OW 6046   4.716   0.478   3.178
 1716SOL    HW1 6047   4.708   0.381   3.202
 1716SOL    HW2 6048   4.637   0.505   3.123
 1717SOL     OW 6049   3.562   6.144   5.221
 1717SOL    HW1 6050   3.465   6.128   5.200
 1717SOL    HW2 6051   3.612   6.058   5.213
 1718SOL     OW 6052   1.207   2.930   1.724
 1718SOL    HW1 6053   1.207   3.018   1.676
 1718SOL    HW2 6054   1.301   2.907   1.749
 1719SOL     OW 6055   1.285   5.356   2.200
 1719SOL    HW1 6056   1.340   5.431   2.164
 1719SOL    HW2 6057   1.302   5.346   2.298
 1720SOL     OW 6058   6.834   3.099   5.811
 1720SOL    HW1 6059   6.909   3.165   5.797
 1720SOL    HW2 6060   6.783   3.124   5.893
 1721SOL     OW 6061   2.218   1.678   1.104
 1721SOL    HW1 6062   2.308   1.722   1.104
 1721SOL    HW2 6063   2.156   1.729   1.045
 1722SOL     OW 6064   2.862   2.290   3.104
 1722SOL    HW1 6065   2.936   2.290   3.037
 1722SOL    HW2 6066   2.859   2.201   3.149
 1723SOL     OW 6067   5.269   3.218   0.221
 1723SOL    HW1 6068   5.194   3.215   0.156
 1723SOL    HW2 6069   5.354   3.241   0.173
 1724SOL     OW 6070   6.890   2.095   1.316
 1724SOL    HW1 6071   6.839   2.146   1.386
 1724SOL    HW2 6072   6.849   2.005   1.304
 1725SOL     OW 6073   1.407   5.700   0.090
 1725SOL    HW1 6074   1.377   5.615   0.134
 1725SOL    HW2 6075   1.443   5.679   7.021
 1726SOL     OW 6076   5.340   4.392   3.328
 1726SOL    HW1 6077   5.399   4.387   3.248
 1726SOL    HW2 6078   5.395   4.389   3.411
 1727SOL     OW 6079   3.332   3.107   3.282
 1727SOL    HW1 6080   3.237   3.094   3.256
 1727SOL    HW2 6081   3.371   3.019   3.309
 1728SOL     OW 6082   4.558   2.508   4.400
 1728SOL    HW1 6083   4.471   2.506   4.351
 1728SOL    HW2 6084   4.595   2.415   4.406
 1729SOL     OW 6085   1.704   4.048   2.211
 1729SOL    HW1 6086   1.613   4.083   2.190
 1729SOL    HW2 6087   1.708   3.950   2.191
 1730SOL     OW 6088   2.488   4.922   5.480
 1730SOL    HW1 6089   2.449   4.981   5.551
 1730SOL    HW2 6090   2.477   4.966   5.390
 1731SOL     OW 6091   5.895   4.406   3.625
 1731SOL    HW1 6092   5.844   4.459   3.691
 1731SOL    HW2 6093   5.837   4.384   3.547
 1732SOL     OW 6094   1.762   3.766   6.198
 1732SOL    HW1 6095   1.665   3.774   6.219
 1732SOL    HW2 6096   1.804   3.857   6.201
 1733SOL     OW 6097   2.531   4.024   6.911
 1733SOL    HW1 6098   2.537   3.931   6.947
 1733SOL    HW2 6099   2.550   4.022   6.813
 1734SOL     OW 6100   0.178   2.735   0.992
 1734SOL    HW1 6101   0.222   2.814   0.950
 1734SOL    HW2 6102   0.246   2.684   1.045
 1735SOL     OW 6103   3.970   5.036   5.577
 1735SOL    HW1 6104   3.929   5.099   5.511
 1735SOL    HW2 6105   3.931   5.053   5.668
 1736SOL     OW 6106   4.755   3.290   0.883
 1736SOL    HW1 6107   4.853   3.268   0.888
 1736SOL    HW2 6108   4.713   3.236   0.810
 1737SOL     OW 6109   4.768   1.389   5.558
 1737SOL    HW1 6110   4.712   1.326   5.504
 1737SOL    HW2 6111   4.774   1.477   5.512
 1738SOL     OW 6112   1.433   3.139   4.562
 1738SOL    HW1 6113   1.429   3.046   4.524
 1738SOL    HW2 6114   1.510   3.188   4.522
 1739SOL     OW 6115   5.359   0.093   4.065
 1739SOL    HW1 6116   5.387   0.131   3.976
 1739SOL    HW2 6117   5.311   0.164   4.118
 1740SOL     OW 6118   6.126   2.724   4.613
 1740SOL    HW1 6119   6.046   2.784   4.621
 1740SOL    HW2 6120   6.187   2.740   4.691
 1741SOL     OW 6121   1.211   2.250   4.718
 1741SOL    HW1 6122   1.264   2.174   4.756
 1741SOL    HW2 6123   1.115   2.238   4.740
 1742SOL     OW 6124   6.013   6.586   5.913
 1742SOL    HW1 6125   6.007   6.573   6.012
 1742SOL    HW2 6126   6.046   6.502   5.870
 1743SOL     OW 6127   1.497   0.807   3.018
 1743SOL    HW1 6128   1.563   0.844   2.953
 1743SOL    HW2 6129   1.425   0.874   3.033
 1744SOL     OW 6130   3.864   1.962   4.597
 1744SOL    HW1 6131   3.947   1.911   4.572
 1744SOL    HW2 6132   3.805   1.971   4.517
 1745SOL     OW 6133   6.700   7.020   1.469
 1745SOL    HW1 6134   6.713   6.922   1.485
 1745SOL    HW2 6135   6.789   0.043   1.465
 1746SOL     OW 6136   2.065   4.405   3.664
 1746SOL    HW1 6137   2.033   4.311   3.678
 1746SOL    HW2 6138   2.090   4.417   3.568
 1747SOL     OW 6139   4.302   0.008   2.236
 1747SOL    HW1 6140   4.206   7.017   2.260
 1747SOL    HW2 6141   4.322   0.106   2.230
 1748SOL     OW 6142   6.787   2.660   4.400
 1748SOL    HW1 6143   6.716   2.622   4.342
 1748SOL    HW2 6144   6.746   2.723   4.467
 1749SOL     OW 6145   1.738   4.824   0.941
 1749SOL    HW1 6146   1.656   4.854   0.991
 1749SOL    HW2 6147   1.819   4.849   0.994
 1750SOL     OW 6148   3.715   6.971   5.600
 1750SOL    HW1 6149   3.664   6.895   5.561
 1750SOL    HW2 6150   3.748   6.945   5.691
 1751SOL     OW 6151   5.392   2.992   5.196
 1751SOL    HW1 6152   5.380   3.091   5.204
 1751SOL    HW2 6153   5.304   2.948   5.182
 1752SOL     OW 6154   6.944   0.777   1.987
 1752SOL    HW1 6155   7.000   0.728   1.920
 1752SOL    HW2 6156   6.978   0.871   1.995
 1753SOL     OW 6157   6.256   1.617   1.472
 1753SOL    HW1 6158   6.251   1.625   1.373
 1753SOL    HW2 6159   6.307   1.535   1.497
 1754SOL     OW 6160   3.085   5.915   4.427
 1754SOL    HW1 6161   3.154   5.876   4.366
 1754SOL    HW2 6162   2.995   5.905   4.384
 1755SOL     OW 6163   6.619   6.801   4.886
 1755SOL    HW1 6164   6.660   6.860   4.956
 1755SOL    HW2 6165   6.688   6.778   4.818
 1756SOL     OW 6166   5.209   6.726   5.816
 1756SOL    HW1 6167   5.257   6.739   5.730
 1756SOL    HW2 6168   5.219   6.808   5.873
 1757SOL     OW 6169   2.188   4.650   5.163
 1757SOL    HW1 6170   2.221   4.708   5.090
 1757SOL    HW2 6171   2.101   4.608   5.136
 1758SOL     OW 6172   1.720   6.728   5.029
 1758SOL    HW1 6173   1.705   6.655   4.962
 1758SOL    HW2 6174   1.666   6.709   5.111
 1759SOL     OW 6175   1.923   6.808   0.455
 1759SOL    HW1 6176   1.853   6.740   0.432
 1759SOL    HW2 6177   1.904   6.893   0.406
 1760SOL     OW 6178   6.509   1.220   4.556
 1760SOL    HW1 6179   6.422   1.175   4.576
 1760SOL    HW2 6180   6.543   1.190   4.467
 1761SOL     OW 6181   6.176   1.406   2.118
 1761SOL    HW1 6182   6.223   1.383   2.203
 1761SOL    HW2 6183   6.078   1.419   2.137
 1762SOL     OW 6184   0.529   1.854   6.261
 1762SOL    HW1 6185   0.603   1.800   6.222
 1762SOL    HW2 6186   0.520   1.833   6.358
 1763SOL     OW 6187   0.809   3.797   4.072
 1763SOL    HW1 6188   0.869   3.868   4.108
 1763SOL    HW2 6189   0.807   3.719   4.135
 1764SOL     OW 6190   0.959   5.478   2.771
 1764SOL    HW1 6191   0.936   5.431   2.856
 1764SOL    HW2 6192   0.887   5.460   2.703
 1765SOL     OW 6193   5.585   3.078   2.492
 1765SOL    HW1 6194   5.650   3.005   2.513
 1765SOL    HW2 6195   5.605   3.158   2.549
 1766SOL     OW 6196   4.900   4.941   4.223
 1766SOL    HW1 6197   4.991   4.940   4.181
 1766SOL    HW2 6198   4.833   4.910   4.155
 1767SOL     OW 6199   1.010   4.532   2.147
 1767SOL    HW1 6200   1.034   4.619   2.190
 1767SOL    HW2 6201   1.038   4.457   2.208
 1768SOL     OW 6202   4.893   6.257   2.305
 1768SOL    HW1 6203   4.912   6.354   2.288
 1768SOL    HW2 6204   4.859   6.215   2.221
 1769SOL     OW 6205   4.958   0.150   0.116
 1769SOL    HW1 6206   4.979   0.062   0.074
 1769SOL    HW2 6207   5.031   0.215   0.095
 1770SOL     OW 6208   1.873   5.613   6.730
 1770SOL    HW1 6209   1.941   5.660   6.674
 1770SOL    HW2 6210   1.796   5.584   6.673
 1771SOL     OW 6211   1.502   3.229   5.845
 1771SOL    HW1 6212   1.402   3.232   5.848
 1771SOL    HW2 6213   1.531   3.197   5.754
 1772SOL     OW 6214   2.278   4.644   3.338
 1772SOL    HW1 6215   2.251   4.730   3.294
 1772SOL    HW2 6216   2.270   4.655   3.437
 1773SOL     OW 6217   1.248   6.836   6.170
 1773SOL    HW1 6218   1.182   6.799   6.235
 1773SOL    HW2 6219   1.199   6.884   6.096
 1774SOL     OW 6220   4.992   5.385   0.622
 1774SOL    HW1 6221   4.978   5.442   0.541
 1774SOL    HW2 6222   4.939   5.301   0.614
 1775SOL     OW 6223   2.407   5.517   6.335
 1775SOL    HW1 6224   2.417   5.616   6.339
 1775SOL    HW2 6225   2.421   5.485   6.241
 1776SOL     OW 6226   4.705   1.724   5.999
 1776SOL    HW1 6227   4.766   1.765   5.932
 1776SOL    HW2 6228   4.759   1.675   6.068
 1777SOL     OW 6229   4.866   6.127   6.301
 1777SOL    HW1 6230   4.872   6.222   6.272
 1777SOL    HW2 6231   4.777   6.110   6.343
 1778SOL     OW 6232   5.872   0.008   4.219
 1778SOL    HW1 6233   5.878   0.069   4.139
 1778SOL    HW2 6234   5.903   6.940   4.193
 1779SOL     OW 6235   5.789   5.759   4.293
 1779SOL    HW1 6236   5.812   5.813   4.212
 1779SOL    HW2 6237   5.871   5.746   4.350
 1780SOL     OW 6238   1.833   5.916   5.074
 1780SOL    HW1 6239   1.819   5.935   4.977
 1780SOL    HW2 6240   1.876   5.994   5.118
 1781SOL     OW 6241   3.981   1.014   4.114
 1781SOL    HW1 6242   3.983   1.113   4.132
 1781SOL    HW2 6243   3.900   0.992   4.060
 1782SOL     OW 6244   0.845   1.532   2.545
 1782SOL    HW1 6245   0.811   1.501   2.634
 1782SOL    HW2 6246   0.944   1.547   2.550
 1783SOL     OW 6247   2.228   4.134   6.648
 1783SOL    HW1 6248   2.226   4.226   6.688
 1783SOL    HW2 6249   2.322   4.099   6.648
 1784SOL     OW 6250   2.639   0.017   1.433
 1784SOL    HW1 6251   2.737   0.035   1.440
 1784SOL    HW2 6252   2.589   0.103   1.442
 1785SOL     OW 6253   1.361   6.600   4.773
 1785SOL    HW1 6254   1.293   6.577   4.704
 1785SOL    HW2 6255   1.367   6.526   4.841
 1786SOL     OW 6256   0.935   6.724   0.584
 1786SOL    HW1 6257   1.013   6.703   0.642
 1786SOL    HW2 6258   0.850   6.715   0.637
 1787SOL     OW 6259   2.694   3.715   6.271
 1787SOL    HW1 6260   2.700   3.630   6.219
 1787SOL    HW2 6261   2.625   3.705   6.343
 1788SOL     OW 6262   4.731   3.543   0.985
 1788SOL    HW1 6263   4.748   3.451   0.952
 1788SOL    HW2 6264   4.632   3.558   0.994
 1789SOL     OW 6265   6.189   3.922   2.100
 1789SOL    HW1 6266   6.283   3.895   2.077
 1789SOL    HW2 6267   6.152   3.978   2.026
 1790SOL     OW 6268   2.491   2.461   4.443
 1790SOL    HW1 6269   2.416   2.465   4.509
 1790SOL    HW2 6270   2.499   2.368   4.407
 1791SOL     OW 6271   5.248   6.708   2.961
 1791SOL    HW1 6272   5.298   6.656   3.030
 1791SOL    HW2 6273   5.289   6.799   2.951
 1792SOL     OW 6274   0.065   1.391   5.218
 1792SOL    HW1 6275   0.126   1.314   5.238
 1792SOL    HW2 6276   6.992   1.361   5.224
 1793SOL     OW 6277   0.029   1.218   6.067
 1793SOL    HW1 6278   0.066   1.154   6.000
 1793SOL    HW2 6279   0.074   1.307   6.058
 1794SOL     OW 6280   1.319   0.297   6.524
 1794SOL    HW1 6281   1.266   0.224   6.567
 1794SOL    HW2 6282   1.330   0.373   6.588
 1795SOL     OW 6283   6.148   4.117   1.534
 1795SOL    HW1 6284   6.125   4.118   1.437
 1795SOL    HW2 6285   6.065   4.098   1.588
 1796SOL     OW 6286   0.745   0.562   6.649
 1796SOL    HW1 6287   0.720   0.634   6.585
 1796SOL    HW2 6288   0.821   0.508   6.611
 1797SOL     OW 6289   2.045   5.488   5.944
 1797SOL    HW1 6290   2.070   5.490   6.041
 1797SOL    HW2 6291   2.102   5.420   5.896
 1798SOL     OW 6292   2.886   3.503   5.003
 1798SOL    HW1 6293   2.978   3.509   5.044
 1798SOL    HW2 6294   2.828   3.574   5.043
 1799SOL     OW 6295   3.561   1.768   0.599
 1799SOL    HW1 6296   3.541   1.675   0.569
 1799SOL    HW2 6297   3.630   1.765   0.672
 1800SOL     OW 6298   6.184   3.770   5.043
 1800SOL    HW1 6299   6.099   3.720   5.026
 1800SOL    HW2 6300   6.165   3.868   5.052
 1801SOL     OW 6301   1.437   1.148   2.555
 1801SOL    HW1 6302   1.376   1.214   2.512
 1801SOL    HW2 6303   1.511   1.125   2.491
 1802SOL     OW 6304   0.158   4.729   3.864
 1802SOL    HW1 6305   0.115   4.811   3.902
 1802SOL    HW2 6306   0.087   4.670   3.824
 1803SOL     OW 6307   0.454   6.813   3.275
 1803SOL    HW1 6308   0.514   6.782   3.200
 1803SOL    HW2 6309   0.430   6.909   3.261
 1804SOL     OW 6310   2.109   3.077   6.110
 1804SOL    HW1 6311   2.084   3.130   6.029
 1804SOL    HW2 6312   2.106   3.137   6.191
 1805SOL     OW 6313   0.338   5.811   6.815
 1805SOL    HW1 6314   0.318   5.715   6.795
 1805SOL    HW2 6315   0.413   5.817   6.881
 1806SOL     OW 6316   6.964   1.798   1.816
 1806SOL    HW1 6317   6.924   1.882   1.780
 1806SOL    HW2 6318   6.894   1.726   1.819
 1807SOL     OW 6319   0.321   2.544   2.545
 1807SOL    HW1 6320   0.249   2.513   2.484
 1807SOL    HW2 6321   0.409   2.544   2.496
 1808SOL     OW 6322   4.793   2.392   6.116
 1808SOL    HW1 6323   4.788   2.422   6.211
 1808SOL    HW2 6324   4.766   2.467   6.056
 1809SOL     OW 6325   4.505   0.568   5.263
 1809SOL    HW1 6326   4.430   0.503   5.266
 1809SOL    HW2 6327   4.583   0.531   5.313
 1810SOL     OW 6328   0.308   0.462   4.075
 1810SOL    HW1 6329   0.245   0.397   4.032
 1810SOL    HW2 6330   0.299   0.455   4.175
 1811SOL     OW 6331   3.951   5.567   1.674
 1811SOL    HW1 6332   3.879   5.625   1.712
 1811SOL    HW2 6333   3.970   5.595   1.580
 1812SOL     OW 6334   4.527   6.424   5.936
 1812SOL    HW1 6335   4.531   6.327   5.962
 1812SOL    HW2 6336   4.619   6.460   5.925
 1813SOL     OW 6337   4.626   4.550   2.797
 1813SOL    HW1 6338   4.552   4.529   2.733
 1813SOL    HW2 6339   4.687   4.471   2.805
 1814SOL     OW 6340   0.129   5.994   0.418
 1814SOL    HW1 6341   0.176   6.056   0.356
 1814SOL    HW2 6342   0.044   5.962   0.375
 1815SOL     OW 6343   5.780   6.289   1.595
 1815SOL    HW1 6344   5.827   6.372   1.625
 1815SOL    HW2 6345   5.797   6.274   1.498
 1816SOL     OW 6346   4.179   4.921   5.407
 1816SOL    HW1 6347   4.181   4.988   5.332
 1816SOL    HW2 6348   4.095   4.932   5.460
 1817SOL     OW 6349   0.381   1.598   3.629
 1817SOL    HW1 6350   0.465   1.600   3.683
 1817SOL    HW2 6351   0.309   1.646   3.678
 1818SOL     OW 6352   2.311   0.932   0.422
 1818SOL    HW1 6353   2.276   0.838   0.433
 1818SOL    HW2 6354   2.409   0.933   0.438
 1819SOL     OW 6355   1.914   4.850   3.580
 1819SOL    HW1 6356   1.898   4.796   3.498
 1819SOL    HW2 6357   1.884   4.798   3.660
 1820SOL     OW 6358   3.375   0.010   5.303
 1820SOL    HW1 6359   3.389   6.941   5.341
 1820SOL    HW2 6360   3.443   0.073   5.341
 1821SOL     OW 6361   2.904   2.156   2.827
 1821SOL    HW1 6362   2.973   2.153   2.754
 1821SOL    HW2 6363   2.859   2.067   2.834
 1822SOL     OW 6364   6.858   2.783   2.346
 1822SOL    HW1 6365   6.872   2.840   2.264
 1822SOL    HW2 6366   6.775   2.812   2.392
 1823SOL     OW 6367   4.057   5.748   2.323
 1823SOL    HW1 6368   4.055   5.846   2.342
 1823SOL    HW2 6369   4.088   5.733   2.229
 1824SOL     OW 6370   4.382   3.087   1.680
 1824SOL    HW1 6371   4.347   3.169   1.725
 1824SOL    HW2 6372   4.462   3.053   1.731
 1825SOL     OW 6373   1.741   1.952   5.001
 1825SOL    HW1 6374   1.659   1.906   4.969
 1825SOL    HW2 6375   1.821   1.897   4.978
 1826SOL     OW 6376   3.682   2.206   1.655
 1826SOL    HW1 6377   3.710   2.250   1.740
 1826SOL    HW2 6378   3.582   2.214   1.644
 1827SOL     OW 6379   5.350   4.923   0.806
 1827SOL    HW1 6380   5.374   5.016   0.778
 1827SOL    HW2 6381   5.253   4.920   0.832
 1828SOL     OW 6382   1.462   3.109   4.828
 1828SOL    HW1 6383   1.414   3.137   4.745
 1828SOL    HW2 6384   1.553   3.152   4.831
 1829SOL     OW 6385   4.018   0.450   2.910
 1829SOL    HW1 6386   3.971   0.468   2.823
 1829SOL    HW2 6387   4.112   0.421   2.891
 1830SOL     OW 6388   5.214   7.002   5.201
 1830SOL    HW1 6389   5.186   0.047   5.270
 1830SOL    HW2 6390   5.275   0.022   5.135
 1831SOL     OW 6391   4.185   5.005   1.001
 1831SOL    HW1 6392   4.258   5.072   1.012
 1831SOL    HW2 6393   4.104   5.050   0.964
 1832SOL     OW 6394   2.428   2.993   0.395
 1832SOL    HW1 6395   2.382   2.906   0.374
 1832SOL    HW2 6396   2.401   3.062   0.329
 1833SOL     OW 6397   5.540   0.596   0.350
 1833SOL    HW1 6398   5.441   0.597   0.344
 1833SOL    HW2 6399   5.568   0.589   0.446
 1834SOL     OW 6400   1.013   2.777   5.695
 1834SOL    HW1 6401   1.069   2.855   5.667
 1834SOL    HW2 6402   1.072   2.702   5.725
 1835SOL     OW 6403   0.006   6.459   1.296
 1835SOL    HW1 6404   6.962   6.533   1.305
 1835SOL    HW2 6405   0.099   6.496   1.305
 1836SOL     OW 6406   4.986   2.635   1.969
 1836SOL    HW1 6407   5.064   2.575   1.987
 1836SOL    HW2 6408   4.901   2.585   1.984
 1837SOL     OW 6409   3.249   2.385   6.253
 1837SOL    HW1 6410   3.174   2.437   6.212
 1837SOL    HW2 6411   3.239   2.384   6.352
 1838SOL     OW 6412   5.929   0.848   0.826
 1838SOL    HW1 6413   5.949   0.750   0.835
 1838SOL    HW2 6414   5.846   0.869   0.876
 1839SOL     OW 6415   6.819   1.170   0.213
 1839SOL    HW1 6416   6.900   1.185   0.156
 1839SOL    HW2 6417   6.822   1.233   0.291
 1840SOL     OW 6418   4.661   6.600   3.628
 1840SOL    HW1 6419   4.751   6.571   3.660
 1840SOL    HW2 6420   4.594   6.593   3.702
 1841SOL     OW 6421   2.312   0.607   2.290
 1841SOL    HW1 6422   2.383   0.674   2.270
 1841SOL    HW2 6423   2.340   0.550   2.367
 1842SOL     OW 6424   1.457   5.576   0.687
 1842SOL    HW1 6425   1.506   5.565   0.774
 1842SOL    HW2 6426   1.523   5.570   0.611
 1843SOL     OW 6427   2.482   1.306   5.284
 1843SOL    HW1 6428   2.393   1.261   5.283
 1843SOL    HW2 6429   2.477   1.389   5.228
 1844SOL     OW 6430   5.720   2.420   6.062
 1844SOL    HW1 6431   5.739   2.421   5.964
 1844SOL    HW2 6432   5.741   2.330   6.100
 1845SOL     OW 6433   1.333   1.616   3.289
 1845SOL    HW1 6434   1.351   1.563   3.206
 1845SOL    HW2 6435   1.403   1.596   3.357
 1846SOL     OW 6436   4.204   1.787   1.832
 1846SOL    HW1 6437   4.154   1.862   1.790
 1846SOL    HW2 6438   4.215   1.806   1.930
 1847SOL     OW 6439   2.058   5.701   5.370
 1847SOL    HW1 6440   2.118   5.631   5.409
 1847SOL    HW2 6441   2.097   5.734   5.284
 1848SOL     OW 6442   3.140   6.154   3.210
 1848SOL    HW1 6443   3.189   6.072   3.181
 1848SOL    HW2 6444   3.041   6.137   3.205
 1849SOL     OW 6445   4.971   2.892   1.928
 1849SOL    HW1 6446   4.959   2.800   1.964
 1849SOL    HW2 6447   4.903   2.953   1.969
 1850SOL     OW 6448   5.176   1.408   0.941
 1850SOL    HW1 6449   5.173   1.444   1.034
 1850SOL    HW2 6450   5.091   1.360   0.921
 1851SOL     OW 6451   0.414   4.377   5.127
 1851SOL    HW1 6452   0.392   4.408   5.035
 1851SOL    HW2 6453   0.447   4.282   5.123
 1852SOL     OW 6454   0.028   7.008   3.102
 1852SOL    HW1 6455   7.006   6.993   3.014
 1852SOL    HW2 6456   6.981   0.009   3.171
 1853SOL     OW 6457   0.330   2.754   5.408
 1853SOL    HW1 6458   0.264   2.803   5.464
 1853SOL    HW2 6459   0.419   2.753   5.454
 1854SOL     OW 6460   0.998   6.940   3.412
 1854SOL    HW1 6461   0.988   6.912   3.316
 1854SOL    HW2 6462   0.990   0.017   3.419
 1855SOL     OW 6463   4.712   2.911   4.344
 1855SOL    HW1 6464   4.727   2.983   4.277
 1855SOL    HW2 6465   4.685   2.827   4.297
 1856SOL     OW 6466   3.176   2.905   1.138
 1856SOL    HW1 6467   3.197   2.897   1.235
 1856SOL    HW2 6468   3.260   2.911   1.085
 1857SOL     OW 6469   4.227   1.787   0.296
 1857SOL    HW1 6470   4.262   1.698   0.325
 1857SOL    HW2 6471   4.247   1.855   0.366
 1858SOL     OW 6472   4.550   2.584   3.971
 1858SOL    HW1 6473   4.504   2.526   3.905
 1858SOL    HW2 6474   4.580   2.668   3.927
 1859SOL     OW 6475   6.939   1.900   4.197
 1859SOL    HW1 6476   6.949   1.819   4.255
 1859SOL    HW2 6477   6.842   1.917   4.181
 1860SOL     OW 6478   1.736   1.461   5.297
 1860SOL    HW1 6479   1.782   1.516   5.366
 1860SOL    HW2 6480   1.666   1.516   5.252
 1861SOL     OW 6481   6.777   6.849   3.921
 1861SOL    HW1 6482   6.854   6.828   3.982
 1861SOL    HW2 6483   6.762   6.948   3.920
 1862SOL     OW 6484   2.860   5.707   5.807
 1862SOL    HW1 6485   2.819   5.662   5.887
 1862SOL    HW2 6486   2.906   5.638   5.751
 1863SOL     OW 6487   0.302   2.730   0.616
 1863SOL    HW1 6488   0.370   2.759   0.549
 1863SOL    HW2 6489   0.212   2.764   0.587
 1864SOL     OW 6490   4.253   5.653   2.499
 1864SOL    HW1 6491   4.293   5.564   2.478
 1864SOL    HW2 6492   4.187   5.677   2.427
 1865SOL     OW 6493   5.978   1.731   5.702
 1865SOL    HW1 6494   6.001   1.796   5.774
 1865SOL    HW2 6495   6.031   1.647   5.715
 1866SOL     OW 6496   0.900   5.108   3.865
 1866SOL    HW1 6497   0.861   5.018   3.881
 1866SOL    HW2 6498   0.901   5.160   3.950
 1867SOL     OW 6499   1.603   2.543   1.313
 1867SOL    HW1 6500   1.599   2.449   1.346
 1867SOL    HW2 6501   1.698   2.573   1.307
 1868SOL     OW 6502   5.730   3.641   6.350
 1868SOL    HW1 6503   5.760   3.549   6.324
 1868SOL    HW2 6504   5.630   3.644   6.351
 1869SOL     OW 6505   3.864   1.278   3.895
 1869SOL    HW1 6506   3.810   1.207   3.850
 1869SOL    HW2 6507   3.802   1.346   3.935
 1870SOL     OW 6508   6.813   5.735   4.526
 1870SOL    HW1 6509   6.902   5.765   4.492
 1870SOL    HW2 6510   6.824   5.698   4.619
 1871SOL     OW 6511   0.450   6.725   6.720
 1871SOL    HW1 6512   0.388   6.752   6.794
 1871SOL    HW2 6513   0.407   6.746   6.632
 1872SOL     OW 6514   2.779   2.561   1.724
 1872SOL    HW1 6515   2.855   2.527   1.779
 1872SOL    HW2 6516   2.814   2.597   1.637
 1873SOL     OW 6517   6.590   1.712   0.943
 1873SOL    HW1 6518   6.640   1.696   0.857
 1873SOL    HW2 6519   6.612   1.639   1.008
 1874SOL     OW 6520   0.365   5.229   0.343
 1874SOL    HW1 6521   0.283   5.183   0.309
 1874SOL    HW2 6522   0.421   5.259   0.265
 1875SOL     OW 6523   6.707   4.991   0.281
 1875SOL    HW1 6524   6.746   5.065   0.336
 1875SOL    HW2 6525   6.610   4.981   0.303
 1876SOL     OW 6526   0.313   5.594   0.582
 1876SOL    HW1 6527   0.237   5.614   0.644
 1876SOL    HW2 6528   0.301   5.646   0.497
 1877SOL     OW 6529   0.788   1.592   3.130
 1877SOL    HW1 6530   0.836   1.636   3.054
 1877SOL    HW2 6531   0.847   1.592   3.210
 1878SOL     OW 6532   6.472   3.522   3.564
 1878SOL    HW1 6533   6.378   3.488   3.572
 1878SOL    HW2 6534   6.482   3.604   3.621
 1879SOL     OW 6535   4.784   5.907   5.047
 1879SOL    HW1 6536   4.858   5.938   5.106
 1879SOL    HW2 6537   4.822   5.870   4.962
 1880SOL     OW 6538   0.124   1.765   4.030
 1880SOL    HW1 6539   0.189   1.746   4.103
 1880SOL    HW2 6540   0.045   1.814   4.068
 1881SOL     OW 6541   1.736   1.542   4.307
 1881SOL    HW1 6542   1.741   1.635   4.343
 1881SOL    HW2 6543   1.800   1.484   4.357
 1882SOL     OW 6544   1.764   5.805   0.537
 1882SOL    HW1 6545   1.752   5.705   0.544
 1882SOL    HW2 6546   1.685   5.850   0.578
 1883SOL     OW 6547   1.857   3.133   2.784
 1883SOL    HW1 6548   1.948   3.125   2.742
 1883SOL    HW2 6549   1.788   3.099   2.721
 1884SOL     OW 6550   3.488   1.219   6.945
 1884SOL    HW1 6551   3.530   1.306   6.970
 1884SOL    HW2 6552   3.401   1.236   6.898
 1885SOL     OW 6553   0.438   2.101   1.289
 1885SOL    HW1 6554   0.446   2.199   1.267
 1885SOL    HW2 6555   0.526   2.056   1.272
 1886SOL     OW 6556   2.954   2.523   5.754
 1886SOL    HW1 6557   2.946   2.468   5.837
 1886SOL    HW2 6558   2.899   2.606   5.763
 1887SOL     OW 6559   0.334   6.703   5.903
 1887SOL    HW1 6560   0.383   6.752   5.831
 1887SOL    HW2 6561   0.279   6.768   5.956
 1888SOL     OW 6562   2.252   2.099   5.866
 1888SOL    HW1 6563   2.255   2.036   5.789
 1888SOL    HW2 6564   2.327   2.165   5.859
 1889SOL     OW 6565   3.323   3.082   0.524
 1889SOL    HW1 6566   3.361   3.088   0.617
 1889SOL    HW2 6567   3.223   3.086   0.529
 1890SOL     OW 6568   6.412   5.819   6.734
 1890SOL    HW1 6569   6.390   5.867   6.819
 1890SOL    HW2 6570   6.335   5.826   6.671
 1891SOL     OW 6571   6.016   3.873   5.740
 1891SOL    HW1 6572   5.999   3.862   5.838
 1891SOL    HW2 6573   5.941   3.924   5.698
 1892SOL     OW 6574   3.906   6.313   1.782
 1892SOL    HW1 6575   4.004   6.326   1.774
 1892SOL    HW2 6576   3.883   6.279   1.873
 1893SOL     OW 6577   3.408   1.867   5.108
 1893SOL    HW1 6578   3.409   1.784   5.163
 1893SOL    HW2 6579   3.340   1.930   5.144
 1894SOL     OW 6580   3.893   3.929   1.110
 1894SOL    HW1 6581   3.809   3.880   1.133
 1894SOL    HW2 6582   3.930   3.892   1.024
 1895SOL     OW 6583   5.276   0.588   3.004
 1895SOL    HW1 6584   5.251   0.683   3.018
 1895SOL    HW2 6585   5.374   0.582   2.984
 1896SOL     OW 6586   6.268   1.320   6.043
 1896SOL    HW1 6587   6.257   1.221   6.043
 1896SOL    HW2 6588   6.231   1.358   6.128
 1897SOL     OW 6589   6.253   4.861   3.764
 1897SOL    HW1 6590   6.295   4.951   3.752
 1897SOL    HW2 6591   6.321   4.790   3.750
 1898SOL     OW 6592   5.969   6.106   6.856
 1898SOL    HW1 6593   6.011   6.122   6.946
 1898SOL    HW2 6594   6.038   6.073   6.792
 1899SOL     OW 6595   0.742   2.804   3.390
 1899SOL    HW1 6596   0.668   2.785   3.326
 1899SOL    HW2 6597   0.750   2.729   3.456
 1900SOL     OW 6598   2.415   6.622   0.919
 1900SOL    HW1 6599   2.488   6.639   0.985
 1900SOL    HW2 6600   2.438   6.666   0.832
 1901SOL     OW 6601   1.560   1.614   6.681
 1901SOL    HW1 6602   1.585   1.697   6.731
 1901SOL    HW2 6603   1.588   1.624   6.585
 1902SOL     OW 6604   1.725   2.897   5.442
 1902SOL    HW1 6605   1.784   2.841   5.500
 1902SOL    HW2 6606   1.659   2.839   5.395
 1903SOL     OW 6607   6.624   3.328   3.696
 1903SOL    HW1 6608   6.566   3.254   3.661
 1903SOL    HW2 6609   6.583   3.416   3.674
 1904SOL     OW 6610   0.546   6.783   4.389
 1904SOL    HW1 6611   0.518   6.709   4.327
 1904SOL    HW2 6612   0.536   6.871   4.342
 1905SOL     OW 6613   6.664   2.859   4.555
 1905SOL    HW1 6614   6.700   2.951   4.542
 1905SOL    HW2 6615   6.609   2.856   4.638
 1906SOL     OW 6616   2.633   7.010   0.550
 1906SOL    HW1 6617   2.578   6.986   0.470
 1906SOL    HW2 6618   2.652   0.086   0.549
 1907SOL     OW 6619   3.483   5.944   3.353
 1907SOL    HW1 6620   3.413   5.886   3.310
 1907SOL    HW2 6621   3.573   5.918   3.318
 1908SOL     OW 6622   4.920   1.221   6.739
 1908SOL    HW1 6623   4.917   1.284   6.817
 1908SOL    HW2 6624   4.849   1.151   6.749
 1909SOL     OW 6625   3.940   5.082   4.358
 1909SOL    HW1 6626   3.985   4.995   4.335
 1909SOL    HW2 6627   3.913   5.128   4.273
 1910SOL     OW 6628   4.953   2.383   5.273
 1910SOL    HW1 6629   4.916   2.325   5.200
 1910SOL    HW2 6630   4.966   2.476   5.237
 1911SOL     OW 6631   6.962   3.500   5.928
 1911SOL    HW1 6632   6.963   3.587   5.977
 1911SOL    HW2 6633   6.991   3.514   5.834
 1912SOL     OW 6634   3.547   6.171   3.507
 1912SOL    HW1 6635   3.528   6.090   3.451
 1912SOL    HW2 6636   3.564   6.142   3.601
 1913SOL     OW 6637   1.581   4.193   5.380
 1913SOL    HW1 6638   1.678   4.178   5.401
 1913SOL    HW2 6639   1.565   4.173   5.283
 1914SOL     OW 6640   4.233   1.542   5.529
 1914SOL    HW1 6641   4.191   1.463   5.483
 1914SOL    HW2 6642   4.161   1.607   5.554
 1915SOL     OW 6643   3.402   0.497   5.191
 1915SOL    HW1 6644   3.393   0.594   5.168
 1915SOL    HW2 6645   3.497   0.478   5.216
 1916SOL     OW 6646   4.247   6.569   1.416
 1916SOL    HW1 6647   4.151   6.564   1.443
 1916SOL    HW2 6648   4.255   6.612   1.326
 1917SOL     OW 6649   3.245   3.026   3.859
 1917SOL    HW1 6650   3.319   3.016   3.925
 1917SOL    HW2 6651   3.161   3.054   3.907
 1918SOL     OW 6652   6.117   6.646   3.908
 1918SOL    HW1 6653   6.042   6.704   3.876
 1918SOL    HW2 6654   6.098   6.551   3.883
 1919SOL     OW 6655   6.426   6.620   2.023
 1919SOL    HW1 6656   6.471   6.699   2.063
 1919SOL    HW2 6657   6.441   6.539   2.080
 1920SOL     OW 6658   6.874   5.488   4.091
 1920SOL    HW1 6659   6.856   5.391   4.076
 1920SOL    HW2 6660   6.972   5.502   4.107
 1921SOL     OW 6661   0.806   6.554   6.306
 1921SOL    HW1 6662   0.817   6.531   6.209
 1921SOL    HW2 6663   0.844   6.481   6.362
 1922SOL     OW 6664   3.478   4.634   1.032
 1922SOL    HW1 6665   3.438   4.626   0.940
 1922SOL    HW2 6666   3.532   4.718   1.037
 1923SOL     OW 6667   1.739   2.272   1.106
 1923SOL    HW1 6668   1.810   2.342   1.115
 1923SOL    HW2 6669   1.699   2.276   1.014
 1924SOL     OW 6670   1.077   4.447   1.809
 1924SOL    HW1 6671   0.995   4.469   1.861
 1924SOL    HW2 6672   1.051   4.400   1.724
 1925SOL     OW 6673   3.179   4.525   0.538
 1925SOL    HW1 6674   3.206   4.445   0.485
 1925SOL    HW2 6675   3.214   4.607   0.494
 1926SOL     OW 6676   0.863   6.753   3.570
 1926SOL    HW1 6677   0.883   6.829   3.509
 1926SOL    HW2 6678   0.949   6.719   3.610
 1927SOL     OW 6679   4.200   3.540   6.960
 1927SOL    HW1 6680   4.165   3.619   6.910
 1927SOL    HW2 6681   4.135   3.464   6.951
 1928SOL     OW 6682   6.377   4.319   5.331
 1928SOL    HW1 6683   6.454   4.383   5.323
 1928SOL    HW2 6684   6.353   4.285   5.240
 1929SOL     OW 6685   1.381   6.979   3.074
 1929SOL    HW1 6686   1.464   6.987   3.019
 1929SOL    HW2 6687   1.377   0.031   3.141
 1930SOL     OW 6688   5.606   4.153   6.955
 1930SOL    HW1 6689   5.693   4.188   6.990
 1930SOL    HW2 6690   5.618   4.118   6.863
 1931SOL     OW 6691   0.886   2.354   5.194
 1931SOL    HW1 6692   0.953   2.315   5.257
 1931SOL    HW2 6693   0.794   2.330   5.225
 1932SOL     OW 6694   5.905   3.142   1.700
 1932SOL    HW1 6695   5.827   3.083   1.723
 1932SOL    HW2 6696   5.904   3.222   1.759
 1933SOL     OW 6697   2.937   4.368   1.366
 1933SOL    HW1 6698   2.866   4.343   1.300
 1933SOL    HW2 6699   2.900   4.364   1.459
 1934SOL     OW 6700   0.770   5.743   4.886
 1934SOL    HW1 6701   0.670   5.732   4.888
 1934SOL    HW2 6702   0.809   5.706   4.970
 1935SOL     OW 6703   2.405   0.693   3.564
 1935SOL    HW1 6704   2.464   0.748   3.623
 1935SOL    HW2 6705   2.345   0.637   3.620
 1936SOL     OW 6706   6.200   5.570   5.543
 1936SOL    HW1 6707   6.127   5.528   5.597
 1936SOL    HW2 6708   6.283   5.577   5.599
 1937SOL     OW 6709   3.818   0.124   2.175
 1937SOL    HW1 6710   3.763   0.071   2.111
 1937SOL    HW2 6711   3.758   0.172   2.239
 1938SOL     OW 6712   4.931   0.425   3.592
 1938SOL    HW1 6713   4.923   0.480   3.676
 1938SOL    HW2 6714   4.900   0.479   3.514
 1939SOL     OW 6715   1.835   0.474   3.840
 1939SOL    HW1 6716   1.750   0.456   3.790
 1939SOL    HW2 6717   1.904   0.511   3.778
 1940SOL     OW 6718   0.118   5.570   6.876
 1940SOL    HW1 6719   0.138   5.516   6.957
 1940SOL    HW2 6720   0.191   5.556   6.808
 1941SOL     OW 6721   5.225   4.336   2.966
 1941SOL    HW1 6722   5.147   4.308   2.910
 1941SOL    HW2 6723   5.236   4.435   2.961
 1942SOL     OW 6724   6.163   5.477   3.103
 1942SOL    HW1 6725   6.137   5.551   3.165
 1942SOL    HW2 6726   6.239   5.509   3.045
 1943SOL     OW 6727   2.590   5.263   2.425
 1943SOL    HW1 6728   2.633   5.342   2.381
 1943SOL    HW2 6729   2.626   5.179   2.385
 1944SOL     OW 6730   6.680   1.232   1.586
 1944SOL    HW1 6731   6.757   1.176   1.614
 1944SOL    HW2 6732   6.594   1.185   1.607
 1945SOL     OW 6733   3.648   5.332   4.066
 1945SOL    HW1 6734   3.607   5.273   3.996
 1945SOL    HW2 6735   3.584   5.344   4.142
 1946SOL     OW 6736   1.263   0.631   0.412
 1946SOL    HW1 6737   1.215   0.715   0.439
 1946SOL    HW2 6738   1.230   0.602   0.323
 1947SOL     OW 6739   5.813   5.750   4.625
 1947SOL    HW1 6740   5.848   5.656   4.630
 1947SOL    HW2 6741   5.723   5.749   4.583
 1948SOL     OW 6742   6.085   4.960   4.779
 1948SOL    HW1 6743   6.151   4.897   4.738
 1948SOL    HW2 6744   5.998   4.955   4.729
 1949SOL     OW 6745   4.719   4.213   6.375
 1949SOL    HW1 6746   4.745   4.309   6.369
 1949SOL    HW2 6747   4.621   4.206   6.393
 1950SOL     OW 6748   3.098   3.849   6.781
 1950SOL    HW1 6749   3.010   3.812   6.810
 1950SOL    HW2 6750   3.083   3.933   6.729
 1951SOL     OW 6751   6.515   2.403   0.019
 1951SOL    HW1 6752   6.560   2.458   0.090
 1951SOL    HW2 6753   6.436   2.356   0.058
 1952SOL     OW 6754   3.912   1.858   5.753
 1952SOL    HW1 6755   3.837   1.899   5.805
 1952SOL    HW2 6756   3.970   1.930   5.715
 1953SOL     OW 6757   0.630   3.173   5.957
 1953SOL    HW1 6758   0.657   3.102   6.022
 1953SOL    HW2 6759   0.610   3.257   6.007
 1954SOL     OW 6760   3.351   2.089   3.928
 1954SOL    HW1 6761   3.334   2.044   4.016
 1954SOL    HW2 6762   3.267   2.134   3.897
 1955SOL     OW 6763   6.645   6.723   2.867
 1955SOL    HW1 6764   6.711   6.798   2.877
 1955SOL    HW2 6765   6.627   6.683   2.957
 1956SOL     OW 6766   5.718   5.638   2.335
 1956SOL    HW1 6767   5.759   5.654   2.425
 1956SOL    HW2 6768   5.770   5.569   2.286
 1957SOL     OW 6769   0.581   6.742   5.547
 1957SOL    HW1 6770   0.492   6.711   5.516
 1957SOL    HW2 6771   0.649   6.671   5.529
 1958SOL     OW 6772   5.671   3.735   5.724
 1958SOL    HW1 6773   5.592   3.678   5.703
 1958SOL    HW2 6774   5.671   3.815   5.664
 1959SOL     OW 6775   1.597   2.083   6.591
 1959SOL    HW1 6776   1.499   2.104   6.600
 1959SOL    HW2 6777   1.639   2.081   6.681
 1960SOL     OW 6778   5.597   6.060   0.884
 1960SOL    HW1 6779   5.529   6.066   0.957
 1960SOL    HW2 6780   5.684   6.097   0.915
 1961SOL     OW 6781   5.598   4.335   4.045
 1961SOL    HW1 6782   5.506   4.302   4.024
 1961SOL    HW2 6783   5.665   4.283   3.992
 1962SOL     OW 6784   6.938   6.549   3.074
 1962SOL    HW1 6785   6.858   6.546   3.135
 1962SOL    HW2 6786   6.978   6.458   3.067
 1963SOL     OW 6787   1.619   0.425   3.253
 1963SOL    HW1 6788   1.712   0.456   3.269
 1963SOL    HW2 6789   1.607   0.333   3.289
 1964SOL     OW 6790   5.402   3.359   2.707
 1964SOL    HW1 6791   5.350   3.353   2.622
 1964SOL    HW2 6792   5.404   3.269   2.751
 1965SOL     OW 6793   1.765   4.439   3.681
 1965SOL    HW1 6794   1.854   4.394   3.686
 1965SOL    HW2 6795   1.731   4.436   3.587
 1966SOL     OW 6796   6.408   5.550   5.740
 1966SOL    HW1 6797   6.502   5.516   5.742
 1966SOL    HW2 6798   6.348   5.484   5.785
 1967SOL     OW 6799   4.877   2.360   4.847
 1967SOL    HW1 6800   4.824   2.335   4.766
 1967SOL    HW2 6801   4.818   2.355   4.928
 1968SOL     OW 6802   3.001   6.001   6.064
 1968SOL    HW1 6803   2.969   6.092   6.089
 1968SOL    HW2 6804   2.937   5.933   6.101
 1969SOL     OW 6805   7.001   2.540   1.047
 1969SOL    HW1 6806   0.033   2.624   1.044
 1969SOL    HW2 6807   6.917   2.557   1.099
 1970SOL     OW 6808   1.686   0.483   4.061
 1970SOL    HW1 6809   1.611   0.418   4.053
 1970SOL    HW2 6810   1.725   0.500   3.970
 1971SOL     OW 6811   0.284   6.331   6.805
 1971SOL    HW1 6812   0.230   6.323   6.722
 1971SOL    HW2 6813   0.381   6.341   6.782
 1972SOL     OW 6814   0.575   5.181   3.761
 1972SOL    HW1 6815   0.563   5.084   3.782
 1972SOL    HW2 6816   0.523   5.236   3.825
 1973SOL     OW 6817   2.891   3.260   1.286
 1973SOL    HW1 6818   2.870   3.197   1.211
 1973SOL    HW2 6819   2.812   3.319   1.302
 1974SOL     OW 6820   5.434   0.937   4.168
 1974SOL    HW1 6821   5.511   0.983   4.124
 1974SOL    HW2 6822   5.350   0.990   4.153
 1975SOL     OW 6823   3.605   0.191   3.732
 1975SOL    HW1 6824   3.597   0.201   3.831
 1975SOL    HW2 6825   3.612   0.282   3.690
 1976SOL     OW 6826   0.888   5.785   0.434
 1976SOL    HW1 6827   0.931   5.870   0.404
 1976SOL    HW2 6828   0.800   5.806   0.477
 1977SOL     OW 6829   1.310   2.937   4.964
 1977SOL    HW1 6830   1.363   2.997   4.905
 1977SOL    HW2 6831   1.299   2.847   4.920
 1978SOL     OW 6832   6.716   1.917   4.689
 1978SOL    HW1 6833   6.708   1.998   4.630
 1978SOL    HW2 6834   6.760   1.943   4.775
 1979SOL     OW 6835   6.088   4.474   3.342
 1979SOL    HW1 6836   6.148   4.410   3.294
 1979SOL    HW2 6837   6.079   4.445   3.437
 1980SOL     OW 6838   4.344   0.373   1.411
 1980SOL    HW1 6839   4.406   0.405   1.482
 1980SOL    HW2 6840   4.321   0.449   1.350
 1981SOL     OW 6841   4.758   3.211   1.648
 1981SOL    HW1 6842   4.770   3.140   1.578
 1981SOL    HW2 6843   4.704   3.174   1.723
 1982SOL     OW 6844   5.770   6.296   4.800
 1982SOL    HW1 6845   5.831   6.226   4.838
 1982SOL    HW2 6846   5.813   6.336   4.719
 1983SOL     OW 6847   0.938   3.430   3.454
 1983SOL    HW1 6848   0.933   3.437   3.354
 1983SOL    HW2 6849   1.022   3.474   3.486
 1984SOL     OW 6850   4.274   0.444   5.899
 1984SOL    HW1 6851   4.195   0.400   5.858
 1984SOL    HW2 6852   4.251   0.475   5.991
 1985SOL     OW 6853   0.825   1.158   1.479
 1985SOL    HW1 6854   0.898   1.205   1.429
 1985SOL    HW2 6855   0.822   1.062   1.449
 1986SOL     OW 6856   1.589   1.611   6.161
 1986SOL    HW1 6857   1.672   1.663   6.142
 1986SOL    HW2 6858   1.509   1.671   6.151
 1987SOL     OW 6859   2.255   3.415   0.059
 1987SOL    HW1 6860   2.316   3.376   7.012
 1987SOL    HW2 6861   2.169   3.442   0.016
 1988SOL     OW 6862   4.223   4.011   0.408
 1988SOL    HW1 6863   4.279   3.997   0.326
 1988SOL    HW2 6864   4.282   4.020   0.488
 1989SOL     OW 6865   2.061   0.266   4.346
 1989SOL    HW1 6866   2.010   0.290   4.263
 1989SOL    HW2 6867   2.159   0.269   4.327
 1990SOL     OW 6868   3.023   0.740   1.583
 1990SOL    HW1 6869   2.950   0.673   1.593
 1990SOL    HW2 6870   3.111   0.693   1.582
 1991SOL     OW 6871   2.991   5.625   4.432
 1991SOL    HW1 6872   3.018   5.534   4.463
 1991SOL    HW2 6873   2.993   5.688   4.510
 1992SOL     OW 6874   2.278   6.497   5.242
 1992SOL    HW1 6875   2.285   6.454   5.152
 1992SOL    HW2 6876   2.362   6.479   5.294
 1993SOL     OW 6877   4.224   3.422   5.512
 1993SOL    HW1 6878   4.150   3.489   5.501
 1993SOL    HW2 6879   4.260   3.427   5.604
 1994SOL     OW 6880   6.398   2.386   1.974
 1994SOL    HW1 6881   6.494   2.409   1.962
 1994SOL    HW2 6882   6.377   2.379   2.071
 1995SOL     OW 6883   5.565   2.283   1.802
 1995SOL    HW1 6884   5.536   2.245   1.890
 1995SOL    HW2 6885   5.640   2.347   1.817
 1996SOL     OW 6886   3.673   4.753   0.157
 1996SOL    HW1 6887   3.705   4.838   0.114
 1996SOL    HW2 6888   3.591   4.721   0.110
 1997SOL     OW 6889   5.456   0.413   3.471
 1997SOL    HW1 6890   5.425   0.437   3.563
 1997SOL    HW2 6891   5.529   0.345   3.477
 1998SOL     OW 6892   2.842   4.598   5.421
 1998SOL    HW1 6893   2.925   4.613   5.474
 1998SOL    HW2 6894   2.862   4.533   5.347
 1999SOL     OW 6895   2.543   0.550   1.936
 1999SOL    HW1 6896   2.630   0.529   1.981
 1999SOL    HW2 6897   2.559   0.613   1.860
 2000SOL     OW 6898   3.699   1.554   4.576
 2000SOL    HW1 6899   3.798   1.572   4.573
 2000SOL    HW2 6900   3.656   1.619   4.639
 2001SOL     OW 6901   2.905   1.803   1.072
 2001SOL    HW1 6902   2.900   1.703   1.061
 2001SOL    HW2 6903   2.843   1.847   1.007
 2002SOL     OW 6904   1.763   5.357   5.735
 2002SOL    HW1 6905   1.664   5.344   5.727
 2002SOL    HW2 6906   1.809   5.316   5.656
 2003SOL     OW 6907   5.864   5.935   4.105
 2003SOL    HW1 6908   5.937   5.975   4.049
 2003SOL    HW2 6909   5.833   6.003   4.172
 2004SOL     OW 6910   2.660   0.598   5.596
 2004SOL    HW1 6911   2.601   0.677   5.579
 2004SOL    HW2 6912   2.755   0.629   5.607
 2005SOL     OW 6913   2.222   6.197   5.990
 2005SOL    HW1 6914   2.141   6.152   5.953
 2005SOL    HW2 6915   2.281   6.130   6.035
 2006SOL     OW 6916   4.279   4.998   4.056
 2006SOL    HW1 6917   4.334   4.976   3.976
 2006SOL    HW2 6918   4.336   5.042   4.125
 2007SOL     OW 6919   5.373   5.761   0.636
 2007SOL    HW1 6920   5.337   5.732   0.548
 2007SOL    HW2 6921   5.306   5.821   0.681
 2008SOL     OW 6922   0.095   5.990   4.127
 2008SOL    HW1 6923   0.160   6.047   4.178
 2008SOL    HW2 6924   0.146   5.935   4.060
 2009SOL     OW 6925   0.141   0.023   2.421
 2009SOL    HW1 6926   0.179   0.082   2.350
 2009SOL    HW2 6927   0.214   7.019   2.484
 2010SOL     OW 6928   1.126   0.860   0.518
 2010SOL    HW1 6929   1.105   0.903   0.430
 2010SOL    HW2 6930   1.124   0.930   0.590
 2011SOL     OW 6931   0.329   2.073   5.331
 2011SOL    HW1 6932   0.306   2.092   5.236
 2011SOL    HW2 6933   0.305   1.979   5.354
 2012SOL     OW 6934   1.033   4.118   0.789
 2012SOL    HW1 6935   1.110   4.126   0.726
 2012SOL    HW2 6936   1.064   4.142   0.882
 2013SOL     OW 6937   5.173   1.483   1.972
 2013SOL    HW1 6938   5.191   1.488   1.874
 2013SOL    HW2 6939   5.075   1.489   1.988
 2014SOL     OW 6940   2.176   5.418   2.727
 2014SOL    HW1 6941   2.252   5.409   2.663
 2014SOL    HW2 6942   2.135   5.329   2.742
 2015SOL     OW 6943   3.156   0.741   6.735
 2015SOL    HW1 6944   3.172   0.643   6.746
 2015SOL    HW2 6945   3.096   0.773   6.808
 2016SOL     OW 6946   0.397   4.950   4.275
 2016SOL    HW1 6947   0.364   4.901   4.195
 2016SOL    HW2 6948   0.497   4.944   4.280
 2017SOL     OW 6949   2.305   6.044   2.867
 2017SOL    HW1 6950   2.389   5.995   2.842
 2017SOL    HW2 6951   2.300   6.129   2.815
 2018SOL     OW 6952   0.377   5.391   6.418
 2018SOL    HW1 6953   0.461   5.348   6.451
 2018SOL    HW2 6954   0.309   5.321   6.397
 2019SOL     OW 6955   5.966   1.742   2.123
 2019SOL    HW1 6956   5.983   1.709   2.030
 2019SOL    HW2 6957   5.873   1.720   2.150
 2020SOL     OW 6958   2.832   5.775   3.173
 2020SOL    HW1 6959   2.800   5.869   3.158
 2020SOL    HW2 6960   2.888   5.746   3.095
 2021SOL     OW 6961   1.313   0.705   2.816
 2021SOL    HW1 6962   1.363   0.766   2.876
 2021SOL    HW2 6963   1.229   0.750   2.785
 2022SOL     OW 6964   1.722   3.939   1.506
 2022SOL    HW1 6965   1.666   3.856   1.508
 2022SOL    HW2 6966   1.802   3.924   1.448
 2023SOL     OW 6967   6.403   0.885   5.814
 2023SOL    HW1 6968   6.476   0.935   5.861
 2023SOL    HW2 6969   6.441   0.840   5.733
 2024SOL     OW 6970   5.531   1.011   3.675
 2024SOL    HW1 6971   5.481   0.952   3.738
 2024SOL    HW2 6972   5.506   0.988   3.581
 2025SOL     OW 6973   0.249   1.392   1.753
 2025SOL    HW1 6974   0.239   1.448   1.835
 2025SOL    HW2 6975   0.215   1.443   1.674
 2026SOL     OW 6976   1.728   1.711   5.618
 2026SOL    HW1 6977   1.779   1.658   5.685
 2026SOL    HW2 6978   1.747   1.676   5.526
 2027SOL     OW 6979   0.670   1.463   2.768
 2027SOL    HW1 6980   0.737   1.409   2.820
 2027SOL    HW2 6981   0.610   1.511   2.832
 2028SOL     OW 6982   3.932   3.153   6.777
 2028SOL    HW1 6983   3.944   3.071   6.722
 2028SOL    HW2 6984   3.842   3.194   6.758
 2029SOL     OW 6985   0.593   0.949   0.096
 2029SOL    HW1 6986   0.676   0.901   0.068
 2029SOL    HW2 6987   0.618   1.029   0.150
 2030SOL     OW 6988   1.683   1.287   3.647
 2030SOL    HW1 6989   1.659   1.371   3.695
 2030SOL    HW2 6990   1.774   1.257   3.675
 2031SOL     OW 6991   5.832   6.877   1.621
 2031SOL    HW1 6992   5.876   6.793   1.654
 2031SOL    HW2 6993   5.805   6.934   1.699
 2032SOL     OW 6994   5.159   6.812   1.192
 2032SOL    HW1 6995   5.147   6.856   1.281
 2032SOL    HW2 6996   5.255   6.785   1.180
 2033SOL     OW 6997   5.569   5.225   6.845
 2033SOL    HW1 6998   5.478   5.185   6.856
 2033SOL    HW2 6999   5.585   5.291   6.918
 2034SOL     OW 7000   2.218   6.886   3.155
 2034SOL    HW1 7001   2.232   6.823   3.078
 2034SOL    HW2 7002   2.156   6.959   3.128
 2035SOL     OW 7003   1.105   2.488   2.892
 2035SOL    HW1 7004   1.009   2.471   2.912
 2035SOL    HW2 7005   1.138   2.419   2.828
 2036SOL     OW 7006   1.231   4.668   0.104
 2036SOL    HW1 7007   1.160   4.738   0.097
 2036SOL    HW2 7008   1.189   4.580   0.128
 2037SOL     OW 7009   0.167   1.846   5.870
 2037SOL    HW1 7010   0.184   1.754   5.835
 2037SOL    HW2 7011   0.164   1.910   5.794
 2038SOL     OW 7012   0.369   0.850   4.618
 2038SOL    HW1 7013   0.306   0.776   4.594
 2038SOL    HW2 7014   0.366   0.921   4.548
 2039SOL     OW 7015   7.000   5.519   2.667
 2039SOL    HW1 7016   7.019   5.474   2.755
 2039SOL    HW2 7017   6.902   5.529   2.656
 2040SOL     OW 7018   4.113   3.615   4.788
 2040SOL    HW1 7019   4.074   3.561   4.863
 2040SOL    HW2 7020   4.139   3.554   4.714
 2041SOL     OW 7021   5.910   4.162   5.649
 2041SOL    HW1 7022   5.904   4.200   5.742
 2041SOL    HW2 7023   5.895   4.234   5.582
 2042SOL     OW 7024   4.176   5.415   0.178
 2042SOL    HW1 7025   4.230   5.339   0.142
 2042SOL    HW2 7026   4.218   5.501   0.151
 2043SOL     OW 7027   5.786   4.144   1.927
 2043SOL    HW1 7028   5.716   4.096   1.979
 2043SOL    HW2 7029   5.764   4.241   1.923
 2044SOL     OW 7030   6.351   7.019   1.654
 2044SOL    HW1 7031   6.296   0.080   1.652
 2044SOL    HW2 7032   6.438   0.014   1.700
 2045SOL     OW 7033   2.171   5.020   5.926
 2045SOL    HW1 7034   2.193   5.054   6.017
 2045SOL    HW2 7035   2.090   5.066   5.891
 2046SOL     OW 7036   6.390   6.946   4.763
 2046SOL    HW1 7037   6.452   6.895   4.822
 2046SOL    HW2 7038   6.315   6.983   4.817
 2047SOL     OW 7039   5.102   2.583   0.266
 2047SOL    HW1 7040   5.138   2.511   0.207
 2047SOL    HW2 7041   5.018   2.620   0.227
 2048SOL     OW 7042   4.594   0.434   6.178
 2048SOL    HW1 7043   4.548   0.446   6.266
 2048SOL    HW2 7044   4.573   0.512   6.118
 2049SOL     OW 7045   4.541   1.038   0.378
 2049SOL    HW1 7046   4.570   0.963   0.438
 2049SOL    HW2 7047   4.485   1.001   0.303
 2050SOL     OW 7048   5.857   3.113   3.840
 2050SOL    HW1 7049   5.956   3.122   3.838
 2050SOL    HW2 7050   5.823   3.091   3.748
 2051SOL     OW 7051   1.699   5.520   0.821
 2051SOL    HW1 7052   1.739   5.546   0.733
 2051SOL    HW2 7053   1.728   5.585   0.891
 2052SOL     OW 7054   0.957   2.671   6.877
 2052SOL    HW1 7055   0.931   2.575   6.884
 2052SOL    HW2 7056   0.954   2.714   6.967
 2053SOL     OW 7057   6.470   0.471   0.467
 2053SOL    HW1 7058   6.498   0.377   0.488
 2053SOL    HW2 7059   6.431   0.513   0.549
 2054SOL     OW 7060   6.019   2.382   0.399
 2054SOL    HW1 7061   5.955   2.445   0.443
 2054SOL    HW2 7062   6.090   2.355   0.463
 2055SOL     OW 7063   5.296   2.883   4.173
 2055SOL    HW1 7064   5.326   2.888   4.268
 2055SOL    HW2 7065   5.357   2.822   4.123
 2056SOL     OW 7066   2.417   0.554   3.091
 2056SOL    HW1 7067   2.319   0.540   3.075
 2056SOL    HW2 7068   2.435   0.547   3.189
 2057SOL     OW 7069   0.239   2.767   4.192
 2057SOL    HW1 7070   0.209   2.725   4.277
 2057SOL    HW2 7071   0.160   2.784   4.133
 2058SOL     OW 7072   6.996   2.213   2.290
 2058SOL    HW1 7073   6.914   2.242   2.239
 2058SOL    HW2 7074   6.969   2.166   2.374
 2059SOL     OW 7075   2.197   1.489   6.833
 2059SOL    HW1 7076   2.115   1.433   6.818
 2059SOL    HW2 7077   2.177   1.557   6.903
 2060SOL     OW 7078   0.349   4.748   2.540
 2060SOL    HW1 7079   0.420   4.771   2.474
 2060SOL    HW2 7080   0.378   4.668   2.593
 2061SOL     OW 7081   6.482   1.749   2.201
 2061SOL    HW1 7082   6.472   1.848   2.213
 2061SOL    HW2 7083   6.392   1.708   2.188
 2062SOL     OW 7084   5.053   0.258   2.469
 2062SOL    HW1 7085   4.998   0.268   2.387
 2062SOL    HW2 7086   4.993   0.259   2.550
 2063SOL     OW 7087   1.503   3.101   6.707
 2063SOL    HW1 7088   1.574   3.132   6.770
 2063SOL    HW2 7089   1.438   3.043   6.756
 2064SOL     OW 7090   1.153   2.242   6.962
 2064SOL    HW1 7091   1.243   2.272   6.994
 2064SOL    HW2 7092   1.082   2.291   7.011
 2065SOL     OW 7093   6.208   3.589   1.961
 2065SOL    HW1 7094   6.171   3.573   1.870
 2065SOL    HW2 7095   6.270   3.667   1.959
 2066SOL     OW 7096   0.013   0.592   4.832
 2066SOL    HW1 7097   0.034   0.498   4.855
 2066SOL    HW2 7098   6.937   0.607   4.838
 2067SOL     OW 7099   6.654   6.183   1.396
 2067SOL    HW1 7100   6.588   6.114   1.365
 2067SOL    HW2 7101   6.658   6.258   1.329
 2068SOL     OW 7102   1.975   1.817   5.215
 2068SOL    HW1 7103   1.992   1.748   5.144
 2068SOL    HW2 7104   2.044   1.888   5.209
 2069SOL     OW 7105   1.112   2.408   2.158
 2069SOL    HW1 7106   1.065   2.491   2.191
 2069SOL    HW2 7107   1.114   2.340   2.231
 2070SOL     OW 7108   1.224   1.759   2.581
 2070SOL    HW1 7109   1.201   1.835   2.641
 2070SOL    HW2 7110   1.287   1.697   2.628
 2071SOL     OW 7111   0.927   0.120   4.424
 2071SOL    HW1 7112   0.939   0.023   4.402
 2071SOL    HW2 7113   0.835   0.149   4.398
 2072SOL     OW 7114   5.066   5.694   1.785
 2072SOL    HW1 7115   5.136   5.760   1.811
 2072SOL    HW2 7116   5.073   5.675   1.687
 2073SOL     OW 7117   3.105   6.785   5.728
 2073SOL    HW1 7118   3.122   6.883   5.720
 2073SOL    HW2 7119   3.135   6.753   5.817
 2074SOL     OW 7120   5.913   1.483   1.329
 2074SOL    HW1 7121   5.829   1.470   1.383
 2074SOL    HW2 7122   5.899   1.556   1.263
 2075SOL     OW 7123   4.294   3.324   0.094
 2075SOL    HW1 7124   4.359   3.346   0.167
 2075SOL    HW2 7125   4.285   3.403   0.033
 2076SOL     OW 7126   5.125   6.564   1.324
 2076SOL    HW1 7127   5.146   6.648   1.275
 2076SOL    HW2 7128   5.082   6.499   1.261
 2077SOL     OW 7129   5.363   1.389   2.494
 2077SOL    HW1 7130   5.322   1.351   2.410
 2077SOL    HW2 7131   5.351   1.324   2.569
 2078SOL     OW 7132   3.326   4.651   6.603
 2078SOL    HW1 7133   3.336   4.552   6.597
 2078SOL    HW2 7134   3.233   4.677   6.576
 2079SOL     OW 7135   5.582   1.205   3.879
 2079SOL    HW1 7136   5.542   1.190   3.970
 2079SOL    HW2 7137   5.545   1.139   3.814
 2080SOL     OW 7138   2.958   2.264   4.555
 2080SOL    HW1 7139   2.868   2.308   4.557
 2080SOL    HW2 7140   2.994   2.257   4.648
 2081SOL     OW 7141   0.823   6.245   5.264
 2081SOL    HW1 7142   0.889   6.319   5.252
 2081SOL    HW2 7143   0.838   6.175   5.195
 2082SOL     OW 7144   5.854   1.214   1.254
 2082SOL    HW1 7145   5.863   1.200   1.156
 2082SOL    HW2 7146   5.874   1.310   1.276
 2083SOL     OW 7147   3.348   4.531   6.129
 2083SOL    HW1 7148   3.429   4.473   6.118
 2083SOL    HW2 7149   3.302   4.507   6.214
 2084SOL     OW 7150   6.826   2.741   2.923
 2084SOL    HW1 7151   6.815   2.818   2.860
 2084SOL    HW2 7152   6.909   2.690   2.900
 2085SOL     OW 7153   4.517   0.650   6.028
 2085SOL    HW1 7154   4.447   0.605   5.973
 2085SOL    HW2 7155   4.480   0.735   6.067
 2086SOL     OW 7156   2.951   5.165   0.169
 2086SOL    HW1 7157   2.949   5.119   0.258
 2086SOL    HW2 7158   2.947   5.264   0.183
 2087SOL     OW 7159   5.622   0.222   2.759
 2087SOL    HW1 7160   5.610   0.146   2.696
 2087SOL    HW2 7161   5.592   0.196   2.850
 2088SOL     OW 7162   3.526   6.462   0.922
 2088SOL    HW1 7163   3.567   6.462   1.013
 2088SOL    HW2 7164   3.595   6.487   0.854
 2089SOL     OW 7165   4.778   1.079   0.004
 2089SOL    HW1 7166   4.876   1.081   7.006
 2089SOL    HW2 7167   4.761   1.135   0.085
 2090SOL     OW 7168   3.382   3.877   4.948
 2090SOL    HW1 7169   3.426   3.941   4.885
 2090SOL    HW2 7170   3.326   3.812   4.896
 2091SOL     OW 7171   1.694   5.700   1.202
 2091SOL    HW1 7172   1.691   5.729   1.107
 2091SOL    HW2 7173   1.770   5.637   1.217
 2092SOL     OW 7174   6.473   6.017   1.277
 2092SOL    HW1 7175   6.467   5.951   1.351
 2092SOL    HW2 7176   6.528   5.979   1.202
 2093SOL     OW 7177   0.945   3.098   1.917
 2093SOL    HW1 7178   0.891   3.180   1.897
 2093SOL    HW2 7179   1.042   3.121   1.920
 2094SOL     OW 7180   5.408   0.336   2.099
 2094SOL    HW1 7181   5.494   0.290   2.121
 2094SOL    HW2 7182   5.343   0.321   2.174
 2095SOL     OW 7183   5.556   5.627   4.589
 2095SOL    HW1 7184   5.590   5.566   4.517
 2095SOL    HW2 7185   5.492   5.577   4.648
 2096SOL     OW 7186   4.830   4.424   2.510
 2096SOL    HW1 7187   4.773   4.476   2.446
 2096SOL    HW2 7188   4.790   4.334   2.525
 2097SOL     OW 7189   0.219   2.573   7.022
 2097SOL    HW1 7190   0.177   2.621   6.945
 2097SOL    HW2 7191   0.151   2.560   0.071
 2098SOL     OW 7192   4.464   6.908   4.349
 2098SOL    HW1 7193   4.547   6.860   4.321
 2098SOL    HW2 7194   4.430   6.868   4.434
 2099SOL     OW 7195   2.928   0.659   4.080
 2099SOL    HW1 7196   2.922   0.559   4.092
 2099SOL    HW2 7197   2.904   0.704   4.166
 2100SOL     OW 7198   4.458   4.467   6.096
 2100SOL    HW1 7199   4.453   4.425   6.006
 2100SOL    HW2 7200   4.473   4.565   6.086
 2101SOL     OW 7201   0.275   0.053   3.256
 2101SOL    HW1 7202   0.215   0.029   3.180
 2101SOL    HW2 7203   0.235   0.127   3.309
 2102SOL     OW 7204   6.939   5.288   3.184
 2102SOL    HW1 7205   6.995   5.355   3.233
 2102SOL    HW2 7206   6.868   5.253   3.245
 2103SOL     OW 7207   3.341   3.455   6.799
 2103SOL    HW1 7208   3.431   3.457   6.843
 2103SOL    HW2 7209   3.338   3.523   6.727
 2104SOL     OW 7210   1.772   3.420   5.474
 2104SOL    HW1 7211   1.796   3.475   5.394
 2104SOL    HW2 7212   1.771   3.323   5.449
 2105SOL     OW 7213   6.132   5.444   2.033
 2105SOL    HW1 7214   6.148   5.349   2.008
 2105SOL    HW2 7215   6.176   5.463   2.121
 2106SOL     OW 7216   4.944   5.541   6.710
 2106SOL    HW1 7217   4.913   5.518   6.618
 2106SOL    HW2 7218   4.874   5.595   6.756
 2107SOL     OW 7219   3.939   3.981   5.585
 2107SOL    HW1 7220   3.855   3.958   5.534
 2107SOL    HW2 7221   4.002   4.028   5.524
 2108SOL     OW 7222   6.023   5.444   5.704
 2108SOL    HW1 7223   6.100   5.399   5.749
 2108SOL    HW2 7224   5.960   5.479   5.773
 2109SOL     OW 7225   5.944   5.915   2.408
 2109SOL    HW1 7226   5.898   5.887   2.493
 2109SOL    HW2 7227   5.878   5.960   2.348
 2110SOL     OW 7228   2.742   4.430   6.256
 2110SOL    HW1 7229   2.790   4.504   6.304
 2110SOL    HW2 7230   2.804   4.353   6.245
 2111SOL     OW 7231   1.284   2.707   6.517
 2111SOL    HW1 7232   1.229   2.723   6.435
 2111SOL    HW2 7233   1.230   2.655   6.583
 2112SOL     OW 7234   4.807   2.729   1.344
 2112SOL    HW1 7235   4.746   2.741   1.423
 2112SOL    HW2 7236   4.752   2.703   1.264
 2113SOL     OW 7237   1.306   1.056   2.785
 2113SOL    HW1 7238   1.223   1.007   2.758
 2113SOL    HW2 7239   1.371   1.058   2.709
 2114SOL     OW 7240   1.626   4.355   0.224
 2114SOL    HW1 7241   1.653   4.266   0.187
 2114SOL    HW2 7242   1.576   4.406   0.154
 2115SOL     OW 7243   1.963   4.555   2.304
 2115SOL    HW1 7244   2.018   4.482   2.264
 2115SOL    HW2 7245   2.010   4.592   2.384
 2116SOL     OW 7246   0.056   3.987   3.780
 2116SOL    HW1 7247   0.139   3.931   3.782
 2116SOL    HW2 7248   0.054   4.047   3.860
 2117SOL     OW 7249   1.056   5.063   1.502
 2117SOL    HW1 7250   1.033   5.025   1.413
 2117SOL    HW2 7251   1.076   4.989   1.566
 2118SOL     OW 7252   0.283   3.551   2.308
 2118SOL    HW1 7253   0.213   3.491   2.268
 2118SOL    HW2 7254   0.324   3.506   2.387
 2119SOL     OW 7255   2.576   6.098   1.046
 2119SOL    HW1 7256   2.639   6.064   1.117
 2119SOL    HW2 7257   2.523   6.021   1.009
 2120SOL     OW 7258   6.702   4.992   1.836
 2120SOL    HW1 7259   6.683   5.080   1.878
 2120SOL    HW2 7260   6.629   4.969   1.772
 2121SOL     OW 7261   0.494   5.064   5.405
 2121SOL    HW1 7262   0.413   5.015   5.436
 2121SOL    HW2 7263   0.539   5.012   5.333
 2122SOL     OW 7264   4.656   4.363   4.911
 2122SOL    HW1 7265   4.754   4.378   4.927
 2122SOL    HW2 7266   4.627   4.279   4.958
 2123SOL     OW 7267   6.470   4.670   2.847
 2123SOL    HW1 7268   6.480   4.758   2.801
 2123SOL    HW2 7269   6.434   4.602   2.784
 2124SOL     OW 7270   2.467   2.111   1.499
 2124SOL    HW1 7271   2.470   2.011   1.505
 2124SOL    HW2 7272   2.449   2.138   1.404
 2125SOL     OW 7273   2.933   0.785   0.588
 2125SOL    HW1 7274   2.851   0.840   0.594
 2125SOL    HW2 7275   2.930   0.711   0.656
 2126SOL     OW 7276   2.837   0.844   6.481
 2126SOL    HW1 7277   2.926   0.888   6.491
 2126SOL    HW2 7278   2.771   0.910   6.446
 2127SOL     OW 7279   5.633   3.205   4.451
 2127SOL    HW1 7280   5.665   3.221   4.545
 2127SOL    HW2 7281   5.616   3.293   4.407
 2128SOL     OW 7282   0.631   3.965   4.593
 2128SOL    HW1 7283   0.654   3.900   4.666
 2128SOL    HW2 7284   0.692   3.949   4.515
 2129SOL     OW 7285   4.512   2.241   5.873
 2129SOL    HW1 7286   4.571   2.210   5.947
 2129SOL    HW2 7287   4.457   2.164   5.839
 2130SOL     OW 7288   4.990   6.530   2.289
 2130SOL    HW1 7289   5.064   6.544   2.354
 2130SOL    HW2 7290   5.019   6.559   2.198
 2131SOL     OW 7291   6.774   1.006   0.958
 2131SOL    HW1 7292   6.757   1.103   0.972
 2131SOL    HW2 7293   6.698   0.953   0.995
 2132SOL     OW 7294   2.359   2.999   0.675
 2132SOL    HW1 7295   2.361   2.918   0.734
 2132SOL    HW2 7296   2.396   2.974   0.585
 2133SOL     OW 7297   2.942   2.328   5.950
 2133SOL    HW1 7298   2.884   2.298   6.026
 2133SOL    HW2 7299   2.969   2.249   5.895
 2134SOL     OW 7300   0.078   0.792   1.111
 2134SOL    HW1 7301   7.019   0.746   1.146
 2134SOL    HW2 7302   0.141   0.809   1.187
 2135SOL     OW 7303   0.417   3.683   4.566
 2135SOL    HW1 7304   0.414   3.679   4.666
 2135SOL    HW2 7305   0.511   3.667   4.534
 2136SOL     OW 7306   2.273   5.731   1.752
 2136SOL    HW1 7307   2.302   5.694   1.664
 2136SOL    HW2 7308   2.226   5.818   1.737
 2137SOL     OW 7309   2.812   5.257   4.578
 2137SOL    HW1 7310   2.899   5.305   4.588
 2137SOL    HW2 7311   2.829   5.158   4.574
 2138SOL     OW 7312   5.602   1.470   2.274
 2138SOL    HW1 7313   5.621   1.479   2.372
 2138SOL    HW2 7314   5.510   1.433   2.262
 2139SOL     OW 7315   3.015   0.694   5.403
 2139SOL    HW1 7316   3.030   0.595   5.404
 2139SOL    HW2 7317   3.098   0.740   5.374
 2140SOL     OW 7318   2.553   1.545   5.066
 2140SOL    HW1 7319   2.586   1.454   5.042
 2140SOL    HW2 7320   2.470   1.565   5.015
 2141SOL     OW 7321   6.052   4.338   2.125
 2141SOL    HW1 7322   6.062   4.324   2.223
 2141SOL    HW2 7323   6.091   4.426   2.099
 2142SOL     OW 7324   1.907   2.291   3.654
 2142SOL    HW1 7325   1.868   2.237   3.729
 2142SOL    HW2 7326   1.975   2.236   3.606
 2143SOL     OW 7327   2.255   4.889   0.761
 2143SOL    HW1 7328   2.329   4.859   0.701
 2143SOL    HW2 7329   2.167   4.864   0.719
 2144SOL     OW 7330   6.440   5.670   4.128
 2144SOL    HW1 7331   6.461   5.711   4.216
 2144SOL    HW2 7332   6.342   5.649   4.123
 2145SOL     OW 7333   4.182   6.230   4.195
 2145SOL    HW1 7334   4.201   6.280   4.110
 2145SOL    HW2 7335   4.184   6.294   4.272
 2146SOL     OW 7336   2.322   3.025   1.067
 2146SOL    HW1 7337   2.393   2.993   1.130
 2146SOL    HW2 7338   2.241   2.968   1.078
 2147SOL     OW 7339   6.233   0.989   5.548
 2147SOL    HW1 7340   6.197   1.029   5.464
 2147SOL    HW2 7341   6.208   0.892   5.553
 2148SOL     OW 7342   0.151   3.559   6.711
 2148SOL    HW1 7343   0.080   3.519   6.653
 2148SOL    HW2 7344   0.114   3.640   6.757
 2149SOL     OW 7345   0.553   0.679   6.923
 2149SOL    HW1 7346   0.618   0.603   6.928
 2149SOL    HW2 7347   0.464   0.648   6.956
 2150SOL     OW 7348   2.310   3.295   1.387
 2150SOL    HW1 7349   2.293   3.389   1.418
 2150SOL    HW2 7350   2.288   3.232   1.462
 2151SOL     OW 7351   1.271   5.524   6.871
 2151SOL    HW1 7352   1.287   5.590   6.797
 2151SOL    HW2 7353   1.355   5.474   6.890
 2152SOL     OW 7354   4.140   5.898   3.218
 2152SOL    HW1 7355   4.075   5.856   3.281
 2152SOL    HW2 7356   4.157   5.992   3.244
 2153SOL     OW 7357   5.088   1.174   3.232
 2153SOL    HW1 7358   5.029   1.146   3.156
 2153SOL    HW2 7359   5.054   1.133   3.317
 2154SOL     OW 7360   3.124   6.674   3.281
 2154SOL    HW1 7361   3.200   6.686   3.344
 2154SOL    HW2 7362   3.124   6.580   3.246
 2155SOL     OW 7363   4.498   6.560   0.884
 2155SOL    HW1 7364   4.502   6.573   0.785
 2155SOL    HW2 7365   4.514   6.647   0.930
 2156SOL     OW 7366   5.514   1.715   4.569
 2156SOL    HW1 7367   5.587   1.656   4.602
 2156SOL    HW2 7368   5.515   1.802   4.618
 2157SOL     OW 7369   3.763   5.559   3.973
 2157SOL    HW1 7370   3.824   5.527   3.901
 2157SOL    HW2 7371   3.718   5.480   4.016
 2158SOL     OW 7372   3.198   0.994   0.178
 2158SOL    HW1 7373   3.098   1.003   0.173
 2158SOL    HW2 7374   3.223   0.957   0.267
 2159SOL     OW 7375   1.133   0.245   5.918
 2159SOL    HW1 7376   1.225   0.253   5.956
 2159SOL    HW2 7377   1.125   0.303   5.837
 2160SOL     OW 7378   4.837   6.194   0.544
 2160SOL    HW1 7379   4.748   6.237   0.557
 2160SOL    HW2 7380   4.896   6.215   0.623
 2161SOL     OW 7381   1.441   3.597   2.527
 2161SOL    HW1 7382   1.356   3.572   2.481
 2161SOL    HW2 7383   1.473   3.686   2.493
 2162SOL     OW 7384   2.053   0.318   2.942
 2162SOL    HW1 7385   2.092   0.228   2.962
 2162SOL    HW2 7386   1.955   0.317   2.964
 2163SOL     OW 7387   1.261   3.238   1.581
 2163SOL    HW1 7388   1.258   3.300   1.659
 2163SOL    HW2 7389   1.297   3.287   1.501
 2164SOL     OW 7390   2.119   2.568   2.353
 2164SOL    HW1 7391   2.112   2.622   2.270
 2164SOL    HW2 7392   2.204   2.589   2.401
 2165SOL     OW 7393   0.181   1.749   3.759
 2165SOL    HW1 7394   0.166   1.774   3.855
 2165SOL    HW2 7395   0.101   1.703   3.723
 2166SOL     OW 7396   0.130   4.300   3.218
 2166SOL    HW1 7397   0.130   4.368   3.144
 2166SOL    HW2 7398   0.142   4.347   3.306
 2167SOL     OW 7399   2.139   2.696   4.321
 2167SOL    HW1 7400   2.092   2.705   4.409
 2167SOL    HW2 7401   2.153   2.599   4.300
 2168SOL     OW 7402   1.379   1.890   3.284
 2168SOL    HW1 7403   1.368   1.791   3.274
 2168SOL    HW2 7404   1.298   1.928   3.328
 2169SOL     OW 7405   0.434   0.514   1.842
 2169SOL    HW1 7406   0.384   0.525   1.927
 2169SOL    HW2 7407   0.371   0.486   1.769
 2170SOL     OW 7408   0.967   4.036   5.843
 2170SOL    HW1 7409   0.922   4.038   5.932
 2170SOL    HW2 7410   1.066   4.031   5.857
 2171SOL     OW 7411   0.676   5.603   1.026
 2171SOL    HW1 7412   0.629   5.516   1.009
 2171SOL    HW2 7413   0.620   5.678   0.990
 2172SOL     OW 7414   0.415   1.764   4.952
 2172SOL    HW1 7415   0.479   1.822   4.902
 2172SOL    HW2 7416   0.324   1.806   4.952
 2173SOL     OW 7417   6.028   0.360   5.004
 2173SOL    HW1 7418   6.092   0.373   5.079
 2173SOL    HW2 7419   5.950   0.305   5.036
 2174SOL     OW 7420   0.276   5.831   4.907
 2174SOL    HW1 7421   0.319   5.871   4.988
 2174SOL    HW2 7422   0.187   5.874   4.891
 2175SOL     OW 7423   3.200   3.367   5.572
 2175SOL    HW1 7424   3.150   3.280   5.577
 2175SOL    HW2 7425   3.140   3.442   5.600
 2176SOL     OW 7426   5.414   2.905   1.170
 2176SOL    HW1 7427   5.465   2.934   1.250
 2176SOL    HW2 7428   5.427   2.971   1.095
 2177SOL     OW 7429   0.056   0.676   3.720
 2177SOL    HW1 7430   7.011   0.747   3.702
 2177SOL    HW2 7431   0.080   0.677   3.817
 2178SOL     OW 7432   1.111   2.008   2.717
 2178SOL    HW1 7433   1.018   1.975   2.703
 2178SOL    HW2 7434   1.154   1.956   2.791
 2179SOL     OW 7435   1.970   4.901   6.597
 2179SOL    HW1 7436   1.945   4.812   6.637
 2179SOL    HW2 7437   2.054   4.890   6.543
 2180SOL     OW 7438   0.737   4.915   1.738
 2180SOL    HW1 7439   0.804   4.843   1.758
 2180SOL    HW2 7440   0.779   5.005   1.748
 2181SOL     OW 7441   4.618   4.931   4.146
 2181SOL    HW1 7442   4.569   4.990   4.082
 2181SOL    HW2 7443   4.575   4.936   4.236
 2182SOL     OW 7444   0.108   5.613   3.109
 2182SOL    HW1 7445   0.147   5.638   3.020
 2182SOL    HW2 7446   0.009   5.620   3.105
 2183SOL     OW 7447   3.641   3.211   0.206
 2183SOL    HW1 7448   3.609   3.145   0.274
 2183SOL    HW2 7449   3.659   3.299   0.251
 2184SOL     OW 7450   6.507   0.332   7.016
 2184SOL    HW1 7451   6.482   0.415   6.967
 2184SOL    HW2 7452   6.601   0.305   6.991
 2185SOL     OW 7453   0.191   1.449   6.938
 2185SOL    HW1 7454   0.267   1.393   6.906
 2185SOL    HW2 7455   0.122   1.390   6.981
 2186SOL     OW 7456   6.823   5.623   4.789
 2186SOL    HW1 7457   6.730   5.641   4.819
 2186SOL    HW2 7458   6.859   5.542   4.835
 2187SOL     OW 7459   0.522   5.616   2.932
 2187SOL    HW1 7460   0.564   5.559   3.002
 2187SOL    HW2 7461   0.503   5.707   2.969
 2188SOL     OW 7462   1.881   0.319   0.868
 2188SOL    HW1 7463   1.861   0.263   0.949
 2188SOL    HW2 7464   1.969   0.364   0.881
 2189SOL     OW 7465   2.932   1.453   2.077
 2189SOL    HW1 7466   3.026   1.477   2.052
 2189SOL    HW2 7467   2.908   1.497   2.163
 2190SOL     OW 7468   6.698   4.377   2.429
 2190SOL    HW1 7469   6.743   4.394   2.341
 2190SOL    HW2 7470   6.706   4.280   2.452
 2191SOL     OW 7471   2.055   0.674   6.153
 2191SOL    HW1 7472   2.150   0.644   6.157
 2191SOL    HW2 7473   2.041   0.749   6.217
 2192SOL     OW 7474   4.850   1.193   2.205
 2192SOL    HW1 7475   4.815   1.286   2.201
 2192SOL    HW2 7476   4.897   1.178   2.292
 2193SOL     OW 7477   7.006   6.952   5.990
 2193SOL    HW1 7478   6.915   6.912   5.982
 2193SOL    HW2 7479   0.034   6.908   6.064
 2194SOL     OW 7480   0.907   4.567   5.593
 2194SOL    HW1 7481   0.928   4.662   5.569
 2194SOL    HW2 7482   0.993   4.518   5.611
 2195SOL     OW 7483   0.628   4.414   6.683
 2195SOL    HW1 7484   0.639   4.315   6.680
 2195SOL    HW2 7485   0.592   4.446   6.596
 2196SOL     OW 7486   2.246   5.964   5.528
 2196SOL    HW1 7487   2.220   5.888   5.468
 2196SOL    HW2 7488   2.164   6.004   5.568
 2197SOL     OW 7489   2.798   4.231   5.613
 2197SOL    HW1 7490   2.891   4.268   5.616
 2197SOL    HW2 7491   2.732   4.306   5.620
 2198SOL     OW 7492   0.613   0.215   6.264
 2198SOL    HW1 7493   0.623   0.303   6.309
 2198SOL    HW2 7494   0.608   0.228   6.165
 2199SOL     OW 7495   4.623   6.697   4.756
 2199SOL    HW1 7496   4.700   6.675   4.814
 2199SOL    HW2 7497   4.636   6.656   4.666
 2200SOL     OW 7498   2.775   1.436   4.184
 2200SOL    HW1 7499   2.853   1.484   4.222
 2200SOL    HW2 7500   2.759   1.468   4.090
 2201SOL     OW 7501   6.546   2.674   4.008
 2201SOL    HW1 7502   6.472   2.617   4.044
 2201SOL    HW2 7503   6.632   2.647   4.050
 2202SOL     OW 7504   3.701   5.193   2.383
 2202SOL    HW1 7505   3.645   5.114   2.361
 2202SOL    HW2 7506   3.788   5.187   2.334
 2203SOL     OW 7507   2.056   3.755   0.866
 2203SOL    HW1 7508   1.957   3.767   0.869
 2203SOL    HW2 7509   2.078   3.676   0.809
 2204SOL     OW 7510   4.286   2.833   0.834
 2204SOL    HW1 7511   4.319   2.739   0.840
 2204SOL    HW2 7512   4.186   2.833   0.833
 2205SOL     OW 7513   1.673   6.102   0.656
 2205SOL    HW1 7514   1.628   6.013   0.663
 2205SOL    HW2 7515   1.764   6.097   0.697
 2206SOL     OW 7516   2.455   2.918   6.534
 2206SOL    HW1 7517   2.465   3.012   6.569
 2206SOL    HW2 7518   2.408   2.921   6.446
 2207SOL     OW 7519   4.429   5.848   1.015
 2207SOL    HW1 7520   4.520   5.807   1.009
 2207SOL    HW2 7521   4.435   5.931   1.071
 2208SOL     OW 7522   0.988   5.724   3.566
 2208SOL    HW1 7523   0.992   5.658   3.641
 2208SOL    HW2 7524   0.935   5.685   3.490
 2209SOL     OW 7525   2.679   5.465   5.152
 2209SOL    HW1 7526   2.582   5.480   5.169
 2209SOL    HW2 7527   2.699   5.367   5.159
 2210SOL     OW 7528   5.878   6.225   1.335
 2210SOL    HW1 7529   5.821   6.149   1.305
 2210SOL    HW2 7530   5.970   6.214   1.296
 2211SOL     OW 7531   6.210   0.316   0.711
 2211SOL    HW1 7532   6.227   0.291   0.615
 2211SOL    HW2 7533   6.111   0.315   0.728
 2212SOL     OW 7534   2.484   5.871   6.695
 2212SOL    HW1 7535   2.561   5.813   6.670
 2212SOL    HW2 7536   2.518   5.957   6.734
 2213SOL     OW 7537   3.914   2.176   4.089
 2213SOL    HW1 7538   3.990   2.240   4.072
 2213SOL    HW2 7539   3.920   2.100   4.024
 2214SOL     OW 7540   4.012   3.077   5.603
 2214SOL    HW1 7541   3.948   3.010   5.565
 2214SOL    HW2 7542   4.027   3.151   5.537
 2215SOL     OW 7543   4.815   0.577   6.506
 2215SOL    HW1 7544   4.830   0.667   6.547
 2215SOL    HW2 7545   4.780   0.514   6.576
 2216SOL     OW 7546   0.499   6.394   6.407
 2216SOL    HW1 7547   0.480   6.453   6.328
 2216SOL    HW2 7548   0.540   6.449   6.480
 2217SOL     OW 7549   4.597   0.828   2.667
 2217SOL    HW1 7550   4.628   0.734   2.656
 2217SOL    HW2 7551   4.645   0.888   2.603
 2218SOL     OW 7552   0.510   5.323   6.094
 2218SOL    HW1 7553   0.486   5.329   5.997
 2218SOL    HW2 7554   0.454   5.252   6.137
 2219SOL     OW 7555   5.273   1.360   0.553
 2219SOL    HW1 7556   5.364   1.396   0.571
 2219SOL    HW2 7557   5.259   1.351   0.454
 2220SOL     OW 7558   1.281   6.730   5.537
 2220SOL    HW1 7559   1.320   6.773   5.619
 2220SOL    HW2 7560   1.193   6.773   5.516
 2221SOL     OW 7561   6.890   1.206   4.967
 2221SOL    HW1 7562   6.857   1.174   4.878
 2221SOL    HW2 7563   6.930   1.297   4.957
 2222SOL     OW 7564   5.968   6.339   0.662
 2222SOL    HW1 7565   5.918   6.405   0.605
 2222SOL    HW2 7566   5.911   6.259   0.679
 2223SOL     OW 7567   6.924   0.254   5.388
 2223SOL    HW1 7568   6.898   0.157   5.385
 2223SOL    HW2 7569   6.848   0.310   5.357
 2224SOL     OW 7570   5.919   4.074   1.673
 2224SOL    HW1 7571   5.867   4.005   1.623
 2224SOL    HW2 7572   5.869   4.102   1.755
 2225SOL     OW 7573   0.694   6.412   3.426
 2225SOL    HW1 7574   0.723   6.320   3.454
 2225SOL    HW2 7575   0.646   6.406   3.339
 2226SOL     OW 7576   2.665   5.421   0.758
 2226SOL    HW1 7577   2.579   5.407   0.807
 2226SOL    HW2 7578   2.700   5.512   0.776
 2227SOL     OW 7579   4.066   2.511   1.716
 2227SOL    HW1 7580   4.094   2.481   1.625
 2227SOL    HW2 7581   3.980   2.562   1.709
 2228SOL     OW 7582   4.650   4.923   0.345
 2228SOL    HW1 7583   4.559   4.926   0.385
 2228SOL    HW2 7584   4.646   4.954   0.250
 2229SOL     OW 7585   3.230   3.555   4.478
 2229SOL    HW1 7586   3.244   3.485   4.408
 2229SOL    HW2 7587   3.145   3.537   4.527
 2230SOL     OW 7588   5.366   6.292   0.546
 2230SOL    HW1 7589   5.308   6.210   0.542
 2230SOL    HW2 7590   5.447   6.273   0.602
 2231SOL     OW 7591   0.165   0.854   6.964
 2231SOL    HW1 7592   0.200   0.825   0.030
 2231SOL    HW2 7593   0.175   0.953   6.955
 2232SOL     OW 7594   1.429   0.467   5.694
 2232SOL    HW1 7595   1.515   0.517   5.697
 2232SOL    HW2 7596   1.373   0.492   5.773
 2233SOL     OW 7597   3.340   3.556   0.910
 2233SOL    HW1 7598   3.421   3.560   0.967
 2233SOL    HW2 7599   3.258   3.552   0.968
 2234SOL     OW 7600   3.899   1.574   0.582
 2234SOL    HW1 7601   3.987   1.607   0.615
 2234SOL    HW2 7602   3.860   1.639   0.517
 2235SOL     OW 7603   2.813   0.618   2.291
 2235SOL    HW1 7604   2.728   0.664   2.314
 2235SOL    HW2 7605   2.887   0.685   2.286
 2236SOL     OW 7606   1.913   3.916   5.874
 2236SOL    HW1 7607   1.979   3.940   5.802
 2236SOL    HW2 7608   1.853   3.844   5.840
 2237SOL     OW 7609   5.787   5.241   5.072
 2237SOL    HW1 7610   5.875   5.251   5.025
 2237SOL    HW2 7611   5.802   5.212   5.166
 2238SOL     OW 7612   4.936   4.630   2.717
 2238SOL    HW1 7613   4.949   4.555   2.652
 2238SOL    HW2 7614   4.867   4.693   2.682
 2239SOL     OW 7615   3.499   6.465   3.771
 2239SOL    HW1 7616   3.534   6.372   3.781
 2239SOL    HW2 7617   3.449   6.491   3.854
 2240SOL     OW 7618   4.704   5.956   3.051
 2240SOL    HW1 7619   4.665   6.019   2.984
 2240SOL    HW2 7620   4.801   5.941   3.031
 2241SOL     OW 7621   0.307   6.949   1.583
 2241SOL    HW1 7622   0.382   6.912   1.638
 2241SOL    HW2 7623   0.264   0.002   1.633
 2242SOL     OW 7624   5.135   2.985   3.333
 2242SOL    HW1 7625   5.128   3.076   3.374
 2242SOL    HW2 7626   5.102   2.917   3.398
 2243SOL     OW 7627   2.288   6.630   0.484
 2243SOL    HW1 7628   2.229   6.557   0.518
 2243SOL    HW2 7629   2.346   6.594   0.410
 2244SOL     OW 7630   2.631   0.676   0.940
 2244SOL    HW1 7631   2.634   0.588   0.988
 2244SOL    HW2 7632   2.698   0.675   0.866
 2245SOL     OW 7633   0.873   1.397   0.555
 2245SOL    HW1 7634   0.953   1.362   0.505
 2245SOL    HW2 7635   0.903   1.465   0.622
 2246SOL     OW 7636   2.245   0.598   4.651
 2246SOL    HW1 7637   2.206   0.687   4.675
 2246SOL    HW2 7638   2.283   0.555   4.733
 2247SOL     OW 7639   3.434   4.038   2.364
 2247SOL    HW1 7640   3.432   4.084   2.275
 2247SOL    HW2 7641   3.343   4.004   2.386
 2248SOL     OW 7642   6.053   4.517   5.126
 2248SOL    HW1 7643   6.089   4.560   5.209
 2248SOL    HW2 7644   6.021   4.425   5.147
 2249SOL     OW 7645   2.840   6.570   3.763
 2249SOL    HW1 7646   2.743   6.548   3.751
 2249SOL    HW2 7647   2.862   6.654   3.713
 2250SOL     OW 7648   3.912   3.806   5.801
 2250SOL    HW1 7649   3.970   3.727   5.778
 2250SOL    HW2 7650   3.926   3.878   5.734
 2251SOL     OW 7651   5.252   6.170   6.624
 2251SOL    HW1 7652   5.255   6.237   6.698
 2251SOL    HW2 7653   5.329   6.184   6.562
 2252SOL     OW 7654   5.362   1.747   2.850
 2252SOL    HW1 7655   5.302   1.822   2.879
 2252SOL    HW2 7656   5.337   1.718   2.758
 2253SOL     OW 7657   0.564   3.086   0.450
 2253SOL    HW1 7658   0.573   3.122   0.543
 2253SOL    HW2 7659   0.528   2.993   0.453
 2254SOL     OW 7660   3.499   4.149   2.603
 2254SOL    HW1 7661   3.487   4.121   2.507
 2254SOL    HW2 7662   3.596   4.144   2.627
 2255SOL     OW 7663   2.774   4.290   5.330
 2255SOL    HW1 7664   2.821   4.350   5.265
 2255SOL    HW2 7665   2.826   4.287   5.416
 2256SOL     OW 7666   4.822   6.132   2.070
 2256SOL    HW1 7667   4.760   6.179   2.008
 2256SOL    HW2 7668   4.777   6.051   2.108
 2257SOL     OW 7669   0.717   1.604   4.182
 2257SOL    HW1 7670   0.655   1.598   4.260
 2257SOL    HW2 7671   0.674   1.563   4.102
 2258SOL     OW 7672   1.844   6.753   4.690
 2258SOL    HW1 7673   1.837   6.847   4.725
 2258SOL    HW2 7674   1.931   6.741   4.643
 2259SOL     OW 7675   6.570   2.506   4.536
 2259SOL    HW1 7676   6.547   2.490   4.440
 2259SOL    HW2 7677   6.666   2.532   4.544
 2260SOL     OW 7678   1.189   3.783   1.616
 2260SOL    HW1 7679   1.105   3.750   1.572
 2260SOL    HW2 7680   1.198   3.742   1.707
 2261SOL     OW 7681   6.196   3.729   0.189
 2261SOL    HW1 7682   6.124   3.798   0.201
 2261SOL    HW2 7683   6.179   3.652   0.250
 2262SOL     OW 7684   6.227   0.739   4.171
 2262SOL    HW1 7685   6.130   0.714   4.166
 2262SOL    HW2 7686   6.280   0.663   4.209
 2263SOL     OW 7687   1.122   5.092   0.435
 2263SOL    HW1 7688   1.144   5.028   0.509
 2263SOL    HW2 7689   1.062   5.163   0.470
 2264SOL     OW 7690   2.647   6.640   6.663
 2264SOL    HW1 7691   2.697   6.676   6.584
 2264SOL    HW2 7692   2.585   6.710   6.697
 2265SOL     OW 7693   1.629   0.451   4.449
 2265SOL    HW1 7694   1.611   0.371   4.391
 2265SOL    HW2 7695   1.545   0.504   4.458
 2266SOL     OW 7696   5.150   1.478   6.040
 2266SOL    HW1 7697   5.197   1.399   6.002
 2266SOL    HW2 7698   5.171   1.487   6.137
 2267SOL     OW 7699   4.559   2.644   5.036
 2267SOL    HW1 7700   4.647   2.681   5.068
 2267SOL    HW2 7701   4.498   2.632   5.114
 2268SOL     OW 7702   6.228   4.385   6.346
 2268SOL    HW1 7703   6.145   4.332   6.332
 2268SOL    HW2 7704   6.214   4.479   6.314
 2269SOL     OW 7705   0.754   3.303   5.684
 2269SOL    HW1 7706   0.822   3.277   5.752
 2269SOL    HW2 7707   0.672   3.338   5.730
 2270SOL     OW 7708   4.336   3.179   6.006
 2270SOL    HW1 7709   4.253   3.162   5.953
 2270SOL    HW2 7710   4.416   3.147   5.955
 2271SOL     OW 7711   5.770   4.361   6.771
 2271SOL    HW1 7712   5.688   4.399   6.814
 2271SOL    HW2 7713   5.743   4.293   6.703
 2272SOL     OW 7714   6.103   0.592   6.315
 2272SOL    HW1 7715   6.090   0.685   6.349
 2272SOL    HW2 7716   6.178   0.549   6.366
 2273SOL     OW 7717   2.082   2.313   2.409
 2273SOL    HW1 7718   1.991   2.290   2.443
 2273SOL    HW2 7719   2.088   2.412   2.395
 2274SOL     OW 7720   0.692   1.695   6.998
 2274SOL    HW1 7721   0.719   1.684   0.071
 2274SOL    HW2 7722   0.615   1.758   6.991
 2275SOL     OW 7723   5.837   5.156   2.025
 2275SOL    HW1 7724   5.830   5.092   1.949
 2275SOL    HW2 7725   5.815   5.248   1.993
 2276SOL     OW 7726   1.629   0.763   1.254
 2276SOL    HW1 7727   1.604   0.781   1.159
 2276SOL    HW2 7728   1.608   0.668   1.276
 2277SOL     OW 7729   2.989   3.666   3.206
 2277SOL    HW1 7730   3.064   3.729   3.227
 2277SOL    HW2 7731   2.959   3.622   3.290
 2278SOL     OW 7732   0.601   3.007   3.904
 2278SOL    HW1 7733   0.551   2.931   3.863
 2278SOL    HW2 7734   0.672   3.038   3.841
 2279SOL     OW 7735   6.961   5.776   6.168
 2279SOL    HW1 7736   6.870   5.767   6.208
 2279SOL    HW2 7737   0.003   5.720   6.220
 2280SOL     OW 7738   5.667   0.847   5.336
 2280SOL    HW1 7739   5.678   0.802   5.248
 2280SOL    HW2 7740   5.638   0.780   5.405
 2281SOL     OW 7741   4.490   6.755   2.549
 2281SOL    HW1 7742   4.549   6.674   2.555
 2281SOL    HW2 7743   4.396   6.728   2.569
 2282SOL     OW 7744   4.880   5.234   5.425
 2282SOL    HW1 7745   4.923   5.207   5.339
 2282SOL    HW2 7746   4.944   5.220   5.501
 2283SOL     OW 7747   1.930   0.697   3.175
 2283SOL    HW1 7748   1.922   0.774   3.238
 2283SOL    HW2 7749   1.892   0.615   3.218
 2284SOL     OW 7750   0.588   3.361   6.200
 2284SOL    HW1 7751   0.559   3.297   6.272
 2284SOL    HW2 7752   0.688   3.365   6.199
 2285SOL     OW 7753   1.203   3.917   6.961
 2285SOL    HW1 7754   1.233   3.852   6.891
 2285SOL    HW2 7755   1.217   4.010   6.928
 2286SOL     OW 7756   5.047   6.694   3.217
 2286SOL    HW1 7757   5.127   6.698   3.158
 2286SOL    HW2 7758   4.971   6.741   3.172
 2287SOL     OW 7759   2.784   0.842   3.377
 2287SOL    HW1 7760   2.877   0.804   3.373
 2287SOL    HW2 7761   2.731   0.810   3.299
 2288SOL     OW 7762   0.076   4.939   3.613
 2288SOL    HW1 7763   0.066   4.982   3.523
 2288SOL    HW2 7764   7.008   4.924   3.653
 2289SOL     OW 7765   0.393   5.227   1.574
 2289SOL    HW1 7766   0.464   5.252   1.508
 2289SOL    HW2 7767   0.345   5.145   1.543
 2290SOL     OW 7768   1.074   4.315   1.221
 2290SOL    HW1 7769   0.979   4.306   1.251
 2290SOL    HW2 7770   1.127   4.361   1.292
 2291SOL     OW 7771   3.296   1.586   5.787
 2291SOL    HW1 7772   3.375   1.526   5.776
 2291SOL    HW2 7773   3.280   1.603   5.884
 2292SOL     OW 7774   1.380   1.000   5.067
 2292SOL    HW1 7775   1.385   0.938   4.989
 2292SOL    HW2 7776   1.287   1.036   5.075
 2293SOL     OW 7777   5.077   5.411   1.364
 2293SOL    HW1 7778   5.062   5.342   1.293
 2293SOL    HW2 7779   5.148   5.380   1.427
 2294SOL     OW 7780   3.714   0.044   6.983
 2294SOL    HW1 7781   3.810   0.022   7.002
 2294SOL    HW2 7782   3.657   0.006   0.034
 2295SOL     OW 7783   0.136   1.904   2.030
 2295SOL    HW1 7784   0.096   1.858   2.109
 2295SOL    HW2 7785   0.093   1.871   1.947
 2296SOL     OW 7786   3.347   0.749   0.514
 2296SOL    HW1 7787   3.425   0.788   0.464
 2296SOL    HW2 7788   3.271   0.814   0.512
 2297SOL     OW 7789   4.258   4.045   5.721
 2297SOL    HW1 7790   4.298   3.956   5.742
 2297SOL    HW2 7791   4.161   4.045   5.747
 2298SOL     OW 7792   3.565   2.485   0.984
 2298SOL    HW1 7793   3.590   2.389   0.994
 2298SOL    HW2 7794   3.478   2.492   0.935
 2299SOL     OW 7795   4.931   6.172   6.851
 2299SOL    HW1 7796   4.971   6.093   6.804
 2299SOL    HW2 7797   5.004   6.221   6.900
 2300SOL     OW 7798   1.471   5.796   1.451
 2300SOL    HW1 7799   1.414   5.871   1.485
 2300SOL    HW2 7800   1.567   5.827   1.447
 2301SOL     OW 7801   3.268   3.394   3.210
 2301SOL    HW1 7802   3.231   3.402   3.118
 2301SOL    HW2 7803   3.301   3.301   3.225
 2302SOL     OW 7804   3.826   6.017   2.618
 2302SOL    HW1 7805   3.841   6.114   2.636
 2302SOL    HW2 7806   3.831   5.966   2.704
 2303SOL     OW 7807   1.007   3.608   5.220
 2303SOL    HW1 7808   0.980   3.619   5.316
 2303SOL    HW2 7809   1.099   3.569   5.216
 2304SOL     OW 7810   2.767   0.055   3.715
 2304SOL    HW1 7811   2.667   0.063   3.708
 2304SOL    HW2 7812   2.799   0.110   3.792
 2305SOL     OW 7813   4.100   5.703   2.746
 2305SOL    HW1 7814   4.141   5.672   2.831
 2305SOL    HW2 7815   4.151   5.665   2.669
 2306SOL     OW 7816   1.893   4.809   1.915
 2306SOL    HW1 7817   1.859   4.826   1.822
 2306SOL    HW2 7818   1.869   4.716   1.942
 2307SOL     OW 7819   1.827   3.802   2.775
 2307SOL    HW1 7820   1.756   3.775   2.711
 2307SOL    HW2 7821   1.900   3.849   2.727
 2308SOL     OW 7822   0.694   0.966   6.613
 2308SOL    HW1 7823   0.607   0.966   6.663
 2308SOL    HW2 7824   0.685   1.024   6.531
 2309SOL     OW 7825   3.388   5.819   0.056
 2309SOL    HW1 7826   3.478   5.800   0.093
 2309SOL    HW2 7827   3.369   5.917   0.061
 2310SOL     OW 7828   6.081   0.057   1.554
 2310SOL    HW1 7829   6.142   7.000   1.559
 2310SOL    HW2 7830   5.987   0.026   1.544
 2311SOL     OW 7831   2.928   6.922   2.588
 2311SOL    HW1 7832   2.929   6.823   2.580
 2311SOL    HW2 7833   2.934   6.963   2.497
 2312SOL     OW 7834   3.293   6.817   2.821
 2312SOL    HW1 7835   3.336   6.901   2.853
 2312SOL    HW2 7836   3.257   6.831   2.729
 2313SOL     OW 7837   4.978   4.499   2.137
 2313SOL    HW1 7838   4.988   4.571   2.069
 2313SOL    HW2 7839   4.893   4.448   2.120
 2314SOL     OW 7840   6.016   0.450   3.964
 2314SOL    HW1 7841   6.113   0.436   3.944
 2314SOL    HW2 7842   6.007   0.495   4.053
 2315SOL     OW 7843   5.007   3.660   5.937
 2315SOL    HW1 7844   5.048   3.613   6.015
 2315SOL    HW2 7845   5.071   3.659   5.860
 2316SOL     OW 7846   2.614   0.741   5.936
 2316SOL    HW1 7847   2.581   0.703   6.022
 2316SOL    HW2 7848   2.628   0.840   5.946
 2317SOL     OW 7849   6.619   6.375   4.038
 2317SOL    HW1 7850   6.632   6.341   4.131
 2317SOL    HW2 7851   6.535   6.428   4.034
 2318SOL     OW 7852   2.223   3.987   4.424
 2318SOL    HW1 7853   2.292   4.046   4.465
 2318SOL    HW2 7854   2.169   3.944   4.496
 2319SOL     OW 7855   3.044   5.039   4.707
 2319SOL    HW1 7856   2.963   4.988   4.679
 2319SOL    HW2 7857   3.115   5.030   4.637
 2320SOL     OW 7858   0.953   2.708   6.049
 2320SOL    HW1 7859   0.853   2.705   6.044
 2320SOL    HW2 7860   0.992   2.645   5.982
 2321SOL     OW 7861   2.811   5.063   6.475
 2321SOL    HW1 7862   2.886   5.036   6.535
 2321SOL    HW2 7863   2.818   5.012   6.389
 2322SOL     OW 7864   1.795   4.144   1.971
 2322SOL    HW1 7865   1.743   4.107   2.047
 2322SOL    HW2 7866   1.744   4.218   1.928
 2323SOL     OW 7867   3.339   4.859   2.071
 2323SOL    HW1 7868   3.391   4.774   2.083
 2323SOL    HW2 7869   3.263   4.843   2.009
 2324SOL     OW 7870   0.166   5.995   1.945
 2324SOL    HW1 7871   0.150   6.001   1.846
 2324SOL    HW2 7872   0.264   5.984   1.962
 2325SOL     OW 7873   6.976   5.104   1.590
 2325SOL    HW1 7874   6.896   5.046   1.607
 2325SOL    HW2 7875   0.005   5.116   1.674
 2326SOL     OW 7876   1.568   5.969   6.837
 2326SOL    HW1 7877   1.624   5.905   6.890
 2326SOL    HW2 7878   1.472   5.942   6.842
 2327SOL     OW 7879   0.438   0.396   3.394
 2327SOL    HW1 7880   0.385   0.324   3.350
 2327SOL    HW2 7881   0.472   0.460   3.325
 2328SOL     OW 7882   1.421   2.030   2.470
 2328SOL    HW1 7883   1.486   2.097   2.506
 2328SOL    HW2 7884   1.448   1.939   2.498
 2329SOL     OW 7885   0.878   4.453   4.764
 2329SOL    HW1 7886   0.858   4.512   4.843
 2329SOL    HW2 7887   0.887   4.510   4.682
 2330SOL     OW 7888   0.085   2.871   0.219
 2330SOL    HW1 7889   0.047   2.942   0.278
 2330SOL    HW2 7890   0.010   2.815   0.183
 2331SOL     OW 7891   3.230   5.153   6.626
 2331SOL    HW1 7892   3.234   5.252   6.610
 2331SOL    HW2 7893   3.217   5.106   6.539
 2332SOL     OW 7894   6.555   0.214   5.837
 2332SOL    HW1 7895   6.623   0.287   5.841
 2332SOL    HW2 7896   6.601   0.125   5.836
 2333SOL     OW 7897   6.818   4.675   2.879
 2333SOL    HW1 7898   6.773   4.748   2.931
 2333SOL    HW2 7899   6.758   4.644   2.806
 2334SOL     OW 7900   1.272   1.639   6.737
 2334SOL    HW1 7901   1.371   1.622   6.739
 2334SOL    HW2 7902   1.249   1.684   6.650
 2335SOL     OW 7903   5.731   0.579   4.084
 2335SOL    HW1 7904   5.735   0.485   4.050
 2335SOL    HW2 7905   5.733   0.643   4.007
 2336SOL     OW 7906   2.720   1.619   3.886
 2336SOL    HW1 7907   2.629   1.584   3.909
 2336SOL    HW2 7908   2.746   1.691   3.951
 2337SOL     OW 7909   4.115   1.545   1.857
 2337SOL    HW1 7910   4.021   1.526   1.883
 2337SOL    HW2 7911   4.140   1.637   1.886
 2338SOL     OW 7912   0.620   3.212   4.239
 2338SOL    HW1 7913   0.524   3.186   4.246
 2338SOL    HW2 7914   0.674   3.135   4.206
 2339SOL     OW 7915   3.143   3.020   3.029
 2339SOL    HW1 7916   3.117   3.006   3.125
 2339SOL    HW2 7917   3.087   3.094   2.990
 2340SOL     OW 7918   0.308   4.686   0.274
 2340SOL    HW1 7919   0.270   4.681   0.181
 2340SOL    HW2 7920   0.406   4.665   0.270
 2341SOL     OW 7921   2.896   5.065   2.075
 2341SOL    HW1 7922   2.829   5.139   2.074
 2341SOL    HW2 7923   2.986   5.103   2.096
 2342SOL     OW 7924   2.076   6.781   4.523
 2342SOL    HW1 7925   2.166   6.755   4.487
 2342SOL    HW2 7926   2.061   6.879   4.508
 2343SOL     OW 7927   2.020   5.869   2.821
 2343SOL    HW1 7928   2.050   5.964   2.833
 2343SOL    HW2 7929   2.011   5.825   2.910
 2344SOL     OW 7930   6.780   5.935   0.095
 2344SOL    HW1 7931   6.862   5.934   0.152
 2344SOL    HW2 7932   6.793   5.874   0.017
 2345SOL     OW 7933   2.499   5.572   4.611
 2345SOL    HW1 7934   2.542   5.641   4.553
 2345SOL    HW2 7935   2.430   5.616   4.670
 2346SOL     OW 7936   3.947   3.393   5.776
 2346SOL    HW1 7937   3.991   3.476   5.741
 2346SOL    HW2 7938   3.856   3.384   5.736
 2347SOL     OW 7939   1.964   1.847   1.490
 2347SOL    HW1 7940   2.037   1.792   1.450
 2347SOL    HW2 7941   1.958   1.826   1.588
 2348SOL     OW 7942   2.267   6.119   3.801
 2348SOL    HW1 7943   2.338   6.105   3.870
 2348SOL    HW2 7944   2.246   6.032   3.756
 2349SOL     OW 7945   0.645   4.518   6.072
 2349SOL    HW1 7946   0.701   4.436   6.083
 2349SOL    HW2 7947   0.675   4.567   5.990
 2350SOL     OW 7948   5.884   4.754   6.005
 2350SOL    HW1 7949   5.843   4.689   6.068
 2350SOL    HW2 7950   5.958   4.804   6.051
 2351SOL     OW 7951   3.658   4.952   3.693
 2351SOL    HW1 7952   3.567   4.986   3.667
 2351SOL    HW2 7953   3.706   5.020   3.747
 2352SOL     OW 7954   0.344   3.332   2.943
 2352SOL    HW1 7955   0.414   3.269   2.978
 2352SOL    HW2 7956   0.367   3.425   2.970
 2353SOL     OW 7957   3.836   5.012   4.615
 2353SOL    HW1 7958   3.880   4.926   4.641
 2353SOL    HW2 7959   3.859   5.035   4.521
 2354SOL     OW 7960   2.303   2.309   4.616
 2354SOL    HW1 7961   2.267   2.254   4.540
 2354SOL    HW2 7962   2.232   2.323   4.684
 2355SOL     OW 7963   2.092   6.762   6.032
 2355SOL    HW1 7964   2.055   6.713   5.953
 2355SOL    HW2 7965   2.090   6.702   6.112
 2356SOL     OW 7966   1.103   2.777   6.258
 2356SOL    HW1 7967   1.048   2.769   6.174
 2356SOL    HW2 7968   1.044   2.762   6.337
 2357SOL     OW 7969   4.131   1.015   1.684
 2357SOL    HW1 7970   4.164   0.933   1.637
 2357SOL    HW2 7971   4.208   1.064   1.725
 2358SOL     OW 7972   2.747   5.468   5.595
 2358SOL    HW1 7973   2.735   5.396   5.528
 2358SOL    HW2 7974   2.691   5.449   5.676
 2359SOL     OW 7975   0.294   0.860   6.023
 2359SOL    HW1 7976   0.206   0.819   6.046
 2359SOL    HW2 7977   0.348   0.795   5.971
 2360SOL     OW 7978   6.048   4.017   0.574
 2360SOL    HW1 7979   6.133   4.019   0.521
 2360SOL    HW2 7980   6.017   4.111   0.590
 2361SOL     OW 7981   2.672   1.028   6.373
 2361SOL    HW1 7982   2.578   1.045   6.342
 2361SOL    HW2 7983   2.733   1.097   6.332
 2362SOL     OW 7984   2.782   5.629   3.689
 2362SOL    HW1 7985   2.854   5.690   3.722
 2362SOL    HW2 7986   2.724   5.678   3.624
 2363SOL     OW 7987   3.632   1.958   4.408
 2363SOL    HW1 7988   3.534   1.962   4.426
 2363SOL    HW2 7989   3.668   2.051   4.394
 2364SOL     OW 7990   1.728   2.828   2.518
 2364SOL    HW1 7991   1.632   2.827   2.490
 2364SOL    HW2 7992   1.735   2.806   2.615
 2365SOL     OW 7993   6.599   1.749   7.015
 2365SOL    HW1 7994   6.546   1.824   0.034
 2365SOL    HW2 7995   6.549   1.663   0.005
 2366SOL     OW 7996   2.661   5.421   6.903
 2366SOL    HW1 7997   2.720   5.498   6.929
 2366SOL    HW2 7998   2.660   5.412   6.804
 2367SOL     OW 7999   2.120   3.494   0.831
 2367SOL    HW1 8000   2.085   3.406   0.864
 2367SOL    HW2 8001   2.158   3.482   0.739
 2368SOL     OW 8002   5.512   6.592   4.720
 2368SOL    HW1 8003   5.478   6.590   4.815
 2368SOL    HW2 8004   5.611   6.578   4.720
 2369SOL     OW 8005   1.872   0.034   4.680
 2369SOL    HW1 8006   1.858   0.010   4.776
 2369SOL    HW2 8007   1.806   0.105   4.654
 2370SOL     OW 8008   5.877   3.049   0.004
 2370SOL    HW1 8009   5.957   2.991   0.018
 2370SOL    HW2 8010   5.860   3.059   6.929
 2371SOL     OW 8011   1.978   0.213   1.816
 2371SOL    HW1 8012   1.986   0.309   1.844
 2371SOL    HW2 8013   2.033   0.156   1.878
 2372SOL     OW 8014   6.558   2.601   1.810
 2372SOL    HW1 8015   6.624   2.628   1.880
 2372SOL    HW2 8016   6.569   2.503   1.791
 2373SOL     OW 8017   1.286   3.504   6.050
 2373SOL    HW1 8018   1.335   3.426   6.011
 2373SOL    HW2 8019   1.252   3.563   5.977
 2374SOL     OW 8020   6.908   1.659   4.348
 2374SOL    HW1 8021   6.920   1.567   4.309
 2374SOL    HW2 8022   6.902   1.652   4.447
 2375SOL     OW 8023   3.214   6.047   5.652
 2375SOL    HW1 8024   3.166   5.985   5.713
 2375SOL    HW2 8025   3.234   6.133   5.700
 2376SOL     OW 8026   6.818   2.618   4.018
 2376SOL    HW1 8027   6.821   2.624   3.918
 2376SOL    HW2 8028   6.822   2.522   4.045
 2377SOL     OW 8029   3.538   4.155   3.732
 2377SOL    HW1 8030   3.615   4.137   3.671
 2377SOL    HW2 8031   3.569   4.149   3.827
 2378SOL     OW 8032   5.106   1.792   0.070
 2378SOL    HW1 8033   5.028   1.853   0.064
 2378SOL    HW2 8034   5.182   1.839   0.115
 2379SOL     OW 8035   6.528   0.823   0.318
 2379SOL    HW1 8036   6.567   0.747   0.267
 2379SOL    HW2 8037   6.509   0.795   0.412
 2380SOL     OW 8038   6.538   2.203   0.300
 2380SOL    HW1 8039   6.511   2.291   0.339
 2380SOL    HW2 8040   6.623   2.214   0.250
 2381SOL     OW 8041   2.588   5.651   3.260
 2381SOL    HW1 8042   2.515   5.702   3.305
 2381SOL    HW2 8043   2.663   5.714   3.236
 2382SOL     OW 8044   1.826   4.113   4.249
 2382SOL    HW1 8045   1.842   4.084   4.155
 2382SOL    HW2 8046   1.874   4.052   4.312
 2383SOL     OW 8047   6.144   6.885   0.724
 2383SOL    HW1 8048   6.230   6.904   0.677
 2383SOL    HW2 8049   6.071   6.871   0.657
 2384SOL     OW 8050   5.588   1.053   2.630
 2384SOL    HW1 8051   5.550   1.080   2.719
 2384SOL    HW2 8052   5.573   0.955   2.617
 2385SOL     OW 8053   0.092   0.364   0.596
 2385SOL    HW1 8054   0.097   0.375   0.695
 2385SOL    HW2 8055   0.046   0.444   0.556
 2386SOL     OW 8056   5.414   5.884   4.649
 2386SOL    HW1 8057   5.314   5.877   4.650
 2386SOL    HW2 8058   5.452   5.809   4.595
 2387SOL     OW 8059   2.349   1.476   4.235
 2387SOL    HW1 8060   2.355   1.466   4.135
 2387SOL    HW2 8061   2.436   1.450   4.277
 2388SOL     OW 8062   6.847   2.267   3.541
 2388SOL    HW1 8063   6.841   2.190   3.603
 2388SOL    HW2 8064   6.756   2.306   3.526
 2389SOL     OW 8065   4.278   4.690   3.450
 2389SOL    HW1 8066   4.305   4.662   3.358
 2389SOL    HW2 8067   4.332   4.769   3.478
 2390SOL     OW 8068   3.751   3.471   4.178
 2390SOL    HW1 8069   3.690   3.491   4.255
 2390SOL    HW2 8070   3.697   3.469   4.093
 2391SOL     OW 8071   5.480   4.356   6.280
 2391SOL    HW1 8072   5.459   4.387   6.372
 2391SOL    HW2 8073   5.394   4.342   6.230
 2392SOL     OW 8074   2.958   6.268   6.099
 2392SOL    HW1 8075   2.864   6.281   6.131
 2392SOL    HW2 8076   2.972   6.320   6.015
 2393SOL     OW 8077   5.029   3.975   6.324
 2393SOL    HW1 8078   5.057   4.061   6.367
 2393SOL    HW2 8079   4.930   3.964   6.332
 2394SOL     OW 8080   0.890   4.024   4.902
 2394SOL    HW1 8081   0.936   3.984   4.981
 2394SOL    HW2 8082   0.862   3.952   4.839
 2395SOL     OW 8083   4.902   0.271   5.904
 2395SOL    HW1 8084   4.984   0.327   5.891
 2395SOL    HW2 8085   4.912   0.185   5.853
 2396SOL     OW 8086   4.095   4.772   1.105
 2396SOL    HW1 8087   4.118   4.859   1.061
 2396SOL    HW2 8088   4.073   4.788   1.202
 2397SOL     OW 8089   0.465   4.128   5.028
 2397SOL    HW1 8090   0.498   4.078   5.108
 2397SOL    HW2 8091   0.537   4.132   4.959
 2398SOL     OW 8092   4.608   4.506   6.647
 2398SOL    HW1 8093   4.639   4.594   6.612
 2398SOL    HW2 8094   4.680   4.465   6.703
 2399SOL     OW 8095   4.854   1.078   0.765
 2399SOL    HW1 8096   4.761   1.062   0.800
 2399SOL    HW2 8097   4.849   1.132   0.681
 2400SOL     OW 8098   2.984   3.875   0.824
 2400SOL    HW1 8099   3.082   3.867   0.840
 2400SOL    HW2 8100   2.937   3.885   0.911
 2401SOL     OW 8101   5.184   6.071   0.526
 2401SOL    HW1 8102   5.137   6.063   0.438
 2401SOL    HW2 8103   5.133   6.020   0.596
 2402SOL     OW 8104   0.717   0.128   3.759
 2402SOL    HW1 8105   0.678   0.045   3.800
 2402SOL    HW2 8106   0.646   0.176   3.709
 2403SOL     OW 8107   1.669   1.929   6.391
 2403SOL    HW1 8108   1.647   1.956   6.484
 2403SOL    HW2 8109   1.744   1.985   6.356
 2404SOL     OW 8110   2.869   1.085   1.200
 2404SOL    HW1 8111   2.770   1.086   1.217
 2404SOL    HW2 8112   2.914   1.030   1.269
 2405SOL     OW 8113   3.552   3.543   2.342
 2405SOL    HW1 8114   3.502   3.470   2.389
 2405SOL    HW2 8115   3.577   3.614   2.409
 2406SOL     OW 8116   3.479   0.541   1.269
 2406SOL    HW1 8117   3.547   0.591   1.323
 2406SOL    HW2 8118   3.396   0.597   1.260
 2407SOL     OW 8119   5.760   2.029   3.004
 2407SOL    HW1 8120   5.751   2.118   2.960
 2407SOL    HW2 8121   5.709   2.028   3.090
 2408SOL     OW 8122   4.446   4.564   2.297
 2408SOL    HW1 8123   4.423   4.571   2.200
 2408SOL    HW2 8124   4.535   4.606   2.313
 2409SOL     OW 8125   2.320   4.290   2.079
 2409SOL    HW1 8126   2.409   4.271   2.037
 2409SOL    HW2 8127   2.262   4.338   2.014
 2410SOL     OW 8128   3.708   2.868   4.694
 2410SOL    HW1 8129   3.635   2.933   4.715
 2410SOL    HW2 8130   3.797   2.911   4.713
 2411SOL     OW 8131   5.495   6.095   4.180
 2411SOL    HW1 8132   5.408   6.143   4.187
 2411SOL    HW2 8133   5.542   6.097   4.269
 2412SOL     OW 8134   5.567   4.370   1.485
 2412SOL    HW1 8135   5.516   4.390   1.568
 2412SOL    HW2 8136   5.664   4.388   1.501
 2413SOL     OW 8137   6.441   0.966   1.094
 2413SOL    HW1 8138   6.346   0.936   1.086
 2413SOL    HW2 8139   6.447   1.038   1.163
 2414SOL     OW 8140   4.939   4.192   3.283
 2414SOL    HW1 8141   4.898   4.266   3.337
 2414SOL    HW2 8142   4.872   4.156   3.219
 2415SOL     OW 8143   6.007   1.695   2.803
 2415SOL    HW1 8144   6.066   1.634   2.857
 2415SOL    HW2 8145   5.958   1.642   2.734
 2416SOL     OW 8146   5.122   2.317   4.970
 2416SOL    HW1 8147   5.034   2.337   4.926
 2416SOL    HW2 8148   5.122   2.223   5.002
 2417SOL     OW 8149   3.306   3.634   4.798
 2417SOL    HW1 8150   3.323   3.536   4.800
 2417SOL    HW2 8151   3.308   3.666   4.703
 2418SOL     OW 8152   3.991   3.090   4.463
 2418SOL    HW1 8153   3.959   3.015   4.522
 2418SOL    HW2 8154   3.913   3.131   4.417
 2419SOL     OW 8155   0.198   6.408   3.645
 2419SOL    HW1 8156   0.139   6.328   3.645
 2419SOL    HW2 8157   0.247   6.414   3.731
 2420SOL     OW 8158   3.098   0.188   2.508
 2420SOL    HW1 8159   3.192   0.166   2.483
 2420SOL    HW2 8160   3.073   0.277   2.468
 2421SOL     OW 8161   2.000   2.778   4.897
 2421SOL    HW1 8162   2.045   2.749   4.981
 2421SOL    HW2 8163   1.904   2.752   4.899
 2422SOL     OW 8164   5.046   1.721   0.365
 2422SOL    HW1 8165   5.038   1.740   0.268
 2422SOL    HW2 8166   5.081   1.801   0.413
 2423SOL     OW 8167   1.943   6.414   2.301
 2423SOL    HW1 8168   1.883   6.470   2.357
 2423SOL    HW2 8169   1.946   6.450   2.208
 2424SOL     OW 8170   6.466   0.071   0.166
 2424SOL    HW1 8171   6.419   0.003   0.223
 2424SOL    HW2 8172   6.398   0.129   0.121
 2425SOL     OW 8173   5.627   0.342   3.986
 2425SOL    HW1 8174   5.652   0.407   3.915
 2425SOL    HW2 8175   5.549   0.287   3.955
 2426SOL     OW 8176   1.478   5.348   5.651
 2426SOL    HW1 8177   1.516   5.326   5.561
 2426SOL    HW2 8178   1.432   5.268   5.688
 2427SOL     OW 8179   5.748   5.606   5.697
 2427SOL    HW1 8180   5.688   5.566   5.628
 2427SOL    HW2 8181   5.825   5.652   5.652
 2428SOL     OW 8182   0.644   0.759   1.923
 2428SOL    HW1 8183   0.676   0.725   2.012
 2428SOL    HW2 8184   0.582   0.692   1.882
 2429SOL     OW 8185   5.596   5.589   1.841
 2429SOL    HW1 8186   5.500   5.573   1.819
 2429SOL    HW2 8187   5.604   5.624   1.934
 2430SOL     OW 8188   6.600   1.193   1.901
 2430SOL    HW1 8189   6.586   1.145   1.988
 2430SOL    HW2 8190   6.698   1.199   1.881
 2431SOL     OW 8191   4.286   1.246   2.206
 2431SOL    HW1 8192   4.222   1.262   2.281
 2431SOL    HW2 8193   4.311   1.333   2.164
 2432SOL     OW 8194   4.578   6.640   2.070
 2432SOL    HW1 8195   4.585   6.556   2.123
 2432SOL    HW2 8196   4.547   6.714   2.128
 2433SOL     OW 8197   4.527   1.098   6.926
 2433SOL    HW1 8198   4.622   1.089   6.957
 2433SOL    HW2 8199   4.486   1.007   6.915
 2434SOL     OW 8200   3.952   0.803   5.769
 2434SOL    HW1 8201   3.993   0.832   5.682
 2434SOL    HW2 8202   3.852   0.804   5.759
 2435SOL     OW 8203   5.609   5.509   5.157
 2435SOL    HW1 8204   5.513   5.529   5.180
 2435SOL    HW2 8205   5.615   5.483   5.061
 2436SOL     OW 8206   2.090   5.784   6.591
 2436SOL    HW1 8207   2.151   5.863   6.602
 2436SOL    HW2 8208   2.141   5.708   6.551
 2437SOL     OW 8209   6.279   6.743   6.052
 2437SOL    HW1 8210   6.185   6.712   6.068
 2437SOL    HW2 8211   6.341   6.691   6.110
 2438SOL     OW 8212   3.296   2.488   0.916
 2438SOL    HW1 8213   3.282   2.585   0.938
 2438SOL    HW2 8214   3.228   2.433   0.965
 2439SOL     OW 8215   0.081   4.402   5.930
 2439SOL    HW1 8216   0.180   4.405   5.945
 2439SOL    HW2 8217   0.035   4.452   6.004
 2440SOL     OW 8218   5.100   5.168   5.634
 2440SOL    HW1 8219   5.066   5.250   5.680
 2440SOL    HW2 8220   5.088   5.088   5.694
 2441SOL     OW 8221   7.006   2.071   0.825
 2441SOL    HW1 8222   6.909   2.062   0.801
 2441SOL    HW2 8223   0.001   2.164   0.857
 2442SOL     OW 8224   1.290   3.536   5.351
 2442SOL    HW1 8225   1.334   3.594   5.283
 2442SOL    HW2 8226   1.307   3.573   5.443
 2443SOL     OW 8227   2.941   3.755   6.487
 2443SOL    HW1 8228   2.952   3.854   6.488
 2443SOL    HW2 8229   2.882   3.729   6.410
 2444SOL     OW 8230   2.350   4.632   6.113
 2444SOL    HW1 8231   2.407   4.557   6.147
 2444SOL    HW2 8232   2.361   4.641   6.014
 2445SOL     OW 8233   0.412   1.038   0.803
 2445SOL    HW1 8234   0.326   1.060   0.757
 2445SOL    HW2 8235   0.483   1.022   0.735
 2446SOL     OW 8236   6.188   4.417   4.721
 2446SOL    HW1 8237   6.144   4.329   4.708
 2446SOL    HW2 8238   6.126   4.480   4.769
 2447SOL     OW 8239   1.354   1.892   0.586
 2447SOL    HW1 8240   1.297   1.810   0.577
 2447SOL    HW2 8241   1.436   1.882   0.530
 2448SOL     OW 8242   0.774   6.927   4.921
 2448SOL    HW1 8243   0.828   6.939   4.838
 2448SOL    HW2 8244   0.716   6.846   4.911
 2449SOL     OW 8245   6.984   3.799   6.678
 2449SOL    HW1 8246   6.934   3.715   6.658
 2449SOL    HW2 8247   0.013   3.828   6.597
 2450SOL     OW 8248   2.552   4.550   2.940
 2450SOL    HW1 8249   2.516   4.504   3.021
 2450SOL    HW2 8250   2.488   4.540   2.864
 2451SOL     OW 8251   2.232   5.860   3.664
 2451SOL    HW1 8252   2.194   5.850   3.572
 2451SOL    HW2 8253   2.324   5.821   3.667
 2452SOL     OW 8254   1.151   3.018   2.967
 2452SOL    HW1 8255   1.150   2.919   2.981
 2452SOL    HW2 8256   1.238   3.055   2.998
 2453SOL     OW 8257   6.517   5.060   1.623
 2453SOL    HW1 8258   6.427   5.026   1.650
 2453SOL    HW2 8259   6.565   4.990   1.570
 2454SOL     OW 8260   3.361   0.465   1.638
 2454SOL    HW1 8261   3.271   0.434   1.607
 2454SOL    HW2 8262   3.392   0.407   1.713
 2455SOL     OW 8263   4.924   5.789   0.435
 2455SOL    HW1 8264   4.904   5.886   0.418
 2455SOL    HW2 8265   4.906   5.767   0.530
 2456SOL     OW 8266   4.849   6.022   1.700
 2456SOL    HW1 8267   4.872   6.031   1.797
 2456SOL    HW2 8268   4.820   6.110   1.664
 2457SOL     OW 8269   5.371   6.532   1.501
 2457SOL    HW1 8270   5.298   6.507   1.437
 2457SOL    HW2 8271   5.454   6.556   1.450
 2458SOL     OW 8272   1.225   5.120   2.806
 2458SOL    HW1 8273   1.223   5.215   2.836
 2458SOL    HW2 8274   1.143   5.101   2.752
 2459SOL     OW 8275   2.155   0.663   0.524
 2459SOL    HW1 8276   2.113   0.572   0.518
 2459SOL    HW2 8277   2.129   0.706   0.611
 2460SOL     OW 8278   3.258   5.868   1.493
 2460SOL    HW1 8279   3.242   5.792   1.556
 2460SOL    HW2 8280   3.208   5.949   1.524
 2461SOL     OW 8281   5.320   0.590   2.012
 2461SOL    HW1 8282   5.323   0.590   1.912
 2461SOL    HW2 8283   5.347   0.500   2.046
 2462SOL     OW 8284   2.182   5.514   6.493
 2462SOL    HW1 8285   2.265   5.515   6.437
 2462SOL    HW2 8286   2.157   5.420   6.514
 2463SOL     OW 8287   6.109   2.011   3.277
 2463SOL    HW1 8288   6.012   2.017   3.301
 2463SOL    HW2 8289   6.135   1.915   3.266
 2464SOL     OW 8290   1.081   3.346   1.208
 2464SOL    HW1 8291   1.159   3.293   1.240
 2464SOL    HW2 8292   1.004   3.285   1.188
 2465SOL     OW 8293   6.609   6.073   3.280
 2465SOL    HW1 8294   6.704   6.094   3.257
 2465SOL    HW2 8295   6.595   5.974   3.278
 2466SOL     OW 8296   3.418   1.623   2.379
 2466SOL    HW1 8297   3.506   1.637   2.424
 2466SOL    HW2 8298   3.349   1.682   2.421
 2467SOL     OW 8299   6.628   1.008   5.935
 2467SOL    HW1 8300   6.605   1.090   5.988
 2467SOL    HW2 8301   6.724   1.011   5.909
 2468SOL     OW 8302   0.120   5.160   1.134
 2468SOL    HW1 8303   0.196   5.118   1.184
 2468SOL    HW2 8304   0.049   5.188   1.198
 2469SOL     OW 8305   2.477   2.990   5.570
 2469SOL    HW1 8306   2.509   2.914   5.625
 2469SOL    HW2 8307   2.410   2.957   5.503
 2470SOL     OW 8308   4.812   2.657   0.302
 2470SOL    HW1 8309   4.830   2.601   0.221
 2470SOL    HW2 8310   4.742   2.613   0.358
 2471SOL     OW 8311   1.008   6.932   3.129
 2471SOL    HW1 8312   0.936   6.965   3.069
 2471SOL    HW2 8313   1.082   6.894   3.075
 2472SOL     OW 8314   5.633   1.822   3.658
 2472SOL    HW1 8315   5.630   1.890   3.585
 2472SOL    HW2 8316   5.567   1.749   3.639
 2473SOL     OW 8317   0.927   5.988   4.277
 2473SOL    HW1 8318   0.846   6.039   4.307
 2473SOL    HW2 8319   0.983   6.048   4.219
 2474SOL     OW 8320   6.980   4.378   5.153
 2474SOL    HW1 8321   6.903   4.330   5.111
 2474SOL    HW2 8322   0.011   4.313   5.208
 2475SOL     OW 8323   4.892   2.534   0.047
 2475SOL    HW1 8324   4.975   2.479   0.041
 2475SOL    HW2 8325   4.855   2.549   6.978
 2476SOL     OW 8326   1.254   1.845   4.420
 2476SOL    HW1 8327   1.176   1.891   4.377
 2476SOL    HW2 8328   1.314   1.913   4.462
 2477SOL     OW 8329   4.828   4.988   1.026
 2477SOL    HW1 8330   4.748   4.929   1.027
 2477SOL    HW2 8331   4.878   4.978   1.112
 2478SOL     OW 8332   6.782   6.983   2.957
 2478SOL    HW1 8333   6.796   6.940   3.046
 2478SOL    HW2 8334   6.684   7.002   2.944
 2479SOL     OW 8335   0.028   3.115   0.365
 2479SOL    HW1 8336   0.128   3.116   0.357
 2479SOL    HW2 8337   7.018   3.206   0.390
 2480SOL     OW 8338   0.155   3.402   1.349
 2480SOL    HW1 8339   0.199   3.414   1.438
 2480SOL    HW2 8340   0.214   3.438   1.277
 2481SOL     OW 8341   4.337   4.945   2.178
 2481SOL    HW1 8342   4.397   4.919   2.102
 2481SOL    HW2 8343   4.290   4.864   2.213
 2482SOL     OW 8344   4.746   2.208   4.651
 2482SOL    HW1 8345   4.757   2.108   4.648
 2482SOL    HW2 8346   4.776   2.247   4.564
 2483SOL     OW 8347   0.936   2.181   6.447
 2483SOL    HW1 8348   1.015   2.122   6.433
 2483SOL    HW2 8349   0.852   2.128   6.435
 2484SOL     OW 8350   3.339   2.063   6.376
 2484SOL    HW1 8351   3.283   2.144   6.360
 2484SOL    HW2 8352   3.432   2.092   6.400
 2485SOL     OW 8353   0.027   5.833   2.248
 2485SOL    HW1 8354   0.093   5.782   2.193
 2485SOL    HW2 8355   0.020   5.926   2.213
 2486SOL     OW 8356   1.321   5.284   3.229
 2486SOL    HW1 8357   1.274   5.372   3.226
 2486SOL    HW2 8358   1.254   5.210   3.226
 2487SOL     OW 8359   3.578   1.192   0.988
 2487SOL    HW1 8360   3.547   1.259   0.921
 2487SOL    HW2 8361   3.503   1.169   1.049
 2488SOL     OW 8362   2.822   6.226   0.283
 2488SOL    HW1 8363   2.830   6.232   0.183
 2488SOL    HW2 8364   2.744   6.167   0.306
 2489SOL     OW 8365   0.765   5.325   4.841
 2489SOL    HW1 8366   0.745   5.245   4.783
 2489SOL    HW2 8367   0.679   5.371   4.864
 2490SOL     OW 8368   4.958   3.321   1.452
 2490SOL    HW1 8369   5.023   3.245   1.457
 2490SOL    HW2 8370   5.003   3.406   1.479
 2491SOL     OW 8371   1.918   4.828   2.189
 2491SOL    HW1 8372   1.955   4.741   2.223
 2491SOL    HW2 8373   1.916   4.827   2.089
 2492SOL     OW 8374   4.212   3.198   6.623
 2492SOL    HW1 8375   4.153   3.216   6.701
 2492SOL    HW2 8376   4.171   3.236   6.540
 2493SOL     OW 8377   6.492   1.983   3.347
 2493SOL    HW1 8378   6.491   1.913   3.276
 2493SOL    HW2 8379   6.585   2.021   3.354
 2494SOL     OW 8380   4.971   3.488   2.193
 2494SOL    HW1 8381   4.965   3.395   2.156
 2494SOL    HW2 8382   4.973   3.554   2.118
 2495SOL     OW 8383   6.017   1.188   4.675
 2495SOL    HW1 8384   5.964   1.233   4.747
 2495SOL    HW2 8385   6.104   1.235   4.663
 2496SOL     OW 8386   1.193   6.305   0.393
 2496SOL    HW1 8387   1.199   6.218   0.343
 2496SOL    HW2 8388   1.209   6.380   0.330
 2497SOL     OW 8389   5.673   1.818   6.036
 2497SOL    HW1 8390   5.651   1.842   5.941
 2497SOL    HW2 8391   5.590   1.788   6.083
 2498SOL     OW 8392   1.731   3.578   4.896
 2498SOL    HW1 8393   1.633   3.592   4.881
 2498SOL    HW2 8394   1.745   3.547   4.990
 2499SOL     OW 8395   5.969   0.043   5.185
 2499SOL    HW1 8396   6.036   0.026   5.114
 2499SOL    HW2 8397   5.999   0.000   5.270
 2500SOL     OW 8398   4.398   3.487   6.760
 2500SOL    HW1 8399   4.357   3.525   6.843
 2500SOL    HW2 8400   4.478   3.431   6.785
 2501SOL     OW 8401   6.759   4.537   0.016
 2501SOL    HW1 8402   6.726   4.443   0.029
 2501SOL    HW2 8403   6.819   4.540   6.958
 2502SOL     OW 8404   2.354   6.341   3.670
 2502SOL    HW1 8405   2.294   6.340   3.589
 2502SOL    HW2 8406   2.325   6.268   3.733
 2503SOL     OW 8407   4.581   5.028   4.766
 2503SOL    HW1 8408   4.546   5.079   4.845
 2503SOL    HW2 8409   4.680   5.017   4.774
 2504SOL     OW 8410   1.609   4.270   3.943
 2504SOL    HW1 8411   1.703   4.298   3.925
 2504SOL    HW2 8412   1.550   4.350   3.948
 2505SOL     OW 8413   4.793   5.785   3.948
 2505SOL    HW1 8414   4.716   5.721   3.956
 2505SOL    HW2 8415   4.879   5.736   3.959
 2506SOL     OW 8416   0.272   2.000   6.645
 2506SOL    HW1 8417   0.337   2.037   6.578
 2506SOL    HW2 8418   0.311   1.918   6.688
 2507SOL     OW 8419   6.869   6.022   0.372
 2507SOL    HW1 8420   6.790   6.034   0.312
 2507SOL    HW2 8421   6.889   6.109   0.418
 2508SOL     OW 8422   2.168   2.353   2.866
 2508SOL    HW1 8423   2.111   2.359   2.784
 2508SOL    HW2 8424   2.160   2.262   2.906
 2509SOL     OW 8425   4.965   2.548   3.708
 2509SOL    HW1 8426   4.889   2.484   3.721
 2509SOL    HW2 8427   5.003   2.536   3.616
 2510SOL     OW 8428   3.993   5.992   0.816
 2510SOL    HW1 8429   3.896   6.005   0.835
 2510SOL    HW2 8430   4.047   6.053   0.873
 2511SOL     OW 8431   1.632   0.032   4.944
 2511SOL    HW1 8432   1.572   0.100   4.902
 2511SOL    HW2 8433   1.579   6.972   4.965
 2512SOL     OW 8434   4.908   3.252   4.995
 2512SOL    HW1 8435   4.845   3.330   4.996
 2512SOL    HW2 8436   4.939   3.236   4.901
 2513SOL     OW 8437   0.611   3.686   0.623
 2513SOL    HW1 8438   0.692   3.636   0.594
 2513SOL    HW2 8439   0.604   3.772   0.572
 2514SOL     OW 8440   1.607   1.023   3.603
 2514SOL    HW1 8441   1.626   1.121   3.594
 2514SOL    HW2 8442   1.587   1.002   3.699
 2515SOL     OW 8443   0.934   5.271   0.281
 2515SOL    HW1 8444   1.017   5.222   0.256
 2515SOL    HW2 8445   0.958   5.364   0.311
 2516SOL     OW 8446   5.424   6.172   3.885
 2516SOL    HW1 8447   5.369   6.089   3.892
 2516SOL    HW2 8448   5.466   6.191   3.974
 2517SOL     OW 8449   2.483   4.948   0.191
 2517SOL    HW1 8450   2.431   4.893   0.256
 2517SOL    HW2 8451   2.569   4.902   0.170
 2518SOL     OW 8452   2.459   2.260   6.450
 2518SOL    HW1 8453   2.556   2.236   6.437
 2518SOL    HW2 8454   2.446   2.298   6.542
 2519SOL     OW 8455   4.811   3.950   4.240
 2519SOL    HW1 8456   4.880   3.879   4.254
 2519SOL    HW2 8457   4.788   3.991   4.329
 2520SOL     OW 8458   2.112   4.330   2.233
 2520SOL    HW1 8459   2.195   4.303   2.183
 2520SOL    HW2 8460   2.057   4.249   2.252
 2521SOL     OW 8461   5.678   6.418   5.027
 2521SOL    HW1 8462   5.690   6.365   4.942
 2521SOL    HW2 8463   5.699   6.514   5.009
 2522SOL     OW 8464   1.102   3.165   4.854
 2522SOL    HW1 8465   1.078   3.173   4.950
 2522SOL    HW2 8466   1.137   3.253   4.821
 2523SOL     OW 8467   0.364   3.050   6.830
 2523SOL    HW1 8468   0.291   3.058   6.898
 2523SOL    HW2 8469   0.325   3.063   6.739
 2524SOL     OW 8470   0.835   6.664   5.320
 2524SOL    HW1 8471   0.755   6.681   5.262
 2524SOL    HW2 8472   0.883   6.582   5.288
 2525SOL     OW 8473   1.690   3.672   3.279
 2525SOL    HW1 8474   1.711   3.588   3.329
 2525SOL    HW2 8475   1.759   3.687   3.208
 2526SOL     OW 8476   6.849   1.293   5.294
 2526SOL    HW1 8477   6.864   1.195   5.301
 2526SOL    HW2 8478   6.760   1.317   5.332
 2527SOL     OW 8479   6.348   6.523   4.042
 2527SOL    HW1 8480   6.260   6.568   4.025
 2527SOL    HW2 8481   6.407   6.585   4.093
 2528SOL     OW 8482   6.358   5.781   0.497
 2528SOL    HW1 8483   6.316   5.744   0.415
 2528SOL    HW2 8484   6.446   5.823   0.474
 2529SOL     OW 8485   4.948   3.782   4.634
 2529SOL    HW1 8486   4.972   3.685   4.640
 2529SOL    HW2 8487   4.906   3.811   4.720
 2530SOL     OW 8488   0.226   0.852   4.356
 2530SOL    HW1 8489   0.145   0.803   4.385
 2530SOL    HW2 8490   0.207   0.951   4.355
 2531SOL     OW 8491   4.519   1.450   6.565
 2531SOL    HW1 8492   4.554   1.369   6.518
 2531SOL    HW2 8493   4.496   1.426   6.660
 2532SOL     OW 8494   1.582   4.519   6.347
 2532SOL    HW1 8495   1.678   4.494   6.332
 2532SOL    HW2 8496   1.544   4.555   6.262
 2533SOL     OW 8497   5.869   6.769   5.513
 2533SOL    HW1 8498   5.956   6.779   5.465
 2533SOL    HW2 8499   5.831   6.678   5.495
 2534SOL     OW 8500   0.815   2.272   4.069
 2534SOL    HW1 8501   0.914   2.277   4.087
 2534SOL    HW2 8502   0.799   2.214   3.990
 2535SOL     OW 8503   1.851   1.054   2.937
 2535SOL    HW1 8504   1.918   0.983   2.959
 2535SOL    HW2 8505   1.897   1.142   2.926
 2536SOL     OW 8506   6.336   0.798   3.773
 2536SOL    HW1 8507   6.410   0.740   3.806
 2536SOL    HW2 8508   6.287   0.838   3.850
 2537SOL     OW 8509   4.338   5.267   1.422
 2537SOL    HW1 8510   4.424   5.297   1.381
 2537SOL    HW2 8511   4.262   5.287   1.359
 2538SOL     OW 8512   2.029   4.371   4.999
 2538SOL    HW1 8513   1.953   4.432   4.976
 2538SOL    HW2 8514   2.036   4.362   5.098
 2539SOL     OW 8515   2.574   0.297   5.234
 2539SOL    HW1 8516   2.570   0.390   5.196
 2539SOL    HW2 8517   2.631   0.240   5.175
 2540SOL     OW 8518   5.735   2.087   2.360
 2540SOL    HW1 8519   5.654   2.048   2.404
 2540SOL    HW2 8520   5.795   2.014   2.329
 2541SOL     OW 8521   1.190   6.527   5.987
 2541SOL    HW1 8522   1.159   6.452   5.929
 2541SOL    HW2 8523   1.272   6.568   5.947
 2542SOL     OW 8524   3.878   1.858   4.242
 2542SOL    HW1 8525   3.847   1.851   4.148
 2542SOL    HW2 8526   3.817   1.918   4.294
 2543SOL     OW 8527   0.429   1.977   4.652
 2543SOL    HW1 8528   0.384   2.059   4.616
 2543SOL    HW2 8529   0.471   1.998   4.741
 2544SOL     OW 8530   6.490   5.595   2.094
 2544SOL    HW1 8531   6.499   5.620   1.998
 2544SOL    HW2 8532   6.581   5.581   2.134
 2545SOL     OW 8533   6.777   1.843   1.120
 2545SOL    HW1 8534   6.707   1.850   1.049
 2545SOL    HW2 8535   6.867   1.841   1.077
 2546SOL     OW 8536   6.724   4.158   2.817
 2546SOL    HW1 8537   6.804   4.193   2.866
 2546SOL    HW2 8538   6.698   4.224   2.746
 2547SOL     OW 8539   6.114   3.523   1.113
 2547SOL    HW1 8540   6.022   3.558   1.095
 2547SOL    HW2 8541   6.169   3.528   1.030
 2548SOL     OW 8542   0.170   6.740   5.643
 2548SOL    HW1 8543   0.212   6.821   5.685
 2548SOL    HW2 8544   0.215   6.719   5.557
 2549SOL     OW 8545   2.692   2.695   0.756
 2549SOL    HW1 8546   2.705   2.597   0.770
 2549SOL    HW2 8547   2.757   2.728   0.688
 2550SOL     OW 8548   4.096   6.475   6.121
 2550SOL    HW1 8549   4.046   6.436   6.044
 2550SOL    HW2 8550   4.037   6.539   6.171
 2551SOL     OW 8551   3.002   5.397   0.782
 2551SOL    HW1 8552   3.001   5.490   0.746
 2551SOL    HW2 8553   3.006   5.332   0.707
 2552SOL     OW 8554   2.409   6.177   1.248
 2552SOL    HW1 8555   2.475   6.143   1.182
 2552SOL    HW2 8556   2.358   6.100   1.287
 2553SOL     OW 8557   4.482   1.323   6.806
 2553SOL    HW1 8558   4.553   1.387   6.835
 2553SOL    HW2 8559   4.480   1.244   6.866
 2554SOL     OW 8560   1.599   5.952   1.973
 2554SOL    HW1 8561   1.632   5.963   1.879
 2554SOL    HW2 8562   1.674   5.969   2.037
 2555SOL     OW 8563   5.490   6.692   5.242
 2555SOL    HW1 8564   5.510   6.620   5.309
 2555SOL    HW2 8565   5.459   6.650   5.157
 2556SOL     OW 8566   4.190   1.070   0.450
 2556SOL    HW1 8567   4.171   1.112   0.361
 2556SOL    HW2 8568   4.129   0.993   0.465
 2557SOL     OW 8569   3.358   0.232   6.889
 2557SOL    HW1 8570   3.355   0.132   6.886
 2557SOL    HW2 8571   3.445   0.264   6.853
 2558SOL     OW 8572   5.590   3.785   6.706
 2558SOL    HW1 8573   5.657   3.714   6.688
 2558SOL    HW2 8574   5.565   3.783   6.803
 2559SOL     OW 8575   1.228   4.547   4.861
 2559SOL    HW1 8576   1.306   4.552   4.798
 2559SOL    HW2 8577   1.157   4.489   4.821
 2560SOL     OW 8578   5.057   2.186   3.550
 2560SOL    HW1 8579   4.973   2.137   3.571
 2560SOL    HW2 8580   5.120   2.179   3.627
 2561SOL     OW 8581   3.701   0.552   4.150
 2561SOL    HW1 8582   3.750   0.578   4.234
 2561SOL    HW2 8583   3.748   0.591   4.071
 2562SOL     OW 8584   3.887   6.303   3.749
 2562SOL    HW1 8585   3.812   6.262   3.800
 2562SOL    HW2 8586   3.960   6.330   3.813
 2563SOL     OW 8587   3.591   1.837   0.196
 2563SOL    HW1 8588   3.493   1.815   0.203
 2563SOL    HW2 8589   3.617   1.895   0.273
 2564SOL     OW 8590   2.630   2.045   0.408
 2564SOL    HW1 8591   2.648   1.949   0.431
 2564SOL    HW2 8592   2.607   2.052   0.311
 2565SOL     OW 8593   1.192   2.070   0.186
 2565SOL    HW1 8594   1.278   2.021   0.171
 2565SOL    HW2 8595   1.209   2.169   0.181
 2566SOL     OW 8596   2.421   0.848   0.995
 2566SOL    HW1 8597   2.445   0.929   0.942
 2566SOL    HW2 8598   2.487   0.775   0.977
 2567SOL     OW 8599   1.808   0.561   0.163
 2567SOL    HW1 8600   1.825   0.529   0.256
 2567SOL    HW2 8601   1.746   0.497   0.117
 2568SOL     OW 8602   3.104   6.250   0.845
 2568SOL    HW1 8603   3.173   6.191   0.804
 2568SOL    HW2 8604   3.104   6.339   0.799
 2569SOL     OW 8605   1.393   6.986   1.101
 2569SOL    HW1 8606   1.441   6.932   1.170
 2569SOL    HW2 8607   1.373   6.929   1.022
 2570SOL     OW 8608   6.563   6.939   5.844
 2570SOL    HW1 8609   6.479   6.900   5.804
 2570SOL    HW2 8610   6.638   6.875   5.831
 2571SOL     OW 8611   3.524   3.062   3.970
 2571SOL    HW1 8612   3.605   3.073   4.028
 2571SOL    HW2 8613   3.442   3.078   4.024
 2572SOL     OW 8614   1.776   6.480   1.862
 2572SOL    HW1 8615   1.700   6.440   1.810
 2572SOL    HW2 8616   1.846   6.410   1.877
 2573SOL     OW 8617   0.107   2.101   4.186
 2573SOL    HW1 8618   0.084   2.192   4.221
 2573SOL    HW2 8619   0.039   2.035   4.219
 2574SOL     OW 8620   0.742   3.984   2.114
 2574SOL    HW1 8621   0.647   3.962   2.095
 2574SOL    HW2 8622   0.800   3.905   2.093
 2575SOL     OW 8623   6.109   3.519   0.412
 2575SOL    HW1 8624   6.130   3.432   0.456
 2575SOL    HW2 8625   6.091   3.588   0.483
 2576SOL     OW 8626   2.113   0.330   3.840
 2576SOL    HW1 8627   2.026   0.368   3.873
 2576SOL    HW2 8628   2.162   0.289   3.917
 2577SOL     OW 8629   2.733   6.154   2.063
 2577SOL    HW1 8630   2.657   6.154   2.128
 2577SOL    HW2 8631   2.818   6.180   2.110
 2578SOL     OW 8632   4.812   2.047   3.909
 2578SOL    HW1 8633   4.725   2.093   3.889
 2578SOL    HW2 8634   4.842   2.070   4.002
 2579SOL     OW 8635   6.865   2.219   6.558
 2579SOL    HW1 8636   6.929   2.245   6.486
 2579SOL    HW2 8637   6.878   2.123   6.581
 2580SOL     OW 8638   1.516   2.619   6.224
 2580SOL    HW1 8639   1.442   2.554   6.241
 2580SOL    HW2 8640   1.572   2.587   6.148
 2581SOL     OW 8641   6.569   6.716   4.066
 2581SOL    HW1 8642   6.636   6.673   4.126
 2581SOL    HW2 8643   6.616   6.775   4.000
 2582SOL     OW 8644   0.518   5.502   2.691
 2582SOL    HW1 8645   0.501   5.543   2.781
 2582SOL    HW2 8646   0.616   5.483   2.681
 2583SOL     OW 8647   1.862   0.704   0.455
 2583SOL    HW1 8648   1.786   0.767   0.440
 2583SOL    HW2 8649   1.944   0.757   0.479
 2584SOL     OW 8650   4.948   6.930   2.015
 2584SOL    HW1 8651   5.040   6.935   2.054
 2584SOL    HW2 8652   4.880   6.944   2.087
 2585SOL     OW 8653   3.783   0.871   1.502
 2585SOL    HW1 8654   3.868   0.921   1.516
 2585SOL    HW2 8655   3.740   0.853   1.590
 2586SOL     OW 8656   6.612   2.495   4.244
 2586SOL    HW1 8657   6.666   2.448   4.174
 2586SOL    HW2 8658   6.522   2.452   4.252
 2587SOL     OW 8659   5.674   6.468   3.147
 2587SOL    HW1 8660   5.618   6.482   3.228
 2587SOL    HW2 8661   5.644   6.386   3.099
 2588SOL     OW 8662   5.475   1.333   1.381
 2588SOL    HW1 8663   5.402   1.297   1.439
 2588SOL    HW2 8664   5.545   1.376   1.438
 2589SOL     OW 8665   6.612   6.647   0.102
 2589SOL    HW1 8666   6.609   6.657   0.202
 2589SOL    HW2 8667   6.707   6.642   0.072
 2590SOL     OW 8668   4.233   6.680   2.604
 2590SOL    HW1 8669   4.140   6.712   2.625
 2590SOL    HW2 8670   4.229   6.583   2.578
 2591SOL     OW 8671   5.781   0.209   1.399
 2591SOL    HW1 8672   5.723   0.290   1.391
 2591SOL    HW2 8673   5.864   0.222   1.345
 2592SOL     OW 8674   3.707   5.956   1.686
 2592SOL    HW1 8675   3.671   5.867   1.660
 2592SOL    HW2 8676   3.699   6.020   1.610
 2593SOL     OW 8677   3.030   6.220   2.675
 2593SOL    HW1 8678   3.031   6.125   2.708
 2593SOL    HW2 8679   3.030   6.282   2.753
 2594SOL     OW 8680   1.190   6.507   6.258
 2594SOL    HW1 8681   1.164   6.497   6.162
 2594SOL    HW2 8682   1.126   6.570   6.303
 2595SOL     OW 8683   6.255   3.559   3.831
 2595SOL    HW1 8684   6.280   3.627   3.900
 2595SOL    HW2 8685   6.187   3.599   3.769
 2596SOL     OW 8686   3.934   2.091   2.083
 2596SOL    HW1 8687   3.995   2.124   2.011
 2596SOL    HW2 8688   3.846   2.137   2.076
 2597SOL     OW 8689   2.382   3.003   0.008
 2597SOL    HW1 8690   2.340   3.093   7.015
 2597SOL    HW2 8691   2.312   2.933   0.007
 2598SOL     OW 8692   6.826   3.146   2.988
 2598SOL    HW1 8693   6.827   3.236   3.032
 2598SOL    HW2 8694   6.830   3.075   3.059
 2599SOL     OW 8695   4.346   5.286   0.004
 2599SOL    HW1 8696   4.343   5.200   0.056
 2599SOL    HW2 8697   4.439   5.301   6.992
 2600SOL     OW 8698   6.629   3.559   3.351
 2600SOL    HW1 8699   6.554   3.533   3.411
 2600SOL    HW2 8700   6.683   3.632   3.395
 2601SOL     OW 8701   3.841   3.189   5.915
 2601SOL    HW1 8702   3.764   3.155   5.860
 2601SOL    HW2 8703   3.887   3.263   5.866
 2602SOL     OW 8704   6.415   5.751   4.696
 2602SOL    HW1 8705   6.356   5.829   4.716
 2602SOL    HW2 8706   6.490   5.747   4.762
 2603SOL     OW 8707   2.993   3.023   1.399
 2603SOL    HW1 8708   2.975   3.117   1.370
 2603SOL    HW2 8709   3.065   3.022   1.469
 2604SOL     OW 8710   6.228   0.507   1.180
 2604SOL    HW1 8711   6.254   0.549   1.094
 2604SOL    HW2 8712   6.248   0.409   1.176
 2605SOL     OW 8713   4.506   4.901   4.412
 2605SOL    HW1 8714   4.599   4.913   4.447
 2605SOL    HW2 8715   4.441   4.901   4.488
 2606SOL     OW 8716   0.079   4.544   0.641
 2606SOL    HW1 8717   0.076   4.454   0.686
 2606SOL    HW2 8718   7.013   4.563   0.600
 2607SOL     OW 8719   0.552   1.664   4.461
 2607SOL    HW1 8720   0.529   1.567   4.453
 2607SOL    HW2 8721   0.652   1.675   4.458
 2608SOL     OW 8722   5.080   0.732   1.231
 2608SOL    HW1 8723   5.135   0.759   1.152
 2608SOL    HW2 8724   5.140   0.710   1.308
 2609SOL     OW 8725   0.825   2.305   3.431
 2609SOL    HW1 8726   0.729   2.308   3.404
 2609SOL    HW2 8727   0.883   2.319   3.351
 2610SOL     OW 8728   6.031   5.539   4.807
 2610SOL    HW1 8729   5.949   5.511   4.757
 2610SOL    HW2 8730   6.105   5.557   4.742
 2611SOL     OW 8731   3.981   6.026   1.556
 2611SOL    HW1 8732   4.014   5.997   1.646
 2611SOL    HW2 8733   4.021   5.968   1.486
 2612SOL     OW 8734   6.367   6.767   4.246
 2612SOL    HW1 8735   6.377   6.807   4.337
 2612SOL    HW2 8736   6.450   6.786   4.193
 2613SOL     OW 8737   4.061   0.413   1.874
 2613SOL    HW1 8738   4.062   0.490   1.810
 2613SOL    HW2 8739   4.143   0.357   1.859
 2614SOL     OW 8740   0.123   6.708   6.820
 2614SOL    HW1 8741   0.160   6.651   6.747
 2614SOL    HW2 8742   0.072   6.650   6.884
 2615SOL     OW 8743   5.376   5.013   2.054
 2615SOL    HW1 8744   5.467   4.983   2.083
 2615SOL    HW2 8745   5.376   5.113   2.044
 2616SOL     OW 8746   4.062   3.174   3.033
 2616SOL    HW1 8747   3.969   3.178   3.069
 2616SOL    HW2 8748   4.120   3.124   3.097
 2617SOL     OW 8749   4.018   0.063   1.271
 2617SOL    HW1 8750   4.103   0.095   1.313
 2617SOL    HW2 8751   3.975   0.139   1.222
 2618SOL     OW 8752   0.998   0.508   0.987
 2618SOL    HW1 8753   1.093   0.531   1.007
 2618SOL    HW2 8754   0.944   0.511   1.072
 2619SOL     OW 8755   4.718   2.368   1.551
 2619SOL    HW1 8756   4.797   2.396   1.497
 2619SOL    HW2 8757   4.720   2.269   1.564
 2620SOL     OW 8758   1.535   3.975   4.430
 2620SOL    HW1 8759   1.557   3.878   4.424
 2620SOL    HW2 8760   1.551   4.019   4.342
 2621SOL     OW 8761   0.871   5.384   3.697
 2621SOL    HW1 8762   0.872   5.307   3.761
 2621SOL    HW2 8763   0.844   5.467   3.746
 2622SOL     OW 8764   2.325   2.845   6.773
 2622SOL    HW1 8765   2.317   2.910   6.698
 2622SOL    HW2 8766   2.368   2.761   6.740
 2623SOL     OW 8767   2.925   0.709   5.653
 2623SOL    HW1 8768   2.943   0.721   5.556
 2623SOL    HW2 8769   2.965   0.785   5.704
 2624SOL     OW 8770   6.225   1.555   3.410
 2624SOL    HW1 8771   6.148   1.495   3.434
 2624SOL    HW2 8772   6.193   1.625   3.347
 2625SOL     OW 8773   3.656   1.443   5.485
 2625SOL    HW1 8774   3.693   1.500   5.412
 2625SOL    HW2 8775   3.591   1.378   5.446
 2626SOL     OW 8776   2.145   6.671   2.761
 2626SOL    HW1 8777   2.190   6.681   2.850
 2626SOL    HW2 8778   2.125   6.761   2.723
 2627SOL     OW 8779   6.775   0.178   4.452
 2627SOL    HW1 8780   6.703   0.247   4.446
 2627SOL    HW2 8781   6.828   0.179   4.367
 2628SOL     OW 8782   3.930   6.064   6.455
 2628SOL    HW1 8783   4.019   6.038   6.416
 2628SOL    HW2 8784   3.900   6.151   6.417
 2629SOL     OW 8785   3.607   4.131   1.137
 2629SOL    HW1 8786   3.691   4.136   1.192
 2629SOL    HW2 8787   3.528   4.152   1.194
 2630SOL     OW 8788   2.816   2.223   2.515
 2630SOL    HW1 8789   2.788   2.264   2.429
 2630SOL    HW2 8790   2.916   2.224   2.522
 2631SOL     OW 8791   4.918   6.221   4.333
 2631SOL    HW1 8792   4.889   6.220   4.237
 2631SOL    HW2 8793   5.015   6.199   4.339
 2632SOL     OW 8794   3.792   2.425   0.381
 2632SOL    HW1 8795   3.820   2.516   0.352
 2632SOL    HW2 8796   3.866   2.360   0.362
 2633SOL     OW 8797   5.597   2.041   6.788
 2633SOL    HW1 8798   5.579   2.139   6.785
 2633SOL    HW2 8799   5.641   2.018   6.874
 2634SOL     OW 8800   2.303   4.528   0.918
 2634SOL    HW1 8801   2.238   4.540   0.844
 2634SOL    HW2 8802   2.272   4.455   0.979
 2635SOL     OW 8803   5.394   4.543   4.494
 2635SOL    HW1 8804   5.314   4.512   4.545
 2635SOL    HW2 8805   5.450   4.601   4.554
 2636SOL     OW 8806   5.768   0.190   5.299
 2636SOL    HW1 8807   5.829   0.140   5.238
 2636SOL    HW2 8808   5.821   0.254   5.354
 2637SOL     OW 8809   5.952   6.961   2.924
 2637SOL    HW1 8810   5.874   7.017   2.896
 2637SOL    HW2 8811   5.957   6.959   3.024
 2638SOL     OW 8812   5.624   6.273   0.678
 2638SOL    HW1 8813   5.645   6.200   0.743
 2638SOL    HW2 8814   5.616   6.360   0.727
 2639SOL     OW 8815   6.193   5.968   0.585
 2639SOL    HW1 8816   6.266   5.910   0.549
 2639SOL    HW2 8817   6.207   5.983   0.683
 2640SOL     OW 8818   0.110   6.298   5.329
 2640SOL    HW1 8819   0.113   6.305   5.429
 2640SOL    HW2 8820   0.022   6.333   5.296
 2641SOL     OW 8821   5.335   4.742   0.106
 2641SOL    HW1 8822   5.370   4.793   0.183
 2641SOL    HW2 8823   5.248   4.699   0.131
 2642SOL     OW 8824   4.993   6.951   4.184
 2642SOL    HW1 8825   4.918   7.000   4.141
 2642SOL    HW2 8826   5.043   6.898   4.116
 2643SOL     OW 8827   0.802   0.548   2.377
 2643SOL    HW1 8828   0.894   0.566   2.414
 2643SOL    HW2 8829   0.737   0.612   2.417
 2644SOL     OW 8830   0.221   4.439   6.435
 2644SOL    HW1 8831   0.218   4.534   6.402
 2644SOL    HW2 8832   0.314   4.419   6.467
 2645SOL     OW 8833   5.535   5.811   6.127
 2645SOL    HW1 8834   5.490   5.816   6.216
 2645SOL    HW2 8835   5.475   5.765   6.062
 2646SOL     OW 8836   6.612   6.650   6.769
 2646SOL    HW1 8837   6.563   6.735   6.751
 2646SOL    HW2 8838   6.662   6.657   6.856
 2647SOL     OW 8839   3.556   1.774   1.491
 2647SOL    HW1 8840   3.552   1.853   1.430
 2647SOL    HW2 8841   3.582   1.693   1.438
 2648SOL     OW 8842   4.864   0.488   2.101
 2648SOL    HW1 8843   4.910   0.524   2.182
 2648SOL    HW2 8844   4.789   0.428   2.130
 2649SOL     OW 8845   3.513   1.736   6.038
 2649SOL    HW1 8846   3.553   1.795   6.108
 2649SOL    HW2 8847   3.418   1.761   6.023
 2650SOL     OW 8848   0.208   6.308   2.784
 2650SOL    HW1 8849   0.263   6.379   2.827
 2650SOL    HW2 8850   0.264   6.258   2.717
 2651SOL     OW 8851   6.551   1.334   2.847
 2651SOL    HW1 8852   6.645   1.330   2.880
 2651SOL    HW2 8853   6.528   1.429   2.824
 2652SOL     OW 8854   3.488   3.242   2.942
 2652SOL    HW1 8855   3.448   3.329   2.915
 2652SOL    HW2 8856   3.422   3.168   2.927
 2653SOL     OW 8857   6.820   6.178   6.238
 2653SOL    HW1 8858   6.915   6.203   6.221
 2653SOL    HW2 8859   6.785   6.231   6.315
 2654SOL     OW 8860   5.665   3.025   5.743
 2654SOL    HW1 8861   5.722   2.948   5.771
 2654SOL    HW2 8862   5.617   3.061   5.823
 2655SOL     OW 8863   5.128   6.409   4.595
 2655SOL    HW1 8864   5.121   6.309   4.598
 2655SOL    HW2 8865   5.065   6.445   4.526
 2656SOL     OW 8866   5.149   3.211   3.919
 2656SOL    HW1 8867   5.115   3.274   3.850
 2656SOL    HW2 8868   5.072   3.165   3.963
 2657SOL     OW 8869   1.806   3.993   6.941
 2657SOL    HW1 8870   1.789   4.079   6.892
 2657SOL    HW2 8871   1.753   3.920   6.899
 2658SOL     OW 8872   6.285   3.924   6.038
 2658SOL    HW1 8873   6.239   3.968   5.961
 2658SOL    HW2 8874   6.345   3.990   6.083
 2659SOL     OW 8875   0.079   2.504   3.936
 2659SOL    HW1 8876   0.071   2.600   3.961
 2659SOL    HW2 8877   0.008   2.479   3.870
 2660SOL     OW 8878   0.021   2.317   2.657
 2660SOL    HW1 8879   6.968   2.264   2.618
 2660SOL    HW2 8880   0.085   2.342   2.586
 2661SOL     OW 8881   4.289   6.665   1.135
 2661SOL    HW1 8882   4.211   6.699   1.083
 2661SOL    HW2 8883   4.364   6.731   1.130
 2662SOL     OW 8884   3.843   6.419   4.086
 2662SOL    HW1 8885   3.859   6.331   4.131
 2662SOL    HW2 8886   3.777   6.407   4.012
 2663SOL     OW 8887   1.593   4.266   2.857
 2663SOL    HW1 8888   1.681   4.269   2.904
 2663SOL    HW2 8889   1.569   4.358   2.826
 2664SOL     OW 8890   4.038   3.636   2.265
 2664SOL    HW1 8891   3.943   3.649   2.293
 2664SOL    HW2 8892   4.095   3.620   2.345
 2665SOL     OW 8893   3.963   1.287   4.425
 2665SOL    HW1 8894   3.880   1.314   4.375
 2665SOL    HW2 8895   4.028   1.363   4.424
 2666SOL     OW 8896   5.201   4.966   1.126
 2666SOL    HW1 8897   5.184   4.870   1.150
 2666SOL    HW2 8898   5.208   4.975   1.026
 2667SOL     OW 8899   2.412   5.432   4.064
 2667SOL    HW1 8900   2.376   5.491   4.136
 2667SOL    HW2 8901   2.372   5.341   4.071
 2668SOL     OW 8902   0.176   2.893   5.585
 2668SOL    HW1 8903   0.172   2.987   5.552
 2668SOL    HW2 8904   0.162   2.892   5.684
 2669SOL     OW 8905   4.603   4.770   5.184
 2669SOL    HW1 8906   4.518   4.810   5.151
 2669SOL    HW2 8907   4.662   4.842   5.222
 2670SOL     OW 8908   1.392   1.112   6.652
 2670SOL    HW1 8909   1.419   1.208   6.648
 2670SOL    HW2 8910   1.293   1.106   6.667
 2671SOL     OW 8911   2.293   3.549   6.523
 2671SOL    HW1 8912   2.339   3.548   6.434
 2671SOL    HW2 8913   2.335   3.482   6.583
 2672SOL     OW 8914   1.724   5.767   0.950
 2672SOL    HW1 8915   1.645   5.828   0.956
 2672SOL    HW2 8916   1.805   5.821   0.927
 2673SOL     OW 8917   3.378   2.104   2.892
 2673SOL    HW1 8918   3.356   2.120   2.796
 2673SOL    HW2 8919   3.466   2.056   2.898
 2674SOL     OW 8920   5.908   4.838   5.172
 2674SOL    HW1 8921   5.999   4.848   5.134
 2674SOL    HW2 8922   5.893   4.905   5.245
 2675SOL     OW 8923   7.001   4.734   5.801
 2675SOL    HW1 8924   6.978   4.666   5.732
 2675SOL    HW2 8925   0.077   4.742   5.809
 2676SOL     OW 8926   4.265   1.275   1.496
 2676SOL    HW1 8927   4.324   1.346   1.458
 2676SOL    HW2 8928   4.287   1.187   1.455
 2677SOL     OW 8929   2.277   5.015   1.900
 2677SOL    HW1 8930   2.296   5.064   1.985
 2677SOL    HW2 8931   2.363   4.989   1.856
 2678SOL     OW 8932   0.480   5.088   5.843
 2678SOL    HW1 8933   0.499   5.186   5.842
 2678SOL    HW2 8934   0.410   5.068   5.774
 2679SOL     OW 8935   3.104   4.787   1.075
 2679SOL    HW1 8936   3.051   4.755   0.997
 2679SOL    HW2 8937   3.190   4.826   1.042
 2680SOL     OW 8938   1.576   1.748   1.569
 2680SOL    HW1 8939   1.583   1.776   1.473
 2680SOL    HW2 8940   1.579   1.648   1.574
 2681SOL     OW 8941   1.799   2.426   3.256
 2681SOL    HW1 8942   1.804   2.331   3.227
 2681SOL    HW2 8943   1.891   2.464   3.266
 2682SOL     OW 8944   5.649   2.497   2.600
 2682SOL    HW1 8945   5.573   2.551   2.565
 2682SOL    HW2 8946   5.644   2.493   2.700
 2683SOL     OW 8947   1.057   5.988   1.373
 2683SOL    HW1 8948   1.090   5.974   1.280
 2683SOL    HW2 8949   1.114   6.056   1.419
 2684SOL     OW 8950   2.354   6.657   3.377
 2684SOL    HW1 8951   2.261   6.634   3.349
 2684SOL    HW2 8952   2.351   6.734   3.441
 2685SOL     OW 8953   5.481   5.993   4.900
 2685SOL    HW1 8954   5.560   5.984   4.961
 2685SOL    HW2 8955   5.490   5.929   4.825
 2686SOL     OW 8956   2.195   3.092   4.300
 2686SOL    HW1 8957   2.210   3.146   4.383
 2686SOL    HW2 8958   2.161   3.152   4.227
 2687SOL     OW 8959   3.942   5.378   2.573
 2687SOL    HW1 8960   3.910   5.464   2.612
 2687SOL    HW2 8961   3.884   5.303   2.605
 2688SOL     OW 8962   3.799   4.785   6.076
 2688SOL    HW1 8963   3.864   4.735   6.018
 2688SOL    HW2 8964   3.730   4.828   6.018
 2689SOL     OW 8965   0.391   3.003   4.222
 2689SOL    HW1 8966   0.368   2.913   4.185
 2689SOL    HW2 8967   0.368   3.073   4.155
 2690SOL     OW 8968   3.917   3.926   3.797
 2690SOL    HW1 8969   3.823   3.895   3.802
 2690SOL    HW2 8970   3.979   3.847   3.810
 2691SOL     OW 8971   1.575   6.057   2.367
 2691SOL    HW1 8972   1.575   5.957   2.369
 2691SOL    HW2 8973   1.488   6.091   2.401
 2692SOL     OW 8974   0.345   6.440   3.883
 2692SOL    HW1 8975   0.376   6.346   3.870
 2692SOL    HW2 8976   0.423   6.502   3.874
 2693SOL     OW 8977   1.780   3.843   3.569
 2693SOL    HW1 8978   1.873   3.816   3.592
 2693SOL    HW2 8979   1.719   3.765   3.582
 2694SOL     OW 8980   1.844   6.885   3.771
 2694SOL    HW1 8981   1.780   6.884   3.848
 2694SOL    HW2 8982   1.904   6.965   3.778
 2695SOL     OW 8983   4.350   2.374   2.621
 2695SOL    HW1 8984   4.268   2.318   2.610
 2695SOL    HW2 8985   4.409   2.333   2.692
 2696SOL     OW 8986   3.979   3.948   5.278
 2696SOL    HW1 8987   3.885   3.925   5.304
 2696SOL    HW2 8988   3.995   4.046   5.291
 2697SOL     OW 8989   2.763   1.936   3.942
 2697SOL    HW1 8990   2.753   2.019   3.887
 2697SOL    HW2 8991   2.858   1.928   3.974
 2698SOL     OW 8992   1.774   4.106   0.419
 2698SOL    HW1 8993   1.873   4.092   0.425
 2698SOL    HW2 8994   1.752   4.150   0.332
 2699SOL     OW 8995   3.637   6.541   1.433
 2699SOL    HW1 8996   3.615   6.615   1.497
 2699SOL    HW2 8997   3.708   6.483   1.473
 2700SOL     OW 8998   2.101   3.411   2.809
 2700SOL    HW1 8999   2.147   3.358   2.738
 2700SOL    HW2 9000   2.005   3.422   2.785
 2701SOL     OW 9001   3.637   6.967   6.743
 2701SOL    HW1 9002   3.702   6.999   6.674
 2701SOL    HW2 9003   3.640   0.006   6.822
 2702SOL     OW 9004   6.824   0.794   3.698
 2702SOL    HW1 9005   6.745   0.855   3.706
 2702SOL    HW2 9006   6.817   0.743   3.613
 2703SOL     OW 9007   1.699   1.955   2.755
 2703SOL    HW1 9008   1.733   1.941   2.662
 2703SOL    HW2 9009   1.599   1.949   2.755
 2704SOL     OW 9010   2.509   5.098   1.538
 2704SOL    HW1 9011   2.588   5.064   1.487
 2704SOL    HW2 9012   2.509   5.057   1.629
 2705SOL     OW 9013   6.469   5.167   3.254
 2705SOL    HW1 9014   6.424   5.090   3.299
 2705SOL    HW2 9015   6.489   5.143   3.159
 2706SOL     OW 9016   6.492   1.639   1.704
 2706SOL    HW1 9017   6.497   1.577   1.782
 2706SOL    HW2 9018   6.415   1.612   1.646
 2707SOL     OW 9019   2.013   1.155   6.270
 2707SOL    HW1 9020   1.917   1.140   6.248
 2707SOL    HW2 9021   2.052   1.223   6.208
 2708SOL     OW 9022   1.532   2.782   1.429
 2708SOL    HW1 9023   1.511   2.685   1.415
 2708SOL    HW2 9024   1.459   2.838   1.390
 2709SOL     OW 9025   4.540   5.811   0.657
 2709SOL    HW1 9026   4.448   5.811   0.697
 2709SOL    HW2 9027   4.534   5.815   0.558
 2710SOL     OW 9028   0.487   4.201   3.057
 2710SOL    HW1 9029   0.456   4.197   2.962
 2710SOL    HW2 9030   0.528   4.291   3.075
 2711SOL     OW 9031   1.452   0.590   2.353
 2711SOL    HW1 9032   1.419   0.532   2.427
 2711SOL    HW2 9033   1.463   0.536   2.269
 2712SOL     OW 9034   2.937   4.737   0.388
 2712SOL    HW1 9035   2.935   4.778   0.480
 2712SOL    HW2 9036   3.031   4.716   0.363
 2713SOL     OW 9037   2.235   3.292   5.761
 2713SOL    HW1 9038   2.291   3.212   5.782
 2713SOL    HW2 9039   2.283   3.350   5.696
 2714SOL     OW 9040   4.643   0.303   5.950
 2714SOL    HW1 9041   4.603   0.323   6.039
 2714SOL    HW2 9042   4.742   0.318   5.953
 2715SOL     OW 9043   5.640   1.048   6.977
 2715SOL    HW1 9044   5.555   0.996   6.986
 2715SOL    HW2 9045   5.716   0.985   6.963
 2716SOL     OW 9046   0.142   6.309   2.444
 2716SOL    HW1 9047   0.205   6.249   2.492
 2716SOL    HW2 9048   0.104   6.261   2.364
 2717SOL     OW 9049   1.068   0.186   3.075
 2717SOL    HW1 9050   1.117   0.191   2.989
 2717SOL    HW2 9051   1.069   0.091   3.108
 2718SOL     OW 9052   2.403   4.356   3.552
 2718SOL    HW1 9053   2.412   4.455   3.540
 2718SOL    HW2 9054   2.490   4.318   3.584
 2719SOL     OW 9055   4.031   5.148   1.875
 2719SOL    HW1 9056   4.027   5.063   1.821
 2719SOL    HW2 9057   4.102   5.140   1.944
 2720SOL     OW 9058   2.035   6.778   3.576
 2720SOL    HW1 9059   2.103   6.719   3.619
 2720SOL    HW2 9060   1.976   6.817   3.646
 2721SOL     OW 9061   3.526   0.127   4.398
 2721SOL    HW1 9062   3.597   0.152   4.332
 2721SOL    HW2 9063   3.448   0.086   4.350
 2722SOL     OW 9064   1.279   6.337   2.586
 2722SOL    HW1 9065   1.218   6.347   2.665
 2722SOL    HW2 9066   1.344   6.412   2.585
 2723SOL     OW 9067   1.477   1.356   5.570
 2723SOL    HW1 9068   1.511   1.401   5.652
 2723SOL    HW2 9069   1.383   1.385   5.552
 2724SOL     OW 9070   3.940   5.987   6.089
 2724SOL    HW1 9071   4.039   5.986   6.083
 2724SOL    HW2 9072   3.908   5.903   6.134
 2725SOL     OW 9073   4.094   5.089   3.863
 2725SOL    HW1 9074   4.135   5.066   3.952
 2725SOL    HW2 9075   4.156   5.149   3.813
 2726SOL     OW 9076   4.779   5.475   2.254
 2726SOL    HW1 9077   4.721   5.547   2.291
 2726SOL    HW2 9078   4.781   5.398   2.318
 2727SOL     OW 9079   1.352   5.682   2.549
 2727SOL    HW1 9080   1.330   5.587   2.525
 2727SOL    HW2 9081   1.428   5.683   2.614
 2728SOL     OW 9082   3.138   6.880   5.179
 2728SOL    HW1 9083   3.168   6.974   5.190
 2728SOL    HW2 9084   3.049   6.868   5.223
 2729SOL     OW 9085   5.761   5.321   2.437
 2729SOL    HW1 9086   5.726   5.329   2.531
 2729SOL    HW2 9087   5.859   5.303   2.439
 2730SOL     OW 9088   1.799   6.513   1.086
 2730SOL    HW1 9089   1.856   6.563   1.021
 2730SOL    HW2 9090   1.723   6.571   1.116
 2731SOL     OW 9091   2.954   3.806   1.848
 2731SOL    HW1 9092   2.975   3.830   1.942
 2731SOL    HW2 9093   2.984   3.712   1.830
 2732SOL     OW 9094   5.903   1.425   2.166
 2732SOL    HW1 9095   5.966   1.441   2.242
 2732SOL    HW2 9096   5.811   1.454   2.191
 2733SOL     OW 9097   1.367   0.019   5.999
 2733SOL    HW1 9098   1.439   6.972   6.008
 2733SOL    HW2 9099   1.370   0.081   6.077
 2734SOL     OW 9100   2.056   5.939   4.227
 2734SOL    HW1 9101   1.993   5.862   4.230
 2734SOL    HW2 9102   2.148   5.905   4.206
 2735SOL     OW 9103   1.649   5.115   2.768
 2735SOL    HW1 9104   1.614   5.180   2.836
 2735SOL    HW2 9105   1.736   5.149   2.732
 2736SOL     OW 9106   4.731   0.336   5.101
 2736SOL    HW1 9107   4.771   0.426   5.116
 2736SOL    HW2 9108   4.718   0.291   5.190
 2737SOL     OW 9109   4.698   3.618   6.446
 2737SOL    HW1 9110   4.648   3.533   6.432
 2737SOL    HW2 9111   4.635   3.695   6.439
 2738SOL     OW 9112   5.591   5.095   4.700
 2738SOL    HW1 9113   5.667   5.150   4.666
 2738SOL    HW2 9114   5.615   5.057   4.790
 2739SOL     OW 9115   5.666   3.528   1.185
 2739SOL    HW1 9116   5.625   3.438   1.167
 2739SOL    HW2 9117   5.737   3.546   1.118
 2740SOL     OW 9118   6.071   2.298   2.989
 2740SOL    HW1 9119   6.078   2.375   3.052
 2740SOL    HW2 9120   5.976   2.285   2.962
 2741SOL     OW 9121   0.746   2.468   6.019
 2741SOL    HW1 9122   0.776   2.419   5.937
 2741SOL    HW2 9123   0.715   2.560   5.993
 2742SOL     OW 9124   2.168   0.035   6.791
 2742SOL    HW1 9125   2.226   0.097   6.845
 2742SOL    HW2 9126   2.205   6.965   6.797
 2743SOL     OW 9127   5.485   5.066   1.211
 2743SOL    HW1 9128   5.395   5.049   1.173
 2743SOL    HW2 9129   5.514   4.988   1.267
 2744SOL     OW 9130   4.462   1.719   5.858
 2744SOL    HW1 9131   4.550   1.749   5.893
 2744SOL    HW2 9132   4.474   1.636   5.803
 2745SOL     OW 9133   2.908   6.664   0.931
 2745SOL    HW1 9134   2.881   6.573   0.898
 2745SOL    HW2 9135   2.826   6.718   0.949
 2746SOL     OW 9136   1.824   2.273   6.629
 2746SOL    HW1 9137   1.773   2.279   6.715
 2746SOL    HW2 9138   1.763   2.239   6.556
 2747SOL     OW 9139   4.856   6.464   4.443
 2747SOL    HW1 9140   4.848   6.510   4.354
 2747SOL    HW2 9141   4.872   6.367   4.429
 2748SOL     OW 9142   4.127   1.141   2.751
 2748SOL    HW1 9143   4.169   1.051   2.738
 2748SOL    HW2 9144   4.131   1.166   2.848
 2749SOL     OW 9145   4.810   5.397   3.781
 2749SOL    HW1 9146   4.773   5.367   3.869
 2749SOL    HW2 9147   4.908   5.412   3.790
 2750SOL     OW 9148   0.311   6.139   2.556
 2750SOL    HW1 9149   0.374   6.088   2.613
 2750SOL    HW2 9150   0.242   6.077   2.518
 2751SOL     OW 9151   1.576   0.217   6.452
 2751SOL    HW1 9152   1.574   0.119   6.431
 2751SOL    HW2 9153   1.482   0.249   6.466
 2752SOL     OW 9154   6.245   5.932   5.897
 2752SOL    HW1 9155   6.291   5.967   5.815
 2752SOL    HW2 9156   6.153   5.971   5.904
 2753SOL     OW 9157   3.075   5.646   6.099
 2753SOL    HW1 9158   3.125   5.569   6.058
 2753SOL    HW2 9159   3.139   5.708   6.143
 2754SOL     OW 9160   0.977   0.746   4.696
 2754SOL    HW1 9161   0.948   0.809   4.624
 2754SOL    HW2 9162   0.898   0.696   4.730
 2755SOL     OW 9163   3.236   6.220   2.092
 2755SOL    HW1 9164   3.295   6.299   2.073
 2755SOL    HW2 9165   3.279   6.137   2.055
 2756SOL     OW 9166   0.223   2.929   5.858
 2756SOL    HW1 9167   0.315   2.954   5.830
 2756SOL    HW2 9168   0.219   2.918   5.957
 2757SOL     OW 9169   4.461   3.108   6.609
 2757SOL    HW1 9170   4.517   3.149   6.680
 2757SOL    HW2 9171   4.364   3.124   6.629
 2758SOL     OW 9172   6.549   6.451   2.479
 2758SOL    HW1 9173   6.467   6.444   2.538
 2758SOL    HW2 9174   6.631   6.446   2.536
 2759SOL     OW 9175   3.062   3.962   6.009
 2759SOL    HW1 9176   2.968   3.973   6.041
 2759SOL    HW2 9177   3.121   3.939   6.086
 2760SOL     OW 9178   5.201   6.345   3.282
 2760SOL    HW1 9179   5.128   6.367   3.346
 2760SOL    HW2 9180   5.169   6.278   3.216
 2761SOL     OW 9181   1.669   3.141   3.159
 2761SOL    HW1 9182   1.612   3.212   3.118
 2761SOL    HW2 9183   1.723   3.182   3.233
 2762SOL     OW 9184   2.904   2.660   0.490
 2762SOL    HW1 9185   2.934   2.567   0.468
 2762SOL    HW2 9186   2.958   2.726   0.437
 2763SOL     OW 9187   5.375   2.126   4.727
 2763SOL    HW1 9188   5.286   2.099   4.763
 2763SOL    HW2 9189   5.398   2.218   4.759
 2764SOL     OW 9190   1.153   3.492   2.092
 2764SOL    HW1 9191   1.249   3.463   2.084
 2764SOL    HW2 9192   1.136   3.569   2.031
 2765SOL     OW 9193   6.401   6.828   6.447
 2765SOL    HW1 9194   6.498   6.841   6.424
 2765SOL    HW2 9195   6.387   6.846   6.544
 2766SOL     OW 9196   4.981   1.289   6.467
 2766SOL    HW1 9197   4.914   1.361   6.451
 2766SOL    HW2 9198   4.981   1.263   6.563
 2767SOL     OW 9199   6.816   5.040   6.097
 2767SOL    HW1 9200   6.870   5.093   6.032
 2767SOL    HW2 9201   6.738   4.998   6.049
 2768SOL     OW 9202   4.472   0.090   1.029
 2768SOL    HW1 9203   4.469   0.180   0.987
 2768SOL    HW2 9204   4.498   0.099   1.126
 2769SOL     OW 9205   1.129   4.418   5.589
 2769SOL    HW1 9206   1.193   4.352   5.550
 2769SOL    HW2 9207   1.179   4.480   5.650
 2770SOL     OW 9208   3.054   6.842   0.709
 2770SOL    HW1 9209   3.127   6.804   0.766
 2770SOL    HW2 9210   2.966   6.808   0.742
 2771SOL     OW 9211   4.771   6.933   4.581
 2771SOL    HW1 9212   4.796   6.929   4.678
 2771SOL    HW2 9213   4.757   6.841   4.546
 2772SOL     OW 9214   4.226   0.129   3.190
 2772SOL    HW1 9215   4.293   0.096   3.123
 2772SOL    HW2 9216   4.136   0.137   3.147
 2773SOL     OW 9217   5.852   2.601   4.574
 2773SOL    HW1 9218   5.902   2.572   4.655
 2773SOL    HW2 9219   5.869   2.698   4.556
 2774SOL     OW 9220   5.522   1.708   4.195
 2774SOL    HW1 9221   5.450   1.745   4.255
 2774SOL    HW2 9222   5.580   1.783   4.163
 2775SOL     OW 9223   0.739   3.559   4.160
 2775SOL    HW1 9224   0.757   3.494   4.234
 2775SOL    HW2 9225   0.743   3.511   4.072
 2776SOL     OW 9226   4.768   4.522   6.142
 2776SOL    HW1 9227   4.686   4.465   6.148
 2776SOL    HW2 9228   4.838   4.485   6.204
 2777SOL     OW 9229   3.276   1.809   6.003
 2777SOL    HW1 9230   3.268   1.860   5.918
 2777SOL    HW2 9231   3.254   1.869   6.080
 2778SOL     OW 9232   3.019   6.473   5.858
 2778SOL    HW1 9233   3.018   6.571   5.877
 2778SOL    HW2 9234   2.979   6.456   5.768
 2779SOL     OW 9235   5.659   0.441   1.322
 2779SOL    HW1 9236   5.587   0.509   1.314
 2779SOL    HW2 9237   5.736   0.467   1.264
 2780SOL     OW 9238   6.774   1.473   4.778
 2780SOL    HW1 9239   6.763   1.481   4.877
 2780SOL    HW2 9240   6.827   1.391   4.758
 2781SOL     OW 9241   5.691   1.200   3.136
 2781SOL    HW1 9242   5.739   1.112   3.143
 2781SOL    HW2 9243   5.597   1.184   3.106
 2782SOL     OW 9244   4.431   0.560   6.376
 2782SOL    HW1 9245   4.474   0.633   6.429
 2782SOL    HW2 9246   4.334   0.580   6.364
 2783SOL     OW 9247   5.843   4.381   1.547
 2783SOL    HW1 9248   5.849   4.284   1.570
 2783SOL    HW2 9249   5.843   4.435   1.631
 2784SOL     OW 9250   1.440   1.916   1.062
 2784SOL    HW1 9251   1.533   1.924   1.027
 2784SOL    HW2 9252   1.375   1.947   0.993
 2785SOL     OW 9253   5.974   2.621   1.587
 2785SOL    HW1 9254   6.011   2.712   1.605
 2785SOL    HW2 9255   6.042   2.551   1.610
 2786SOL     OW 9256   6.879   6.459   0.184
 2786SOL    HW1 9257   6.833   6.446   0.272
 2786SOL    HW2 9258   6.954   6.525   0.195
 2787SOL     OW 9259   6.405   5.034   6.476
 2787SOL    HW1 9260   6.442   5.120   6.440
 2787SOL    HW2 9261   6.349   5.053   6.557
 2788SOL     OW 9262   3.074   5.894   5.801
 2788SOL    HW1 9263   3.070   5.939   5.891
 2788SOL    HW2 9264   3.011   5.816   5.801
 2789SOL     OW 9265   1.094   2.210   5.357
 2789SOL    HW1 9266   1.053   2.122   5.379
 2789SOL    HW2 9267   1.067   2.278   5.426
 2790SOL     OW 9268   1.895   5.633   1.870
 2790SOL    HW1 9269   1.961   5.693   1.916
 2790SOL    HW2 9270   1.939   5.545   1.849
 2791SOL     OW 9271   0.246   3.794   2.939
 2791SOL    HW1 9272   0.236   3.753   2.849
 2791SOL    HW2 9273   0.167   3.771   2.995
 2792SOL     OW 9274   3.260   1.476   5.543
 2792SOL    HW1 9275   3.273   1.531   5.626
 2792SOL    HW2 9276   3.179   1.507   5.494
 2793SOL     OW 9277   3.592   4.255   0.881
 2793SOL    HW1 9278   3.599   4.220   0.975
 2793SOL    HW2 9279   3.496   4.271   0.859
 2794SOL     OW 9280   0.918   2.345   0.047
 2794SOL    HW1 9281   0.833   2.371   0.002
 2794SOL    HW2 9282   0.901   2.265   0.105
 2795SOL     OW 9283   1.135   4.808   1.678
 2795SOL    HW1 9284   1.229   4.833   1.656
 2795SOL    HW2 9285   1.133   4.766   1.769
 2796SOL     OW 9286   1.940   6.468   6.502
 2796SOL    HW1 9287   2.028   6.466   6.454
 2796SOL    HW2 9288   1.870   6.430   6.442
 2797SOL     OW 9289   5.499   6.680   3.498
 2797SOL    HW1 9290   5.472   6.714   3.407
 2797SOL    HW2 9291   5.417   6.662   3.552
 2798SOL     OW 9292   5.291   0.227   1.852
 2798SOL    HW1 9293   5.257   0.231   1.758
 2798SOL    HW2 9294   5.342   0.310   1.873
 2799SOL     OW 9295   3.273   6.074   5.187
 2799SOL    HW1 9296   3.267   6.141   5.113
 2799SOL    HW2 9297   3.263   5.982   5.149
 2800SOL     OW 9298   5.674   6.921   6.771
 2800SOL    HW1 9299   5.715   6.955   6.856
 2800SOL    HW2 9300   5.711   6.830   6.750
 2801SOL     OW 9301   0.563   4.632   5.088
 2801SOL    HW1 9302   0.642   4.592   5.136
 2801SOL    HW2 9303   0.524   4.564   5.026
 2802SOL     OW 9304   1.026   5.295   5.599
 2802SOL    HW1 9305   1.080   5.355   5.658
 2802SOL    HW2 9306   0.968   5.350   5.540
 2803SOL     OW 9307   3.713   2.398   6.366
 2803SOL    HW1 9308   3.733   2.491   6.397
 2803SOL    HW2 9309   3.791   2.339   6.385
 2804SOL     OW 9310   0.398   2.565   3.859
 2804SOL    HW1 9311   0.358   2.499   3.795
 2804SOL    HW2 9312   0.355   2.654   3.845
 2805SOL     OW 9313   4.376   3.476   1.140
 2805SOL    HW1 9314   4.377   3.502   1.236
 2805SOL    HW2 9315   4.363   3.377   1.133
 2806SOL     OW 9316   0.697   4.249   6.012
 2806SOL    HW1 9317   0.625   4.223   5.948
 2806SOL    HW2 9318   0.719   4.171   6.071
 2807SOL     OW 9319   4.051   0.163   3.792
 2807SOL    HW1 9320   4.033   0.168   3.890
 2807SOL    HW2 9321   4.005   0.083   3.754
 2808SOL     OW 9322   6.902   5.438   6.152
 2808SOL    HW1 9323   6.956   5.355   6.137
 2808SOL    HW2 9324   6.958   5.507   6.197
 2809SOL     OW 9325   6.915   5.330   1.950
 2809SOL    HW1 9326   6.943   5.370   1.863
 2809SOL    HW2 9327   6.820   5.300   1.944
 2810SOL     OW 9328   2.858   6.130   3.127
 2810SOL    HW1 9329   2.840   6.221   3.090
 2810SOL    HW2 9330   2.776   6.074   3.118
 2811SOL     OW 9331   0.742   0.820   1.430
 2811SOL    HW1 9332   0.649   0.856   1.422
 2811SOL    HW2 9333   0.760   0.796   1.525
 2812SOL     OW 9334   0.681   1.960   1.292
 2812SOL    HW1 9335   0.772   1.956   1.251
 2812SOL    HW2 9336   0.679   1.903   1.374
 2813SOL     OW 9337   0.885   1.902   1.826
 2813SOL    HW1 9338   0.957   1.961   1.863
 2813SOL    HW2 9339   0.799   1.924   1.872
 2814SOL     OW 9340   2.307   4.770   0.302
 2814SOL    HW1 9341   2.236   4.770   0.232
 2814SOL    HW2 9342   2.351   4.681   0.305
 2815SOL     OW 9343   0.517   5.368   5.819
 2815SOL    HW1 9344   0.445   5.429   5.785
 2815SOL    HW2 9345   0.606   5.406   5.796
 2816SOL     OW 9346   0.831   6.224   5.960
 2816SOL    HW1 9347   0.909   6.163   5.969
 2816SOL    HW2 9348   0.754   6.174   5.919
 2817SOL     OW 9349   4.440   0.644   1.937
 2817SOL    HW1 9350   4.460   0.559   1.888
 2817SOL    HW2 9351   4.496   0.648   2.020
 2818SOL     OW 9352   1.536   0.795   0.460
 2818SOL    HW1 9353   1.494   0.876   0.419
 2818SOL    HW2 9354   1.480   0.714   0.438
 2819SOL     OW 9355   0.589   0.637   0.390
 2819SOL    HW1 9356   0.670   0.672   0.343
 2819SOL    HW2 9357   0.565   0.547   0.353
 2820SOL     OW 9358   1.850   2.539   0.764
 2820SOL    HW1 9359   1.918   2.559   0.833
 2820SOL    HW2 9360   1.859   2.604   0.688
 2821SOL     OW 9361   2.463   3.506   6.322
 2821SOL    HW1 9362   2.551   3.462   6.303
 2821SOL    HW2 9363   2.401   3.490   6.245
 2822SOL     OW 9364   4.327   2.586   0.718
 2822SOL    HW1 9365   4.244   2.541   0.683
 2822SOL    HW2 9366   4.387   2.607   0.641
 2823SOL     OW 9367   5.404   2.309   1.586
 2823SOL    HW1 9368   5.471   2.296   1.658
 2823SOL    HW2 9369   5.332   2.371   1.618
 2824SOL     OW 9370   1.190   3.200   4.444
 2824SOL    HW1 9371   1.280   3.197   4.487
 2824SOL    HW2 9372   1.162   3.107   4.419
 2825SOL     OW 9373   4.960   1.658   5.877
 2825SOL    HW1 9374   5.003   1.706   5.800
 2825SOL    HW2 9375   5.028   1.639   5.947
 2826SOL     OW 9376   2.593   2.868   0.127
 2826SOL    HW1 9377   2.522   2.921   0.081
 2826SOL    HW2 9378   2.624   2.794   0.068
 2827SOL     OW 9379   6.033   0.841   6.413
 2827SOL    HW1 9380   5.936   0.840   6.390
 2827SOL    HW2 9381   6.062   0.936   6.426
 2828SOL     OW 9382   1.505   3.595   0.499
 2828SOL    HW1 9383   1.564   3.581   0.420
 2828SOL    HW2 9384   1.554   3.647   0.569
 2829SOL     OW 9385   2.949   3.896   2.703
 2829SOL    HW1 9386   2.979   3.879   2.797
 2829SOL    HW2 9387   2.997   3.976   2.667
 2830SOL     OW 9388   3.308   5.062   5.500
 2830SOL    HW1 9389   3.222   5.057   5.448
 2830SOL    HW2 9390   3.370   5.125   5.454
 2831SOL     OW 9391   5.871   1.852   1.217
 2831SOL    HW1 9392   5.894   1.877   1.311
 2831SOL    HW2 9393   5.834   1.932   1.170
 2832SOL     OW 9394   0.751   4.207   1.892
 2832SOL    HW1 9395   0.767   4.153   1.809
 2832SOL    HW2 9396   0.768   4.150   1.972
 2833SOL     OW 9397   2.440   2.203   2.478
 2833SOL    HW1 9398   2.498   2.246   2.546
 2833SOL    HW2 9399   2.407   2.272   2.413
 2834SOL     OW 9400   3.210   5.680   5.277
 2834SOL    HW1 9401   3.115   5.709   5.264
 2834SOL    HW2 9402   3.270   5.761   5.274
 2835SOL     OW 9403   6.800   0.445   0.800
 2835SOL    HW1 9404   6.764   0.532   0.835
 2835SOL    HW2 9405   6.795   0.445   0.700
 2836SOL     OW 9406   3.773   5.623   2.367
 2836SOL    HW1 9407   3.768   5.569   2.283
 2836SOL    HW2 9408   3.866   5.660   2.378
 2837SOL     OW 9409   5.290   4.405   1.706
 2837SOL    HW1 9410   5.215   4.367   1.651
 2837SOL    HW2 9411   5.326   4.334   1.767
 2838SOL     OW 9412   5.708   4.345   6.399
 2838SOL    HW1 9413   5.630   4.354   6.337
 2838SOL    HW2 9414   5.760   4.430   6.401
 2839SOL     OW 9415   5.909   3.123   5.025
 2839SOL    HW1 9416   5.839   3.159   5.088
 2839SOL    HW2 9417   5.917   3.024   5.038
 2840SOL     OW 9418   7.005   6.117   3.908
 2840SOL    HW1 9419   7.017   6.074   3.997
 2840SOL    HW2 9420   0.070   6.117   3.859
 2841SOL     OW 9421   6.466   3.636   2.411
 2841SOL    HW1 9422   6.547   3.580   2.392
 2841SOL    HW2 9423   6.493   3.723   2.452
 2842SOL     OW 9424   1.142   6.927   3.839
 2842SOL    HW1 9425   1.198   7.007   3.817
 2842SOL    HW2 9426   1.116   6.880   3.754
 2843SOL     OW 9427   1.996   2.919   3.732
 2843SOL    HW1 9428   1.968   2.992   3.670
 2843SOL    HW2 9429   2.096   2.919   3.742
 2844SOL     OW 9430   4.811   4.433   0.527
 2844SOL    HW1 9431   4.899   4.395   0.556
 2844SOL    HW2 9432   4.751   4.440   0.607
 2845SOL     OW 9433   3.121   2.113   2.991
 2845SOL    HW1 9434   3.044   2.135   2.932
 2845SOL    HW2 9435   3.206   2.119   2.938
 2846SOL     OW 9436   6.247   0.246   0.449
 2846SOL    HW1 9437   6.259   0.323   0.387
 2846SOL    HW2 9438   6.171   0.189   0.417
 2847SOL     OW 9439   4.550   4.565   1.675
 2847SOL    HW1 9440   4.613   4.551   1.752
 2847SOL    HW2 9441   4.460   4.528   1.699
 2848SOL     OW 9442   0.510   4.319   5.409
 2848SOL    HW1 9443   0.569   4.242   5.435
 2848SOL    HW2 9444   0.547   4.362   5.327
 2849SOL     OW 9445   4.992   0.177   1.820
 2849SOL    HW1 9446   5.026   0.169   1.727
 2849SOL    HW2 9447   5.068   0.197   1.882
 2850SOL     OW 9448   1.986   0.113   2.214
 2850SOL    HW1 9449   2.050   0.114   2.137
 2850SOL    HW2 9450   1.892   0.104   2.179
 2851SOL     OW 9451   3.641   3.295   0.933
 2851SOL    HW1 9452   3.691   3.235   0.994
 2851SOL    HW2 9453   3.685   3.296   0.843
 2852SOL     OW 9454   6.262   4.841   6.984
 2852SOL    HW1 9455   6.271   4.826   0.060
 2852SOL    HW2 9456   6.168   4.871   6.964
 2853SOL     OW 9457   6.973   4.156   5.888
 2853SOL    HW1 9458   7.016   4.097   5.957
 2853SOL    HW2 9459   6.999   4.251   5.905
 2854SOL     OW 9460   4.059   1.379   5.410
 2854SOL    HW1 9461   3.988   1.379   5.481
 2854SOL    HW2 9462   4.068   1.288   5.372
 2855SOL     OW 9463   2.258   1.924   5.635
 2855SOL    HW1 9464   2.266   1.959   5.541
 2855SOL    HW2 9465   2.181   1.860   5.639
 2856SOL     OW 9466   0.996   5.245   4.093
 2856SOL    HW1 9467   1.047   5.325   4.061
 2856SOL    HW2 9468   1.059   5.180   4.135
 2857SOL     OW 9469   0.260   3.585   0.393
 2857SOL    HW1 9470   0.358   3.566   0.385
 2857SOL    HW2 9471   0.212   3.545   0.315
 2858SOL     OW 9472   4.404   4.796   2.599
 2858SOL    HW1 9473   4.356   4.788   2.686
 2858SOL    HW2 9474   4.371   4.726   2.536
 2859SOL     OW 9475   5.078   4.783   0.900
 2859SOL    HW1 9476   5.041   4.762   0.990
 2859SOL    HW2 9477   5.104   4.698   0.854
 2860SOL     OW 9478   0.747   0.314   2.566
 2860SOL    HW1 9479   0.671   0.376   2.580
 2860SOL    HW2 9480   0.786   0.289   2.655
 2861SOL     OW 9481   4.737   5.559   6.227
 2861SOL    HW1 9482   4.723   5.636   6.165
 2861SOL    HW2 9483   4.705   5.475   6.183
 2862SOL     OW 9484   3.902   3.067   0.076
 2862SOL    HW1 9485   3.981   3.046   0.020
 2862SOL    HW2 9486   3.927   3.134   0.146
 2863SOL     OW 9487   5.710   6.999   5.522
 2863SOL    HW1 9488   5.634   0.025   5.479
 2863SOL    HW2 9489   5.746   6.931   5.458
 2864SOL     OW 9490   3.324   4.417   6.950
 2864SOL    HW1 9491   3.286   4.508   6.935
 2864SOL    HW2 9492   3.318   4.364   6.865
 2865SOL     OW 9493   5.684   5.483   4.312
 2865SOL    HW1 9494   5.607   5.475   4.248
 2865SOL    HW2 9495   5.733   5.568   4.296
 2866SOL     OW 9496   4.464   4.561   0.447
 2866SOL    HW1 9497   4.468   4.486   0.513
 2866SOL    HW2 9498   4.377   4.610   0.458
 2867SOL     OW 9499   5.304   6.338   1.859
 2867SOL    HW1 9500   5.264   6.264   1.913
 2867SOL    HW2 9501   5.360   6.300   1.786
 2868SOL     OW 9502   1.034   0.948   5.849
 2868SOL    HW1 9503   1.055   0.861   5.805
 2868SOL    HW2 9504   1.013   0.933   5.945
 2869SOL     OW 9505   6.183   5.170   5.112
 2869SOL    HW1 9506   6.269   5.217   5.134
 2869SOL    HW2 9507   6.134   5.150   5.197
 2870SOL     OW 9508   6.869   2.418   1.644
 2870SOL    HW1 9509   6.917   2.485   1.699
 2870SOL    HW2 9510   6.933   2.346   1.616
 2871SOL     OW 9511   5.592   1.200   1.945
 2871SOL    HW1 9512   5.496   1.215   1.969
 2871SOL    HW2 9513   5.637   1.288   1.932
 2872SOL     OW 9514   2.747   2.329   2.280
 2872SOL    HW1 9515   2.806   2.334   2.200
 2872SOL    HW2 9516   2.668   2.390   2.267
 2873SOL     OW 9517   0.980   6.730   1.404
 2873SOL    HW1 9518   1.024   6.645   1.434
 2873SOL    HW2 9519   0.897   6.708   1.352
 2874SOL     OW 9520   2.769   0.535   2.556
 2874SOL    HW1 9521   2.756   0.564   2.461
 2874SOL    HW2 9522   2.732   0.443   2.569
 2875SOL     OW 9523   2.756   6.793   3.101
 2875SOL    HW1 9524   2.741   6.873   3.160
 2875SOL    HW2 9525   2.854   6.781   3.086
 2876SOL     OW 9526   1.398   0.199   2.225
 2876SOL    HW1 9527   1.357   0.153   2.305
 2876SOL    HW2 9528   1.385   0.141   2.144
 2877SOL     OW 9529   1.398   2.003   6.866
 2877SOL    HW1 9530   1.460   2.080   6.880
 2877SOL    HW2 9531   1.334   2.025   6.793
 2878SOL     OW 9532   4.112   3.531   4.096
 2878SOL    HW1 9533   4.104   3.539   4.196
 2878SOL    HW2 9534   4.135   3.437   4.072
 2879SOL     OW 9535   4.047   4.016   0.000
 2879SOL    HW1 9536   4.145   4.030   7.007
 2879SOL    HW2 9537   4.028   3.918   0.007
 2880SOL     OW 9538   2.091   1.170   4.131
 2880SOL    HW1 9539   2.006   1.167   4.078
 2880SOL    HW2 9540   2.102   1.083   4.180
 2881SOL     OW 9541   4.567   6.043   6.710
 2881SOL    HW1 9542   4.536   6.003   6.623
 2881SOL    HW2 9543   4.586   5.970   6.775
 2882SOL     OW 9544   4.593   6.270   0.613
 2882SOL    HW1 9545   4.599   6.362   0.653
 2882SOL    HW2 9546   4.501   6.256   0.577
 2883SOL     OW 9547   6.149   5.998   4.016
 2883SOL    HW1 9548   6.201   6.080   4.038
 2883SOL    HW2 9549   6.149   5.936   4.095
 2884SOL     OW 9550   6.846   4.906   3.722
 2884SOL    HW1 9551   6.829   4.964   3.801
 2884SOL    HW2 9552   6.830   4.810   3.747
 2885SOL     OW 9553   1.292   2.867   3.258
 2885SOL    HW1 9554   1.210   2.816   3.233
 2885SOL    HW2 9555   1.343   2.816   3.327
 2886SOL     OW 9556   1.888   4.315   5.935
 2886SOL    HW1 9557   1.841   4.278   6.015
 2886SOL    HW2 9558   1.853   4.271   5.853
 2887SOL     OW 9559   0.326   5.515   3.292
 2887SOL    HW1 9560   0.284   5.524   3.202
 2887SOL    HW2 9561   0.347   5.419   3.309
 2888SOL     OW 9562   6.360   6.717   0.034
 2888SOL    HW1 9563   6.338   6.810   0.066
 2888SOL    HW2 9564   6.456   6.698   0.051
 2889SOL     OW 9565   3.238   6.553   2.346
 2889SOL    HW1 9566   3.150   6.532   2.302
 2889SOL    HW2 9567   3.266   6.646   2.321
 2890SOL     OW 9568   1.937   1.229   1.369
 2890SOL    HW1 9569   1.984   1.270   1.447
 2890SOL    HW2 9570   1.954   1.285   1.288
 2891SOL     OW 9571   0.955   2.186   4.724
 2891SOL    HW1 9572   0.896   2.133   4.785
 2891SOL    HW2 9573   0.934   2.164   4.629
 2892SOL     OW 9574   6.481   4.078   2.902
 2892SOL    HW1 9575   6.444   3.992   2.866
 2892SOL    HW2 9576   6.556   4.109   2.845
 2893SOL     OW 9577   6.852   5.141   4.895
 2893SOL    HW1 9578   6.753   5.149   4.911
 2893SOL    HW2 9579   6.876   5.044   4.886
 2894SOL     OW 9580   1.773   6.046   2.581
 2894SOL    HW1 9581   1.691   6.058   2.526
 2894SOL    HW2 9582   1.835   6.124   2.566
 2895SOL     OW 9583   4.117   6.787   6.425
 2895SOL    HW1 9584   4.089   6.766   6.519
 2895SOL    HW2 9585   4.217   6.776   6.417
 2896SOL     OW 9586   5.193   6.013   4.921
 2896SOL    HW1 9587   5.292   6.001   4.915
 2896SOL    HW2 9588   5.170   6.062   5.005
 2897SOL     OW 9589   3.887   5.074   3.309
 2897SOL    HW1 9590   3.827   5.021   3.368
 2897SOL    HW2 9591   3.842   5.091   3.221
 2898SOL     OW 9592   5.601   2.821   2.910
 2898SOL    HW1 9593   5.532   2.803   2.840
 2898SOL    HW2 9594   5.601   2.918   2.934
 2899SOL     OW 9595   7.016   3.776   1.078
 2899SOL    HW1 9596   6.932   3.777   1.024
 2899SOL    HW2 9597   0.051   3.853   1.052
 2900SOL     OW 9598   2.780   2.867   6.048
 2900SOL    HW1 9599   2.733   2.955   6.040
 2900SOL    HW2 9600   2.826   2.863   6.137
 2901SOL     OW 9601   0.657   4.154   3.664
 2901SOL    HW1 9602   0.667   4.127   3.760
 2901SOL    HW2 9603   0.624   4.075   3.611
 2902SOL     OW 9604   6.777   6.033   3.826
 2902SOL    HW1 9605   6.855   6.074   3.873
 2902SOL    HW2 9606   6.804   5.945   3.787
 2903SOL     OW 9607   4.155   5.120   0.380
 2903SOL    HW1 9608   4.162   5.219   0.389
 2903SOL    HW2 9609   4.214   5.089   0.305
 2904SOL     OW 9610   2.297   4.195   5.287
 2904SOL    HW1 9611   2.367   4.263   5.270
 2904SOL    HW2 9612   2.322   4.109   5.243
 2905SOL     OW 9613   0.549   5.979   1.529
 2905SOL    HW1 9614   0.618   5.950   1.462
 2905SOL    HW2 9615   0.548   6.079   1.535
 2906SOL     OW 9616   6.118   6.350   3.946
 2906SOL    HW1 9617   6.098   6.287   3.871
 2906SOL    HW2 9618   6.211   6.333   3.979
 2907SOL     OW 9619   0.346   0.911   3.914
 2907SOL    HW1 9620   0.377   1.002   3.940
 2907SOL    HW2 9621   0.334   0.907   3.815
 2908SOL     OW 9622   4.091   6.248   2.956
 2908SOL    HW1 9623   4.119   6.341   2.931
 2908SOL    HW2 9624   4.168   6.201   3.000
 2909SOL     OW 9625   0.450   6.396   2.258
 2909SOL    HW1 9626   0.367   6.340   2.254
 2909SOL    HW2 9627   0.527   6.341   2.289
 2910SOL     OW 9628   6.526   0.715   4.141
 2910SOL    HW1 9629   6.523   0.808   4.177
 2910SOL    HW2 9630   6.618   0.694   4.108
 2911SOL     OW 9631   6.818   4.194   5.043
 2911SOL    HW1 9632   6.719   4.203   5.036
 2911SOL    HW2 9633   6.842   4.097   5.054
 2912SOL     OW 9634   0.202   0.583   1.338
 2912SOL    HW1 9635   0.258   0.653   1.293
 2912SOL    HW2 9636   0.261   0.507   1.368
 2913SOL     OW 9637   2.706   6.776   1.376
 2913SOL    HW1 9638   2.665   6.717   1.445
 2913SOL    HW2 9639   2.672   6.870   1.387
 2914SOL     OW 9640   4.295   5.386   0.475
 2914SOL    HW1 9641   4.311   5.465   0.415
 2914SOL    HW2 9642   4.382   5.357   0.515
 2915SOL     OW 9643   2.650   0.123   2.260
 2915SOL    HW1 9644   2.740   0.145   2.224
 2915SOL    HW2 9645   2.589   0.096   2.185
 2916SOL     OW 9646   2.200   6.072   0.983
 2916SOL    HW1 9647   2.122   6.117   0.939
 2916SOL    HW2 9648   2.167   6.003   1.048
 2917SOL     OW 9649   2.468   6.146   4.309
 2917SOL    HW1 9650   2.568   6.139   4.301
 2917SOL    HW2 9651   2.444   6.236   4.344
 2918SOL     OW 9652   5.069   3.157   1.811
 2918SOL    HW1 9653   5.122   3.083   1.853
 2918SOL    HW2 9654   5.044   3.132   1.718
 2919SOL     OW 9655   0.974   5.402   4.660
 2919SOL    HW1 9656   0.913   5.378   4.735
 2919SOL    HW2 9657   0.926   5.394   4.573
 2920SOL     OW 9658   1.049   2.703   2.501
 2920SOL    HW1 9659   1.132   2.649   2.500
 2920SOL    HW2 9660   1.038   2.746   2.590
 2921SOL     OW 9661   1.126   0.228   4.291
 2921SOL    HW1 9662   1.052   0.194   4.348
 2921SOL    HW2 9663   1.200   0.160   4.288
 2922SOL     OW 9664   3.939   6.471   3.553
 2922SOL    HW1 9665   3.871   6.468   3.480
 2922SOL    HW2 9666   3.906   6.420   3.632
 2923SOL     OW 9667   6.594   5.991   4.861
 2923SOL    HW1 9668   6.674   5.933   4.842
 2923SOL    HW2 9669   6.565   5.977   4.955
 2924SOL     OW 9670   5.992   2.291   4.817
 2924SOL    HW1 9671   6.038   2.241   4.743
 2924SOL    HW2 9672   5.900   2.254   4.830
 2925SOL     OW 9673   4.998   6.809   6.322
 2925SOL    HW1 9674   5.046   6.888   6.284
 2925SOL    HW2 9675   5.000   6.814   6.421
 2926SOL     OW 9676   6.871   2.401   3.774
 2926SOL    HW1 9677   6.896   2.340   3.699
 2926SOL    HW2 9678   6.792   2.456   3.747
 2927SOL     OW 9679   1.404   2.416   2.156
 2927SOL    HW1 9680   1.305   2.416   2.142
 2927SOL    HW2 9681   1.444   2.338   2.106
 2928SOL     OW 9682   6.807   2.580   6.937
 2928SOL    HW1 9683   6.885   2.635   6.967
 2928SOL    HW2 9684   6.829   2.535   6.851
 2929SOL     OW 9685   2.721   2.388   4.589
 2929SOL    HW1 9686   2.686   2.445   4.515
 2929SOL    HW2 9687   2.660   2.393   4.667
 2930SOL     OW 9688   6.857   4.391   4.853
 2930SOL    HW1 9689   6.807   4.471   4.887
 2930SOL    HW2 9690   6.819   4.309   4.895
 2931SOL     OW 9691   5.256   4.246   5.406
 2931SOL    HW1 9692   5.224   4.212   5.318
 2931SOL    HW2 9693   5.178   4.277   5.460
 2932SOL     OW 9694   6.586   5.467   0.947
 2932SOL    HW1 9695   6.645   5.490   1.025
 2932SOL    HW2 9696   6.610   5.376   0.914
 2933SOL     OW 9697   1.223   0.440   0.612
 2933SOL    HW1 9698   1.285   0.438   0.691
 2933SOL    HW2 9699   1.266   0.491   0.538
 2934SOL     OW 9700   4.140   4.529   0.134
 2934SOL    HW1 9701   4.066   4.486   0.083
 2934SOL    HW2 9702   4.228   4.490   0.106
 2935SOL     OW 9703   6.610   2.208   6.522
 2935SOL    HW1 9704   6.601   2.178   6.427
 2935SOL    HW2 9705   6.707   2.216   6.546
 2936SOL     OW 9706   4.250   6.346   0.782
 2936SOL    HW1 9707   4.238   6.274   0.851
 2936SOL    HW2 9708   4.232   6.435   0.823
 2937SOL     OW 9709   4.604   4.926   2.433
 2937SOL    HW1 9710   4.527   4.917   2.497
 2937SOL    HW2 9711   4.592   5.009   2.378
 2938SOL     OW 9712   6.546   5.613   6.939
 2938SOL    HW1 9713   6.529   5.668   6.857
 2938SOL    HW2 9714   6.618   5.547   6.921
 2939SOL     OW 9715   0.451   5.841   1.744
 2939SOL    HW1 9716   0.419   5.917   1.801
 2939SOL    HW2 9717   0.493   5.877   1.661
 2940SOL     OW 9718   4.496   6.577   3.839
 2940SOL    HW1 9719   4.490   6.671   3.873
 2940SOL    HW2 9720   4.454   6.515   3.906
 2941SOL     OW 9721   1.712   4.089   3.614
 2941SOL    HW1 9722   1.677   4.096   3.707
 2941SOL    HW2 9723   1.759   4.002   3.602
 2942SOL     OW 9724   3.283   1.518   1.367
 2942SOL    HW1 9725   3.248   1.567   1.287
 2942SOL    HW2 9726   3.262   1.570   1.450
 2943SOL     OW 9727   6.109   3.905   3.163
 2943SOL    HW1 9728   6.195   3.953   3.144
 2943SOL    HW2 9729   6.100   3.828   3.099
 2944SOL     OW 9730   1.981   5.862   2.556
 2944SOL    HW1 9731   2.007   5.858   2.653
 2944SOL    HW2 9732   1.910   5.931   2.544
 2945SOL     OW 9733   5.063   4.316   1.592
 2945SOL    HW1 9734   5.037   4.359   1.678
 2945SOL    HW2 9735   5.013   4.230   1.580
 2946SOL     OW 9736   3.691   3.958   5.410
 2946SOL    HW1 9737   3.604   3.985   5.451
 2946SOL    HW2 9738   3.675   3.928   5.316
 2947SOL     OW 9739   6.380   6.549   0.512
 2947SOL    HW1 9740   6.281   6.543   0.517
 2947SOL    HW2 9741   6.419   6.533   0.602
 2948SOL     OW 9742   6.549   3.828   1.665
 2948SOL    HW1 9743   6.540   3.751   1.603
 2948SOL    HW2 9744   6.616   3.893   1.629
 2949SOL     OW 9745   1.145   0.211   0.387
 2949SOL    HW1 9746   1.143   0.287   0.453
 2949SOL    HW2 9747   1.079   0.142   0.414
 2950SOL     OW 9748   6.155   4.674   2.844
 2950SOL    HW1 9749   6.154   4.577   2.867
 2950SOL    HW2 9750   6.079   4.721   2.888
 2951SOL     OW 9751   6.955   1.205   1.928
 2951SOL    HW1 9752   0.021   1.164   1.947
 2951SOL    HW2 9753   6.892   1.185   2.004
 2952SOL     OW 9754   5.965   2.167   3.698
 2952SOL    HW1 9755   5.974   2.084   3.753
 2952SOL    HW2 9756   5.890   2.222   3.734
 2953SOL     OW 9757   0.892   5.337   4.425
 2953SOL    HW1 9758   0.874   5.426   4.382
 2953SOL    HW2 9759   0.988   5.313   4.413
 2954SOL     OW 9760   6.966   4.460   6.417
 2954SOL    HW1 9761   6.944   4.482   6.322
 2954SOL    HW2 9762   0.039   4.430   6.423
 2955SOL     OW 9763   1.849   4.445   6.265
 2955SOL    HW1 9764   1.838   4.349   6.241
 2955SOL    HW2 9765   1.937   4.478   6.230
 2956SOL     OW 9766   5.792   4.894   3.141
 2956SOL    HW1 9767   5.808   4.857   3.049
 2956SOL    HW2 9768   5.845   4.842   3.208
 2957SOL     OW 9769   2.254   5.310   1.212
 2957SOL    HW1 9770   2.215   5.396   1.181
 2957SOL    HW2 9771   2.204   5.277   1.292
 2958SOL     OW 9772   1.893   5.655   2.278
 2958SOL    HW1 9773   1.861   5.561   2.262
 2958SOL    HW2 9774   1.986   5.653   2.314
 2959SOL     OW 9775   0.058   3.499   2.834
 2959SOL    HW1 9776   0.098   3.413   2.802
 2959SOL    HW2 9777   0.094   3.574   2.778
 2960SOL     OW 9778   5.320   0.344   0.458
 2960SOL    HW1 9779   5.307   0.426   0.403
 2960SOL    HW2 9780   5.378   0.279   0.408
 2961SOL     OW 9781   5.455   4.273   1.913
 2961SOL    HW1 9782   5.396   4.229   1.981
 2961SOL    HW2 9783   5.511   4.342   1.958
 2962SOL     OW 9784   6.875   0.386   3.221
 2962SOL    HW1 9785   6.962   0.427   3.194
 2962SOL    HW2 9786   6.801   0.422   3.164
 2963SOL     OW 9787   2.078   0.947   5.185
 2963SOL    HW1 9788   1.978   0.947   5.189
 2963SOL    HW2 9789   2.114   0.934   5.277
 2964SOL     OW 9790   1.894   1.501   0.135
 2964SOL    HW1 9791   1.845   1.578   0.176
 2964SOL    HW2 9792   1.849   1.474   0.050
 2965SOL     OW 9793   0.332   6.939   5.213
 2965SOL    HW1 9794   0.256   6.954   5.150
 2965SOL    HW2 9795   0.320   6.996   5.294
 2966SOL     OW 9796   3.299   6.228   2.524
 2966SOL    HW1 9797   3.323   6.173   2.444
 2966SOL    HW2 9798   3.209   6.201   2.557
 2967SOL     OW 9799   5.883   0.144   5.636
 2967SOL    HW1 9800   5.899   0.126   5.733
 2967SOL    HW2 9801   5.838   0.065   5.594
 2968SOL     OW 9802   1.965   3.213   1.242
 2968SOL    HW1 9803   2.046   3.268   1.264
 2968SOL    HW2 9804   1.978   3.120   1.277
 2969SOL     OW 9805   5.169   3.319   4.549
 2969SOL    HW1 9806   5.213   3.406   4.532
 2969SOL    HW2 9807   5.238   3.250   4.571
 2970SOL     OW 9808   2.248   1.723   4.278
 2970SOL    HW1 9809   2.289   1.644   4.232
 2970SOL    HW2 9810   2.191   1.773   4.213
 2971SOL     OW 9811   5.256   2.867   6.363
 2971SOL    HW1 9812   5.157   2.874   6.352
 2971SOL    HW2 9813   5.282   2.770   6.369
 2972SOL     OW 9814   5.819   5.646   6.854
 2972SOL    HW1 9815   5.912   5.641   6.816
 2972SOL    HW2 9816   5.769   5.721   6.810
 2973SOL     OW 9817   4.601   1.507   2.839
 2973SOL    HW1 9818   4.578   1.525   2.744
 2973SOL    HW2 9819   4.637   1.591   2.882
 2974SOL     OW 9820   5.039   6.316   2.570
 2974SOL    HW1 9821   5.059   6.239   2.630
 2974SOL    HW2 9822   4.972   6.287   2.501
 2975SOL     OW 9823   4.639   4.298   3.608
 2975SOL    HW1 9824   4.715   4.234   3.617
 2975SOL    HW2 9825   4.599   4.314   3.699
 2976SOL     OW 9826   4.175   2.105   1.931
 2976SOL    HW1 9827   4.209   2.195   1.906
 2976SOL    HW2 9828   4.129   2.064   1.853
 2977SOL     OW 9829   1.523   1.012   1.393
 2977SOL    HW1 9830   1.542   1.030   1.489
 2977SOL    HW2 9831   1.555   0.920   1.369
 2978SOL     OW 9832   4.716   5.098   6.341
 2978SOL    HW1 9833   4.671   5.141   6.263
 2978SOL    HW2 9834   4.806   5.064   6.313
 2979SOL     OW 9835   3.355   0.557   4.262
 2979SOL    HW1 9836   3.316   0.499   4.333
 2979SOL    HW2 9837   3.387   0.500   4.186
 2980SOL     OW 9838   3.877   3.456   5.231
 2980SOL    HW1 9839   3.957   3.396   5.239
 2980SOL    HW2 9840   3.800   3.416   5.281
 2981SOL     OW 9841   2.051   1.406   1.598
 2981SOL    HW1 9842   2.026   1.474   1.668
 2981SOL    HW2 9843   2.115   1.446   1.533
 2982SOL     OW 9844   0.999   0.494   1.745
 2982SOL    HW1 9845   0.927   0.521   1.681
 2982SOL    HW2 9846   0.965   0.506   1.839
 2983SOL     OW 9847   6.429   3.456   5.804
 2983SOL    HW1 9848   6.369   3.536   5.805
 2983SOL    HW2 9849   6.517   3.478   5.846
 2984SOL     OW 9850   1.005   4.875   1.285
 2984SOL    HW1 9851   1.015   4.903   1.189
 2984SOL    HW2 9852   0.926   4.815   1.294
 2985SOL     OW 9853   0.256   7.001   5.658
 2985SOL    HW1 9854   0.286   0.022   5.573
 2985SOL    HW2 9855   0.333   6.996   5.721
 2986SOL     OW 9856   3.858   3.359   2.343
 2986SOL    HW1 9857   3.835   3.452   2.314
 2986SOL    HW2 9858   3.844   3.350   2.442
 2987SOL     OW 9859   2.109   0.068   5.083
 2987SOL    HW1 9860   2.060   0.147   5.046
 2987SOL    HW2 9861   2.076   7.007   5.038
 2988SOL     OW 9862   0.188   1.522   6.471
 2988SOL    HW1 9863   0.139   1.556   6.551
 2988SOL    HW2 9864   0.284   1.549   6.476
 2989SOL     OW 9865   4.941   3.733   4.364
 2989SOL    HW1 9866   4.940   3.740   4.464
 2989SOL    HW2 9867   4.900   3.646   4.336
 2990SOL     OW 9868   5.570   1.462   4.327
 2990SOL    HW1 9869   5.561   1.533   4.256
 2990SOL    HW2 9870   5.638   1.491   4.394
 2991SOL     OW 9871   0.260   4.144   1.525
 2991SOL    HW1 9872   0.308   4.165   1.440
 2991SOL    HW2 9873   0.316   4.175   1.603
 2992SOL     OW 9874   0.393   3.436   5.471
 2992SOL    HW1 9875   0.405   3.431   5.570
 2992SOL    HW2 9876   0.392   3.344   5.433
 2993SOL     OW 9877   1.450   4.181   0.459
 2993SOL    HW1 9878   1.440   4.275   0.427
 2993SOL    HW2 9879   1.546   4.154   0.451
 2994SOL     OW 9880   4.147   5.900   6.379
 2994SOL    HW1 9881   4.200   5.848   6.446
 2994SOL    HW2 9882   4.207   5.934   6.307
 2995SOL     OW 9883   4.977   0.856   0.805
 2995SOL    HW1 9884   5.051   0.861   0.873
 2995SOL    HW2 9885   4.927   0.942   0.804
 2996SOL     OW 9886   6.598   0.716   4.478
 2996SOL    HW1 9887   6.587   0.792   4.414
 2996SOL    HW2 9888   6.673   0.657   4.448
 2997SOL     OW 9889   5.366   6.823   3.992
 2997SOL    HW1 9890   5.397   6.916   4.015
 2997SOL    HW2 9891   5.314   6.786   4.069
 2998SOL     OW 9892   2.819   1.181   3.326
 2998SOL    HW1 9893   2.855   1.138   3.243
 2998SOL    HW2 9894   2.789   1.111   3.390
 2999SOL     OW 9895   2.593   4.145   0.786
 2999SOL    HW1 9896   2.652   4.068   0.761
 2999SOL    HW2 9897   2.646   4.230   0.785
 3000SOL     OW 9898   3.067   3.894   5.598
 3000SOL    HW1 9899   3.110   3.935   5.679
 3000SOL    HW2 9900   2.997   3.956   5.563
 3001SOL     OW 9901   5.800   0.426   5.819
 3001SOL    HW1 9902   5.838   0.507   5.775
 3001SOL    HW2 9903   5.704   0.442   5.841
 3002SOL     OW 9904   1.749   2.110   1.714
 3002SOL    HW1 9905   1.726   2.186   1.774
 3002SOL    HW2 9906   1.753   2.143   1.619
 3003SOL     OW 9907   1.857   6.473   0.593
 3003SOL    HW1 9908   1.828   6.518   0.509
 3003SOL    HW2 9909   1.909   6.391   0.571
 3004SOL     OW 9910   2.665   6.303   3.842
 3004SOL    HW1 9911   2.578   6.255   3.854
 3004SOL    HW2 9912   2.721   6.255   3.775
 3005SOL     OW 9913   0.942   2.430   6.344
 3005SOL    HW1 9914   0.912   2.353   6.401
 3005SOL    HW2 9915   0.870   2.499   6.341
 3006SOL     OW 9916   4.975   1.217   5.483
 3006SOL    HW1 9917   5.041   1.167   5.539
 3006SOL    HW2 9918   4.913   1.268   5.542
 3007SOL     OW 9919   4.774   5.780   0.175
 3007SOL    HW1 9920   4.809   5.826   0.257
 3007SOL    HW2 9921   4.849   5.765   0.111
 3008SOL     OW 9922   4.855   3.415   5.847
 3008SOL    HW1 9923   4.820   3.357   5.920
 3008SOL    HW2 9924   4.901   3.495   5.887
 3009SOL     OW 9925   0.062   3.416   2.215
 3009SOL    HW1 9926   0.004   3.456   2.144
 3009SOL    HW2 9927   0.017   3.336   2.254
 3010SOL     OW 9928   3.626   5.795   0.180
 3010SOL    HW1 9929   3.654   5.734   0.255
 3010SOL    HW2 9930   3.701   5.857   0.158
 3011SOL     OW 9931   6.729   7.012   1.172
 3011SOL    HW1 9932   6.726   0.007   1.270
 3011SOL    HW2 9933   6.814   0.027   1.134
 3012SOL     OW 9934   2.296   2.037   5.383
 3012SOL    HW1 9935   2.376   2.097   5.379
 3012SOL    HW2 9936   2.253   2.033   5.292
 3013SOL     OW 9937   1.180   4.339   5.243
 3013SOL    HW1 9938   1.222   4.277   5.177
 3013SOL    HW2 9939   1.245   4.411   5.267
 3014SOL     OW 9940   5.273   6.656   6.143
 3014SOL    HW1 9941   5.284   6.589   6.216
 3014SOL    HW2 9942   5.304   6.745   6.175
 3015SOL     OW 9943   1.054   0.604   6.853
 3015SOL    HW1 9944   0.986   0.535   6.827
 3015SOL    HW2 9945   1.017   0.696   6.838
 3016SOL     OW 9946   1.911   6.147   4.388
 3016SOL    HW1 9947   1.879   6.207   4.314
 3016SOL    HW2 9948   1.967   6.074   4.350
 3017SOL     OW 9949   0.527   5.188   0.680
 3017SOL    HW1 9950   0.504   5.281   0.652
 3017SOL    HW2 9951   0.448   5.147   0.726
 3018SOL     OW 9952   3.444   0.010   0.817
 3018SOL    HW1 9953   3.493   0.011   0.730
 3018SOL    HW2 9954   3.439   0.102   0.854
 3019SOL     OW 9955   1.957   1.313   5.985
 3019SOL    HW1 9956   1.866   1.355   5.980
 3019SOL    HW2 9957   2.021   1.378   6.026
 3020SOL     OW 9958   6.405   4.075   6.856
 3020SOL    HW1 9959   6.499   4.107   6.870
 3020SOL    HW2 9960   6.341   4.148   6.880
 3021SOL     OW 9961   4.444   6.893   4.655
 3021SOL    HW1 9962   4.523   6.831   4.653
 3021SOL    HW2 9963   4.475   6.985   4.677
 3022SOL     OW 9964   3.652   5.817   3.914
 3022SOL    HW1 9965   3.720   5.874   3.960
 3022SOL    HW2 9966   3.691   5.727   3.894
 3023SOL     OW 9967   5.306   5.711   3.713
 3023SOL    HW1 9968   5.248   5.632   3.699
 3023SOL    HW2 9969   5.273   5.763   3.792
 3024SOL     OW 9970   0.318   6.652   0.062
 3024SOL    HW1 9971   0.370   6.727   0.104
 3024SOL    HW2 9972   0.379   6.575   0.045
 3025SOL     OW 9973   3.741   4.979   0.018
 3025SOL    HW1 9974   3.836   4.990   7.015
 3025SOL    HW2 9975   3.682   5.027   6.975
 3026SOL     OW 9976   6.884   1.068   1.703
 3026SOL    HW1 9977   6.870   0.983   1.753
 3026SOL    HW2 9978   6.937   1.131   1.758
 3027SOL     OW 9979   4.892   1.407   0.871
 3027SOL    HW1 9980   4.831   1.350   0.815
 3027SOL    HW2 9981   4.893   1.373   0.965
 3028SOL     OW 9982   3.001   3.467   5.890
 3028SOL    HW1 9983   3.006   3.514   5.801
 3028SOL    HW2 9984   3.093   3.441   5.919
 3029SOL     OW 9985   0.394   2.884   4.502
 3029SOL    HW1 9986   0.308   2.841   4.529
 3029SOL    HW2 9987   0.388   2.913   4.406
 3030SOL     OW 9988   2.513   3.196   0.541
 3030SOL    HW1 9989   2.469   3.141   0.613
 3030SOL    HW2 9990   2.501   3.150   0.453
 3031SOL     OW 9991   1.284   6.280   0.890
 3031SOL    HW1 9992   1.340   6.315   0.966
 3031SOL    HW2 9993   1.318   6.317   0.804
 3032SOL     OW 9994   2.431   0.495   2.554
 3032SOL    HW1 9995   2.493   0.423   2.522
 3032SOL    HW2 9996   2.423   0.490   2.654
 3033SOL     OW 9997   0.123   2.093   4.815
 3033SOL    HW1 9998   0.071   2.179   4.810
 3033SOL    HW2 9999   0.194   2.092   4.745
 3034SOL     OW10000   6.756   4.874   3.139
 3034SOL    HW110001   6.687   4.802   3.133
 3034SOL    HW210002   6.790   4.881   3.233
 3035SOL     OW10003   0.895   2.712   0.400
 3035SOL    HW110004   0.919   2.649   0.474
 3035SOL    HW210005   0.876   2.803   0.438
 3036SOL     OW10006   3.154   2.103   6.068
 3036SOL    HW110007   3.125   2.160   6.145
 3036SOL    HW210008   3.240   2.138   6.031
 3037SOL     OW10009   0.488   6.036   0.098
 3037SOL    HW110010   0.501   5.974   0.020
 3037SOL    HW210011   0.397   6.020   0.138
 3038SOL     OW10012   5.859   4.572   6.628
 3038SOL    HW110013   5.833   4.481   6.662
 3038SOL    HW210014   5.913   4.619   6.697
 3039SOL     OW10015   6.927   3.531   6.574
 3039SOL    HW110016   6.955   3.556   6.482
 3039SOL    HW210017   6.889   3.438   6.574
 3040SOL     OW10018   4.893   4.498   5.847
 3040SOL    HW110019   4.988   4.465   5.841
 3040SOL    HW210020   4.867   4.507   5.943
 3041SOL     OW10021   1.629   4.508   5.765
 3041SOL    HW110022   1.650   4.599   5.801
 3041SOL    HW210023   1.550   4.470   5.813
 3042SOL     OW10024   6.829   5.133   3.398
 3042SOL    HW110025   6.809   5.042   3.433
 3042SOL    HW210026   6.746   5.189   3.402
 3043SOL     OW10027   2.734   5.200   0.634
 3043SOL    HW110028   2.767   5.155   0.717
 3043SOL    HW210029   2.704   5.293   0.656
 3044SOL     OW10030   3.807   3.554   4.716
 3044SOL    HW110031   3.853   3.588   4.798
 3044SOL    HW210032   3.740   3.621   4.686
 3045SOL     OW10033   4.476   1.713   1.984
 3045SOL    HW110034   4.425   1.628   1.998
 3045SOL    HW210035   4.418   1.791   2.006
 3046SOL     OW10036   4.962   6.175   0.807
 3046SOL    HW110037   4.926   6.262   0.841
 3046SOL    HW210038   4.973   6.112   0.883
 3047SOL     OW10039   5.778   1.449   5.095
 3047SOL    HW110040   5.682   1.463   5.117
 3047SOL    HW210041   5.828   1.419   5.176
 3048SOL     OW10042   3.733   4.561   0.917
 3048SOL    HW110043   3.689   4.556   0.827
 3048SOL    HW210044   3.663   4.566   0.988
 3049SOL     OW10045   1.196   1.349   3.069
 3049SOL    HW110046   1.178   1.319   3.163
 3049SOL    HW210047   1.137   1.426   3.046
 3050SOL     OW10048   3.410   2.095   0.853
 3050SOL    HW110049   3.406   2.158   0.776
 3050SOL    HW210050   3.384   2.003   0.822
 3051SOL     OW10051   2.214   5.490   5.368
 3051SOL    HW110052   2.202   5.426   5.292
 3051SOL    HW210053   2.148   5.469   5.440
 3052SOL     OW10054   6.766   6.516   2.059
 3052SOL    HW110055   6.729   6.569   2.135
 3052SOL    HW210056   6.805   6.577   1.991
 3053SOL     OW10057   0.893   4.320   0.002
 3053SOL    HW110058   0.908   4.363   0.091
 3053SOL    HW210059   0.825   4.247   0.012
 3054SOL     OW10060   5.562   0.621   2.426
 3054SOL    HW110061   5.540   0.592   2.519
 3054SOL    HW210062   5.483   0.669   2.386
 3055SOL     OW10063   5.692   6.001   6.475
 3055SOL    HW110064   5.771   6.035   6.424
 3055SOL    HW210065   5.723   5.940   6.547
 3056SOL     OW10066   5.086   1.750   5.367
 3056SOL    HW110067   5.021   1.794   5.428
 3056SOL    HW210068   5.105   1.657   5.400
 3057SOL     OW10069   5.329   3.867   3.360
 3057SOL    HW110070   5.293   3.946   3.409
 3057SOL    HW210071   5.280   3.857   3.274
 3058SOL     OW10072   0.203   4.422   6.744
 3058SOL    HW110073   0.135   4.354   6.772
 3058SOL    HW210074   0.184   4.450   6.650
 3059SOL     OW10075   1.829   2.044   3.790
 3059SOL    HW110076   1.768   2.084   3.858
 3059SOL    HW210077   1.855   1.952   3.819
 3060SOL     OW10078   5.512   5.253   5.021
 3060SOL    HW110079   5.455   5.234   5.101
 3060SOL    HW210080   5.607   5.232   5.042
 3061SOL     OW10081   5.987   6.132   4.873
 3061SOL    HW110082   6.016   6.067   4.803
 3061SOL    HW210083   6.064   6.191   4.898
 3062SOL     OW10084   4.074   4.308   1.322
 3062SOL    HW110085   4.055   4.251   1.402
 3062SOL    HW210086   4.143   4.377   1.346
 3063SOL     OW10087   0.429   4.311   2.038
 3063SOL    HW110088   0.508   4.253   2.059
 3063SOL    HW210089   0.400   4.359   2.121
 3064SOL     OW10090   4.807   2.110   6.377
 3064SOL    HW110091   4.852   2.069   6.456
 3064SOL    HW210092   4.875   2.160   6.323
 3065SOL     OW10093   6.428   1.266   6.744
 3065SOL    HW110094   6.515   1.291   6.702
 3065SOL    HW210095   6.445   1.211   6.826
 3066SOL     OW10096   5.118   6.158   5.745
 3066SOL    HW110097   5.135   6.147   5.843
 3066SOL    HW210098   5.195   6.205   5.703
 3067SOL     OW10099   1.450   2.266   6.033
 3067SOL    HW110100   1.449   2.170   6.005
 3067SOL    HW210101   1.443   2.272   6.132
 3068SOL     OW10102   0.505   1.105   0.434
 3068SOL    HW110103   0.514   1.025   0.493
 3068SOL    HW210104   0.423   1.096   0.377
 3069SOL     OW10105   5.393   6.930   2.988
 3069SOL    HW110106   5.368   6.992   2.914
 3069SOL    HW210107   5.471   6.874   2.961
 3070SOL     OW10108   2.065   1.043   0.914
 3070SOL    HW110109   2.151   1.047   0.862
 3070SOL    HW210110   2.076   0.984   0.994
 3071SOL     OW10111   6.404   3.991   4.116
 3071SOL    HW110112   6.481   3.955   4.169
 3071SOL    HW210113   6.318   3.966   4.161
 3072SOL     OW10114   1.943   0.013   6.637
 3072SOL    HW110115   1.917   0.105   6.607
 3072SOL    HW210116   2.029   0.018   6.687
 3073SOL     OW10117   6.209   5.175   1.206
 3073SOL    HW110118   6.246   5.260   1.171
 3073SOL    HW210119   6.195   5.111   1.130
 3074SOL     OW10120   2.234   3.221   1.820
 3074SOL    HW110121   2.191   3.201   1.909
 3074SOL    HW210122   2.281   3.309   1.825
 3075SOL     OW10123   3.229   5.511   2.047
 3075SOL    HW110124   3.291   5.449   2.094
 3075SOL    HW210125   3.158   5.542   2.110
 3076SOL     OW10126   0.623   0.409   5.211
 3076SOL    HW110127   0.597   0.334   5.271
 3076SOL    HW210128   0.723   0.413   5.204
 3077SOL     OW10129   6.896   3.928   2.798
 3077SOL    HW110130   6.905   3.857   2.868
 3077SOL    HW210131   6.823   3.991   2.824
 3078SOL     OW10132   6.884   3.540   2.024
 3078SOL    HW110133   6.970   3.585   2.000
 3078SOL    HW210134   6.807   3.594   1.988
 3079SOL     OW10135   2.239   3.352   5.229
 3079SOL    HW110136   2.161   3.408   5.258
 3079SOL    HW210137   2.320   3.377   5.284
 3080SOL     OW10138   3.699   4.725   0.444
 3080SOL    HW110139   3.797   4.746   0.441
 3080SOL    HW210140   3.664   4.715   0.351
 3081SOL     OW10141   1.172   3.686   0.285
 3081SOL    HW110142   1.258   3.663   0.240
 3081SOL    HW210143   1.134   3.770   0.244
 3082SOL     OW10144   4.424   5.135   4.252
 3082SOL    HW110145   4.362   5.172   4.322
 3082SOL    HW210146   4.497   5.084   4.297
 3083SOL     OW10147   3.584   6.097   1.867
 3083SOL    HW110148   3.647   6.046   1.808
 3083SOL    HW210149   3.636   6.158   1.926
 3084SOL     OW10150   0.322   3.969   4.097
 3084SOL    HW110151   0.231   3.940   4.124
 3084SOL    HW210152   0.379   3.980   4.178
 3085SOL     OW10153   5.328   4.904   0.322
 3085SOL    HW110154   5.394   4.970   0.284
 3085SOL    HW210155   5.266   4.951   0.384
 3086SOL     OW10156   6.721   6.645   6.092
 3086SOL    HW110157   6.623   6.633   6.107
 3086SOL    HW210158   6.767   6.658   6.180
 3087SOL     OW10159   3.256   6.718   1.624
 3087SOL    HW110160   3.170   6.690   1.667
 3087SOL    HW210161   3.332   6.692   1.683
 3088SOL     OW10162   2.107   2.848   5.967
 3088SOL    HW110163   2.025   2.854   5.909
 3088SOL    HW210164   2.115   2.931   6.022
 3089SOL     OW10165   4.158   6.157   4.958
 3089SOL    HW110166   4.125   6.205   5.039
 3089SOL    HW210167   4.089   6.162   4.886
 3090SOL     OW10168   1.177   2.233   2.387
 3090SOL    HW110169   1.166   2.134   2.381
 3090SOL    HW210170   1.256   2.254   2.444
 3091SOL     OW10171   1.374   2.217   1.002
 3091SOL    HW110172   1.316   2.279   0.949
 3091SOL    HW210173   1.367   2.124   0.965
 3092SOL     OW10174   5.780   1.159   2.769
 3092SOL    HW110175   5.704   1.129   2.711
 3092SOL    HW210176   5.867   1.135   2.726
 3093SOL     OW10177   6.051   5.469   0.173
 3093SOL    HW110178   6.072   5.395   0.109
 3093SOL    HW210179   5.979   5.440   0.236
 3094SOL     OW10180   2.960   1.759   6.576
 3094SOL    HW110181   3.013   1.843   6.585
 3094SOL    HW210182   3.021   1.681   6.560
 3095SOL     OW10183   1.216   3.843   4.784
 3095SOL    HW110184   1.251   3.900   4.710
 3095SOL    HW210185   1.197   3.751   4.749
 3096SOL     OW10186   0.394   3.172   4.012
 3096SOL    HW110187   0.410   3.268   3.988
 3096SOL    HW210188   0.452   3.113   3.957
 3097SOL     OW10189   5.402   2.870   5.458
 3097SOL    HW110190   5.384   2.934   5.384
 3097SOL    HW210191   5.316   2.838   5.497
 3098SOL     OW10192   1.874   3.408   2.299
 3098SOL    HW110193   1.871   3.486   2.361
 3098SOL    HW210194   1.785   3.363   2.296
 3099SOL     OW10195   0.315   6.119   4.302
 3099SOL    HW110196   0.371   6.192   4.264
 3099SOL    HW210197   0.252   6.156   4.370
 3100SOL     OW10198   6.033   4.894   1.812
 3100SOL    HW110199   6.010   4.805   1.849
 3100SOL    HW210200   5.949   4.946   1.794
 3101SOL     OW10201   3.405   6.554   5.358
 3101SOL    HW110202   3.427   6.581   5.264
 3101SOL    HW210203   3.388   6.456   5.361
 3102SOL     OW10204   6.917   4.711   0.841
 3102SOL    HW110205   6.929   4.629   0.898
 3102SOL    HW210206   6.840   4.698   0.779
 3103SOL     OW10207   3.274   1.232   1.118
 3103SOL    HW110208   3.174   1.234   1.117
 3103SOL    HW210209   3.307   1.235   1.213
 3104SOL     OW10210   4.849   0.950   5.656
 3104SOL    HW110211   4.756   0.912   5.657
 3104SOL    HW210212   4.878   0.970   5.750
 3105SOL     OW10213   6.089   3.704   0.630
 3105SOL    HW110214   6.186   3.697   0.654
 3105SOL    HW210215   6.056   3.796   0.651
 3106SOL     OW10216   6.147   0.282   6.447
 3106SOL    HW110217   6.058   0.302   6.488
 3106SOL    HW210218   6.135   0.266   6.349
 3107SOL     OW10219   3.905   1.366   5.636
 3107SOL    HW110220   3.896   1.295   5.706
 3107SOL    HW210221   3.817   1.382   5.593
 3108SOL     OW10222   2.333   4.300   3.862
 3108SOL    HW110223   2.334   4.346   3.773
 3108SOL    HW210224   2.315   4.202   3.848
 3109SOL     OW10225   6.564   6.114   4.294
 3109SOL    HW110226   6.620   6.065   4.361
 3109SOL    HW210227   6.547   6.055   4.215
 3110SOL     OW10228   0.966   4.211   2.979
 3110SOL    HW110229   0.885   4.184   3.031
 3110SOL    HW210230   0.972   4.311   2.976
 3111SOL     OW10231   5.892   4.700   4.268
 3111SOL    HW110232   5.986   4.693   4.301
 3111SOL    HW210233   5.885   4.658   4.177
 3112SOL     OW10234   3.989   1.704   5.984
 3112SOL    HW110235   3.920   1.632   5.993
 3112SOL    HW210236   3.964   1.764   5.907
 3113SOL     OW10237   2.630   5.985   3.147
 3113SOL    HW110238   2.552   6.012   3.204
 3113SOL    HW210239   2.597   5.936   3.066
 3114SOL     OW10240   4.623   1.085   5.999
 3114SOL    HW110241   4.618   1.184   5.988
 3114SOL    HW210242   4.707   1.050   5.957
 3115SOL     OW10243   4.887   5.397   5.121
 3115SOL    HW110244   4.801   5.362   5.084
 3115SOL    HW210245   4.869   5.447   5.205
 3116SOL     OW10246   0.741   1.223   1.054
 3116SOL    HW110247   0.674   1.243   0.982
 3116SOL    HW210248   0.699   1.164   1.123
 3117SOL     OW10249   5.200   1.140   5.619
 3117SOL    HW110250   5.240   1.049   5.612
 3117SOL    HW210251   5.271   1.205   5.644
 3118SOL     OW10252   1.218   1.009   3.336
 3118SOL    HW110253   1.256   1.075   3.401
 3118SOL    HW210254   1.119   1.018   3.333
 3119SOL     OW10255   4.396   5.138   4.976
 3119SOL    HW110256   4.327   5.172   4.913
 3119SOL    HW210257   4.359   5.062   5.030
 3120SOL     OW10258   1.499   5.960   5.528
 3120SOL    HW110259   1.557   5.972   5.447
 3120SOL    HW210260   1.540   5.893   5.589
 3121SOL     OW10261   4.392   1.382   4.242
 3121SOL    HW110262   4.485   1.403   4.272
 3121SOL    HW210263   4.377   1.283   4.243
 3122SOL     OW10264   4.774   5.656   4.643
 3122SOL    HW110265   4.814   5.723   4.581
 3122SOL    HW210266   4.822   5.659   4.731
 3123SOL     OW10267   2.449   1.247   3.432
 3123SOL    HW110268   2.474   1.150   3.431
 3123SOL    HW210269   2.516   1.299   3.485
 3124SOL     OW10270   4.781   6.877   3.883
 3124SOL    HW110271   4.705   6.915   3.831
 3124SOL    HW210272   4.746   6.828   3.963
 3125SOL     OW10273   1.267   1.018   5.396
 3125SOL    HW110274   1.189   1.059   5.444
 3125SOL    HW210275   1.343   1.008   5.459
 3126SOL     OW10276   5.588   5.539   5.473
 3126SOL    HW110277   5.509   5.485   5.501
 3126SOL    HW210278   5.605   5.525   5.376
 3127SOL     OW10279   0.493   0.986   5.146
 3127SOL    HW110280   0.402   0.980   5.187
 3127SOL    HW210281   0.496   0.932   5.062
 3128SOL     OW10282   4.333   0.621   0.563
 3128SOL    HW110283   4.424   0.598   0.529
 3128SOL    HW210284   4.341   0.678   0.645
 3129SOL     OW10285   4.675   3.908   0.097
 3129SOL    HW110286   4.752   3.960   0.060
 3129SOL    HW210287   4.667   3.821   0.047
 3130SOL     OW10288   0.666   4.359   2.394
 3130SOL    HW110289   0.603   4.436   2.399
 3130SOL    HW210290   0.713   4.361   2.306
 3131SOL     OW10291   6.389   3.913   3.372
 3131SOL    HW110292   6.330   3.990   3.396
 3131SOL    HW210293   6.481   3.928   3.410
 3132SOL     OW10294   4.225   5.005   6.792
 3132SOL    HW110295   4.319   4.997   6.824
 3132SOL    HW210296   4.224   5.002   6.692
 3133SOL     OW10297   4.049   0.241   4.366
 3133SOL    HW110298   4.063   0.275   4.459
 3133SOL    HW210299   4.097   0.154   4.355
 3134SOL     OW10300   4.377   5.212   2.604
 3134SOL    HW110301   4.356   5.191   2.699
 3134SOL    HW210302   4.309   5.169   2.544
 3135SOL     OW10303   4.730   6.285   6.719
 3135SOL    HW110304   4.821   6.282   6.760
 3135SOL    HW210305   4.694   6.192   6.708
 3136SOL     OW10306   6.237   1.774   2.445
 3136SOL    HW110307   6.211   1.808   2.535
 3136SOL    HW210308   6.207   1.838   2.375
 3137SOL     OW10309   5.833   6.706   6.695
 3137SOL    HW110310   5.877   6.628   6.740
 3137SOL    HW210311   5.880   6.726   6.609
 3138SOL     OW10312   5.747   5.711   3.365
 3138SOL    HW110313   5.677   5.702   3.436
 3138SOL    HW210314   5.827   5.759   3.402
 3139SOL     OW10315   2.881   5.058   1.755
 3139SOL    HW110316   2.837   5.012   1.832
 3139SOL    HW210317   2.847   5.019   1.669
 3140SOL     OW10318   6.662   6.854   6.381
 3140SOL    HW110319   6.737   6.893   6.434
 3140SOL    HW210320   6.670   6.881   6.285
 3141SOL     OW10321   6.543   2.393   6.099
 3141SOL    HW110322   6.517   2.457   6.172
 3141SOL    HW210323   6.633   2.355   6.120
 3142SOL     OW10324   4.588   1.435   3.137
 3142SOL    HW110325   4.583   1.335   3.141
 3142SOL    HW210326   4.590   1.465   3.042
 3143SOL     OW10327   6.210   1.112   0.574
 3143SOL    HW110328   6.255   1.200   0.587
 3143SOL    HW210329   6.254   1.063   0.498
 3144SOL     OW10330   3.820   3.625   6.241
 3144SOL    HW110331   3.754   3.563   6.198
 3144SOL    HW210332   3.841   3.700   6.178
 3145SOL     OW10333   0.556   6.291   0.907
 3145SOL    HW110334   0.467   6.245   0.907
 3145SOL    HW210335   0.622   6.237   0.958
 3146SOL     OW10336   0.340   0.090   5.427
 3146SOL    HW110337   0.435   0.120   5.422
 3146SOL    HW210338   0.279   0.169   5.416
 3147SOL     OW10339   3.985   5.059   6.936
 3147SOL    HW110340   4.063   5.055   6.873
 3147SOL    HW210341   4.001   5.130   7.004
 3148SOL     OW10342   6.931   5.087   2.453
 3148SOL    HW110343   6.910   5.111   2.547
 3148SOL    HW210344   6.975   5.164   2.407
 3149SOL     OW10345   3.226   1.680   0.455
 3149SOL    HW110346   3.158   1.744   0.490
 3149SOL    HW210347   3.246   1.610   0.524
 3150SOL     OW10348   6.851   5.923   4.826
 3150SOL    HW110349   6.930   5.980   4.846
 3150SOL    HW210350   6.882   5.835   4.790
 3151SOL     OW10351   6.884   1.332   5.893
 3151SOL    HW110352   6.931   1.277   5.963
 3151SOL    HW210353   6.853   1.272   5.819
 3152SOL     OW10354   1.094   3.315   6.209
 3152SOL    HW110355   1.145   3.311   6.295
 3152SOL    HW210356   1.123   3.395   6.156
 3153SOL     OW10357   6.262   5.392   1.012
 3153SOL    HW110358   6.206   5.458   1.062
 3153SOL    HW210359   6.339   5.439   0.969
 3154SOL     OW10360   4.664   1.448   0.077
 3154SOL    HW110361   4.626   1.536   0.107
 3154SOL    HW210362   4.627   1.375   0.134
 3155SOL     OW10363   1.013   5.003   1.039
 3155SOL    HW110364   0.915   4.998   1.019
 3155SOL    HW210365   1.038   5.099   1.054
 3156SOL     OW10366   3.590   4.189   1.917
 3156SOL    HW110367   3.572   4.241   1.833
 3156SOL    HW210368   3.688   4.169   1.923
 3157SOL     OW10369   0.898   1.350   5.475
 3157SOL    HW110370   0.962   1.326   5.402
 3157SOL    HW210371   0.874   1.447   5.467
 3158SOL     OW10372   1.539   1.175   5.883
 3158SOL    HW110373   1.550   1.076   5.894
 3158SOL    HW210374   1.442   1.197   5.870
 3159SOL     OW10375   6.371   6.901   0.319
 3159SOL    HW110376   6.340   6.806   0.316
 3159SOL    HW210377   6.394   6.926   0.413
 3160SOL     OW10378   1.778   0.768   6.737
 3160SOL    HW110379   1.690   0.814   6.746
 3160SOL    HW210380   1.847   0.817   6.790
 3161SOL     OW10381   1.798   2.388   2.795
 3161SOL    HW110382   1.766   2.377   2.701
 3161SOL    HW210383   1.788   2.483   2.822
 3162SOL     OW10384   1.940   5.323   1.004
 3162SOL    HW110385   1.857   5.276   0.973
 3162SOL    HW210386   1.917   5.385   1.079
 3163SOL     OW10387   4.028   4.296   7.005
 3163SOL    HW110388   4.022   4.196   7.004
 3163SOL    HW210389   4.094   4.326   6.936
 3164SOL     OW10390   3.056   6.429   2.934
 3164SOL    HW110391   3.066   6.478   2.847
 3164SOL    HW210392   2.961   6.437   2.965
 3165SOL     OW10393   1.087   6.547   6.753
 3165SOL    HW110394   1.014   6.487   6.720
 3165SOL    HW210395   1.082   6.635   6.705
 3166SOL     OW10396   4.445   0.767   5.081
 3166SOL    HW110397   4.466   0.702   5.154
 3166SOL    HW210398   4.353   0.750   5.047
 3167SOL     OW10399   5.686   3.312   0.497
 3167SOL    HW110400   5.714   3.406   0.476
 3167SOL    HW210401   5.748   3.248   0.451
 3168SOL     OW10402   4.920   2.139   0.525
 3168SOL    HW110403   4.845   2.129   0.590
 3168SOL    HW210404   4.975   2.055   0.524
 3169SOL     OW10405   1.873   4.537   1.948
 3169SOL    HW110406   1.816   4.525   2.030
 3169SOL    HW210407   1.871   4.454   1.893
 3170SOL     OW10408   2.717   4.924   3.050
 3170SOL    HW110409   2.637   4.947   3.105
 3170SOL    HW210410   2.789   4.887   3.110
 3171SOL     OW10411   5.013   2.786   3.440
 3171SOL    HW110412   5.030   2.689   3.428
 3171SOL    HW210413   4.917   2.807   3.421
 3172SOL     OW10414   6.946   4.591   1.319
 3172SOL    HW110415   6.918   4.682   1.349
 3172SOL    HW210416   6.980   4.539   1.397
 3173SOL     OW10417   3.847   2.644   0.709
 3173SOL    HW110418   3.825   2.555   0.747
 3173SOL    HW210419   3.770   2.678   0.656
 3174SOL     OW10420   2.725   3.780   5.694
 3174SOL    HW110421   2.638   3.800   5.739
 3174SOL    HW210422   2.753   3.859   5.639
 3175SOL     OW10423   6.383   0.510   4.241
 3175SOL    HW110424   6.440   0.428   4.236
 3175SOL    HW210425   6.435   0.589   4.209
 3176SOL     OW10426   1.106   4.731   5.090
 3176SOL    HW110427   1.162   4.661   5.047
 3176SOL    HW210428   1.104   4.813   5.032
 3177SOL     OW10429   5.553   3.198   3.672
 3177SOL    HW110430   5.485   3.159   3.734
 3177SOL    HW210431   5.578   3.290   3.703
 3178SOL     OW10432   0.180   0.293   1.099
 3178SOL    HW110433   0.114   0.364   1.124
 3178SOL    HW210434   0.244   0.280   1.175
 3179SOL     OW10435   1.245   1.879   2.145
 3179SOL    HW110436   1.198   1.902   2.230
 3179SOL    HW210437   1.327   1.825   2.165
 3180SOL     OW10438   6.500   5.916   0.064
 3180SOL    HW110439   6.471   5.848   0.131
 3180SOL    HW210440   6.600   5.920   0.062
 3181SOL     OW10441   0.788   0.292   4.833
 3181SOL    HW110442   0.825   0.244   4.912
 3181SOL    HW210443   0.862   0.311   4.768
 3182SOL     OW10444   3.175   0.919   0.795
 3182SOL    HW110445   3.257   0.867   0.819
 3182SOL    HW210446   3.094   0.862   0.808
 3183SOL     OW10447   4.305   4.451   1.699
 3183SOL    HW110448   4.205   4.452   1.689
 3183SOL    HW210449   4.330   4.377   1.762
 3184SOL     OW10450   0.199   1.976   5.645
 3184SOL    HW110451   0.238   2.062   5.678
 3184SOL    HW210452   0.162   1.989   5.553
 3185SOL     OW10453   0.744   5.360   6.209
 3185SOL    HW110454   0.815   5.368   6.139
 3185SOL    HW210455   0.656   5.344   6.164
 3186SOL     OW10456   6.991   1.347   6.466
 3186SOL    HW110457   0.059   1.382   6.444
 3186SOL    HW210458   6.925   1.423   6.465
 3187SOL     OW10459   4.047   6.005   2.448
 3187SOL    HW110460   4.118   5.954   2.497
 3187SOL    HW210461   3.965   6.012   2.505
 3188SOL     OW10462   2.171   4.557   5.777
 3188SOL    HW110463   2.266   4.584   5.788
 3188SOL    HW210464   2.160   4.508   5.690
 3189SOL     OW10465   3.438   1.808   6.395
 3189SOL    HW110466   3.379   1.887   6.379
 3189SOL    HW210467   3.508   1.831   6.463
 3190SOL     OW10468   6.359   5.389   4.923
 3190SOL    HW110469   6.312   5.441   4.995
 3190SOL    HW210470   6.343   5.434   4.835
 3191SOL     OW10471   4.529   5.612   2.043
 3191SOL    HW110472   4.517   5.686   1.977
 3191SOL    HW210473   4.617   5.622   2.089
 3192SOL     OW10474   6.248   2.412   2.245
 3192SOL    HW110475   6.260   2.507   2.215
 3192SOL    HW210476   6.152   2.396   2.269
 3193SOL     OW10477   4.048   0.405   5.383
 3193SOL    HW110478   4.041   0.311   5.419
 3193SOL    HW210479   4.016   0.469   5.453
 3194SOL     OW10480   1.243   1.160   6.376
 3194SOL    HW110481   1.242   1.214   6.292
 3194SOL    HW210482   1.307   1.084   6.367
 3195SOL     OW10483   0.556   2.175   1.602
 3195SOL    HW110484   0.641   2.166   1.549
 3195SOL    HW210485   0.544   2.094   1.659
 3196SOL     OW10486   6.453   0.319   4.499
 3196SOL    HW110487   6.490   0.290   4.411
 3196SOL    HW210488   6.360   0.285   4.510
 3197SOL     OW10489   1.745   0.852   6.438
 3197SOL    HW110490   1.721   0.823   6.531
 3197SOL    HW210491   1.704   0.942   6.420
 3198SOL     OW10492   6.071   2.854   3.328
 3198SOL    HW110493   6.160   2.848   3.284
 3198SOL    HW210494   6.046   2.766   3.368
 3199SOL     OW10495   5.770   4.326   3.402
 3199SOL    HW110496   5.758   4.369   3.313
 3199SOL    HW210497   5.691   4.266   3.420
 3200SOL     OW10498   5.570   3.399   4.013
 3200SOL    HW110499   5.636   3.456   4.062
 3200SOL    HW210500   5.587   3.405   3.915
 3201SOL     OW10501   5.881   4.275   2.933
 3201SOL    HW110502   5.888   4.260   2.835
 3201SOL    HW210503   5.916   4.366   2.955
 3202SOL     OW10504   1.465   4.495   0.030
 3202SOL    HW110505   1.398   4.568   0.019
 3202SOL    HW210506   1.423   4.416   0.073
 3203SOL     OW10507   3.837   0.083   0.975
 3203SOL    HW110508   3.774   0.124   0.908
 3203SOL    HW210509   3.846   0.144   1.054
 3204SOL     OW10510   2.770   1.360   3.643
 3204SOL    HW110511   2.855   1.385   3.688
 3204SOL    HW210512   2.737   1.273   3.680
 3205SOL     OW10513   5.711   3.391   5.455
 3205SOL    HW110514   5.642   3.405   5.526
 3205SOL    HW210515   5.753   3.301   5.467
 3206SOL     OW10516   2.767   2.983   1.561
 3206SOL    HW110517   2.844   2.980   1.497
 3206SOL    HW210518   2.800   3.007   1.652
 3207SOL     OW10519   0.765   6.004   5.416
 3207SOL    HW110520   0.758   6.103   5.404
 3207SOL    HW210521   0.855   5.981   5.453
 3208SOL     OW10522   6.247   5.215   6.088
 3208SOL    HW110523   6.188   5.239   6.165
 3208SOL    HW210524   6.211   5.134   6.042
 3209SOL     OW10525   4.832   5.874   6.609
 3209SOL    HW110526   4.733   5.862   6.613
 3209SOL    HW210527   4.876   5.810   6.671
 3210SOL     OW10528   6.570   5.347   1.673
 3210SOL    HW110529   6.567   5.250   1.649
 3210SOL    HW210530   6.493   5.369   1.733
 3211SOL     OW10531   0.623   5.312   6.494
 3211SOL    HW110532   0.676   5.345   6.415
 3211SOL    HW210533   0.621   5.383   6.564
 3212SOL     OW10534   2.295   0.213   3.132
 3212SOL    HW110535   2.199   0.187   3.119
 3212SOL    HW210536   2.313   0.223   3.230
 3213SOL     OW10537   1.456   0.611   6.063
 3213SOL    HW110538   1.465   0.567   6.152
 3213SOL    HW210539   1.523   0.572   6.000
 3214SOL     OW10540   3.532   0.886   2.518
 3214SOL    HW110541   3.560   0.981   2.504
 3214SOL    HW210542   3.512   0.871   2.615
 3215SOL     OW10543   1.557   3.396   1.085
 3215SOL    HW110544   1.632   3.400   1.019
 3215SOL    HW210545   1.514   3.486   1.093
 3216SOL     OW10546   5.733   4.446   0.558
 3216SOL    HW110547   5.709   4.525   0.615
 3216SOL    HW210548   5.650   4.406   0.519
 3217SOL     OW10549   0.896   5.413   3.251
 3217SOL    HW110550   0.865   5.324   3.285
 3217SOL    HW210551   0.937   5.401   3.160
 3218SOL     OW10552   6.287   1.081   3.132
 3218SOL    HW110553   6.305   1.056   3.227
 3218SOL    HW210554   6.362   1.049   3.074
 3219SOL     OW10555   5.983   0.678   5.541
 3219SOL    HW110556   5.894   0.671   5.587
 3219SOL    HW210557   6.056   0.679   5.610
 3220SOL     OW10558   6.844   4.788   6.891
 3220SOL    HW110559   6.870   4.693   6.872
 3220SOL    HW210560   6.744   4.794   6.901
 3221SOL     OW10561   3.787   0.320   1.820
 3221SOL    HW110562   3.881   0.302   1.849
 3221SOL    HW210563   3.728   0.329   1.901
 3222SOL     OW10564   3.301   1.344   3.196
 3222SOL    HW110565   3.227   1.374   3.256
 3222SOL    HW210566   3.280   1.368   3.101
 3223SOL     OW10567   1.315   6.880   0.875
 3223SOL    HW110568   1.255   6.939   0.822
 3223SOL    HW210569   1.352   6.808   0.816
 3224SOL     OW10570   4.208   1.985   4.151
 3224SOL    HW110571   4.112   1.961   4.163
 3224SOL    HW210572   4.226   2.001   4.054
 3225SOL     OW10573   4.127   0.465   4.190
 3225SOL    HW110574   4.084   0.398   4.251
 3225SOL    HW210575   4.224   0.471   4.211
 3226SOL     OW10576   0.370   0.275   1.287
 3226SOL    HW110577   0.341   0.220   1.365
 3226SOL    HW210578   0.469   0.268   1.276
 3227SOL     OW10579   4.838   3.775   5.305
 3227SOL    HW110580   4.797   3.702   5.250
 3227SOL    HW210581   4.894   3.734   5.377
 3228SOL     OW10582   1.883   4.386   0.456
 3228SOL    HW110583   1.832   4.443   0.520
 3228SOL    HW210584   1.873   4.424   0.363
 3229SOL     OW10585   2.202   1.453   0.614
 3229SOL    HW110586   2.136   1.378   0.620
 3229SOL    HW210587   2.205   1.501   0.702
 3230SOL     OW10588   2.249   5.770   5.714
 3230SOL    HW110589   2.158   5.809   5.730
 3230SOL    HW210590   2.315   5.843   5.699
 3231SOL     OW10591   2.606   0.735   1.603
 3231SOL    HW110592   2.641   0.649   1.566
 3231SOL    HW210593   2.644   0.812   1.550
 3232SOL     OW10594   4.198   5.753   4.003
 3232SOL    HW110595   4.266   5.765   3.931
 3232SOL    HW210596   4.147   5.838   4.014
 3233SOL     OW10597   0.372   2.483   0.354
 3233SOL    HW110598   0.316   2.409   0.318
 3233SOL    HW210599   0.393   2.548   0.280
 3234SOL     OW10600   2.652   3.131   0.922
 3234SOL    HW110601   2.574   3.177   0.965
 3234SOL    HW210602   2.688   3.061   0.984
 3235SOL     OW10603   0.311   6.805   2.015
 3235SOL    HW110604   0.257   6.871   1.963
 3235SOL    HW210605   0.405   6.838   2.024
 3236SOL     OW10606   3.261   3.598   0.344
 3236SOL    HW110607   3.246   3.506   0.378
 3236SOL    HW210608   3.322   3.596   0.265
 3237SOL     OW10609   5.592   1.136   5.088
 3237SOL    HW110610   5.666   1.091   5.038
 3237SOL    HW210611   5.573   1.225   5.046
 3238SOL     OW10612   7.000   5.542   1.763
 3238SOL    HW110613   6.983   5.585   1.851
 3238SOL    HW210614   0.023   5.607   1.702
 3239SOL     OW10615   6.665   0.119   4.051
 3239SOL    HW110616   6.615   0.065   4.118
 3239SOL    HW210617   6.753   0.147   4.090
 3240SOL     OW10618   0.206   1.136   6.883
 3240SOL    HW110619   0.306   1.141   6.888
 3240SOL    HW210620   0.176   1.149   6.788
 3241SOL     OW10621   5.894   1.666   6.119
 3241SOL    HW110622   5.919   1.598   6.050
 3241SOL    HW210623   5.813   1.716   6.089
 3242SOL     OW10624   5.150   4.857   5.093
 3242SOL    HW110625   5.178   4.762   5.084
 3242SOL    HW210626   5.231   4.915   5.099
 3243SOL     OW10627   5.590   5.248   5.346
 3243SOL    HW110628   5.506   5.231   5.397
 3243SOL    HW210629   5.574   5.321   5.279
 3244SOL     OW10630   5.417   6.222   0.104
 3244SOL    HW110631   5.387   6.310   0.140
 3244SOL    HW210632   5.448   6.163   0.179
 3245SOL     OW10633   4.174   1.446   4.368
 3245SOL    HW110634   4.155   1.544   4.362
 3245SOL    HW210635   4.258   1.425   4.319
 3246SOL     OW10636   0.089   0.702   2.699
 3246SOL    HW110637   0.117   0.724   2.792
 3246SOL    HW210638   0.148   0.749   2.634
 3247SOL     OW10639   0.757   4.037   3.076
 3247SOL    HW110640   0.744   3.994   2.987
 3247SOL    HW210641   0.710   3.983   3.146
 3248SOL     OW10642   5.582   2.093   3.243
 3248SOL    HW110643   5.637   2.173   3.219
 3248SOL    HW210644   5.494   2.097   3.196
 3249SOL     OW10645   2.963   3.555   3.474
 3249SOL    HW110646   2.930   3.509   3.556
 3249SOL    HW210647   3.063   3.548   3.470
 3250SOL     OW10648   5.087   5.363   2.396
 3250SOL    HW110649   5.012   5.333   2.456
 3250SOL    HW210650   5.165   5.302   2.407
 3251SOL     OW10651   2.781   1.039   3.560
 3251SOL    HW110652   2.758   0.961   3.501
 3251SOL    HW210653   2.713   1.046   3.633
 3252SOL     OW10654   2.237   1.362   4.003
 3252SOL    HW110655   2.176   1.441   3.994
 3252SOL    HW210656   2.185   1.283   4.037
 3253SOL     OW10657   6.344   3.738   0.719
 3253SOL    HW110658   6.351   3.828   0.761
 3253SOL    HW210659   6.433   3.712   0.681
 3254SOL     OW10660   6.000   0.562   0.827
 3254SOL    HW110661   6.086   0.558   0.775
 3254SOL    HW210662   5.937   0.493   0.792
 3255SOL     OW10663   5.063   5.204   1.171
 3255SOL    HW110664   5.118   5.121   1.184
 3255SOL    HW210665   5.064   5.229   1.074
 3256SOL     OW10666   5.011   2.090   0.894
 3256SOL    HW110667   5.071   2.040   0.832
 3256SOL    HW210668   5.007   2.042   0.982
 3257SOL     OW10669   2.700   1.892   3.106
 3257SOL    HW110670   2.773   1.825   3.091
 3257SOL    HW210671   2.669   1.928   3.018
 3258SOL     OW10672   2.221   6.339   3.413
 3258SOL    HW110673   2.264   6.428   3.398
 3258SOL    HW210674   2.231   6.282   3.332
 3259SOL     OW10675   4.592   4.374   3.866
 3259SOL    HW110676   4.516   4.373   3.931
 3259SOL    HW210677   4.678   4.363   3.915
 3260SOL     OW10678   1.370   4.537   1.780
 3260SOL    HW110679   1.399   4.594   1.857
 3260SOL    HW210680   1.274   4.511   1.793
 3261SOL     OW10681   4.843   6.914   3.051
 3261SOL    HW110682   4.829   6.953   3.142
 3261SOL    HW210683   4.913   6.968   3.003
 3262SOL     OW10684   3.248   2.065   2.415
 3262SOL    HW110685   3.304   1.988   2.383
 3262SOL    HW210686   3.195   2.101   2.339
 3263SOL     OW10687   1.331   1.582   2.734
 3263SOL    HW110688   1.272   1.502   2.737
 3263SOL    HW210689   1.416   1.563   2.783
 3264SOL     OW10690   2.266   5.947   0.585
 3264SOL    HW110691   2.324   5.894   0.523
 3264SOL    HW210692   2.179   5.900   0.599
 3265SOL     OW10693   5.290   4.704   5.681
 3265SOL    HW110694   5.356   4.779   5.692
 3265SOL    HW210695   5.320   4.625   5.735
 3266SOL     OW10696   3.240   4.987   6.393
 3266SOL    HW110697   3.157   4.942   6.360
 3266SOL    HW210698   3.317   4.924   6.386
 3267SOL     OW10699   4.184   0.084   0.507
 3267SOL    HW110700   4.153   0.167   0.461
 3267SOL    HW210701   4.282   0.073   0.492
 3268SOL     OW10702   6.676   5.236   1.966
 3268SOL    HW110703   6.599   5.295   1.943
 3268SOL    HW210704   6.694   5.241   2.064
 3269SOL     OW10705   1.819   5.132   2.431
 3269SOL    HW110706   1.822   5.231   2.441
 3269SOL    HW210707   1.908   5.098   2.403
 3270SOL     OW10708   0.475   2.437   5.597
 3270SOL    HW110709   0.466   2.391   5.509
 3270SOL    HW210710   0.555   2.497   5.595
 3271SOL     OW10711   0.934   3.624   2.671
 3271SOL    HW110712   0.917   3.554   2.740
 3271SOL    HW210713   1.015   3.678   2.697
 3272SOL     OW10714   4.682   6.490   0.384
 3272SOL    HW110715   4.767   6.438   0.377
 3272SOL    HW210716   4.613   6.447   0.326
 3273SOL     OW10717   4.727   2.411   6.654
 3273SOL    HW110718   4.771   2.499   6.637
 3273SOL    HW210719   4.662   2.420   6.729
 3274SOL     OW10720   5.393   0.448   0.051
 3274SOL    HW110721   5.484   0.408   0.063
 3274SOL    HW210722   5.374   0.512   0.125
 3275SOL     OW10723   4.819   0.200   1.138
 3275SOL    HW110724   4.867   0.274   1.091
 3275SOL    HW210725   4.748   0.238   1.197
 3276SOL     OW10726   5.017   6.589   0.055
 3276SOL    HW110727   4.921   6.594   0.027
 3276SOL    HW210728   5.071   6.652   7.022
 3277SOL     OW10729   3.521   1.933   2.409
 3277SOL    HW110730   3.509   1.884   2.323
 3277SOL    HW210731   3.592   2.003   2.398
 3278SOL     OW10732   6.799   6.956   6.915
 3278SOL    HW110733   6.822   6.874   6.967
 3278SOL    HW210734   6.830   0.014   6.965
 3279SOL     OW10735   3.741   6.865   0.877
 3279SOL    HW110736   3.657   6.913   0.851
 3279SOL    HW210737   3.804   6.930   0.921
 3280SOL     OW10738   5.632   3.777   4.675
 3280SOL    HW110739   5.643   3.775   4.575
 3280SOL    HW210740   5.665   3.691   4.714
 3281SOL     OW10741   6.159   3.527   1.682
 3281SOL    HW110742   6.169   3.598   1.612
 3281SOL    HW210743   6.163   3.437   1.638
 3282SOL     OW10744   0.302   4.405   4.597
 3282SOL    HW110745   0.218   4.412   4.544
 3282SOL    HW210746   0.323   4.308   4.615
 3283SOL     OW10747   3.904   1.584   1.152
 3283SOL    HW110748   3.963   1.608   1.075
 3283SOL    HW210749   3.809   1.580   1.121
 3284SOL     OW10750   1.363   5.628   4.672
 3284SOL    HW110751   1.435   5.636   4.742
 3284SOL    HW210752   1.399   5.580   4.592
 3285SOL     OW10753   4.883   1.210   5.025
 3285SOL    HW110754   4.947   1.159   5.081
 3285SOL    HW210755   4.933   1.264   4.957
 3286SOL     OW10756   2.976   1.362   1.115
 3286SOL    HW110757   2.935   1.433   1.172
 3286SOL    HW210758   2.958   1.272   1.156
 3287SOL     OW10759   2.425   0.418   6.605
 3287SOL    HW110760   2.471   0.507   6.599
 3287SOL    HW210761   2.356   0.411   6.532
 3288SOL     OW10762   1.719   6.743   1.266
 3288SOL    HW110763   1.800   6.764   1.322
 3288SOL    HW210764   1.639   6.788   1.306
 3289SOL     OW10765   3.920   1.857   6.735
 3289SOL    HW110766   3.828   1.831   6.707
 3289SOL    HW210767   3.979   1.860   6.654
 3290SOL     OW10768   6.563   4.737   0.711
 3290SOL    HW110769   6.528   4.723   0.804
 3290SOL    HW210770   6.594   4.832   0.701
 3291SOL     OW10771   4.947   6.941   5.169
 3291SOL    HW110772   4.926   6.986   5.083
 3291SOL    HW210773   5.041   6.963   5.196
 3292SOL     OW10774   0.036   2.210   1.563
 3292SOL    HW110775   0.076   2.189   1.474
 3292SOL    HW210776   0.108   2.211   1.633
 3293SOL     OW10777   6.215   5.010   3.181
 3293SOL    HW110778   6.291   4.972   3.234
 3293SOL    HW210779   6.215   4.970   3.089
 3294SOL     OW10780   5.018   2.598   5.105
 3294SOL    HW110781   4.942   2.655   5.137
 3294SOL    HW210782   5.004   2.573   5.010
 3295SOL     OW10783   1.648   3.061   2.174
 3295SOL    HW110784   1.694   3.120   2.108
 3295SOL    HW210785   1.716   3.013   2.229
 3296SOL     OW10786   1.231   0.010   6.395
 3296SOL    HW110787   1.312   0.012   6.453
 3296SOL    HW210788   1.222   6.943   6.353
 3297SOL     OW10789   3.123   1.920   4.814
 3297SOL    HW110790   3.137   1.847   4.881
 3297SOL    HW210791   3.204   1.979   4.811
 3298SOL     OW10792   5.605   4.326   5.709
 3298SOL    HW110793   5.611   4.314   5.809
 3298SOL    HW210794   5.549   4.253   5.670
 3299SOL     OW10795   2.810   4.892   4.683
 3299SOL    HW110796   2.773   4.891   4.590
 3299SOL    HW210797   2.787   4.806   4.728
 3300SOL     OW10798   1.986   0.031   4.421
 3300SOL    HW110799   1.924   0.045   4.498
 3300SOL    HW210800   2.036   0.116   4.403
 3301SOL     OW10801   2.071   2.138   3.501
 3301SOL    HW110802   2.086   2.044   3.532
 3301SOL    HW210803   2.106   2.149   3.409
 3302SOL     OW10804   2.199   4.844   6.216
 3302SOL    HW110805   2.193   4.791   6.131
 3302SOL    HW210806   2.208   4.941   6.194
 3303SOL     OW10807   3.535   3.408   0.493
 3303SOL    HW110808   3.536   3.405   0.593
 3303SOL    HW210809   3.467   3.343   0.459
 3304SOL     OW10810   2.611   4.807   5.928
 3304SOL    HW110811   2.708   4.780   5.931
 3304SOL    HW210812   2.577   4.821   6.020
 3305SOL     OW10813   3.491   1.317   0.759
 3305SOL    HW110814   3.574   1.358   0.720
 3305SOL    HW210815   3.490   1.219   0.738
 3306SOL     OW10816   1.642   0.824   0.143
 3306SOL    HW110817   1.740   0.835   0.129
 3306SOL    HW210818   1.625   0.794   0.237
 3307SOL     OW10819   1.483   0.243   4.808
 3307SOL    HW110820   1.491   0.330   4.857
 3307SOL    HW210821   1.386   0.218   4.802
 3308SOL     OW10822   3.652   4.426   1.152
 3308SOL    HW110823   3.557   4.397   1.165
 3308SOL    HW210824   3.686   4.468   1.236
 3309SOL     OW10825   5.892   3.446   3.501
 3309SOL    HW110826   5.816   3.392   3.466
 3309SOL    HW210827   5.957   3.385   3.547
 3310SOL     OW10828   6.668   5.502   5.697
 3310SOL    HW110829   6.654   5.508   5.598
 3310SOL    HW210830   6.694   5.591   5.733
 3311SOL     OW10831   3.558   3.824   0.313
 3311SOL    HW110832   3.625   3.898   0.314
 3311SOL    HW210833   3.466   3.862   0.302
 3312SOL     OW10834   4.706   2.579   5.945
 3312SOL    HW110835   4.717   2.573   5.846
 3312SOL    HW210836   4.651   2.659   5.968
 3313SOL     OW10837   1.548   0.622   3.481
 3313SOL    HW110838   1.462   0.673   3.480
 3313SOL    HW210839   1.554   0.565   3.399
 3314SOL     OW10840   2.150   5.717   2.402
 3314SOL    HW110841   2.077   5.762   2.453
 3314SOL    HW210842   2.239   5.742   2.440
 3315SOL     OW10843   6.871   4.752   5.474
 3315SOL    HW110844   6.921   4.667   5.489
 3315SOL    HW210845   6.818   4.774   5.556
 3316SOL     OW10846   3.184   1.613   6.224
 3316SOL    HW110847   3.231   1.560   6.154
 3316SOL    HW210848   3.246   1.632   6.300
 3317SOL     OW10849   5.585   2.534   2.875
 3317SOL    HW110850   5.503   2.505   2.924
 3317SOL    HW210851   5.587   2.634   2.871
 3318SOL     OW10852   3.034   2.299   0.285
 3318SOL    HW110853   3.112   2.361   0.288
 3318SOL    HW210854   3.011   2.279   0.189
 3319SOL     OW10855   6.791   6.453   3.320
 3319SOL    HW110856   6.889   6.472   3.328
 3319SOL    HW210857   6.739   6.525   3.367
 3320SOL     OW10858   6.325   0.158   0.938
 3320SOL    HW110859   6.419   0.160   0.970
 3320SOL    HW210860   6.316   0.214   0.856
 3321SOL     OW10861   5.187   1.444   0.065
 3321SOL    HW110862   5.206   1.348   0.044
 3321SOL    HW210863   5.161   1.453   0.161
 3322SOL     OW10864   0.180   3.971   1.054
 3322SOL    HW110865   0.173   3.961   1.153
 3322SOL    HW210866   0.172   4.067   1.029
 3323SOL     OW10867   1.651   1.677   2.032
 3323SOL    HW110868   1.708   1.749   1.991
 3323SOL    HW210869   1.576   1.719   2.082
 3324SOL     OW10870   5.067   5.419   5.760
 3324SOL    HW110871   5.166   5.416   5.770
 3324SOL    HW210872   5.039   5.511   5.732
 3325SOL     OW10873   1.638   3.750   6.958
 3325SOL    HW110874   1.557   3.698   6.930
 3325SOL    HW210875   1.664   3.725   0.028
 3326SOL     OW10876   4.880   1.479   2.953
 3326SOL    HW110877   4.813   1.495   2.881
 3326SOL    HW210878   4.968   1.515   2.925
 3327SOL     OW10879   1.402   6.025   1.617
 3327SOL    HW110880   1.397   6.122   1.593
 3327SOL    HW210881   1.321   5.999   1.670
 3328SOL     OW10882   4.542   2.334   0.593
 3328SOL    HW110883   4.506   2.271   0.662
 3328SOL    HW210884   4.477   2.343   0.518
 3329SOL     OW10885   5.796   5.428   5.910
 3329SOL    HW110886   5.750   5.497   5.855
 3329SOL    HW210887   5.730   5.359   5.940
 3330SOL     OW10888   6.264   3.521   2.567
 3330SOL    HW110889   6.343   3.571   2.531
 3330SOL    HW210890   6.294   3.431   2.599
 3331SOL     OW10891   2.113   2.816   1.567
 3331SOL    HW110892   2.027   2.765   1.563
 3331SOL    HW210893   2.186   2.757   1.601
 3332SOL     OW10894   6.108   4.508   0.734
 3332SOL    HW110895   6.049   4.584   0.761
 3332SOL    HW210896   6.185   4.544   0.681
 3333SOL     OW10897   4.252   5.204   5.513
 3333SOL    HW110898   4.251   5.264   5.433
 3333SOL    HW210899   4.210   5.116   5.490
 3334SOL     OW10900   2.488   4.296   1.801
 3334SOL    HW110901   2.556   4.256   1.740
 3334SOL    HW210902   2.396   4.270   1.769
 3335SOL     OW10903   4.983   4.466   5.516
 3335SOL    HW110904   4.886   4.487   5.506
 3335SOL    HW210905   4.996   4.367   5.520
 3336SOL     OW10906   3.718   5.116   6.076
 3336SOL    HW110907   3.771   5.129   6.159
 3336SOL    HW210908   3.660   5.196   6.060
 3337SOL     OW10909   3.379   2.532   1.211
 3337SOL    HW110910   3.452   2.514   1.277
 3337SOL    HW210911   3.411   2.507   1.119
 3338SOL     OW10912   0.177   4.081   0.656
 3338SOL    HW110913   0.187   3.983   0.639
 3338SOL    HW210914   0.266   4.121   0.674
 3339SOL     OW10915   6.800   5.681   6.568
 3339SOL    HW110916   6.723   5.633   6.610
 3339SOL    HW210917   6.773   5.774   6.544
 3340SOL     OW10918   3.605   6.141   1.510
 3340SOL    HW110919   3.522   6.137   1.454
 3340SOL    HW210920   3.594   6.211   1.581
 3341SOL     OW10921   0.875   1.116   2.756
 3341SOL    HW110922   0.885   1.139   2.659
 3341SOL    HW210923   0.870   1.201   2.809
 3342SOL     OW10924   2.082   6.743   4.007
 3342SOL    HW110925   2.087   6.842   3.995
 3342SOL    HW210926   2.136   6.698   3.936
 3343SOL     OW10927   5.261   3.058   0.751
 3343SOL    HW110928   5.339   3.102   0.705
 3343SOL    HW210929   5.239   2.973   0.704
 3344SOL     OW10930   6.430   3.197   6.128
 3344SOL    HW110931   6.428   3.138   6.209
 3344SOL    HW210932   6.343   3.247   6.121
 3345SOL     OW10933   2.814   3.112   6.247
 3345SOL    HW110934   2.734   3.159   6.285
 3345SOL    HW210935   2.869   3.177   6.195
 3346SOL     OW10936   0.228   0.453   1.622
 3346SOL    HW110937   0.216   0.366   1.575
 3346SOL    HW210938   0.265   0.521   1.559
 3347SOL     OW10939   5.884   3.902   4.828
 3347SOL    HW110940   5.902   3.847   4.910
 3347SOL    HW210941   5.803   3.866   4.781
 3348SOL     OW10942   3.724   3.047   4.160
 3348SOL    HW110943   3.806   3.105   4.164
 3348SOL    HW210944   3.702   3.016   4.252
 3349SOL     OW10945   6.172   3.549   4.134
 3349SOL    HW110946   6.104   3.622   4.133
 3349SOL    HW210947   6.242   3.567   4.065
 3350SOL     OW10948   1.626   1.025   1.080
 3350SOL    HW110949   1.534   1.046   1.114
 3350SOL    HW210950   1.668   1.109   1.045
 3351SOL     OW10951   5.172   1.833   1.325
 3351SOL    HW110952   5.194   1.930   1.327
 3351SOL    HW210953   5.183   1.795   1.417
 3352SOL     OW10954   0.575   3.075   0.722
 3352SOL    HW110955   0.612   3.145   0.784
 3352SOL    HW210956   0.533   3.002   0.775
 3353SOL     OW10957   2.007   6.948   6.372
 3353SOL    HW110958   2.107   6.941   6.378
 3353SOL    HW210959   1.971   6.978   6.460
 3354SOL     OW10960   0.519   2.856   3.682
 3354SOL    HW110961   0.578   2.798   3.626
 3354SOL    HW210962   0.431   2.811   3.695
 3355SOL     OW10963   6.792   1.190   2.168
 3355SOL    HW110964   6.829   1.235   2.249
 3355SOL    HW210965   6.714   1.132   2.195
 3356SOL     OW10966   2.786   3.811   0.274
 3356SOL    HW110967   2.731   3.752   0.333
 3356SOL    HW210968   2.865   3.759   0.241
 3357SOL     OW10969   3.055   5.254   2.225
 3357SOL    HW110970   2.960   5.227   2.239
 3357SOL    HW210971   3.077   5.332   2.284
 3358SOL     OW10972   5.001   5.762   2.260
 3358SOL    HW110973   5.071   5.691   2.264
 3358SOL    HW210974   4.925   5.736   2.320
 3359SOL     OW10975   1.969   0.661   2.755
 3359SOL    HW110976   1.894   0.623   2.701
 3359SOL    HW210977   2.040   0.591   2.767
 3360SOL     OW10978   0.866   0.704   0.300
 3360SOL    HW110979   0.872   0.802   0.322
 3360SOL    HW210980   0.927   0.653   0.361
 3361SOL     OW10981   6.004   6.226   3.138
 3361SOL    HW110982   5.982   6.323   3.128
 3361SOL    HW210983   5.979   6.177   3.055
 3362SOL     OW10984   2.097   1.180   5.455
 3362SOL    HW110985   2.152   1.248   5.503
 3362SOL    HW210986   2.001   1.206   5.457
 3363SOL     OW10987   6.827   1.808   0.192
 3363SOL    HW110988   6.824   1.874   0.117
 3363SOL    HW210989   6.739   1.807   0.239
 3364SOL     OW10990   1.948   5.191   6.238
 3364SOL    HW110991   1.932   5.204   6.140
 3364SOL    HW210992   1.891   5.117   6.272
 3365SOL     OW10993   6.097   2.096   4.592
 3365SOL    HW110994   6.027   2.049   4.646
 3365SOL    HW210995   6.071   2.095   4.495
 3366SOL     OW10996   5.444   0.444   5.629
 3366SOL    HW110997   5.357   0.460   5.582
 3366SOL    HW210998   5.451   0.505   5.708
 3367SOL     OW10999   1.628   1.502   2.510
 3367SOL    HW111000   1.724   1.525   2.529
 3367SOL    HW211001   1.592   1.445   2.584
 3368SOL     OW11002   6.290   5.718   6.358
 3368SOL    HW111003   6.347   5.648   6.315
 3368SOL    HW211004   6.318   5.808   6.325
 3369SOL     OW11005   4.027   0.398   0.054
 3369SOL    HW111006   4.045   0.496   0.062
 3369SOL    HW211007   4.110   0.350   0.026
 3370SOL     OW11008   6.240   6.585   5.473
 3370SOL    HW111009   6.238   6.657   5.542
 3370SOL    HW211010   6.263   6.497   5.516
 3371SOL     OW11011   0.563   5.402   2.334
 3371SOL    HW111012   0.560   5.464   2.256
 3371SOL    HW211013   0.645   5.345   2.328
 3372SOL     OW11014   1.160   0.468   2.936
 3372SOL    HW111015   1.197   0.379   2.909
 3372SOL    HW211016   1.233   0.537   2.933
 3373SOL     OW11017   6.493   2.095   4.846
 3373SOL    HW111018   6.414   2.060   4.794
 3373SOL    HW211019   6.564   2.124   4.782
 3374SOL     OW11020   2.831   5.113   5.959
 3374SOL    HW111021   2.785   5.056   5.890
 3374SOL    HW211022   2.929   5.113   5.942
 3375SOL     OW11023   4.915   4.482   5.194
 3375SOL    HW111024   4.960   4.570   5.211
 3375SOL    HW211025   4.980   4.419   5.152
 3376SOL     OW11026   3.298   3.681   2.287
 3376SOL    HW111027   3.300   3.753   2.218
 3376SOL    HW211028   3.388   3.637   2.292
 3377SOL     OW11029   1.497   6.521   5.272
 3377SOL    HW111030   1.592   6.550   5.256
 3377SOL    HW211031   1.435   6.588   5.231
 3378SOL     OW11032   6.962   1.515   1.065
 3378SOL    HW111033   7.013   1.583   1.012
 3378SOL    HW211034   7.003   1.424   1.051
 3379SOL     OW11035   0.331   4.548   5.784
 3379SOL    HW111036   0.430   4.553   5.770
 3379SOL    HW211037   0.286   4.536   5.695
 3380SOL     OW11038   6.666   4.421   6.717
 3380SOL    HW111039   6.744   4.477   6.744
 3380SOL    HW211040   6.593   4.430   6.785
 3381SOL     OW11041   3.328   2.661   0.512
 3381SOL    HW111042   3.233   2.685   0.492
 3381SOL    HW211043   3.353   2.698   0.602
 3382SOL     OW11044   0.288   1.619   1.107
 3382SOL    HW111045   0.375   1.571   1.104
 3382SOL    HW211046   0.254   1.632   1.014
 3383SOL     OW11047   5.828   4.980   2.676
 3383SOL    HW111048   5.803   4.914   2.605
 3383SOL    HW211049   5.792   5.070   2.653
 3384SOL     OW11050   3.727   2.901   4.415
 3384SOL    HW111051   3.817   2.872   4.382
 3384SOL    HW211052   3.699   2.843   4.491
 3385SOL     OW11053   6.428   3.747   3.692
 3385SOL    HW111054   6.426   3.838   3.734
 3385SOL    HW211055   6.395   3.680   3.758
 3386SOL     OW11056   6.218   4.573   5.320
 3386SOL    HW111057   6.180   4.592   5.410
 3386SOL    HW211058   6.275   4.650   5.291
 3387SOL     OW11059   2.503   1.891   3.294
 3387SOL    HW111060   2.524   1.938   3.380
 3387SOL    HW211061   2.573   1.912   3.226
 3388SOL     OW11062   5.559   1.896   1.424
 3388SOL    HW111063   5.578   1.971   1.486
 3388SOL    HW211064   5.550   1.930   1.330
 3389SOL     OW11065   4.860   4.689   3.505
 3389SOL    HW111066   4.772   4.727   3.478
 3389SOL    HW211067   4.883   4.612   3.445
 3390SOL     OW11068   5.016   3.094   5.508
 3390SOL    HW111069   4.924   3.112   5.473
 3390SOL    HW211070   5.016   3.007   5.557
 3391SOL     OW11071   3.666   2.085   4.814
 3391SOL    HW111072   3.613   2.104   4.896
 3391SOL    HW211073   3.748   2.142   4.814
 3392SOL     OW11074   3.220   0.495   3.904
 3392SOL    HW111075   3.188   0.410   3.946
 3392SOL    HW211076   3.146   0.533   3.848
 3393SOL     OW11077   6.746   6.485   6.550
 3393SOL    HW111078   6.797   6.561   6.510
 3393SOL    HW211079   6.679   6.521   6.616
 3394SOL     OW11080   6.017   2.621   1.210
 3394SOL    HW111081   5.957   2.617   1.130
 3394SOL    HW211082   6.010   2.535   1.261
 3395SOL     OW11083   0.895   3.076   4.312
 3395SOL    HW111084   0.829   3.024   4.256
 3395SOL    HW211085   0.850   3.108   4.395
 3396SOL     OW11086   6.973   3.607   3.992
 3396SOL    HW111087   6.960   3.610   4.092
 3396SOL    HW211088   0.038   3.649   3.969
 3397SOL     OW11089   3.628   6.377   6.020
 3397SOL    HW111090   3.638   6.298   6.081
 3397SOL    HW211091   3.628   6.347   5.925
 3398SOL     OW11092   1.309   0.038   4.278
 3398SOL    HW111093   1.398   0.025   4.234
 3398SOL    HW211094   1.275   6.973   4.310
 3399SOL     OW11095   5.166   4.766   3.945
 3399SOL    HW111096   5.112   4.683   3.933
 3399SOL    HW211097   5.214   4.787   3.860
 3400SOL     OW11098   4.967   2.300   6.686
 3400SOL    HW111099   4.871   2.328   6.696
 3400SOL    HW211100   4.986   2.225   6.749
 3401SOL     OW11101   5.969   4.266   0.653
 3401SOL    HW111102   5.882   4.315   0.642
 3401SOL    HW211103   6.029   4.318   0.714
 3402SOL     OW11104   5.108   5.823   1.003
 3402SOL    HW111105   5.125   5.888   1.078
 3402SOL    HW211106   5.074   5.737   1.041
 3403SOL     OW11107   3.561   0.666   4.914
 3403SOL    HW111108   3.639   0.698   4.970
 3403SOL    HW211109   3.563   0.712   4.825
 3404SOL     OW11110   4.855   1.200   0.536
 3404SOL    HW111111   4.907   1.285   0.528
 3404SOL    HW211112   4.897   1.129   0.480
 3405SOL     OW11113   6.456   3.844   6.631
 3405SOL    HW111114   6.540   3.815   6.585
 3405SOL    HW211115   6.467   3.937   6.665
 3406SOL     OW11116   2.183   3.934   2.309
 3406SOL    HW111117   2.243   3.983   2.245
 3406SOL    HW211118   2.191   3.836   2.294
 3407SOL     OW11119   1.117   5.590   2.044
 3407SOL    HW111120   1.157   5.513   2.092
 3407SOL    HW211121   1.018   5.591   2.059
 3408SOL     OW11122   5.214   4.364   2.197
 3408SOL    HW111123   5.136   4.423   2.177
 3408SOL    HW211124   5.193   4.307   2.277
 3409SOL     OW11125   3.449   7.014   5.911
 3409SOL    HW111126   3.465   0.015   5.816
 3409SOL    HW211127   3.532   6.973   5.950
 3410SOL     OW11128   6.494   6.327   0.254
 3410SOL    HW111129   6.515   6.425   0.248
 3410SOL    HW211130   6.543   6.279   0.181
 3411SOL     OW11131   4.432   1.599   2.625
 3411SOL    HW111132   4.515   1.575   2.576
 3411SOL    HW211133   4.438   1.693   2.658
 3412SOL     OW11134   3.723   3.914   6.941
 3412SOL    HW111135   3.786   3.846   6.979
 3412SOL    HW211136   3.774   3.998   6.921
 3413SOL     OW11137   3.852   1.494   3.371
 3413SOL    HW111138   3.809   1.565   3.315
 3413SOL    HW211139   3.784   1.425   3.395
 3414SOL     OW11140   2.980   2.291   5.353
 3414SOL    HW111141   2.950   2.215   5.295
 3414SOL    HW211142   3.051   2.343   5.305
 3415SOL     OW11143   0.610   4.672   4.295
 3415SOL    HW111144   0.682   4.739   4.314
 3415SOL    HW211145   0.623   4.635   4.204
 3416SOL     OW11146   0.588   4.875   5.230
 3416SOL    HW111147   0.560   4.785   5.199
 3416SOL    HW211148   0.684   4.873   5.258
 3417SOL     OW11149   6.929   7.007   2.544
 3417SOL    HW111150   6.899   6.917   2.515
 3417SOL    HW211151   7.013   0.009   2.496
 3418SOL     OW11152   2.783   1.592   5.226
 3418SOL    HW111153   2.846   1.654   5.179
 3418SOL    HW211154   2.697   1.587   5.176
 3419SOL     OW11155   4.187   4.673   6.752
 3419SOL    HW111156   4.114   4.694   6.817
 3419SOL    HW211157   4.170   4.722   6.666
 3420SOL     OW11158   4.574   2.191   3.885
 3420SOL    HW111159   4.506   2.261   3.908
 3420SOL    HW211160   4.544   2.141   3.804
 3421SOL     OW11161   0.059   5.876   5.925
 3421SOL    HW111162   0.059   5.792   5.871
 3421SOL    HW211163   7.017   5.867   6.001
 3422SOL     OW11164   3.617   0.543   1.630
 3422SOL    HW111165   3.528   0.510   1.597
 3422SOL    HW211166   3.688   0.475   1.606
 3423SOL     OW11167   2.367   1.115   0.833
 3423SOL    HW111168   2.374   1.139   0.736
 3423SOL    HW211169   2.418   1.181   0.888
 3424SOL     OW11170   4.337   0.998   2.588
 3424SOL    HW111171   4.286   0.914   2.607
 3424SOL    HW211172   4.400   1.016   2.663
 3425SOL     OW11173   4.639   4.359   2.243
 3425SOL    HW111174   4.554   4.354   2.190
 3425SOL    HW211175   4.671   4.454   2.245
 3426SOL     OW11176   4.084   3.593   0.598
 3426SOL    HW111177   4.170   3.639   0.621
 3426SOL    HW211178   4.015   3.618   0.666
 3427SOL     OW11179   6.855   0.959   0.379
 3427SOL    HW111180   6.831   1.031   0.314
 3427SOL    HW211181   6.951   0.935   0.369
 3428SOL     OW11182   4.115   4.822   2.571
 3428SOL    HW111183   4.128   4.774   2.484
 3428SOL    HW211184   4.023   4.862   2.573
 3429SOL     OW11185   1.046   3.395   0.855
 3429SOL    HW111186   1.025   3.365   0.762
 3429SOL    HW211187   1.013   3.327   0.921
 3430SOL     OW11188   1.838   0.008   0.297
 3430SOL    HW111189   1.793   0.083   0.346
 3430SOL    HW211190   1.813   0.011   0.200
 3431SOL     OW11191   1.585   6.126   1.273
 3431SOL    HW111192   1.630   6.179   1.201
 3431SOL    HW211193   1.644   6.050   1.301
 3432SOL     OW11194   3.501   1.427   5.714
 3432SOL    HW111195   3.532   1.448   5.807
 3432SOL    HW211196   3.575   1.444   5.649
 3433SOL     OW11197   3.585   1.135   5.326
 3433SOL    HW111198   3.519   1.207   5.344
 3433SOL    HW211199   3.632   1.154   5.240
 3434SOL     OW11200   4.562   2.834   1.535
 3434SOL    HW111201   4.623   2.872   1.604
 3434SOL    HW211202   4.553   2.736   1.549
 3435SOL     OW11203   0.094   2.432   2.391
 3435SOL    HW111204   0.099   2.514   2.334
 3435SOL    HW211205   0.046   2.360   2.341
 3436SOL     OW11206   4.406   6.820   4.990
 3436SOL    HW111207   4.377   6.908   5.029
 3436SOL    HW211208   4.502   6.827   4.961
 3437SOL     OW11209   4.206   0.066   5.121
 3437SOL    HW111210   4.159   0.070   5.209
 3437SOL    HW211211   4.242   0.157   5.098
 3438SOL     OW11212   1.562   2.741   6.459
 3438SOL    HW111213   1.465   2.752   6.482
 3438SOL    HW211214   1.570   2.696   6.370
 3439SOL     OW11215   2.756   6.813   4.894
 3439SOL    HW111216   2.772   6.777   4.802
 3439SOL    HW211217   2.762   6.913   4.893
 3440SOL     OW11218   4.651   3.118   1.099
 3440SOL    HW111219   4.691   3.201   1.061
 3440SOL    HW211220   4.722   3.048   1.109
 3441SOL     OW11221   3.595   6.848   4.036
 3441SOL    HW111222   3.659   6.779   4.070
 3441SOL    HW211223   3.615   6.868   3.940
 3442SOL     OW11224   2.051   5.133   3.259
 3442SOL    HW111225   2.067   5.231   3.246
 3442SOL    HW211226   2.028   5.116   3.355
 3443SOL     OW11227   5.720   1.804   2.783
 3443SOL    HW111228   5.734   1.879   2.847
 3443SOL    HW211229   5.772   1.724   2.813
 3444SOL     OW11230   4.843   5.191   6.828
 3444SOL    HW111231   4.771   5.203   6.760
 3444SOL    HW211232   4.807   5.211   6.919
 3445SOL     OW11233   6.289   4.549   3.751
 3445SOL    HW111234   6.353   4.616   3.712
 3445SOL    HW211235   6.310   4.535   3.847
 3446SOL     OW11236   4.297   0.336   2.889
 3446SOL    HW111237   4.313   0.354   2.986
 3446SOL    HW211238   4.344   0.252   2.863
 3447SOL     OW11239   6.059   5.895   0.211
 3447SOL    HW111240   5.983   5.848   0.166
 3447SOL    HW211241   6.108   5.830   0.269
 3448SOL     OW11242   3.228   0.736   1.111
 3448SOL    HW111243   3.264   0.689   1.030
 3448SOL    HW211244   3.129   0.722   1.116
 3449SOL     OW11245   0.021   6.859   2.234
 3449SOL    HW111246   0.013   6.956   2.259
 3449SOL    HW211247   0.103   6.820   2.276
 3450SOL     OW11248   1.124   1.722   1.794
 3450SOL    HW111249   1.205   1.767   1.759
 3450SOL    HW211250   1.051   1.790   1.809
 3451SOL     OW11251   1.473   5.566   4.130
 3451SOL    HW111252   1.387   5.553   4.179
 3451SOL    HW211253   1.466   5.647   4.072
 3452SOL     OW11254   6.408   1.128   7.002
 3452SOL    HW111255   6.475   1.063   0.015
 3452SOL    HW211256   6.325   1.079   6.976
 3453SOL     OW11257   5.515   5.521   4.853
 3453SOL    HW111258   5.556   5.449   4.797
 3453SOL    HW211259   5.422   5.496   4.877
 3454SOL     OW11260   1.329   1.559   1.118
 3454SOL    HW111261   1.320   1.597   1.026
 3454SOL    HW211262   1.352   1.462   1.112
 3455SOL     OW11263   1.536   2.939   4.414
 3455SOL    HW111264   1.610   2.956   4.349
 3455SOL    HW211265   1.572   2.891   4.494
 3456SOL     OW11266   5.654   6.647   1.503
 3456SOL    HW111267   5.742   6.618   1.540
 3456SOL    HW211268   5.657   6.647   1.403
 3457SOL     OW11269   2.499   4.909   3.555
 3457SOL    HW111270   2.500   4.868   3.464
 3457SOL    HW211271   2.571   4.978   3.561
 3458SOL     OW11272   5.972   6.813   0.187
 3458SOL    HW111273   5.879   6.814   0.152
 3458SOL    HW211274   6.003   6.719   0.200
 3459SOL     OW11275   0.361   4.170   3.494
 3459SOL    HW111276   0.413   4.109   3.434
 3459SOL    HW211277   0.263   4.156   3.479
 3460SOL     OW11278   3.172   2.928   0.035
 3460SOL    HW111279   3.170   2.869   6.977
 3460SOL    HW211280   3.262   2.969   0.045
 3461SOL     OW11281   3.830   5.372   4.487
 3461SOL    HW111282   3.794   5.284   4.518
 3461SOL    HW211283   3.900   5.357   4.416
 3462SOL     OW11284   5.557   3.085   2.967
 3462SOL    HW111285   5.521   3.103   3.059
 3462SOL    HW211286   5.641   3.138   2.953
 3463SOL     OW11287   1.766   3.195   1.954
 3463SOL    HW111288   1.830   3.269   1.975
 3463SOL    HW211289   1.686   3.232   1.906
 3464SOL     OW11290   5.119   3.041   6.606
 3464SOL    HW111291   5.038   3.003   6.561
 3464SOL    HW211292   5.201   3.015   6.555
 3465SOL     OW11293   2.174   3.751   1.872
 3465SOL    HW111294   2.191   3.665   1.922
 3465SOL    HW211295   2.113   3.809   1.926
 3466SOL     OW11296   5.473   4.407   5.340
 3466SOL    HW111297   5.390   4.375   5.385
 3466SOL    HW211298   5.510   4.333   5.284
 3467SOL     OW11299   3.021   2.506   0.793
 3467SOL    HW111300   3.116   2.522   0.767
 3467SOL    HW211301   2.996   2.411   0.772
 3468SOL     OW11302   4.863   1.368   1.175
 3468SOL    HW111303   4.795   1.299   1.203
 3468SOL    HW211304   4.947   1.353   1.227
 3469SOL     OW11305   4.584   6.881   6.083
 3469SOL    HW111306   4.666   6.836   6.118
 3469SOL    HW211307   4.605   6.925   5.996
 3470SOL     OW11308   0.391   2.575   1.085
 3470SOL    HW111309   0.411   2.551   0.990
 3470SOL    HW211310   0.473   2.613   1.128
 3471SOL     OW11311   4.280   4.613   3.189
 3471SOL    HW111312   4.216   4.537   3.196
 3471SOL    HW211313   4.317   4.618   3.096
 3472SOL     OW11314   4.382   2.326   3.066
 3472SOL    HW111315   4.414   2.349   3.159
 3472SOL    HW211316   4.282   2.322   3.066
 3473SOL     OW11317   0.202   3.665   3.834
 3473SOL    HW111318   0.269   3.654   3.907
 3473SOL    HW211319   0.237   3.728   3.765
 3474SOL     OW11320   6.955   4.685   4.199
 3474SOL    HW111321   6.869   4.719   4.237
 3474SOL    HW211322   6.949   4.586   4.188
 3475SOL     OW11323   6.791   4.324   4.492
 3475SOL    HW111324   6.717   4.365   4.438
 3475SOL    HW211325   6.782   4.353   4.588
 3476SOL     OW11326   1.853   1.761   3.764
 3476SOL    HW111327   1.817   1.688   3.823
 3476SOL    HW211328   1.945   1.736   3.733
 3477SOL     OW11329   0.096   4.099   1.746
 3477SOL    HW111330   0.130   4.092   1.652
 3477SOL    HW211331   0.034   4.023   1.765
 3478SOL     OW11332   2.630   0.080   0.159
 3478SOL    HW111333   2.598   0.174   0.148
 3478SOL    HW211334   2.728   0.080   0.182
 3479SOL     OW11335   0.505   3.193   3.385
 3479SOL    HW111336   0.595   3.154   3.363
 3479SOL    HW211337   0.466   3.145   3.464
 3480SOL     OW11338   1.356   5.695   6.683
 3480SOL    HW111339   1.445   5.734   6.707
 3480SOL    HW211340   1.317   5.748   6.608
 3481SOL     OW11341   5.641   0.389   0.207
 3481SOL    HW111342   5.673   0.325   0.277
 3481SOL    HW211343   5.587   0.461   0.249
 3482SOL     OW11344   5.886   2.680   4.284
 3482SOL    HW111345   5.901   2.776   4.260
 3482SOL    HW211346   5.793   2.669   4.319
 3483SOL     OW11347   4.559   2.453   3.316
 3483SOL    HW111348   4.644   2.403   3.332
 3483SOL    HW211349   4.519   2.479   3.404
 3484SOL     OW11350   1.851   3.481   6.234
 3484SOL    HW111351   1.778   3.419   6.208
 3484SOL    HW211352   1.813   3.571   6.254
 3485SOL     OW11353   6.639   1.804   5.276
 3485SOL    HW111354   6.731   1.765   5.276
 3485SOL    HW211355   6.643   1.900   5.247
 3486SOL     OW11356   1.961   6.884   4.954
 3486SOL    HW111357   1.877   6.831   4.968
 3486SOL    HW211358   2.032   6.825   4.915
 3487SOL     OW11359   5.714   1.581   6.681
 3487SOL    HW111360   5.753   1.652   6.623
 3487SOL    HW211361   5.787   1.529   6.724
 3488SOL     OW11362   5.628   0.099   4.768
 3488SOL    HW111363   5.653   0.040   4.845
 3488SOL    HW211364   5.654   0.055   4.682
 3489SOL     OW11365   3.198   0.020   1.263
 3489SOL    HW111366   3.217   6.973   1.193
 3489SOL    HW211367   3.197   7.000   1.353
 3490SOL     OW11368   4.230   4.589   0.940
 3490SOL    HW111369   4.197   4.660   1.002
 3490SOL    HW211370   4.205   4.499   0.978
 3491SOL     OW11371   5.242   3.732   0.128
 3491SOL    HW111372   5.260   3.784   0.212
 3491SOL    HW211373   5.144   3.724   0.113
 3492SOL     OW11374   6.661   4.136   2.531
 3492SOL    HW111375   6.562   4.141   2.544
 3492SOL    HW211376   6.691   4.041   2.538
 3493SOL     OW11377   6.374   3.720   3.994
 3493SOL    HW111378   6.324   3.805   4.008
 3493SOL    HW211379   6.470   3.732   4.021
 3494SOL     OW11380   2.986   1.810   2.609
 3494SOL    HW111381   2.994   1.748   2.531
 3494SOL    HW211382   2.900   1.860   2.603
 3495SOL     OW11383   1.337   3.795   2.294
 3495SOL    HW111384   1.263   3.779   2.359
 3495SOL    HW211385   1.413   3.841   2.340
 3496SOL     OW11386   6.114   4.672   0.232
 3496SOL    HW111387   6.128   4.764   0.269
 3496SOL    HW211388   6.061   4.618   0.296
 3497SOL     OW11389   4.023   0.596   3.150
 3497SOL    HW111390   4.106   0.548   3.178
 3497SOL    HW211391   4.011   0.586   3.051
 3498SOL     OW11392   2.334   1.598   2.340
 3498SOL    HW111393   2.366   1.542   2.264
 3498SOL    HW211394   2.236   1.613   2.331
 3499SOL     OW11395   6.013   6.014   5.566
 3499SOL    HW111396   5.950   5.985   5.494
 3499SOL    HW211397   5.980   5.980   5.654
 3500SOL     OW11398   1.637   1.650   4.073
 3500SOL    HW111399   1.658   1.602   4.158
 3500SOL    HW211400   1.659   1.592   3.995
 3501SOL     OW11401   2.500   6.882   6.695
 3501SOL    HW111402   2.512   6.930   6.781
 3501SOL    HW211403   2.540   6.936   6.620
 3502SOL     OW11404   5.687   3.026   1.791
 3502SOL    HW111405   5.602   3.049   1.745
 3502SOL    HW211406   5.668   2.964   1.867
 3503SOL     OW11407   0.235   6.033   6.147
 3503SOL    HW111408   0.171   5.978   6.093
 3503SOL    HW211409   0.313   5.976   6.174
 3504SOL     OW11410   1.725   0.928   1.971
 3504SOL    HW111411   1.657   0.858   1.949
 3504SOL    HW211412   1.693   1.017   1.939
 3505SOL     OW11413   5.340   5.438   5.811
 3505SOL    HW111414   5.359   5.354   5.862
 3505SOL    HW211415   5.381   5.516   5.859
 3506SOL     OW11416   5.732   4.448   5.043
 3506SOL    HW111417   5.799   4.376   5.066
 3506SOL    HW211418   5.755   4.531   5.093
 3507SOL     OW11419   2.408   0.495   0.919
 3507SOL    HW111420   2.418   0.564   0.847
 3507SOL    HW211421   2.311   0.479   0.937
 3508SOL     OW11422   3.188   2.554   5.603
 3508SOL    HW111423   3.097   2.545   5.644
 3508SOL    HW211424   3.241   2.472   5.622
 3509SOL     OW11425   4.874   6.647   0.487
 3509SOL    HW111426   4.892   6.593   0.569
 3509SOL    HW211427   4.790   6.615   0.444
 3510SOL     OW11428   2.201   1.020   1.466
 3510SOL    HW111429   2.133   1.078   1.421
 3510SOL    HW211430   2.289   1.030   1.419
 3511SOL     OW11431   1.837   4.576   1.425
 3511SOL    HW111432   1.932   4.591   1.453
 3511SOL    HW211433   1.834   4.561   1.326
 3512SOL     OW11434   0.735   4.126   0.052
 3512SOL    HW111435   0.788   4.081   0.124
 3512SOL    HW211436   0.638   4.108   0.066
 3513SOL     OW11437   6.721   2.245   1.080
 3513SOL    HW111438   6.650   2.315   1.089
 3513SOL    HW211439   6.751   2.217   1.171
 3514SOL     OW11440   5.535   0.800   2.780
 3514SOL    HW111441   5.499   0.713   2.746
 3514SOL    HW211442   5.616   0.782   2.836
 3515SOL     OW11443   5.731   6.217   3.796
 3515SOL    HW111444   5.731   6.190   3.893
 3515SOL    HW211445   5.761   6.312   3.789
 3516SOL     OW11446   4.931   0.013   0.953
 3516SOL    HW111447   4.868   0.053   1.020
 3516SOL    HW211448   4.901   6.942   0.931
 3517SOL     OW11449   6.919   1.224   1.266
 3517SOL    HW111450   6.961   1.188   1.183
 3517SOL    HW211451   6.855   1.158   1.303
 3518SOL     OW11452   5.856   1.970   4.672
 3518SOL    HW111453   5.777   2.006   4.720
 3518SOL    HW211454   5.826   1.912   4.596
 3519SOL     OW11455   2.716   0.794   6.767
 3519SOL    HW111456   2.670   0.875   6.803
 3519SOL    HW211457   2.770   0.820   6.686
 3520SOL     OW11458   3.332   5.552   5.710
 3520SOL    HW111459   3.409   5.488   5.711
 3520SOL    HW211460   3.260   5.516   5.650
 3521SOL     OW11461   3.251   2.745   6.752
 3521SOL    HW111462   3.323   2.780   6.692
 3521SOL    HW211463   3.169   2.801   6.742
 3522SOL     OW11464   6.509   5.290   6.404
 3522SOL    HW111465   6.574   5.322   6.336
 3522SOL    HW211466   6.537   5.321   6.495
 3523SOL     OW11467   1.062   5.131   5.179
 3523SOL    HW111468   1.127   5.087   5.117
 3523SOL    HW211469   1.084   5.107   5.273
 3524SOL     OW11470   5.515   1.875   2.582
 3524SOL    HW111471   5.447   1.942   2.610
 3524SOL    HW211472   5.566   1.844   2.663
 3525SOL     OW11473   6.117   3.892   4.020
 3525SOL    HW111474   6.057   3.812   4.024
 3525SOL    HW211475   6.093   3.955   4.093
 3526SOL     OW11476   1.297   5.585   3.236
 3526SOL    HW111477   1.379   5.593   3.293
 3526SOL    HW211478   1.224   5.640   3.276
 3527SOL     OW11479   5.808   2.794   5.819
 3527SOL    HW111480   5.844   2.709   5.780
 3527SOL    HW211481   5.878   2.836   5.877
 3528SOL     OW11482   2.336   6.181   5.110
 3528SOL    HW111483   2.433   6.207   5.109
 3528SOL    HW211484   2.321   6.105   5.048
 3529SOL     OW11485   4.060   6.098   6.709
 3529SOL    HW111486   4.153   6.133   6.696
 3529SOL    HW211487   4.009   6.108   6.624
 3530SOL     OW11488   0.084   5.165   1.803
 3530SOL    HW111489   0.178   5.196   1.812
 3530SOL    HW211490   0.039   5.169   1.892
 3531SOL     OW11491   5.266   1.759   1.992
 3531SOL    HW111492   5.297   1.665   2.004
 3531SOL    HW211493   5.167   1.763   2.011
 3532SOL     OW11494   2.334   1.215   2.276
 3532SOL    HW111495   2.419   1.248   2.233
 3532SOL    HW211496   2.355   1.175   2.365
 3533SOL     OW11497   0.016   2.050   2.882
 3533SOL    HW111498   0.049   1.955   2.884
 3533SOL    HW211499   0.084   2.108   2.837
 3534SOL     OW11500   0.490   2.282   2.352
 3534SOL    HW111501   0.589   2.265   2.353
 3534SOL    HW211502   0.469   2.348   2.280
 3535SOL     OW11503   2.684   5.155   5.150
 3535SOL    HW111504   2.772   5.122   5.116
 3535SOL    HW211505   2.615   5.083   5.140
 3536SOL     OW11506   3.584   1.747   3.111
 3536SOL    HW111507   3.641   1.691   3.052
 3536SOL    HW211508   3.488   1.730   3.091
 3537SOL     OW11509   1.230   5.818   2.905
 3537SOL    HW111510   1.238   5.836   2.807
 3537SOL    HW211511   1.310   5.767   2.935
 3538SOL     OW11512   2.962   5.542   4.939
 3538SOL    HW111513   2.992   5.602   5.014
 3538SOL    HW211514   2.869   5.565   4.913
 3539SOL     OW11515   3.699   3.845   4.469
 3539SOL    HW111516   3.767   3.813   4.403
 3539SOL    HW211517   3.609   3.811   4.444
 3540SOL     OW11518   2.056   2.056   3.956
 3540SOL    HW111519   2.051   2.131   4.022
 3540SOL    HW211520   1.973   2.055   3.901
 3541SOL     OW11521   3.017   3.165   5.541
 3541SOL    HW111522   2.998   3.107   5.462
 3541SOL    HW211523   2.998   3.114   5.625
 3542SOL     OW11524   1.768   4.773   3.136
 3542SOL    HW111525   1.868   4.771   3.128
 3542SOL    HW211526   1.730   4.692   3.091
 3543SOL     OW11527   4.995   2.451   4.235
 3543SOL    HW111528   5.090   2.425   4.251
 3543SOL    HW211529   4.984   2.550   4.249
 3544SOL     OW11530   1.853   4.333   6.915
 3544SOL    HW111531   1.826   4.295   7.003
 3544SOL    HW211532   1.798   4.414   6.895
 3545SOL     OW11533   4.085   6.337   6.393
 3545SOL    HW111534   4.065   6.357   6.297
 3545SOL    HW211535   4.013   6.376   6.450
 3546SOL     OW11536   0.109   5.747   3.544
 3546SOL    HW111537   0.064   5.836   3.532
 3546SOL    HW211538   0.065   5.680   3.485
 3547SOL     OW11539   3.982   5.649   4.189
 3547SOL    HW111540   4.055   5.641   4.121
 3547SOL    HW211541   3.895   5.626   4.147
 3548SOL     OW11542   4.819   2.554   5.717
 3548SOL    HW111543   4.815   2.484   5.645
 3548SOL    HW211544   4.857   2.638   5.679
 3549SOL     OW11545   6.655   4.822   4.008
 3549SOL    HW111546   6.649   4.788   4.101
 3549SOL    HW211547   6.683   4.918   4.009
 3550SOL     OW11548   5.329   2.255   3.464
 3550SOL    HW111549   5.282   2.167   3.468
 3550SOL    HW211550   5.339   2.283   3.369
 3551SOL     OW11551   3.610   6.294   3.128
 3551SOL    HW111552   3.582   6.348   3.048
 3551SOL    HW211553   3.635   6.355   3.203
 3552SOL     OW11554   5.615   5.296   3.145
 3552SOL    HW111555   5.575   5.387   3.153
 3552SOL    HW211556   5.695   5.300   3.085
 3553SOL     OW11557   5.407   2.711   2.247
 3553SOL    HW111558   5.322   2.704   2.194
 3553SOL    HW211559   5.422   2.807   2.273
 3554SOL     OW11560   4.030   4.015   6.665
 3554SOL    HW111561   4.003   3.977   6.576
 3554SOL    HW211562   4.127   4.039   6.662
 3555SOL     OW11563   0.754   3.454   2.833
 3555SOL    HW111564   0.671   3.432   2.781
 3555SOL    HW211565   0.758   3.397   2.915
 3556SOL     OW11566   3.270   0.485   5.712
 3556SOL    HW111567   3.284   0.583   5.701
 3556SOL    HW211568   3.258   0.464   5.809
 3557SOL     OW11569   1.271   0.310   5.042
 3557SOL    HW111570   1.226   0.291   4.955
 3557SOL    HW211571   1.351   0.369   5.027
 3558SOL     OW11572   0.321   5.592   1.794
 3558SOL    HW111573   0.374   5.655   1.738
 3558SOL    HW211574   0.262   5.536   1.736
 3559SOL     OW11575   0.295   0.281   5.131
 3559SOL    HW111576   0.230   0.207   5.115
 3559SOL    HW211577   0.388   0.251   5.110
 3560SOL     OW11578   1.329   6.077   1.279
 3560SOL    HW111579   1.300   6.017   1.204
 3560SOL    HW211580   1.428   6.089   1.276
 3561SOL     OW11581   4.698   4.702   5.743
 3561SOL    HW111582   4.628   4.767   5.713
 3561SOL    HW211583   4.700   4.624   5.681
 3562SOL     OW11584   5.132   0.312   3.731
 3562SOL    HW111585   5.061   0.351   3.673
 3562SOL    HW211586   5.122   0.212   3.733
 3563SOL     OW11587   5.543   1.391   1.119
 3563SOL    HW111588   5.515   1.350   1.206
 3563SOL    HW211589   5.540   1.491   1.127
 3564SOL     OW11590   0.684   4.232   4.868
 3564SOL    HW111591   0.743   4.292   4.815
 3564SOL    HW211592   0.739   4.156   4.905
 3565SOL     OW11593   2.722   0.136   4.641
 3565SOL    HW111594   2.647   0.170   4.585
 3565SOL    HW211595   2.689   0.116   4.734
 3566SOL     OW11596   0.154   3.174   5.525
 3566SOL    HW111597   0.172   3.171   5.623
 3566SOL    HW211598   0.102   3.256   5.502
 3567SOL     OW11599   0.438   2.901   0.895
 3567SOL    HW111600   0.444   2.802   0.882
 3567SOL    HW211601   0.453   2.923   0.992
 3568SOL     OW11602   4.884   4.993   2.448
 3568SOL    HW111603   4.787   4.984   2.469
 3568SOL    HW211604   4.895   5.034   2.358
 3569SOL     OW11605   2.980   3.274   4.309
 3569SOL    HW111606   2.972   3.243   4.404
 3569SOL    HW211607   2.937   3.364   4.300
 3570SOL     OW11608   6.259   1.910   5.546
 3570SOL    HW111609   6.277   1.819   5.584
 3570SOL    HW211610   6.266   1.906   5.446
 3571SOL     OW11611   2.049   0.575   5.318
 3571SOL    HW111612   2.085   0.497   5.266
 3571SOL    HW211613   2.065   0.560   5.415
 3572SOL     OW11614   5.293   4.088   2.075
 3572SOL    HW111615   5.296   4.012   2.141
 3572SOL    HW211616   5.256   4.169   2.120
 3573SOL     OW11617   6.429   4.149   2.243
 3573SOL    HW111618   6.370   4.069   2.255
 3573SOL    HW211619   6.394   4.224   2.299
 3574SOL     OW11620   2.415   3.208   6.248
 3574SOL    HW111621   2.332   3.263   6.249
 3574SOL    HW211622   2.445   3.195   6.154
 3575SOL     OW11623   4.827   5.995   1.040
 3575SOL    HW111624   4.760   5.990   0.966
 3575SOL    HW211625   4.874   5.907   1.047
 3576SOL     OW11626   0.069   3.325   6.935
 3576SOL    HW111627   0.143   3.312   7.001
 3576SOL    HW211628   0.069   3.420   6.903
 3577SOL     OW11629   2.106   2.714   5.127
 3577SOL    HW111630   2.205   2.707   5.138
 3577SOL    HW211631   2.071   2.788   5.184
 3578SOL     OW11632   3.109   3.193   0.121
 3578SOL    HW111633   3.029   3.192   0.180
 3578SOL    HW211634   3.133   3.099   0.095
 3579SOL     OW11635   0.350   3.296   2.044
 3579SOL    HW111636   0.261   3.325   2.077
 3579SOL    HW211637   0.420   3.318   2.113
 3580SOL     OW11638   0.518   3.301   1.274
 3580SOL    HW111639   0.460   3.367   1.320
 3580SOL    HW211640   0.500   3.209   1.311
 3581SOL     OW11641   0.765   0.409   2.979
 3581SOL    HW111642   0.666   0.396   2.981
 3581SOL    HW211643   0.807   0.342   2.917
 3582SOL     OW11644   3.439   4.035   5.530
 3582SOL    HW111645   3.393   3.950   5.553
 3582SOL    HW211646   3.430   4.099   5.606
 3583SOL     OW11647   0.268   4.736   0.850
 3583SOL    HW111648   0.201   4.792   0.801
 3583SOL    HW211649   0.277   4.647   0.805
 3584SOL     OW11650   5.474   4.450   4.957
 3584SOL    HW111651   5.439   4.365   4.918
 3584SOL    HW211652   5.565   4.435   4.995
 3585SOL     OW11653   2.533   2.197   4.373
 3585SOL    HW111654   2.450   2.149   4.346
 3585SOL    HW211655   2.592   2.135   4.426
 3586SOL     OW11656   6.725   3.047   3.845
 3586SOL    HW111657   6.678   3.113   3.787
 3586SOL    HW211658   6.657   2.989   3.891
 3587SOL     OW11659   3.609   6.677   6.111
 3587SOL    HW111660   3.706   6.672   6.086
 3587SOL    HW211661   3.557   6.618   6.050
 3588SOL     OW11662   6.419   4.166   4.499
 3588SOL    HW111663   6.358   4.123   4.565
 3588SOL    HW211664   6.430   4.263   4.522
 3589SOL     OW11665   6.903   0.187   6.076
 3589SOL    HW111666   6.975   0.124   6.047
 3589SOL    HW211667   6.943   0.257   6.136
 3590SOL     OW11668   0.549   4.190   0.493
 3590SOL    HW111669   0.554   4.092   0.510
 3590SOL    HW211670   0.459   4.224   0.520
 3591SOL     OW11671   5.383   2.259   6.687
 3591SOL    HW111672   5.479   2.288   6.692
 3591SOL    HW211673   5.355   2.256   6.591
 3592SOL     OW11674   1.180   0.301   1.958
 3592SOL    HW111675   1.114   0.362   1.914
 3592SOL    HW211676   1.244   0.356   2.013
 3593SOL     OW11677   5.832   3.540   5.886
 3593SOL    HW111678   5.846   3.476   5.810
 3593SOL    HW211679   5.795   3.626   5.851
 3594SOL     OW11680   3.967   5.404   4.770
 3594SOL    HW111681   4.022   5.486   4.789
 3594SOL    HW211682   3.927   5.411   4.679
 3595SOL     OW11683   5.521   5.787   6.390
 3595SOL    HW111684   5.552   5.713   6.450
 3595SOL    HW211685   5.572   5.870   6.410
 3596SOL     OW11686   3.672   1.152   2.767
 3596SOL    HW111687   3.760   1.172   2.725
 3596SOL    HW211688   3.681   1.073   2.828
 3597SOL     OW11689   1.698   3.238   4.802
 3597SOL    HW111690   1.763   3.164   4.812
 3597SOL    HW211691   1.741   3.314   4.753
 3598SOL     OW11692   1.548   5.695   4.896
 3598SOL    HW111693   1.547   5.654   4.987
 3598SOL    HW211694   1.530   5.793   4.903
 3599SOL     OW11695   4.690   1.654   5.587
 3599SOL    HW111696   4.608   1.607   5.620
 3599SOL    HW211697   4.737   1.698   5.663
 3600SOL     OW11698   3.717   3.823   0.762
 3600SOL    HW111699   3.668   3.844   0.847
 3600SOL    HW211700   3.757   3.731   0.769
 3601SOL     OW11701   4.936   0.785   5.193
 3601SOL    HW111702   4.872   0.768   5.119
 3601SOL    HW211703   4.891   0.838   5.265
 3602SOL     OW11704   1.879   2.538   1.403
 3602SOL    HW111705   1.855   2.587   1.486
 3602SOL    HW211706   1.943   2.464   1.425
 3603SOL     OW11707   3.235   0.753   5.822
 3603SOL    HW111708   3.188   0.840   5.808
 3603SOL    HW211709   3.201   0.710   5.906
 3604SOL     OW11710   6.770   0.580   3.461
 3604SOL    HW111711   6.780   0.515   3.387
 3604SOL    HW211712   6.717   0.539   3.535
 3605SOL     OW11713   0.809   5.158   3.318
 3605SOL    HW111714   0.782   5.114   3.404
 3605SOL    HW211715   0.754   5.121   3.243
 3606SOL     OW11716   2.183   6.622   1.768
 3606SOL    HW111717   2.150   6.529   1.788
 3606SOL    HW211718   2.174   6.640   1.670
 3607SOL     OW11719   5.302   2.301   2.730
 3607SOL    HW111720   5.304   2.335   2.824
 3607SOL    HW211721   5.283   2.377   2.667
 3608SOL     OW11722   4.159   2.274   4.231
 3608SOL    HW111723   4.213   2.309   4.307
 3608SOL    HW211724   4.165   2.174   4.229
 3609SOL     OW11725   2.146   0.037   4.778
 3609SOL    HW111726   2.068   0.054   4.717
 3609SOL    HW211727   2.196   0.122   4.793
 3610SOL     OW11728   2.262   0.059   5.382
 3610SOL    HW111729   2.291   7.000   5.333
 3610SOL    HW211730   2.223   0.125   5.317
 3611SOL     OW11731   4.551   4.594   3.674
 3611SOL    HW111732   4.599   4.525   3.729
 3611SOL    HW211733   4.619   4.652   3.628
 3612SOL     OW11734   5.321   1.848   6.626
 3612SOL    HW111735   5.415   1.878   6.642
 3612SOL    HW211736   5.321   1.750   6.604
 3613SOL     OW11737   3.112   5.135   1.095
 3613SOL    HW111738   3.131   5.140   1.193
 3613SOL    HW211739   3.162   5.059   1.055
 3614SOL     OW11740   3.471   4.196   6.397
 3614SOL    HW111741   3.539   4.268   6.412
 3614SOL    HW211742   3.514   4.107   6.413
 3615SOL     OW11743   6.344   2.777   5.347
 3615SOL    HW111744   6.381   2.843   5.413
 3615SOL    HW211745   6.332   2.688   5.391
 3616SOL     OW11746   1.945   1.832   6.905
 3616SOL    HW111747   2.009   1.902   6.873
 3616SOL    HW211748   1.852   1.858   6.879
 3617SOL     OW11749   4.070   6.897   5.716
 3617SOL    HW111750   3.986   6.844   5.704
 3617SOL    HW211751   4.113   6.872   5.803
 3618SOL     OW11752   1.664   4.064   4.658
 3618SOL    HW111753   1.711   3.984   4.696
 3618SOL    HW211754   1.597   4.034   4.591
 3619SOL     OW11755   6.553   2.726   1.118
 3619SOL    HW111756   6.571   2.678   1.032
 3619SOL    HW211757   6.591   2.674   1.194
 3620SOL     OW11758   6.532   6.538   4.971
 3620SOL    HW111759   6.466   6.526   5.045
 3620SOL    HW211760   6.533   6.634   4.944
 3621SOL     OW11761   3.763   2.930   3.837
 3621SOL    HW111762   3.755   2.889   3.927
 3621SOL    HW211763   3.673   2.955   3.802
 3622SOL     OW11764   1.143   6.924   0.398
 3622SOL    HW111765   1.068   6.974   0.353
 3622SOL    HW211766   1.115   6.899   0.491
 3623SOL     OW11767   1.301   5.231   6.155
 3623SOL    HW111768   1.204   5.250   6.143
 3623SOL    HW211769   1.312   5.145   6.204
 3624SOL     OW11770   3.149   0.591   2.000
 3624SOL    HW111771   3.159   0.686   2.029
 3624SOL    HW211772   3.080   0.585   1.928
 3625SOL     OW11773   6.738   2.693   6.581
 3625SOL    HW111774   6.693   2.767   6.630
 3625SOL    HW211775   6.675   2.617   6.568
 3626SOL     OW11776   0.955   2.605   5.309
 3626SOL    HW111777   0.886   2.676   5.293
 3626SOL    HW211778   0.932   2.523   5.256
 3627SOL     OW11779   4.210   2.910   1.197
 3627SOL    HW111780   4.221   2.815   1.227
 3627SOL    HW211781   4.298   2.957   1.201
 3628SOL     OW11782   0.089   1.221   2.591
 3628SOL    HW111783   0.041   1.208   2.678
 3628SOL    HW211784   0.167   1.281   2.605
 3629SOL     OW11785   1.445   1.322   4.410
 3629SOL    HW111786   1.441   1.358   4.503
 3629SOL    HW211787   1.522   1.363   4.362
 3630SOL     OW11788   6.798   2.749   3.352
 3630SOL    HW111789   6.754   2.664   3.379
 3630SOL    HW211790   6.735   2.826   3.369
 3631SOL     OW11791   1.672   6.852   2.573
 3631SOL    HW111792   1.656   6.912   2.495
 3631SOL    HW211793   1.739   6.782   2.548
 3632SOL     OW11794   4.413   3.326   0.767
 3632SOL    HW111795   4.453   3.413   0.793
 3632SOL    HW211796   4.434   3.257   0.836
 3633SOL     OW11797   3.666   2.834   6.172
 3633SOL    HW111798   3.689   2.795   6.261
 3633SOL    HW211799   3.746   2.881   6.135
 3634SOL     OW11800   3.176   5.452   5.954
 3634SOL    HW111801   3.201   5.478   5.860
 3634SOL    HW211802   3.147   5.357   5.955
 3635SOL     OW11803   2.691   0.992   1.511
 3635SOL    HW111804   2.787   1.001   1.482
 3635SOL    HW211805   2.666   1.071   1.567
 3636SOL     OW11806   0.935   5.466   0.043
 3636SOL    HW111807   0.870   5.390   0.042
 3636SOL    HW211808   0.964   5.483   0.137
 3637SOL     OW11809   6.981   2.952   6.906
 3637SOL    HW111810   0.040   2.995   6.944
 3637SOL    HW211811   7.007   2.868   6.859
 3638SOL     OW11812   5.719   4.640   2.463
 3638SOL    HW111813   5.629   4.677   2.486
 3638SOL    HW211814   5.710   4.574   2.389
 3639SOL     OW11815   3.199   4.044   4.265
 3639SOL    HW111816   3.232   4.066   4.174
 3639SOL    HW211817   3.272   4.001   4.318
 3640SOL     OW11818   5.456   2.184   0.494
 3640SOL    HW111819   5.380   2.248   0.509
 3640SOL    HW211820   5.538   2.236   0.470
 3641SOL     OW11821   6.789   4.317   1.976
 3641SOL    HW111822   6.780   4.416   1.986
 3641SOL    HW211823   6.870   4.296   1.921
 3642SOL     OW11824   5.977   2.727   6.666
 3642SOL    HW111825   5.910   2.738   6.593
 3642SOL    HW211826   6.043   2.656   6.641
 3643SOL     OW11827   3.752   5.590   5.488
 3643SOL    HW111828   3.723   5.518   5.426
 3643SOL    HW211829   3.682   5.661   5.492
 3644SOL     OW11830   3.290   0.944   1.836
 3644SOL    HW111831   3.318   0.864   1.783
 3644SOL    HW211832   3.273   0.916   1.931
 3645SOL     OW11833   1.568   4.163   4.210
 3645SOL    HW111834   1.574   4.204   4.119
 3645SOL    HW211835   1.660   4.152   4.248
 3646SOL     OW11836   2.420   4.542   4.998
 3646SOL    HW111837   2.432   4.570   5.093
 3646SOL    HW211838   2.360   4.462   4.994
 3647SOL     OW11839   2.626   0.378   0.391
 3647SOL    HW111840   2.584   0.373   0.300
 3647SOL    HW211841   2.725   0.387   0.381
 3648SOL     OW11842   4.320   5.272   3.754
 3648SOL    HW111843   4.395   5.294   3.691
 3648SOL    HW211844   4.352   5.285   3.848
 3649SOL     OW11845   6.075   2.883   0.525
 3649SOL    HW111846   6.061   2.787   0.550
 3649SOL    HW211847   6.085   2.890   0.426
 3650SOL     OW11848   5.576   5.382   0.121
 3650SOL    HW111849   5.521   5.439   0.059
 3650SOL    HW211850   5.577   5.424   0.212
 3651SOL     OW11851   1.100   2.548   5.876
 3651SOL    HW111852   1.196   2.572   5.861
 3651SOL    HW211853   1.089   2.449   5.874
 3652SOL     OW11854   4.898   1.513   1.961
 3652SOL    HW111855   4.848   1.592   1.925
 3652SOL    HW211856   4.836   1.457   2.016
 3653SOL     OW11857   0.431   1.341   1.306
 3653SOL    HW111858   0.491   1.321   1.383
 3653SOL    HW211859   0.384   1.257   1.277
 3654SOL     OW11860   6.335   0.014   0.573
 3654SOL    HW111861   6.305   0.100   0.531
 3654SOL    HW211862   6.417   0.031   0.628
 3655SOL     OW11863   1.788   2.234   4.600
 3655SOL    HW111864   1.703   2.228   4.652
 3655SOL    HW211865   1.815   2.143   4.571
 3656SOL     OW11866   0.122   6.240   1.165
 3656SOL    HW111867   0.026   6.266   1.172
 3656SOL    HW211868   0.165   6.248   1.255
 3657SOL     OW11869   4.833   6.026   4.674
 3657SOL    HW111870   4.794   6.110   4.712
 3657SOL    HW211871   4.853   5.962   4.747
 3658SOL     OW11872   1.526   5.144   6.334
 3658SOL    HW111873   1.583   5.178   6.409
 3658SOL    HW211874   1.583   5.095   6.268
 3659SOL     OW11875   6.584   1.684   6.406
 3659SOL    HW111876   6.491   1.647   6.401
 3659SOL    HW211877   6.608   1.727   6.319
 3660SOL     OW11878   5.350   5.189   6.011
 3660SOL    HW111879   5.279   5.119   6.004
 3660SOL    HW211880   5.325   5.253   6.083
 3661SOL     OW11881   0.304   1.746   4.589
 3661SOL    HW111882   0.353   1.714   4.508
 3661SOL    HW211883   0.348   1.828   4.625
 3662SOL     OW11884   3.216   0.843   5.324
 3662SOL    HW111885   3.301   0.819   5.278
 3662SOL    HW211886   3.170   0.916   5.274
 3663SOL     OW11887   2.267   2.657   6.162
 3663SOL    HW111888   2.277   2.751   6.197
 3663SOL    HW211889   2.306   2.652   6.070
 3664SOL     OW11890   3.766   1.644   2.228
 3664SOL    HW111891   3.770   1.556   2.181
 3664SOL    HW211892   3.678   1.689   2.209
 3665SOL     OW11893   1.389   5.993   5.958
 3665SOL    HW111894   1.406   6.055   5.882
 3665SOL    HW211895   1.470   5.934   5.971
 3666SOL     OW11896   2.346   1.976   4.912
 3666SOL    HW111897   2.434   1.941   4.943
 3666SOL    HW211898   2.361   2.057   4.855
 3667SOL     OW11899   2.492   0.456   2.844
 3667SOL    HW111900   2.487   0.471   2.942
 3667SOL    HW211901   2.587   0.439   2.817
 3668SOL     OW11902   0.438   0.710   1.557
 3668SOL    HW111903   0.481   0.626   1.524
 3668SOL    HW211904   0.508   0.777   1.582
 3669SOL     OW11905   6.941   1.074   3.825
 3669SOL    HW111906   6.919   1.008   3.753
 3669SOL    HW211907   0.009   1.113   3.807
 3670SOL     OW11908   3.196   5.374   1.791
 3670SOL    HW111909   3.246   5.288   1.807
 3670SOL    HW211910   3.195   5.427   1.876
 3671SOL     OW11911   0.140   0.218   3.434
 3671SOL    HW111912   0.108   0.297   3.486
 3671SOL    HW211913   0.081   0.139   3.452
 3672SOL     OW11914   4.562   6.976   2.682
 3672SOL    HW111915   4.631   6.918   2.725
 3672SOL    HW211916   4.528   6.932   2.599
 3673SOL     OW11917   4.755   5.878   1.463
 3673SOL    HW111918   4.750   5.942   1.386
 3673SOL    HW211919   4.793   5.924   1.543
 3674SOL     OW11920   1.586   5.322   6.070
 3674SOL    HW111921   1.508   5.266   6.100
 3674SOL    HW211922   1.671   5.279   6.098
 3675SOL     OW11923   0.629   0.700   3.642
 3675SOL    HW111924   0.613   0.735   3.734
 3675SOL    HW211925   0.567   0.746   3.578
 3676SOL     OW11926   4.071   1.823   3.479
 3676SOL    HW111927   4.085   1.730   3.510
 3676SOL    HW211928   4.038   1.822   3.384
 3677SOL     OW11929   1.858   0.128   4.035
 3677SOL    HW111930   1.790   0.130   3.962
 3677SOL    HW211931   1.881   0.221   4.063
 3678SOL     OW11932   1.264   0.605   3.882
 3678SOL    HW111933   1.320   0.679   3.843
 3678SOL    HW211934   1.215   0.558   3.808
 3679SOL     OW11935   4.878   0.918   2.135
 3679SOL    HW111936   4.879   1.018   2.130
 3679SOL    HW211937   4.786   0.887   2.158
 3680SOL     OW11938   4.303   1.183   3.986
 3680SOL    HW111939   4.208   1.207   4.005
 3680SOL    HW211940   4.346   1.148   4.070
 3681SOL     OW11941   0.986   6.512   4.914
 3681SOL    HW111942   0.893   6.526   4.878
 3681SOL    HW211943   1.017   6.420   4.891
 3682SOL     OW11944   5.544   2.315   1.335
 3682SOL    HW111945   5.595   2.388   1.289
 3682SOL    HW211946   5.491   2.355   1.410
 3683SOL     OW11947   6.258   0.756   6.036
 3683SOL    HW111948   6.168   0.712   6.030
 3683SOL    HW211949   6.290   0.780   5.945
 3684SOL     OW11950   2.195   6.796   5.174
 3684SOL    HW111951   2.202   6.767   5.078
 3684SOL    HW211952   2.275   6.852   5.197
 3685SOL     OW11953   2.198   6.406   5.704
 3685SOL    HW111954   2.272   6.449   5.653
 3685SOL    HW211955   2.236   6.357   5.783
 3686SOL     OW11956   0.754   4.629   4.016
 3686SOL    HW111957   0.677   4.578   3.978
 3686SOL    HW211958   0.801   4.572   4.083
 3687SOL     OW11959   5.804   5.780   3.890
 3687SOL    HW111960   5.815   5.850   3.961
 3687SOL    HW211961   5.783   5.824   3.802
 3688SOL     OW11962   5.897   3.098   0.432
 3688SOL    HW111963   5.931   3.169   0.371
 3688SOL    HW211964   5.970   3.033   0.453
 3689SOL     OW11965   1.682   0.088   5.975
 3689SOL    HW111966   1.664   0.158   5.906
 3689SOL    HW211967   1.780   0.080   5.990
 3690SOL     OW11968   4.734   4.312   1.047
 3690SOL    HW111969   4.719   4.408   1.070
 3690SOL    HW211970   4.799   4.271   1.111
 3691SOL     OW11971   2.519   2.519   0.445
 3691SOL    HW111972   2.615   2.504   0.422
 3691SOL    HW211973   2.495   2.463   0.525
 3692SOL     OW11974   0.628   3.648   6.215
 3692SOL    HW111975   0.704   3.648   6.279
 3692SOL    HW211976   0.586   3.557   6.212
 3693SOL     OW11977   0.220   1.662   2.610
 3693SOL    HW111978   0.135   1.610   2.603
 3693SOL    HW211979   0.248   1.691   2.518
 3694SOL     OW11980   6.988   6.960   1.555
 3694SOL    HW111981   0.026   0.011   1.586
 3694SOL    HW211982   6.996   6.950   1.456
 3695SOL     OW11983   6.520   2.721   2.162
 3695SOL    HW111984   6.613   2.694   2.136
 3695SOL    HW211985   6.519   2.752   2.257
 3696SOL     OW11986   4.698   0.684   4.346
 3696SOL    HW111987   4.745   0.613   4.293
 3696SOL    HW211988   4.707   0.665   4.443
 3697SOL     OW11989   0.046   6.471   3.380
 3697SOL    HW111990   0.093   6.445   3.465
 3697SOL    HW211991   0.113   6.479   3.306
 3698SOL     OW11992   2.139   0.535   3.173
 3698SOL    HW111993   2.080   0.612   3.151
 3698SOL    HW211994   2.110   0.454   3.122
 3699SOL     OW11995   2.648   2.474   3.578
 3699SOL    HW111996   2.688   2.445   3.491
 3699SOL    HW211997   2.569   2.417   3.599
 3700SOL     OW11998   0.687   4.851   4.923
 3700SOL    HW111999   0.673   4.861   5.022
 3700SOL    HW212000   0.775   4.890   4.898
 3701SOL     OW12001   1.773   0.575   2.582
 3701SOL    HW112002   1.794   0.636   2.505
 3701SOL    HW212003   1.675   0.571   2.596
 3702SOL     OW12004   5.292   4.480   3.877
 3702SOL    HW112005   5.275   4.392   3.921
 3702SOL    HW212006   5.350   4.536   3.936
 3703SOL     OW12007   1.409   1.841   4.062
 3703SOL    HW112008   1.337   1.779   4.031
 3703SOL    HW212009   1.492   1.788   4.080
 3704SOL     OW12010   0.117   1.894   0.616
 3704SOL    HW112011   0.176   1.839   0.675
 3704SOL    HW212012   0.061   1.955   0.672
 3705SOL     OW12013   5.077   5.077   3.373
 3705SOL    HW112014   5.074   5.174   3.346
 3705SOL    HW212015   5.059   5.020   3.293
 3706SOL     OW12016   0.549   3.800   0.181
 3706SOL    HW112017   0.462   3.823   0.138
 3706SOL    HW212018   0.551   3.702   0.201
 3707SOL     OW12019   1.313   5.139   3.724
 3707SOL    HW112020   1.220   5.103   3.716
 3707SOL    HW212021   1.378   5.071   3.689
 3708SOL     OW12022   3.487   6.923   0.539
 3708SOL    HW112023   3.570   6.892   0.492
 3708SOL    HW212024   3.428   6.972   0.474
 3709SOL     OW12025   1.662   0.884   2.829
 3709SOL    HW112026   1.742   0.940   2.851
 3709SOL    HW212027   1.678   0.836   2.743
 3710SOL     OW12028   6.730   5.125   5.695
 3710SOL    HW112029   6.821   5.157   5.669
 3710SOL    HW212030   6.713   5.036   5.653
 3711SOL     OW12031   1.489   5.584   4.407
 3711SOL    HW112032   1.511   5.505   4.350
 3711SOL    HW212033   1.424   5.643   4.359
 3712SOL     OW12034   1.883   5.259   4.991
 3712SOL    HW112035   1.885   5.277   4.892
 3712SOL    HW212036   1.793   5.283   5.027
 3713SOL     OW12037   6.251   6.465   4.534
 3713SOL    HW112038   6.194   6.486   4.454
 3713SOL    HW212039   6.285   6.372   4.527
 3714SOL     OW12040   0.564   4.578   0.265
 3714SOL    HW112041   0.592   4.483   0.278
 3714SOL    HW212042   0.617   4.637   0.326
 3715SOL     OW12043   6.534   5.300   3.682
 3715SOL    HW112044   6.593   5.348   3.746
 3715SOL    HW212045   6.438   5.320   3.703
 3716SOL     OW12046   5.210   5.423   3.882
 3716SOL    HW112047   5.307   5.405   3.868
 3716SOL    HW212048   5.163   5.339   3.908
 3717SOL     OW12049   4.393   1.164   1.185
 3717SOL    HW112050   4.397   1.091   1.253
 3717SOL    HW212051   4.486   1.188   1.156
 3718SOL     OW12052   0.035   6.566   5.906
 3718SOL    HW112053   0.086   6.577   5.820
 3718SOL    HW212054   7.011   6.652   5.928
 3719SOL     OW12055   3.447   4.186   6.053
 3719SOL    HW112056   3.467   4.089   6.064
 3719SOL    HW212057   3.531   4.235   6.032
 3720SOL     OW12058   0.207   2.449   1.288
 3720SOL    HW112059   0.224   2.484   1.196
 3720SOL    HW212060   0.180   2.352   1.282
 3721SOL     OW12061   6.137   5.035   5.892
 3721SOL    HW112062   6.205   5.022   5.819
 3721SOL    HW212063   6.066   5.098   5.859
 3722SOL     OW12064   4.684   6.792   3.413
 3722SOL    HW112065   4.590   6.826   3.409
 3722SOL    HW212066   4.689   6.715   3.477
 3723SOL     OW12067   4.595   4.623   0.196
 3723SOL    HW112068   4.563   4.603   0.288
 3723SOL    HW212069   4.536   4.692   0.154
 3724SOL     OW12070   1.515   4.947   5.111
 3724SOL    HW112071   1.487   4.972   5.018
 3724SOL    HW212072   1.453   4.992   5.177
 3725SOL     OW12073   1.259   5.884   6.385
 3725SOL    HW112074   1.303   5.807   6.338
 3725SOL    HW212075   1.287   5.969   6.342
 3726SOL     OW12076   6.065   3.757   3.712
 3726SOL    HW112077   6.113   3.763   3.625
 3726SOL    HW212078   6.058   3.848   3.753
 3727SOL     OW12079   6.924   3.249   4.450
 3727SOL    HW112080   6.903   3.318   4.380
 3727SOL    HW212081   7.005   3.198   4.422
 3728SOL     OW12082   2.783   3.395   0.265
 3728SOL    HW112083   2.751   3.394   0.359
 3728SOL    HW212084   2.839   3.477   0.250
 3729SOL     OW12085   0.490   6.863   5.773
 3729SOL    HW112086   0.547   6.935   5.813
 3729SOL    HW212087   0.531   6.830   5.689
 3730SOL     OW12088   3.491   5.783   5.048
 3730SOL    HW112089   3.553   5.760   5.124
 3730SOL    HW212090   3.535   5.850   4.988
 3731SOL     OW12091   0.433   2.636   6.530
 3731SOL    HW112092   0.450   2.631   6.629
 3731SOL    HW212093   0.387   2.552   6.500
 3732SOL     OW12094   3.098   2.180   7.003
 3732SOL    HW112095   3.000   2.181   6.983
 3732SOL    HW212096   3.115   2.118   0.057
 3733SOL     OW12097   1.867   1.478   3.849
 3733SOL    HW112098   1.930   1.517   3.916
 3733SOL    HW212099   1.917   1.453   3.766
 3734SOL     OW12100   4.137   6.819   0.793
 3734SOL    HW112101   4.183   6.878   0.860
 3734SOL    HW212102   4.079   6.753   0.842
 3735SOL     OW12103   4.486   6.828   2.260
 3735SOL    HW112104   4.476   6.811   2.358
 3735SOL    HW212105   4.410   6.884   2.228
 3736SOL     OW12106   6.839   1.495   1.329
 3736SOL    HW112107   6.862   1.398   1.334
 3736SOL    HW212108   6.869   1.532   1.241
 3737SOL     OW12109   0.329   2.850   3.168
 3737SOL    HW112110   0.319   2.841   3.267
 3737SOL    HW212111   0.253   2.903   3.131
 3738SOL     OW12112   6.934   6.706   0.938
 3738SOL    HW112113   6.873   6.700   1.017
 3738SOL    HW212114   7.022   6.662   0.961
 3739SOL     OW12115   3.081   4.315   0.952
 3739SOL    HW112116   3.051   4.407   0.976
 3739SOL    HW212117   3.019   4.277   0.884
 3740SOL     OW12118   5.081   5.333   6.806
 3740SOL    HW112119   5.001   5.273   6.808
 3740SOL    HW212120   5.053   5.424   6.774
 3741SOL     OW12121   5.128   3.287   6.729
 3741SOL    HW112122   5.149   3.195   6.696
 3741SOL    HW212123   5.154   3.354   6.660
 3742SOL     OW12124   3.734   5.449   6.884
 3742SOL    HW112125   3.687   5.475   6.799
 3742SOL    HW212126   3.696   5.363   6.918
 3743SOL     OW12127   4.297   3.306   1.807
 3743SOL    HW112128   4.320   3.289   1.903
 3743SOL    HW212129   4.252   3.396   1.799
 3744SOL     OW12130   0.588   6.740   2.342
 3744SOL    HW112131   0.490   6.727   2.325
 3744SOL    HW212132   0.602   6.824   2.393
 3745SOL     OW12133   4.907   4.194   2.279
 3745SOL    HW112134   4.811   4.219   2.269
 3745SOL    HW212135   4.935   4.136   2.203
 3746SOL     OW12136   6.464   0.524   4.665
 3746SOL    HW112137   6.434   0.608   4.620
 3746SOL    HW212138   6.475   0.452   4.596
 3747SOL     OW12139   3.799   6.516   5.521
 3747SOL    HW112140   3.728   6.574   5.562
 3747SOL    HW212141   3.755   6.447   5.463
 3748SOL     OW12142   5.274   1.600   2.632
 3748SOL    HW112143   5.293   1.546   2.550
 3748SOL    HW212144   5.215   1.677   2.607
 3749SOL     OW12145   0.296   6.592   2.866
 3749SOL    HW112146   0.247   6.609   2.952
 3749SOL    HW212147   0.233   6.605   2.789
 3750SOL     OW12148   5.631   4.121   0.609
 3750SOL    HW112149   5.702   4.085   0.548
 3750SOL    HW212150   5.664   4.114   0.704
 3751SOL     OW12151   2.135   4.025   1.798
 3751SOL    HW112152   2.200   3.950   1.810
 3751SOL    HW212153   2.042   3.991   1.811
 3752SOL     OW12154   1.277   6.469   0.187
 3752SOL    HW112155   1.198   6.524   0.215
 3752SOL    HW212156   1.282   6.466   0.087
 3753SOL     OW12157   6.977   6.553   4.511
 3753SOL    HW112158   6.989   6.527   4.415
 3753SOL    HW212159   6.970   6.470   4.567
 3754SOL     OW12160   6.672   5.864   1.995
 3754SOL    HW112161   6.732   5.918   1.936
 3754SOL    HW212162   6.599   5.822   1.941
 3755SOL     OW12163   5.013   3.855   3.634
 3755SOL    HW112164   5.091   3.793   3.641
 3755SOL    HW212165   4.973   3.869   3.724
 3756SOL     OW12166   2.415   0.931   6.824
 3756SOL    HW112167   2.458   0.996   6.762
 3756SOL    HW212168   2.422   0.966   6.918
 3757SOL     OW12169   2.858   5.551   6.478
 3757SOL    HW112170   2.934   5.499   6.437
 3757SOL    HW212171   2.776   5.538   6.423
 3758SOL     OW12172   2.149   0.893   4.310
 3758SOL    HW112173   2.204   0.817   4.344
 3758SOL    HW212174   2.081   0.918   4.379
 3759SOL     OW12175   4.918   4.773   6.066
 3759SOL    HW112176   4.906   4.691   6.122
 3759SOL    HW212177   4.955   4.748   5.976
 3760SOL     OW12178   1.601   2.535   4.876
 3760SOL    HW112179   1.515   2.577   4.848
 3760SOL    HW212180   1.663   2.605   4.912
 3761SOL     OW12181   0.459   6.311   4.172
 3761SOL    HW112182   0.544   6.312   4.225
 3761SOL    HW212183   0.439   6.404   4.141
 3762SOL     OW12184   0.630   3.899   0.443
 3762SOL    HW112185   0.722   3.937   0.455
 3762SOL    HW212186   0.614   3.880   0.346
 3763SOL     OW12187   6.923   2.844   6.488
 3763SOL    HW112188   6.865   2.786   6.545
 3763SOL    HW212189   6.866   2.913   6.443
 3764SOL     OW12190   2.743   6.642   3.469
 3764SOL    HW112191   2.732   6.550   3.508
 3764SOL    HW212192   2.655   6.688   3.467
 3765SOL     OW12193   5.630   0.517   3.769
 3765SOL    HW112194   5.534   0.543   3.759
 3765SOL    HW212195   5.686   0.599   3.782
 3766SOL     OW12196   0.606   0.448   4.490
 3766SOL    HW112197   0.592   0.527   4.430
 3766SOL    HW212198   0.657   0.476   4.571
 3767SOL     OW12199   1.941   5.135   0.417
 3767SOL    HW112200   1.987   5.224   0.418
 3767SOL    HW212201   1.932   5.101   0.510
 3768SOL     OW12202   4.917   6.332   0.306
 3768SOL    HW112203   4.906   6.278   0.389
 3768SOL    HW212204   5.005   6.379   0.308
 3769SOL     OW12205   4.906   6.661   5.585
 3769SOL    HW112206   4.997   6.680   5.547
 3769SOL    HW212207   4.860   6.748   5.605
 3770SOL     OW12208   2.330   1.649   6.616
 3770SOL    HW112209   2.257   1.662   6.548
 3770SOL    HW212210   2.298   1.589   6.688
 3771SOL     OW12211   5.768   2.104   6.070
 3771SOL    HW112212   5.851   2.137   6.025
 3771SOL    HW212213   5.761   2.005   6.059
 3772SOL     OW12214   5.369   0.739   1.765
 3772SOL    HW112215   5.346   0.818   1.822
 3772SOL    HW212216   5.415   0.769   1.682
 3773SOL     OW12217   6.472   2.632   6.316
 3773SOL    HW112218   6.499   2.582   6.398
 3773SOL    HW212219   6.553   2.668   6.270
 3774SOL     OW12220   0.071   0.699   0.598
 3774SOL    HW112221   0.149   0.716   0.537
 3774SOL    HW212222   0.103   0.697   0.692
 3775SOL     OW12223   6.201   3.490   3.451
 3775SOL    HW112224   6.205   3.503   3.352
 3775SOL    HW212225   6.152   3.405   3.471
 3776SOL     OW12226   2.230   3.292   1.131
 3776SOL    HW112227   2.305   3.283   1.065
 3776SOL    HW212228   2.267   3.290   1.224
 3777SOL     OW12229   2.487   4.599   4.119
 3777SOL    HW112230   2.526   4.626   4.207
 3777SOL    HW212231   2.392   4.571   4.132
 3778SOL     OW12232   2.923   5.635   1.929
 3778SOL    HW112233   3.012   5.671   1.955
 3778SOL    HW212234   2.923   5.614   1.831
 3779SOL     OW12235   2.520   4.931   6.478
 3779SOL    HW112236   2.613   4.922   6.514
 3779SOL    HW212237   2.456   4.886   6.540
 3780SOL     OW12238   3.163   6.457   5.110
 3780SOL    HW112239   3.074   6.435   5.070
 3780SOL    HW212240   3.232   6.394   5.073
 3781SOL     OW12241   2.956   6.373   4.332
 3781SOL    HW112242   2.998   6.447   4.385
 3781SOL    HW212243   3.012   6.354   4.251
 3782SOL     OW12244   2.443   1.342   3.800
 3782SOL    HW112245   2.518   1.277   3.804
 3782SOL    HW212246   2.375   1.318   3.870
 3783SOL     OW12247   5.481   6.243   4.819
 3783SOL    HW112248   5.469   6.147   4.844
 3783SOL    HW212249   5.574   6.257   4.785
 3784SOL     OW12250   5.509   1.503   2.826
 3784SOL    HW112251   5.450   1.583   2.836
 3784SOL    HW212252   5.557   1.486   2.912
 3785SOL     OW12253   2.566   2.361   1.573
 3785SOL    HW112254   2.558   2.370   1.672
 3785SOL    HW212255   2.547   2.266   1.546
 3786SOL     OW12256   3.349   5.153   2.760
 3786SOL    HW112257   3.296   5.193   2.835
 3786SOL    HW212258   3.358   5.220   2.686
 3787SOL     OW12259   4.092   1.553   3.531
 3787SOL    HW112260   4.030   1.537   3.454
 3787SOL    HW212261   4.079   1.481   3.599
 3788SOL     OW12262   5.763   2.895   2.534
 3788SOL    HW112263   5.831   2.934   2.473
 3788SOL    HW212264   5.807   2.860   2.616
 3789SOL     OW12265   1.959   5.380   3.754
 3789SOL    HW112266   1.965   5.411   3.849
 3789SOL    HW212267   2.050   5.373   3.715
 3790SOL     OW12268   2.151   3.427   4.214
 3790SOL    HW112269   2.103   3.345   4.245
 3790SOL    HW212270   2.159   3.425   4.115
 3791SOL     OW12271   4.750   6.892   1.399
 3791SOL    HW112272   4.651   6.878   1.410
 3791SOL    HW212273   4.786   6.938   1.480
 3792SOL     OW12274   6.531   6.361   5.426
 3792SOL    HW112275   6.462   6.291   5.409
 3792SOL    HW212276   6.486   6.449   5.444
 3793SOL     OW12277   2.015   1.292   2.941
 3793SOL    HW112278   2.110   1.312   2.966
 3793SOL    HW212279   1.953   1.339   3.003
 3794SOL     OW12280   4.177   5.720   2.046
 3794SOL    HW112281   4.252   5.724   2.112
 3794SOL    HW212282   4.205   5.766   1.961
 3795SOL     OW12283   5.210   0.091   6.721
 3795SOL    HW112284   5.291   0.064   6.670
 3795SOL    HW212285   5.230   0.173   6.774
 3796SOL     OW12286   1.672   2.407   1.829
 3796SOL    HW112287   1.655   2.361   1.916
 3796SOL    HW212288   1.713   2.496   1.846
 3797SOL     OW12289   0.984   4.799   2.922
 3797SOL    HW112290   0.953   4.786   3.016
 3797SOL    HW212291   0.905   4.795   2.861
 3798SOL     OW12292   2.336   5.339   2.510
 3798SOL    HW112293   2.433   5.319   2.495
 3798SOL    HW212294   2.297   5.377   2.426
 3799SOL     OW12295   1.792   1.113   5.730
 3799SOL    HW112296   1.854   1.168   5.786
 3799SOL    HW212297   1.709   1.093   5.783
 3800SOL     OW12298   4.462   2.316   4.659
 3800SOL    HW112299   4.542   2.261   4.635
 3800SOL    HW212300   4.490   2.391   4.719
 3801SOL     OW12301   6.990   6.139   5.722
 3801SOL    HW112302   7.022   6.044   5.729
 3801SOL    HW212303   6.892   6.142   5.739
 3802SOL     OW12304   1.295   1.760   5.547
 3802SOL    HW112305   1.377   1.818   5.549
 3802SOL    HW212306   1.235   1.790   5.473
 3803SOL     OW12307   3.658   0.836   1.262
 3803SOL    HW112308   3.723   0.842   1.338
 3803SOL    HW212309   3.690   0.891   1.185
 3804SOL     OW12310   4.613   2.027   4.462
 3804SOL    HW112311   4.568   1.945   4.496
 3804SOL    HW212312   4.558   2.069   4.390
 3805SOL     OW12313   2.820   4.351   1.605
 3805SOL    HW112314   2.860   4.360   1.696
 3805SOL    HW212315   2.726   4.319   1.612
 3806SOL     OW12316   2.810   2.138   0.054
 3806SOL    HW112317   2.828   2.082   0.134
 3806SOL    HW212318   2.776   2.227   0.082
 3807SOL     OW12319   1.430   6.568   3.811
 3807SOL    HW112320   1.518   6.582   3.767
 3807SOL    HW212321   1.430   6.481   3.860
 3808SOL     OW12322   3.634   6.838   1.454
 3808SOL    HW112323   3.716   6.857   1.400
 3808SOL    HW212324   3.559   6.814   1.393
 3809SOL     OW12325   5.380   0.899   7.014
 3809SOL    HW112326   5.461   0.855   0.032
 3809SOL    HW212327   5.298   0.852   0.022
 3810SOL     OW12328   3.002   2.963   5.364
 3810SOL    HW112329   2.918   2.999   5.324
 3810SOL    HW212330   3.019   2.871   5.327
 3811SOL     OW12331   0.147   5.081   4.966
 3811SOL    HW112332   0.135   5.087   4.867
 3811SOL    HW212333   0.236   5.120   4.991
 3812SOL     OW12334   5.975   1.746   5.412
 3812SOL    HW112335   5.990   1.765   5.509
 3812SOL    HW212336   5.957   1.832   5.364
 3813SOL     OW12337   3.255   5.300   0.044
 3813SOL    HW112338   3.174   5.332   7.016
 3813SOL    HW212339   3.292   5.218   7.022
 3814SOL     OW12340   6.995   6.097   2.167
 3814SOL    HW112341   6.917   6.157   2.186
 3814SOL    HW212342   0.020   6.130   2.086
 3815SOL     OW12343   5.364   1.838   1.757
 3815SOL    HW112344   5.323   1.927   1.737
 3815SOL    HW212345   5.309   1.792   1.827
 3816SOL     OW12346   0.852   0.121   1.363
 3816SOL    HW112347   0.787   0.054   1.400
 3816SOL    HW212348   0.920   0.074   1.307
 3817SOL     OW12349   4.778   1.916   4.741
 3817SOL    HW112350   4.686   1.881   4.728
 3817SOL    HW212351   4.824   1.864   4.813
 3818SOL     OW12352   4.615   5.983   2.214
 3818SOL    HW112353   4.630   6.010   2.309
 3818SOL    HW212354   4.533   6.027   2.179
 3819SOL     OW12355   4.984   5.286   0.263
 3819SOL    HW112356   5.025   5.300   0.173
 3819SOL    HW212357   4.940   5.197   0.266
 3820SOL     OW12358   5.189   5.990   3.913
 3820SOL    HW112359   5.125   6.035   3.851
 3820SOL    HW212360   5.138   5.945   3.986
 3821SOL     OW12361   1.459   3.779   1.557
 3821SOL    HW112362   1.360   3.776   1.549
 3821SOL    HW212363   1.485   3.800   1.651
 3822SOL     OW12364   2.491   5.714   1.258
 3822SOL    HW112365   2.476   5.667   1.171
 3822SOL    HW212366   2.560   5.785   1.246
 3823SOL     OW12367   3.346   2.890   5.870
 3823SOL    HW112368   3.363   2.840   5.785
 3823SOL    HW212369   3.348   2.988   5.852
 3824SOL     OW12370   6.333   2.186   5.582
 3824SOL    HW112371   6.304   2.091   5.596
 3824SOL    HW212372   6.421   2.201   5.627
 3825SOL     OW12373   0.194   6.600   6.229
 3825SOL    HW112374   0.163   6.507   6.208
 3825SOL    HW212375   0.294   6.600   6.242
 3826SOL     OW12376   6.883   3.146   1.699
 3826SOL    HW112377   6.899   3.167   1.602
 3826SOL    HW212378   6.827   3.219   1.739
 3827SOL     OW12379   4.041   3.301   0.873
 3827SOL    HW112380   4.021   3.393   0.906
 3827SOL    HW212381   4.140   3.286   0.872
 3828SOL     OW12382   5.140   1.959   2.876
 3828SOL    HW112383   5.102   1.873   2.911
 3828SOL    HW212384   5.149   2.024   2.952
 3829SOL     OW12385   2.653   4.638   4.335
 3829SOL    HW112386   2.657   4.549   4.289
 3829SOL    HW212387   2.616   4.626   4.427
 3830SOL     OW12388   2.514   0.883   5.050
 3830SOL    HW112389   2.498   0.882   5.148
 3830SOL    HW212390   2.430   0.913   5.004
 3831SOL     OW12391   3.899   1.706   2.473
 3831SOL    HW112392   3.894   1.805   2.479
 3831SOL    HW212393   3.860   1.676   2.385
 3832SOL     OW12394   6.841   0.667   2.222
 3832SOL    HW112395   6.834   0.732   2.298
 3832SOL    HW212396   6.878   0.714   2.142
 3833SOL     OW12397   0.592   4.959   0.052
 3833SOL    HW112398   0.627   4.982   0.143
 3833SOL    HW212399   0.618   4.865   0.029
 3834SOL     OW12400   3.103   1.899   0.604
 3834SOL    HW112401   3.096   1.994   0.573
 3834SOL    HW212402   3.187   1.887   0.656
 3835SOL     OW12403   3.630   5.432   5.311
 3835SOL    HW112404   3.548   5.465   5.359
 3835SOL    HW212405   3.611   5.341   5.274
 3836SOL     OW12406   1.332   4.122   6.159
 3836SOL    HW112407   1.360   4.045   6.216
 3836SOL    HW212408   1.316   4.202   6.217
 3837SOL     OW12409   4.054   3.724   0.860
 3837SOL    HW112410   4.140   3.770   0.841
 3837SOL    HW212411   4.069   3.648   0.923
 3838SOL     OW12412   6.718   2.452   5.118
 3838SOL    HW112413   6.653   2.397   5.066
 3838SOL    HW212414   6.710   2.430   5.215
 3839SOL     OW12415   5.948   5.720   5.546
 3839SOL    HW112416   5.931   5.780   5.467
 3839SOL    HW212417   6.046   5.700   5.551
 3840SOL     OW12418   1.748   0.888   3.990
 3840SOL    HW112419   1.838   0.845   3.994
 3840SOL    HW212420   1.759   0.987   3.977
 3841SOL     OW12421   0.877   3.560   5.733
 3841SOL    HW112422   0.867   3.470   5.691
 3841SOL    HW212423   0.787   3.602   5.743
 3842SOL     OW12424   0.721   5.116   6.900
 3842SOL    HW112425   0.732   5.077   6.809
 3842SOL    HW212426   0.670   5.052   6.958
 3843SOL     OW12427   5.942   3.144   0.998
 3843SOL    HW112428   5.921   3.055   0.958
 3843SOL    HW212429   6.025   3.180   0.957
 3844SOL     OW12430   1.601   4.810   6.486
 3844SOL    HW112431   1.665   4.862   6.429
 3844SOL    HW212432   1.549   4.747   6.429
 3845SOL     OW12433   3.230   3.846   3.273
 3845SOL    HW112434   3.322   3.812   3.254
 3845SOL    HW212435   3.213   3.929   3.219
 3846SOL     OW12436   0.101   4.659   5.118
 3846SOL    HW112437   0.127   4.663   5.022
 3846SOL    HW212438   0.038   4.583   5.132
 3847SOL     OW12439   0.837   6.967   6.817
 3847SOL    HW112440   0.838   6.892   6.751
 3847SOL    HW212441   0.750   7.016   6.809
 3848SOL     OW12442   2.192   5.054   1.425
 3848SOL    HW112443   2.163   4.985   1.492
 3848SOL    HW212444   2.288   5.078   1.442
 3849SOL     OW12445   0.970   2.054   5.728
 3849SOL    HW112446   0.888   2.033   5.782
 3849SOL    HW212447   0.950   2.042   5.631
 3850SOL     OW12448   3.230   3.826   1.552
 3850SOL    HW112449   3.170   3.906   1.552
 3850SOL    HW212450   3.266   3.812   1.460
 3851SOL     OW12451   2.256   2.682   2.891
 3851SOL    HW112452   2.287   2.704   2.984
 3851SOL    HW212453   2.306   2.603   2.856
 3852SOL     OW12454   3.876   1.073   4.561
 3852SOL    HW112455   3.852   1.071   4.658
 3852SOL    HW212456   3.902   1.166   4.535
 3853SOL     OW12457   0.747   3.298   1.834
 3853SOL    HW112458   0.783   3.385   1.802
 3853SOL    HW212459   0.651   3.289   1.806
 3854SOL     OW12460   1.421   3.552   4.536
 3854SOL    HW112461   1.379   3.575   4.624
 3854SOL    HW212462   1.352   3.515   4.475
 3855SOL     OW12463   6.444   2.894   5.573
 3855SOL    HW112464   6.347   2.894   5.598
 3855SOL    HW212465   6.495   2.948   5.639
 3856SOL     OW12466   0.799   6.491   6.026
 3856SOL    HW112467   0.820   6.401   5.988
 3856SOL    HW212468   0.702   6.510   6.015
 3857SOL     OW12469   0.363   6.663   5.184
 3857SOL    HW112470   0.287   6.631   5.128
 3857SOL    HW212471   0.357   6.762   5.196
 3858SOL     OW12472   2.623   5.619   0.205
 3858SOL    HW112473   2.708   5.671   0.196
 3858SOL    HW212474   2.623   5.571   0.293
 3859SOL     OW12475   0.566   2.819   2.359
 3859SOL    HW112476   0.621   2.894   2.323
 3859SOL    HW212477   0.602   2.790   2.447
 3860SOL     OW12478   2.528   6.820   5.622
 3860SOL    HW112479   2.464   6.769   5.565
 3860SOL    HW212480   2.491   6.827   5.715
 3861SOL     OW12481   4.489   4.286   0.970
 3861SOL    HW112482   4.449   4.372   1.002
 3861SOL    HW212483   4.573   4.268   1.020
 3862SOL     OW12484   1.561   5.967   6.287
 3862SOL    HW112485   1.565   5.869   6.265
 3862SOL    HW212486   1.540   5.979   6.384
 3863SOL     OW12487   3.420   3.459   1.266
 3863SOL    HW112488   3.381   3.367   1.256
 3863SOL    HW212489   3.516   3.458   1.238
 3864SOL     OW12490   2.980   2.592   0.150
 3864SOL    HW112491   2.951   2.684   0.177
 3864SOL    HW212492   3.071   2.596   0.108
 3865SOL     OW12493   4.813   6.913   2.481
 3865SOL    HW112494   4.836   6.875   2.571
 3865SOL    HW212495   4.814   7.013   2.486
 3866SOL     OW12496   4.060   6.725   6.675
 3866SOL    HW112497   4.125   6.710   6.750
 3866SOL    HW212498   3.975   6.763   6.710
 3867SOL     OW12499   1.919   3.181   3.584
 3867SOL    HW112500   1.887   3.152   3.493
 3867SOL    HW212501   1.846   3.231   3.630
 3868SOL     OW12502   1.697   5.918   2.828
 3868SOL    HW112503   1.714   5.947   2.733
 3868SOL    HW212504   1.624   5.974   2.867
 3869SOL     OW12505   1.032   2.984   3.432
 3869SOL    HW112506   0.996   3.025   3.516
 3869SOL    HW212507   1.022   2.885   3.435
 3870SOL     OW12508   2.731   4.855   0.266
 3870SOL    HW112509   2.807   4.809   0.311
 3870SOL    HW212510   2.688   4.919   0.329
 3871SOL     OW12511   2.545   0.373   3.893
 3871SOL    HW112512   2.631   0.413   3.923
 3871SOL    HW212513   2.563   0.288   3.844
 3872SOL     OW12514   3.959   3.987   0.335
 3872SOL    HW112515   3.975   4.019   0.241
 3872SOL    HW212516   4.046   3.955   0.374
 3873SOL     OW12517   4.864   4.864   2.159
 3873SOL    HW112518   4.834   4.956   2.185
 3873SOL    HW212519   4.964   4.859   2.162
 3874SOL     OW12520   4.487   0.006   6.299
 3874SOL    HW112521   4.567   7.015   6.358
 3874SOL    HW212522   4.499   6.976   6.215
 3875SOL     OW12523   1.326   4.663   0.676
 3875SOL    HW112524   1.243   4.669   0.731
 3875SOL    HW212525   1.406   4.674   0.734
 3876SOL     OW12526   4.856   3.682   3.014
 3876SOL    HW112527   4.905   3.682   2.926
 3876SOL    HW212528   4.808   3.596   3.026
 3877SOL     OW12529   5.345   1.231   2.002
 3877SOL    HW112530   5.314   1.320   1.970
 3877SOL    HW212531   5.307   1.213   2.093
 3878SOL     OW12532   2.924   6.043   5.187
 3878SOL    HW112533   2.967   6.102   5.119
 3878SOL    HW212534   2.972   6.052   5.274
 3879SOL     OW12535   4.145   5.832   1.369
 3879SOL    HW112536   4.143   5.737   1.340
 3879SOL    HW212537   4.193   5.887   1.299
 3880SOL     OW12538   5.687   3.126   4.066
 3880SOL    HW112539   5.740   3.142   3.983
 3880SOL    HW212540   5.640   3.211   4.092
 3881SOL     OW12541   1.451   3.951   0.716
 3881SOL    HW112542   1.408   3.931   0.628
 3881SOL    HW212543   1.550   3.962   0.702
 3882SOL     OW12544   0.339   0.228   6.349
 3882SOL    HW112545   0.316   0.326   6.345
 3882SOL    HW212546   0.435   0.216   6.327
 3883SOL     OW12547   3.116   0.666   6.073
 3883SOL    HW112548   3.022   0.648   6.045
 3883SOL    HW212549   3.135   0.619   6.159
 3884SOL     OW12550   1.659   4.778   5.940
 3884SOL    HW112551   1.586   4.746   6.001
 3884SOL    HW212552   1.747   4.747   5.974
 3885SOL     OW12553   0.472   1.390   4.417
 3885SOL    HW112554   0.393   1.383   4.478
 3885SOL    HW212555   0.483   1.304   4.367
 3886SOL     OW12556   6.823   5.800   5.109
 3886SOL    HW112557   6.736   5.797   5.158
 3886SOL    HW212558   6.805   5.796   5.010
 3887SOL     OW12559   4.614   2.671   5.508
 3887SOL    HW112560   4.680   2.596   5.502
 3887SOL    HW212561   4.562   2.662   5.593
 3888SOL     OW12562   5.932   2.178   1.048
 3888SOL    HW112563   6.020   2.130   1.041
 3888SOL    HW212564   5.903   2.180   1.144
 3889SOL     OW12565   0.802   5.626   6.866
 3889SOL    HW112566   0.842   5.584   6.948
 3889SOL    HW212567   0.868   5.621   6.791
 3890SOL     OW12568   6.074   4.146   2.365
 3890SOL    HW112569   6.131   4.146   2.447
 3890SOL    HW212570   6.088   4.060   2.315
 3891SOL     OW12571   5.777   5.043   5.313
 3891SOL    HW112572   5.819   5.035   5.403
 3891SOL    HW212573   5.696   5.102   5.319
 3892SOL     OW12574   5.117   6.703   3.505
 3892SOL    HW112575   5.166   6.787   3.531
 3892SOL    HW212576   5.100   6.703   3.407
 3893SOL     OW12577   3.101   6.471   3.854
 3893SOL    HW112578   3.155   6.554   3.868
 3893SOL    HW212579   3.006   6.496   3.834
 3894SOL     OW12580   5.090   4.609   0.168
 3894SOL    HW112581   5.007   4.643   0.212
 3894SOL    HW212582   5.075   4.515   0.136
 3895SOL     OW12583   1.949   2.055   5.780
 3895SOL    HW112584   1.997   2.093   5.701
 3895SOL    HW212585   1.948   2.121   5.854
 3896SOL     OW12586   6.597   2.242   5.743
 3896SOL    HW112587   6.645   2.195   5.670
 3896SOL    HW212588   6.631   2.336   5.751
 3897SOL     OW12589   3.508   6.495   2.524
 3897SOL    HW112590   3.555   6.408   2.534
 3897SOL    HW212591   3.410   6.480   2.512
 3898SOL     OW12592   3.528   4.141   4.288
 3898SOL    HW112593   3.612   4.172   4.242
 3898SOL    HW212594   3.541   4.049   4.324
 3899SOL     OW12595   5.197   1.582   4.781
 3899SOL    HW112596   5.179   1.542   4.691
 3899SOL    HW212597   5.212   1.508   4.847
 3900SOL     OW12598   6.673   2.633   3.693
 3900SOL    HW112599   6.656   2.705   3.626
 3900SOL    HW212600   6.594   2.625   3.754
 3901SOL     OW12601   2.390   5.824   5.302
 3901SOL    HW112602   2.422   5.863   5.216
 3901SOL    HW212603   2.445   5.861   5.377
 3902SOL     OW12604   3.988   4.908   1.746
 3902SOL    HW112605   4.034   4.832   1.700
 3902SOL    HW212606   3.961   4.881   1.838
 3903SOL     OW12607   3.473   3.032   6.154
 3903SOL    HW112608   3.404   2.998   6.218
 3903SOL    HW212609   3.544   2.963   6.141
 3904SOL     OW12610   2.016   6.244   0.548
 3904SOL    HW112611   2.105   6.244   0.593
 3904SOL    HW212612   2.027   6.219   0.452
 3905SOL     OW12613   0.175   0.295   5.399
 3905SOL    HW112614   0.209   0.328   5.311
 3905SOL    HW212615   0.075   0.289   5.396
 3906SOL     OW12616   0.420   5.407   5.196
 3906SOL    HW112617   0.418   5.405   5.296
 3906SOL    HW212618   0.383   5.494   5.163
 3907SOL     OW12619   1.109   0.973   4.813
 3907SOL    HW112620   1.101   1.044   4.742
 3907SOL    HW212621   1.069   0.888   4.779
 3908SOL     OW12622   1.999   0.304   4.601
 3908SOL    HW112623   1.904   0.307   4.632
 3908SOL    HW212624   2.002   0.303   4.501
 3909SOL     OW12625   5.783   2.493   0.999
 3909SOL    HW112626   5.766   2.586   0.968
 3909SOL    HW212627   5.701   2.456   1.043
 3910SOL     OW12628   2.831   2.850   1.220
 3910SOL    HW112629   2.735   2.879   1.231
 3910SOL    HW212630   2.891   2.918   1.262
 3911SOL     OW12631   6.356   0.641   0.978
 3911SOL    HW112632   6.448   0.664   1.008
 3911SOL    HW212633   6.301   0.725   0.971
 3912SOL     OW12634   4.017   3.329   6.952
 3912SOL    HW112635   4.003   3.256   6.885
 3912SOL    HW212636   3.994   3.295   0.021
 3913SOL     OW12637   4.489   5.686   1.413
 3913SOL    HW112638   4.541   5.755   1.462
 3913SOL    HW212639   4.548   5.609   1.391
 3914SOL     OW12640   6.920   1.163   0.673
 3914SOL    HW112641   6.886   1.069   0.675
 3914SOL    HW212642   6.876   1.213   0.599
 3915SOL     OW12643   5.022   5.664   5.645
 3915SOL    HW112644   4.945   5.660   5.581
 3915SOL    HW212645   5.004   5.732   5.715
 3916SOL     OW12646   2.549   1.581   2.985
 3916SOL    HW112647   2.551   1.549   3.080
 3916SOL    HW212648   2.463   1.629   2.967
 3917SOL     OW12649   3.704   4.550   1.389
 3917SOL    HW112650   3.649   4.631   1.371
 3917SOL    HW212651   3.787   4.577   1.439
 3918SOL     OW12652   4.956   1.273   0.249
 3918SOL    HW112653   5.015   1.266   0.168
 3918SOL    HW212654   4.942   1.181   0.288
 3919SOL     OW12655   4.417   6.164   2.441
 3919SOL    HW112656   4.383   6.213   2.521
 3919SOL    HW212657   4.467   6.082   2.471
 3920SOL     OW12658   3.224   1.754   5.358
 3920SOL    HW112659   3.156   1.692   5.396
 3920SOL    HW212660   3.211   1.845   5.397
 3921SOL     OW12661   6.961   3.110   6.124
 3921SOL    HW112662   6.909   3.032   6.090
 3921SOL    HW212663   6.930   3.134   6.216
 3922SOL     OW12664   4.835   3.949   2.966
 3922SOL    HW112665   4.812   3.852   2.979
 3922SOL    HW212666   4.898   3.959   2.889
 3923SOL     OW12667   4.931   1.098   1.523
 3923SOL    HW112668   4.938   1.097   1.622
 3923SOL    HW212669   4.951   1.007   1.487
 3924SOL     OW12670   5.954   4.951   3.993
 3924SOL    HW112671   5.866   4.904   3.986
 3924SOL    HW212672   6.028   4.884   3.986
 3925SOL     OW12673   5.193   4.622   0.711
 3925SOL    HW112674   5.247   4.657   0.635
 3925SOL    HW212675   5.226   4.531   0.737
 3926SOL     OW12676   0.822   5.699   5.124
 3926SOL    HW112677   0.754   5.764   5.156
 3926SOL    HW212678   0.820   5.617   5.182
 3927SOL     OW12679   5.454   2.437   5.749
 3927SOL    HW112680   5.424   2.515   5.804
 3927SOL    HW212681   5.384   2.365   5.753
 3928SOL     OW12682   3.374   5.754   2.117
 3928SOL    HW112683   3.348   5.661   2.090
 3928SOL    HW212684   3.410   5.753   2.211
 3929SOL     OW12685   0.555   2.050   5.478
 3929SOL    HW112686   0.468   2.044   5.429
 3929SOL    HW212687   0.557   2.134   5.532
 3930SOL     OW12688   2.502   5.022   3.974
 3930SOL    HW112689   2.424   5.039   3.914
 3930SOL    HW212690   2.546   4.936   3.948
 3931SOL     OW12691   2.111   2.861   1.153
 3931SOL    HW112692   2.156   2.777   1.185
 3931SOL    HW212693   2.014   2.858   1.176
 3932SOL     OW12694   2.498   4.544   3.869
 3932SOL    HW112695   2.490   4.581   3.961
 3932SOL    HW212696   2.534   4.451   3.873
 3933SOL     OW12697   1.751   6.424   1.353
 3933SOL    HW112698   1.838   6.376   1.368
 3933SOL    HW212699   1.767   6.505   1.297
 3934SOL     OW12700   0.831   0.124   1.785
 3934SOL    HW112701   0.880   0.095   1.868
 3934SOL    HW212702   0.776   0.204   1.806
 3935SOL     OW12703   6.857   3.904   5.782
 3935SOL    HW112704   6.925   3.977   5.785
 3935SOL    HW212705   6.816   3.894   5.873
 3936SOL     OW12706   6.336   4.308   5.745
 3936SOL    HW112707   6.435   4.323   5.748
 3936SOL    HW212708   6.299   4.317   5.838
 3937SOL     OW12709   0.345   6.546   1.604
 3937SOL    HW112710   0.370   6.563   1.699
 3937SOL    HW212711   0.251   6.576   1.588
 3938SOL     OW12712   0.927   3.528   1.726
 3938SOL    HW112713   0.859   3.601   1.721
 3938SOL    HW212714   0.982   3.528   1.643
 3939SOL     OW12715   0.983   0.825   3.236
 3939SOL    HW112716   1.058   0.793   3.295
 3939SOL    HW212717   0.950   0.750   3.179
 3940SOL     OW12718   3.495   6.324   0.496
 3940SOL    HW112719   3.464   6.272   0.415
 3940SOL    HW212720   3.563   6.392   0.468
 3941SOL     OW12721   5.325   5.777   2.082
 3941SOL    HW112722   5.275   5.697   2.117
 3941SOL    HW212723   5.408   5.747   2.035
 3942SOL     OW12724   0.024   5.851   5.456
 3942SOL    HW112725   6.991   5.769   5.441
 3942SOL    HW212726   6.987   5.929   5.469
 3943SOL     OW12727   1.986   3.219   0.508
 3943SOL    HW112728   2.016   3.266   0.425
 3943SOL    HW212729   2.065   3.189   0.560
 3944SOL     OW12730   4.797   2.664   6.836
 3944SOL    HW112731   4.760   2.659   6.744
 3944SOL    HW212732   4.770   2.750   6.879
 3945SOL     OW12733   5.481   0.158   3.810
 3945SOL    HW112734   5.542   0.111   3.746
 3945SOL    HW212735   5.402   0.194   3.761
 3946SOL     OW12736   0.326   3.334   0.571
 3946SOL    HW112737   0.297   3.396   0.643
 3946SOL    HW212738   0.426   3.332   0.566
 3947SOL     OW12739   6.349   5.401   1.822
 3947SOL    HW112740   6.283   5.407   1.897
 3947SOL    HW212741   6.333   5.477   1.758
 3948SOL     OW12742   1.545   2.990   6.002
 3948SOL    HW112743   1.476   2.932   6.046
 3948SOL    HW212744   1.499   3.066   5.955
 3949SOL     OW12745   5.973   0.328   1.918
 3949SOL    HW112746   5.942   0.279   1.837
 3949SOL    HW212747   5.998   0.262   1.989
 3950SOL     OW12748   2.787   4.633   1.648
 3950SOL    HW112749   2.820   4.629   1.742
 3950SOL    HW212750   2.814   4.550   1.599
 3951SOL     OW12751   0.952   2.462   4.857
 3951SOL    HW112752   0.864   2.455   4.810
 3951SOL    HW212753   0.975   2.375   4.899
 3952SOL     OW12754   5.469   3.916   0.586
 3952SOL    HW112755   5.514   3.827   0.588
 3952SOL    HW212756   5.538   3.988   0.599
 3953SOL     OW12757   3.297   3.213   6.927
 3953SOL    HW112758   3.206   3.212   6.969
 3953SOL    HW212759   3.317   3.306   6.894
 3954SOL     OW12760   0.753   2.749   5.715
 3954SOL    HW112761   0.726   2.767   5.810
 3954SOL    HW212762   0.848   2.776   5.702
 3955SOL     OW12763   6.750   3.679   0.392
 3955SOL    HW112764   6.822   3.723   0.339
 3955SOL    HW212765   6.779   3.587   0.419
 3956SOL     OW12766   6.727   2.781   5.474
 3956SOL    HW112767   6.703   2.808   5.381
 3956SOL    HW212768   6.645   2.785   5.532
 3957SOL     OW12769   0.716   1.633   3.534
 3957SOL    HW112770   0.676   1.721   3.561
 3957SOL    HW212771   0.794   1.649   3.473
 3958SOL     OW12772   5.455   5.986   6.976
 3958SOL    HW112773   5.463   6.072   0.004
 3958SOL    HW212774   5.403   6.002   6.892
 3959SOL     OW12775   2.543   6.317   0.863
 3959SOL    HW112776   2.491   6.392   0.903
 3959SOL    HW212777   2.533   6.235   0.919
 3960SOL     OW12778   5.398   3.356   1.024
 3960SOL    HW112779   5.425   3.340   1.119
 3960SOL    HW212780   5.300   3.378   1.020
 3961SOL     OW12781   5.537   0.123   1.223
 3961SOL    HW112782   5.576   0.083   1.306
 3961SOL    HW212783   5.438   0.110   1.224
 3962SOL     OW12784   0.748   6.968   5.815
 3962SOL    HW112785   0.830   6.974   5.758
 3962SOL    HW212786   0.774   6.948   5.910
 3963SOL     OW12787   4.473   5.280   2.997
 3963SOL    HW112788   4.494   5.372   2.962
 3963SOL    HW212789   4.394   5.243   2.948
 3964SOL     OW12790   6.297   6.218   6.086
 3964SOL    HW112791   6.331   6.266   6.005
 3964SOL    HW212792   6.198   6.228   6.093
 3965SOL     OW12793   3.762   2.794   0.111
 3965SOL    HW112794   3.758   2.774   0.209
 3965SOL    HW212795   3.806   2.883   0.097
 3966SOL     OW12796   6.101   3.317   5.682
 3966SOL    HW112797   6.078   3.413   5.666
 3966SOL    HW212798   6.191   3.312   5.725
 3967SOL     OW12799   2.096   6.737   6.709
 3967SOL    HW112800   2.007   6.705   6.678
 3967SOL    HW212801   2.124   6.687   6.790
 3968SOL     OW12802   5.541   0.332   1.547
 3968SOL    HW112803   5.549   0.375   1.637
 3968SOL    HW212804   5.593   0.385   1.480
 3969SOL     OW12805   0.573   6.249   1.826
 3969SOL    HW112806   0.582   6.308   1.906
 3969SOL    HW212807   0.612   6.295   1.746
 3970SOL     OW12808   4.545   4.439   4.177
 3970SOL    HW112809   4.572   4.397   4.264
 3970SOL    HW212810   4.546   4.539   4.187
 3971SOL     OW12811   1.317   6.042   3.620
 3971SOL    HW112812   1.363   6.039   3.532
 3971SOL    HW212813   1.262   6.125   3.627
 3972SOL     OW12814   1.185   0.538   0.114
 3972SOL    HW112815   1.167   0.444   0.143
 3972SOL    HW212816   1.117   0.566   0.046
 3973SOL     OW12817   3.705   2.951   2.684
 3973SOL    HW112818   3.646   2.925   2.608
 3973SOL    HW212819   3.670   2.911   2.769
 3974SOL     OW12820   5.630   0.601   6.129
 3974SOL    HW112821   5.722   0.561   6.129
 3974SOL    HW212822   5.618   0.656   6.212
 3975SOL     OW12823   6.867   6.078   5.478
 3975SOL    HW112824   6.789   6.031   5.519
 3975SOL    HW212825   6.871   6.172   5.512
 3976SOL     OW12826   1.280   3.255   6.785
 3976SOL    HW112827   1.355   3.245   6.719
 3976SOL    HW212828   1.196   3.217   6.745
 3977SOL     OW12829   3.912   6.138   5.835
 3977SOL    HW112830   3.900   6.210   5.904
 3977SOL    HW212831   3.905   6.048   5.878
 3978SOL     OW12832   6.232   4.264   6.601
 3978SOL    HW112833   6.224   4.292   6.506
 3978SOL    HW212834   6.175   4.322   6.659
 3979SOL     OW12835   1.189   6.558   3.241
 3979SOL    HW112836   1.218   6.463   3.235
 3979SOL    HW212837   1.104   6.564   3.293
 3980SOL     OW12838   4.997   3.529   4.779
 3980SOL    HW112839   4.997   3.430   4.769
 3980SOL    HW212840   4.959   3.554   4.868
 3981SOL     OW12841   6.516   2.373   5.402
 3981SOL    HW112842   6.588   2.438   5.429
 3981SOL    HW212843   6.431   2.397   5.448
 3982SOL     OW12844   2.379   2.327   3.982
 3982SOL    HW112845   2.470   2.362   4.007
 3982SOL    HW212846   2.313   2.402   3.982
 3983SOL     OW12847   3.746   6.967   3.844
 3983SOL    HW112848   3.675   0.009   3.816
 3983SOL    HW212849   3.769   6.907   3.767
 3984SOL     OW12850   1.221   0.591   1.563
 3984SOL    HW112851   1.150   0.566   1.629
 3984SOL    HW212852   1.263   0.508   1.526
 3985SOL     OW12853   1.541   3.249   1.806
 3985SOL    HW112854   1.496   3.236   1.718
 3985SOL    HW212855   1.514   3.337   1.844
 3986SOL     OW12856   1.231   2.667   1.922
 3986SOL    HW112857   1.157   2.620   1.875
 3986SOL    HW212858   1.280   2.725   1.857
 3987SOL     OW12859   1.764   4.187   6.150
 3987SOL    HW112860   1.690   4.195   6.085
 3987SOL    HW212861   1.814   4.102   6.134
 3988SOL     OW12862   4.872   1.415   6.940
 3988SOL    HW112863   4.790   1.433   6.995
 3988SOL    HW212864   4.950   1.461   6.981
 3989SOL     OW12865   4.242   0.848   6.669
 3989SOL    HW112866   4.317   0.865   6.733
 3989SOL    HW212867   4.258   0.900   6.585
 3990SOL     OW12868   1.476   2.803   3.849
 3990SOL    HW112869   1.553   2.793   3.786
 3990SOL    HW212870   1.466   2.899   3.875
 3991SOL     OW12871   0.476   1.116   4.288
 3991SOL    HW112872   0.559   1.122   4.232
 3991SOL    HW212873   0.441   1.023   4.286
 3992SOL     OW12874   5.159   4.213   6.398
 3992SOL    HW112875   5.157   4.235   6.496
 3992SOL    HW212876   5.233   4.149   6.379
 3993SOL     OW12877   1.446   1.055   3.854
 3993SOL    HW112878   1.364   1.112   3.851
 3993SOL    HW212879   1.470   1.036   3.949
 3994SOL     OW12880   2.464   1.603   3.995
 3994SOL    HW112881   2.480   1.669   4.069
 3994SOL    HW212882   2.390   1.638   3.936
 3995SOL     OW12883   1.212   3.660   1.873
 3995SOL    HW112884   1.148   3.732   1.901
 3995SOL    HW212885   1.297   3.669   1.925
 3996SOL     OW12886   5.971   6.449   4.155
 3996SOL    HW112887   5.882   6.407   4.172
 3996SOL    HW212888   6.014   6.406   4.076
 3997SOL     OW12889   5.325   3.614   2.775
 3997SOL    HW112890   5.229   3.629   2.750
 3997SOL    HW212891   5.353   3.523   2.742
 3998SOL     OW12892   5.805   2.311   2.876
 3998SOL    HW112893   5.785   2.257   2.795
 3998SOL    HW212894   5.722   2.357   2.907
 3999SOL     OW12895   5.078   2.754   1.419
 3999SOL    HW112896   4.983   2.729   1.401
 3999SOL    HW212897   5.100   2.736   1.515
 4000SOL     OW12898   3.520   4.984   2.391
 4000SOL    HW112899   3.477   4.909   2.442
 4000SOL    HW212900   3.453   5.024   2.328
 4001SOL     OW12901   1.398   4.580   4.160
 4001SOL    HW112902   1.395   4.534   4.071
 4001SOL    HW212903   1.431   4.516   4.229
 4002SOL     OW12904   3.472   4.102   3.404
 4002SOL    HW112905   3.405   4.115   3.477
 4002SOL    HW212906   3.429   4.052   3.328
 4003SOL     OW12907   2.378   1.096   5.670
 4003SOL    HW112908   2.297   1.043   5.696
 4003SOL    HW212909   2.351   1.171   5.611
 4004SOL     OW12910   1.213   3.918   3.735
 4004SOL    HW112911   1.119   3.884   3.730
 4004SOL    HW212912   1.264   3.865   3.803
 4005SOL     OW12913   4.908   3.047   6.937
 4005SOL    HW112914   5.002   3.073   6.919
 4005SOL    HW212915   4.905   2.982   7.012
 4006SOL     OW12916   5.128   5.388   3.311
 4006SOL    HW112917   5.042   5.423   3.349
 4006SOL    HW212918   5.205   5.420   3.367
 4007SOL     OW12919   0.205   1.152   3.026
 4007SOL    HW112920   0.237   1.236   3.070
 4007SOL    HW212921   0.262   1.133   2.946
 4008SOL     OW12922   3.524   1.059   0.651
 4008SOL    HW112923   3.537   0.982   0.714
 4008SOL    HW212924   3.509   1.023   0.559
 4009SOL     OW12925   4.808   2.352   0.355
 4009SOL    HW112926   4.846   2.403   0.432
 4009SOL    HW212927   4.855   2.264   0.347
 4010SOL     OW12928   2.679   5.213   2.105
 4010SOL    HW112929   2.724   5.302   2.100
 4010SOL    HW212930   2.587   5.220   2.065
 4011SOL     OW12931   4.458   5.906   0.106
 4011SOL    HW112932   4.432   5.888   0.200
 4011SOL    HW212933   4.420   5.995   0.077
 4012SOL     OW12934   4.667   6.554   2.590
 4012SOL    HW112935   4.732   6.551   2.666
 4012SOL    HW212936   4.717   6.568   2.504
 4013SOL     OW12937   0.115   1.520   6.122
 4013SOL    HW112938   0.127   1.468   6.207
 4013SOL    HW212939   0.178   1.597   6.120
 4014SOL     OW12940   3.034   4.848   2.461
 4014SOL    HW112941   3.010   4.803   2.547
 4014SOL    HW212942   3.115   4.905   2.474
 4015SOL     OW12943   4.312   4.764   5.835
 4015SOL    HW112944   4.369   4.812   5.768
 4015SOL    HW212945   4.268   4.685   5.793
 4016SOL     OW12946   3.981   5.311   5.114
 4016SOL    HW112947   4.031   5.398   5.114
 4016SOL    HW212948   3.899   5.321   5.057
 4017SOL     OW12949   0.683   4.952   5.729
 4017SOL    HW112950   0.644   4.860   5.727
 4017SOL    HW212951   0.615   5.016   5.764
 4018SOL     OW12952   4.434   6.145   1.904
 4018SOL    HW112953   4.361   6.214   1.901
 4018SOL    HW212954   4.423   6.089   1.987
 4019SOL     OW12955   5.684   3.304   3.432
 4019SOL    HW112956   5.641   3.281   3.519
 4019SOL    HW212957   5.676   3.226   3.369
 4020SOL     OW12958   6.495   5.334   4.040
 4020SOL    HW112959   6.468   5.419   4.085
 4020SOL    HW212960   6.490   5.259   4.105
 4021SOL     OW12961   4.362   3.636   6.170
 4021SOL    HW112962   4.425   3.697   6.217
 4021SOL    HW212963   4.279   3.626   6.224
 4022SOL     OW12964   1.820   0.852   1.718
 4022SOL    HW112965   1.756   0.906   1.774
 4022SOL    HW212966   1.899   0.827   1.774
 4023SOL     OW12967   0.575   1.675   5.162
 4023SOL    HW112968   0.531   1.725   5.087
 4023SOL    HW212969   0.652   1.623   5.126
 4024SOL     OW12970   0.768   5.896   4.568
 4024SOL    HW112971   0.819   5.865   4.648
 4024SOL    HW212972   0.707   5.822   4.537
 4025SOL     OW12973   0.199   5.431   3.789
 4025SOL    HW112974   0.255   5.446   3.870
 4025SOL    HW212975   0.257   5.395   3.715
 4026SOL     OW12976   6.499   6.745   3.724
 4026SOL    HW112977   6.489   6.654   3.764
 4026SOL    HW212978   6.590   6.756   3.685
 4027SOL     OW12979   2.535   4.044   5.977
 4027SOL    HW112980   2.468   4.040   6.052
 4027SOL    HW212981   2.514   4.122   5.918
 4028SOL     OW12982   4.349   1.793   2.946
 4028SOL    HW112983   4.337   1.892   2.958
 4028SOL    HW212984   4.396   1.755   3.025
 4029SOL     OW12985   1.932   5.848   6.875
 4029SOL    HW112986   1.909   5.752   6.862
 4029SOL    HW212987   1.991   5.879   6.800
 4030SOL     OW12988   7.000   1.177   2.844
 4030SOL    HW112989   6.968   1.086   2.817
 4030SOL    HW212990   0.058   1.167   2.903
 4031SOL     OW12991   6.267   6.376   1.415
 4031SOL    HW112992   6.329   6.364   1.337
 4031SOL    HW212993   6.278   6.298   1.477
 4032SOL     OW12994   5.495   0.468   1.806
 4032SOL    HW112995   5.481   0.567   1.806
 4032SOL    HW212996   5.547   0.442   1.887
 4033SOL     OW12997   1.805   2.803   2.791
 4033SOL    HW112998   1.864   2.723   2.803
 4033SOL    HW212999   1.782   2.841   2.881
 4034SOL     OW13000   0.173   3.173   5.222
 4034SOL    HW113001   0.259   3.140   5.182
 4034SOL    HW213002   0.175   3.160   5.321
 4035SOL     OW13003   4.968   1.568   1.679
 4035SOL    HW113004   4.965   1.516   1.764
 4035SOL    HW213005   4.907   1.646   1.684
 4036SOL     OW13006   2.594   5.555   2.999
 4036SOL    HW113007   2.556   5.463   3.002
 4036SOL    HW213008   2.575   5.603   3.085
 4037SOL     OW13009   2.291   0.901   6.083
 4037SOL    HW113010   2.334   0.850   6.009
 4037SOL    HW213011   2.192   0.903   6.069
 4038SOL     OW13012   3.152   3.723   5.892
 4038SOL    HW113013   3.126   3.820   5.898
 4038SOL    HW213014   3.123   3.675   5.975
 4039SOL     OW13015   6.266   4.996   1.672
 4039SOL    HW113016   6.250   4.917   1.613
 4039SOL    HW213017   6.188   5.007   1.735
 4040SOL     OW13018   3.461   5.806   4.732
 4040SOL    HW113019   3.536   5.816   4.667
 4040SOL    HW213020   3.452   5.711   4.760
 4041SOL     OW13021   2.600   6.477   0.478
 4041SOL    HW113022   2.680   6.532   0.503
 4041SOL    HW213023   2.567   6.505   0.388
 4042SOL     OW13024   5.811   0.735   3.813
 4042SOL    HW113025   5.863   0.724   3.729
 4042SOL    HW213026   5.848   0.811   3.867
 4043SOL     OW13027   5.149   3.700   6.560
 4043SOL    HW113028   5.231   3.758   6.566
 4043SOL    HW213029   5.176   3.605   6.541
 4044SOL     OW13030   4.586   5.320   3.266
 4044SOL    HW113031   4.563   5.296   3.172
 4044SOL    HW213032   4.661   5.386   3.267
 4045SOL     OW13033   5.138   0.142   5.409
 4045SOL    HW113034   5.214   0.182   5.461
 4045SOL    HW213035   5.068   0.109   5.473
 4046SOL     OW13036   6.144   1.913   2.235
 4046SOL    HW113037   6.104   1.836   2.184
 4046SOL    HW213038   6.202   1.967   2.174
 4047SOL     OW13039   2.791   3.482   6.945
 4047SOL    HW113040   2.890   3.486   6.957
 4047SOL    HW213041   2.762   3.388   6.933
 4048SOL     OW13042   4.485   1.372   1.947
 4048SOL    HW113043   4.459   1.425   2.027
 4048SOL    HW213044   4.416   1.382   1.876
 4049SOL     OW13045   3.688   4.408   6.442
 4049SOL    HW113046   3.673   4.468   6.363
 4049SOL    HW213047   3.776   4.430   6.485
 4050SOL     OW13048   0.354   5.615   2.515
 4050SOL    HW113049   0.428   5.585   2.576
 4050SOL    HW213050   0.339   5.545   2.445
 4051SOL     OW13051   5.223   0.907   5.408
 4051SOL    HW113052   5.150   0.924   5.341
 4051SOL    HW213053   5.311   0.935   5.370
 4052SOL     OW13054   6.422   2.466   3.778
 4052SOL    HW113055   6.425   2.454   3.878
 4052SOL    HW213056   6.360   2.399   3.738
 4053SOL     OW13057   0.794   5.131   4.627
 4053SOL    HW113058   0.817   5.201   4.560
 4053SOL    HW213059   0.727   5.068   4.588
 4054SOL     OW13060   4.672   4.078   0.502
 4054SOL    HW113061   4.579   4.043   0.502
 4054SOL    HW213062   4.683   4.146   0.430
 4055SOL     OW13063   0.490   4.195   0.826
 4055SOL    HW113064   0.443   4.266   0.773
 4055SOL    HW213065   0.583   4.185   0.793
 4056SOL     OW13066   5.028   3.251   0.798
 4056SOL    HW113067   5.111   3.235   0.745
 4056SOL    HW213068   5.040   3.212   0.890
 4057SOL     OW13069   6.754   3.077   6.774
 4057SOL    HW113070   6.812   3.016   6.828
 4057SOL    HW213071   6.728   3.155   6.831
 4058SOL     OW13072   2.884   6.363   5.639
 4058SOL    HW113073   2.804   6.423   5.636
 4058SOL    HW213074   2.867   6.291   5.707
 4059SOL     OW13075   1.544   1.498   4.613
 4059SOL    HW113076   1.608   1.559   4.658
 4059SOL    HW213077   1.500   1.546   4.537
 4060SOL     OW13078   6.380   6.044   5.676
 4060SOL    HW113079   6.337   6.077   5.592
 4060SOL    HW213080   6.479   6.058   5.670
 4061SOL     OW13081   2.148   5.597   1.183
 4061SOL    HW113082   2.116   5.687   1.155
 4061SOL    HW213083   2.183   5.601   1.276
 4062SOL     OW13084   1.789   1.834   1.750
 4062SOL    HW113085   1.779   1.932   1.732
 4062SOL    HW213086   1.716   1.784   1.702
 4063SOL     OW13087   5.454   1.692   0.365
 4063SOL    HW113088   5.531   1.748   0.335
 4063SOL    HW213089   5.382   1.693   0.295
 4064SOL     OW13090   1.962   1.973   5.454
 4064SOL    HW113091   1.873   2.014   5.434
 4064SOL    HW213092   1.985   1.908   5.381
 4065SOL     OW13093   2.250   6.719   1.302
 4065SOL    HW113094   2.295   6.632   1.282
 4065SOL    HW213095   2.316   6.794   1.296
 4066SOL     OW13096   0.074   4.168   3.555
 4066SOL    HW113097   0.009   4.243   3.546
 4066SOL    HW213098   0.071   4.132   3.649
 4067SOL     OW13099   4.760   4.914   1.662
 4067SOL    HW113100   4.830   4.921   1.733
 4067SOL    HW213101   4.670   4.928   1.702
 4068SOL     OW13102   1.872   2.897   5.202
 4068SOL    HW113103   1.849   2.875   5.297
 4068SOL    HW213104   1.896   2.994   5.196
 4069SOL     OW13105   4.235   0.002   7.022
 4069SOL    HW113106   4.283   6.948   0.042
 4069SOL    HW213107   4.249   7.022   6.923
 4070SOL     OW13108   1.408   3.051   3.092
 4070SOL    HW113109   1.373   2.973   3.144
 4070SOL    HW213110   1.506   3.060   3.106
 4071SOL     OW13111   0.668   0.547   4.012
 4071SOL    HW113112   0.700   0.453   4.024
 4071SOL    HW213113   0.592   0.549   3.947
 4072SOL     OW13114   2.002   5.498   3.444
 4072SOL    HW113115   1.923   5.451   3.483
 4072SOL    HW213116   2.086   5.465   3.487
 4073SOL     OW13117   3.275   4.858   0.164
 4073SOL    HW113118   3.362   4.819   0.136
 4073SOL    HW213119   3.252   4.825   0.256
 4074SOL     OW13120   0.967   6.177   2.884
 4074SOL    HW113121   1.050   6.140   2.926
 4074SOL    HW213122   0.949   6.129   2.798
 4075SOL     OW13123   5.894   0.344   0.709
 4075SOL    HW113124   5.806   0.305   0.736
 4075SOL    HW213125   5.885   0.388   0.619
 4076SOL     OW13126   2.828   3.764   5.091
 4076SOL    HW113127   2.749   3.764   5.153
 4076SOL    HW213128   2.883   3.846   5.106
 4077SOL     OW13129   3.692   1.719   1.878
 4077SOL    HW113130   3.636   1.734   1.959
 4077SOL    HW213131   3.718   1.807   1.838
 4078SOL     OW13132   2.948   4.794   2.718
 4078SOL    HW113133   2.865   4.749   2.751
 4078SOL    HW213134   2.989   4.847   2.792
 4079SOL     OW13135   1.088   2.258   4.141
 4079SOL    HW113136   1.094   2.328   4.211
 4079SOL    HW213137   1.180   2.231   4.113
 4080SOL     OW13138   6.459   1.345   5.135
 4080SOL    HW113139   6.383   1.281   5.120
 4080SOL    HW213140   6.429   1.438   5.115
 4081SOL     OW13141   1.750   3.367   3.749
 4081SOL    HW113142   1.699   3.447   3.716
 4081SOL    HW213143   1.771   3.380   3.846
 4082SOL     OW13144   1.044   2.694   1.196
 4082SOL    HW113145   1.143   2.696   1.198
 4082SOL    HW213146   1.013   2.617   1.138
 4083SOL     OW13147   5.563   2.572   4.635
 4083SOL    HW113148   5.604   2.550   4.546
 4083SOL    HW213149   5.630   2.617   4.693
 4084SOL     OW13150   0.197   1.529   4.307
 4084SOL    HW113151   0.257   1.608   4.294
 4084SOL    HW213152   0.165   1.526   4.401
 4085SOL     OW13153   3.591   6.539   0.134
 4085SOL    HW113154   3.683   6.554   0.097
 4085SOL    HW213155   3.539   6.481   0.072
 4086SOL     OW13156   1.445   4.855   1.045
 4086SOL    HW113157   1.422   4.766   1.084
 4086SOL    HW213158   1.367   4.917   1.053
 4087SOL     OW13159   2.260   1.916   3.570
 4087SOL    HW113160   2.348   1.923   3.618
 4087SOL    HW213161   2.269   1.850   3.495
 4088SOL     OW13162   6.417   1.917   1.276
 4088SOL    HW113163   6.358   1.837   1.273
 4088SOL    HW213164   6.508   1.890   1.308
 4089SOL     OW13165   1.048   1.015   3.908
 4089SOL    HW113166   1.094   1.003   3.820
 4089SOL    HW213167   0.960   0.968   3.907
 4090SOL     OW13168   2.212   4.330   6.461
 4090SOL    HW113169   2.278   4.298   6.393
 4090SOL    HW213170   2.194   4.256   6.527
 4091SOL     OW13171   4.296   5.898   0.370
 4091SOL    HW113172   4.246   5.903   0.456
 4091SOL    HW213173   4.393   5.881   0.389
 4092SOL     OW13174   0.751   2.908   4.963
 4092SOL    HW113175   0.709   2.836   4.908
 4092SOL    HW213176   0.706   2.996   4.944
 4093SOL     OW13177   5.202   0.714   3.882
 4093SOL    HW113178   5.135   0.642   3.865
 4093SOL    HW213179   5.156   0.793   3.922
 4094SOL     OW13180   1.813   4.058   5.163
 4094SOL    HW113181   1.903   4.052   5.120
 4094SOL    HW213182   1.782   4.153   5.162
 4095SOL     OW13183   0.922   3.094   6.485
 4095SOL    HW113184   1.012   3.051   6.473
 4095SOL    HW213185   0.924   3.186   6.448
 4096SOL     OW13186   4.491   4.900   6.890
 4096SOL    HW113187   4.550   4.931   6.815
 4096SOL    HW213188   4.456   4.809   6.870
 4097SOL     OW13189   3.377   3.712   5.706
 4097SOL    HW113190   3.339   3.712   5.614
 4097SOL    HW213191   3.304   3.736   5.771
 4098SOL     OW13192   0.356   2.203   3.155
 4098SOL    HW113193   0.444   2.192   3.201
 4098SOL    HW213194   0.337   2.121   3.100
 4099SOL     OW13195   3.352   6.007   1.997
 4099SOL    HW113196   3.362   5.917   2.041
 4099SOL    HW213197   3.440   6.035   1.959
 4100SOL     OW13198   4.207   5.517   3.709
 4100SOL    HW113199   4.258   5.431   3.700
 4100SOL    HW213200   4.269   5.590   3.735
 4101SOL     OW13201   5.808   1.486   6.326
 4101SOL    HW113202   5.878   1.419   6.350
 4101SOL    HW213203   5.839   1.540   6.247
 4102SOL     OW13204   6.060   1.041   0.317
 4102SOL    HW113205   6.139   0.979   0.322
 4102SOL    HW213206   6.009   1.036   0.403
 4103SOL     OW13207   0.505   0.556   2.235
 4103SOL    HW113208   0.431   0.566   2.170
 4103SOL    HW213209   0.498   0.467   2.280
 4104SOL     OW13210   1.515   4.954   2.435
 4104SOL    HW113211   1.477   5.010   2.508
 4104SOL    HW213212   1.610   4.932   2.456
 4105SOL     OW13213   3.550   5.159   0.346
 4105SOL    HW113214   3.577   5.253   0.366
 4105SOL    HW213215   3.528   5.112   0.432
 4106SOL     OW13216   0.118   3.817   4.701
 4106SOL    HW113217   0.094   3.733   4.652
 4106SOL    HW213218   0.215   3.837   4.688
 4107SOL     OW13219   0.181   0.191   1.495
 4107SOL    HW113220   0.190   0.109   1.439
 4107SOL    HW213221   0.099   0.242   1.467
 4108SOL     OW13222   6.619   3.636   6.513
 4108SOL    HW113223   6.707   3.593   6.532
 4108SOL    HW213224   6.567   3.580   6.449
 4109SOL     OW13225   4.065   6.452   3.913
 4109SOL    HW113226   3.986   6.458   3.975
 4109SOL    HW213227   4.126   6.529   3.930
 4110SOL     OW13228   5.105   3.559   6.180
 4110SOL    HW113229   5.034   3.564   6.250
 4110SOL    HW213230   5.137   3.464   6.172
 4111SOL     OW13231   4.122   2.703   6.752
 4111SOL    HW113232   4.176   2.749   6.822
 4111SOL    HW213233   4.088   2.616   6.789
 4112SOL     OW13234   3.488   1.778   3.888
 4112SOL    HW113235   3.475   1.720   3.968
 4112SOL    HW213236   3.462   1.872   3.910
 4113SOL     OW13237   3.445   5.035   5.124
 4113SOL    HW113238   3.429   5.037   5.025
 4113SOL    HW213239   3.537   5.000   5.142
 4114SOL     OW13240   3.029   1.721   3.592
 4114SOL    HW113241   3.127   1.725   3.611
 4114SOL    HW213242   3.002   1.801   3.538
 4115SOL     OW13243   4.783   4.691   1.973
 4115SOL    HW113244   4.720   4.742   1.915
 4115SOL    HW213245   4.821   4.751   2.044
 4116SOL     OW13246   3.705   1.911   1.694
 4116SOL    HW113247   3.632   1.870   1.639
 4116SOL    HW213248   3.702   2.010   1.686
 4117SOL     OW13249   1.017   5.521   1.392
 4117SOL    HW113250   1.100   5.576   1.402
 4117SOL    HW213251   1.029   5.435   1.442
 4118SOL     OW13252   1.397   6.583   0.686
 4118SOL    HW113253   1.481   6.585   0.741
 4118SOL    HW213254   1.388   6.494   0.641
 4119SOL     OW13255   3.568   0.812   4.307
 4119SOL    HW113256   3.588   0.815   4.210
 4119SOL    HW213257   3.488   0.754   4.323
 4120SOL     OW13258   3.872   6.863   1.316
 4120SOL    HW113259   3.891   6.961   1.308
 4120SOL    HW213260   3.951   6.818   1.357
 4121SOL     OW13261   0.093   2.405   4.337
 4121SOL    HW113262   0.164   2.413   4.267
 4121SOL    HW213263   0.072   2.496   4.373
 4122SOL     OW13264   0.639   5.901   5.653
 4122SOL    HW113265   0.688   5.830   5.703
 4122SOL    HW213266   0.685   5.917   5.565
 4123SOL     OW13267   5.659   3.872   6.039
 4123SOL    HW113268   5.605   3.919   5.969
 4123SOL    HW213269   5.752   3.858   6.006
 4124SOL     OW13270   5.598   6.530   4.360
 4124SOL    HW113271   5.600   6.620   4.317
 4124SOL    HW213272   5.514   6.520   4.413
 4125SOL     OW13273   4.374   0.733   1.577
 4125SOL    HW113274   4.429   0.808   1.613
 4125SOL    HW213275   4.423   0.647   1.587
 4126SOL     OW13276   2.066   4.252   4.659
 4126SOL    HW113277   2.150   4.238   4.606
 4126SOL    HW213278   2.089   4.295   4.746
 4127SOL     OW13279   5.563   3.310   4.962
 4127SOL    HW113280   5.527   3.234   4.909
 4127SOL    HW213281   5.555   3.289   5.060
 4128SOL     OW13282   1.598   3.410   2.398
 4128SOL    HW113283   1.632   3.359   2.477
 4128SOL    HW213284   1.536   3.483   2.429
 4129SOL     OW13285   5.703   2.327   5.802
 4129SOL    HW113286   5.612   2.370   5.803
 4129SOL    HW213287   5.699   2.244   5.747
 4130SOL     OW13288   6.497   4.389   6.335
 4130SOL    HW113289   6.513   4.319   6.404
 4130SOL    HW213290   6.399   4.401   6.322
 4131SOL     OW13291   0.040   4.898   4.065
 4131SOL    HW113292   0.071   4.976   4.119
 4131SOL    HW213293   0.004   4.827   4.126
 4132SOL     OW13294   5.264   3.195   3.476
 4132SOL    HW113295   5.219   3.277   3.511
 4132SOL    HW213296   5.362   3.200   3.495
 4133SOL     OW13297   2.456   1.296   1.188
 4133SOL    HW113298   2.479   1.378   1.241
 4133SOL    HW213299   2.360   1.273   1.202
 4134SOL     OW13300   2.449   2.023   0.189
 4134SOL    HW113301   2.442   1.995   0.094
 4134SOL    HW213302   2.390   1.964   0.245
 4135SOL     OW13303   1.972   0.928   2.667
 4135SOL    HW113304   1.990   0.836   2.701
 4135SOL    HW213305   1.898   0.926   2.600
 4136SOL     OW13306   0.136   2.184   3.888
 4136SOL    HW113307   0.110   2.149   3.978
 4136SOL    HW213308   0.128   2.284   3.887
 4137SOL     OW13309   3.553   3.870   6.088
 4137SOL    HW113310   3.527   3.860   6.184
 4137SOL    HW213311   3.506   3.801   6.033
 4138SOL     OW13312   4.310   4.658   3.779
 4138SOL    HW113313   4.406   4.634   3.767
 4138SOL    HW213314   4.260   4.640   3.694
 4139SOL     OW13315   1.617   1.788   5.898
 4139SOL    HW113316   1.557   1.861   5.863
 4139SOL    HW213317   1.593   1.702   5.855
 4140SOL     OW13318   4.015   0.876   5.507
 4140SOL    HW113319   3.952   0.951   5.490
 4140SOL    HW213320   4.040   0.833   5.420
 4141SOL     OW13321   5.234   5.257   0.587
 4141SOL    HW113322   5.157   5.322   0.593
 4141SOL    HW213323   5.199   5.165   0.575
 4142SOL     OW13324   6.547   4.249   0.978
 4142SOL    HW113325   6.585   4.337   1.004
 4142SOL    HW213326   6.486   4.216   1.051
 4143SOL     OW13327   6.634   2.992   0.946
 4143SOL    HW113328   6.637   2.976   1.044
 4143SOL    HW213329   6.725   3.020   0.913
 4144SOL     OW13330   5.203   1.244   2.321
 4144SOL    HW113331   5.215   1.329   2.269
 4144SOL    HW213332   5.106   1.228   2.337
 4145SOL     OW13333   1.678   0.411   1.438
 4145SOL    HW113334   1.584   0.435   1.412
 4145SOL    HW213335   1.713   0.478   1.503
 4146SOL     OW13336   5.026   6.930   6.588
 4146SOL    HW113337   5.020   6.842   6.634
 4146SOL    HW213338   5.097   6.986   6.631
 4147SOL     OW13339   3.297   1.981   5.801
 4147SOL    HW113340   3.275   1.944   5.711
 4147SOL    HW213341   3.392   2.012   5.802
 4148SOL     OW13342   6.298   0.644   3.338
 4148SOL    HW113343   6.350   0.582   3.279
 4148SOL    HW213344   6.350   0.728   3.352
 4149SOL     OW13345   6.379   3.974   1.284
 4149SOL    HW113346   6.478   3.982   1.272
 4149SOL    HW213347   6.349   3.882   1.259
 4150SOL     OW13348   5.539   0.325   6.643
 4150SOL    HW113349   5.618   0.357   6.695
 4150SOL    HW213350   5.479   0.402   6.621
 4151SOL     OW13351   0.235   6.452   0.397
 4151SOL    HW113352   0.294   6.425   0.321
 4151SOL    HW213353   0.186   6.372   0.432
 4152SOL     OW13354   4.174   4.661   1.919
 4152SOL    HW113355   4.161   4.759   1.910
 4152SOL    HW213356   4.100   4.622   1.972
 4153SOL     OW13357   5.907   4.928   6.323
 4153SOL    HW113358   5.954   4.955   6.407
 4153SOL    HW213359   5.967   4.944   6.245
 4154SOL     OW13360   6.082   2.905   5.449
 4154SOL    HW113361   6.139   2.910   5.531
 4154SOL    HW213362   6.071   2.810   5.421
 4155SOL     OW13363   0.890   3.441   2.175
 4155SOL    HW113364   0.980   3.467   2.142
 4155SOL    HW213365   0.832   3.415   2.098
 4156SOL     OW13366   5.685   6.580   5.737
 4156SOL    HW113367   5.591   6.565   5.768
 4156SOL    HW213368   5.722   6.661   5.781
 4157SOL     OW13369   4.118   0.806   4.005
 4157SOL    HW113370   4.080   0.891   4.040
 4157SOL    HW213371   4.214   0.799   4.033
 4158SOL     OW13372   0.628   5.062   3.087
 4158SOL    HW113373   0.588   5.147   3.052
 4158SOL    HW213374   0.562   5.018   3.148
 4159SOL     OW13375   0.873   2.737   3.880
 4159SOL    HW113376   0.794   2.678   3.867
 4159SOL    HW213377   0.843   2.832   3.893
 4160SOL     OW13378   6.597   0.141   0.999
 4160SOL    HW113379   6.670   0.168   0.936
 4160SOL    HW213380   6.636   0.079   1.068
 4161SOL     OW13381   1.230   1.703   0.005
 4161SOL    HW113382   1.186   1.715   6.939
 4161SOL    HW213383   1.315   1.650   7.016
 4162SOL     OW13384   6.048   6.785   5.038
 4162SOL    HW113385   6.124   6.825   4.988
 4162SOL    HW213386   6.023   6.697   4.997
 4163SOL     OW13387   5.499   1.595   3.600
 4163SOL    HW113388   5.514   1.551   3.689
 4163SOL    HW213389   5.484   1.525   3.530
 4164SOL     OW13390   1.354   0.733   6.634
 4164SOL    HW113391   1.340   0.635   6.653
 4164SOL    HW213392   1.450   0.756   6.653
 4165SOL     OW13393   3.807   6.712   1.097
 4165SOL    HW113394   3.808   6.750   1.190
 4165SOL    HW213395   3.770   6.781   1.034
 4166SOL     OW13396   4.597   3.128   0.232
 4166SOL    HW113397   4.547   3.068   0.293
 4166SOL    HW213398   4.666   3.178   0.283
 4167SOL     OW13399   2.279   2.610   1.648
 4167SOL    HW113400   2.249   2.515   1.645
 4167SOL    HW213401   2.377   2.614   1.630
 4168SOL     OW13402   0.650   5.293   1.476
 4168SOL    HW113403   0.659   5.393   1.481
 4168SOL    HW213404   0.652   5.264   1.381
 4169SOL     OW13405   5.150   3.408   3.226
 4169SOL    HW113406   5.119   3.502   3.211
 4169SOL    HW213407   5.247   3.402   3.206
 4170SOL     OW13408   3.826   2.771   5.284
 4170SOL    HW113409   3.812   2.829   5.364
 4170SOL    HW213410   3.800   2.822   5.202
 4171SOL     OW13411   5.296   3.471   1.408
 4171SOL    HW113412   5.270   3.383   1.367
 4171SOL    HW213413   5.221   3.536   1.401
 4172SOL     OW13414   0.581   1.770   1.057
 4172SOL    HW113415   0.536   1.685   1.086
 4172SOL    HW213416   0.628   1.811   1.136
 4173SOL     OW13417   5.510   3.014   4.949
 4173SOL    HW113418   5.506   2.999   5.047
 4173SOL    HW213419   5.431   3.069   4.920
 4174SOL     OW13420   4.786   0.578   3.429
 4174SOL    HW113421   4.759   0.555   3.335
 4174SOL    HW213422   4.805   0.676   3.435
 4175SOL     OW13423   3.330   7.022   3.719
 4175SOL    HW113424   3.415   0.016   3.670
 4175SOL    HW213425   3.342   0.020   3.816
 4176SOL     OW13426   4.792   6.848   2.779
 4176SOL    HW113427   4.830   6.756   2.773
 4176SOL    HW213428   4.802   6.883   2.872
 4177SOL     OW13429   0.255   6.221   3.245
 4177SOL    HW113430   0.307   6.224   3.330
 4177SOL    HW213431   0.206   6.134   3.239
 4178SOL     OW13432   3.474   1.817   5.626
 4178SOL    HW113433   3.443   1.830   5.720
 4178SOL    HW213434   3.456   1.723   5.598
 4179SOL     OW13435   5.573   3.632   5.327
 4179SOL    HW113436   5.644   3.562   5.316
 4179SOL    HW213437   5.529   3.650   5.238
 4180SOL     OW13438   4.773   4.307   1.324
 4180SOL    HW113439   4.833   4.386   1.317
 4180SOL    HW213440   4.820   4.233   1.372
 4181SOL     OW13441   0.883   1.659   6.809
 4181SOL    HW113442   0.936   1.584   6.848
 4181SOL    HW213443   0.800   1.673   6.864
 4182SOL     OW13444   6.240   0.143   2.596
 4182SOL    HW113445   6.157   0.108   2.639
 4182SOL    HW213446   6.270   0.078   2.526
 4183SOL     OW13447   1.928   1.766   1.980
 4183SOL    HW113448   1.904   1.786   1.885
 4183SOL    HW213449   1.993   1.690   1.983
 4184SOL     OW13450   3.650   5.394   0.436
 4184SOL    HW113451   3.566   5.444   0.459
 4184SOL    HW213452   3.719   5.458   0.403
 4185SOL     OW13453   0.201   6.902   3.580
 4185SOL    HW113454   0.243   6.821   3.622
 4185SOL    HW213455   0.241   6.917   3.490
 4186SOL     OW13456   2.332   3.918   0.847
 4186SOL    HW113457   2.391   3.844   0.816
 4186SOL    HW213458   2.236   3.889   0.843
 4187SOL     OW13459   3.614   3.261   6.244
 4187SOL    HW113460   3.653   3.325   6.179
 4187SOL    HW213461   3.563   3.190   6.195
 4188SOL     OW13462   4.523   0.098   4.019
 4188SOL    HW113463   4.450   0.156   3.983
 4188SOL    HW213464   4.559   0.138   4.103
 4189SOL     OW13465   2.221   1.773   4.811
 4189SOL    HW113466   2.285   1.696   4.802
 4189SOL    HW213467   2.271   1.854   4.841
 4190SOL     OW13468   3.163   0.952   6.931
 4190SOL    HW113469   3.079   0.897   6.934
 4190SOL    HW213470   3.196   0.968   0.001
 4191SOL     OW13471   6.308   2.170   2.348
 4191SOL    HW113472   6.225   2.167   2.405
 4191SOL    HW213473   6.328   2.265   2.324
 4192SOL     OW13474   5.765   1.056   3.551
 4192SOL    HW113475   5.683   1.035   3.604
 4192SOL    HW213476   5.801   0.972   3.510
 4193SOL     OW13477   2.051   6.904   2.412
 4193SOL    HW113478   1.975   6.850   2.375
 4193SOL    HW213479   2.115   6.925   2.338
 4194SOL     OW13480   0.071   1.492   4.020
 4194SOL    HW113481   0.052   1.589   4.002
 4194SOL    HW213482   0.135   1.484   4.096
 4195SOL     OW13483   5.294   0.264   1.470
 4195SOL    HW113484   5.385   0.298   1.494
 4195SOL    HW213485   5.291   0.244   1.372
 4196SOL     OW13486   4.907   2.384   4.490
 4196SOL    HW113487   4.932   2.376   4.393
 4196SOL    HW213488   4.862   2.472   4.506
 4197SOL     OW13489   4.671   4.344   4.395
 4197SOL    HW113490   4.631   4.417   4.449
 4197SOL    HW213491   4.732   4.289   4.452
 4198SOL     OW13492   5.959   3.936   0.225
 4198SOL    HW113493   5.899   4.003   0.269
 4198SOL    HW213494   5.985   3.968   0.135
 4199SOL     OW13495   2.908   3.741   5.397
 4199SOL    HW113496   2.982   3.767   5.335
 4199SOL    HW213497   2.876   3.822   5.446
 4200SOL     OW13498   2.260   0.196   6.993
 4200SOL    HW113499   2.219   0.111   0.005
 4200SOL    HW213500   2.231   0.272   0.028
 4201SOL     OW13501   5.891   6.780   3.857
 4201SOL    HW113502   5.903   6.872   3.822
 4201SOL    HW213503   5.846   6.723   3.788
 4202SOL     OW13504   5.437   4.748   4.936
 4202SOL    HW113505   5.464   4.652   4.940
 4202SOL    HW213506   5.449   4.790   5.026
 4203SOL     OW13507   5.386   5.727   3.094
 4203SOL    HW113508   5.402   5.753   2.999
 4203SOL    HW213509   5.386   5.808   3.152
 4204SOL     OW13510   2.871   2.733   1.525
 4204SOL    HW113511   2.830   2.792   1.594
 4204SOL    HW213512   2.970   2.745   1.525
 4205SOL     OW13513   2.755   5.356   4.220
 4205SOL    HW113514   2.729   5.380   4.314
 4205SOL    HW213515   2.683   5.300   4.179
 4206SOL     OW13516   4.788   0.445   4.730
 4206SOL    HW113517   4.803   0.425   4.633
 4206SOL    HW213518   4.740   0.368   4.772
 4207SOL     OW13519   1.318   1.353   1.534
 4207SOL    HW113520   1.250   1.422   1.556
 4207SOL    HW213521   1.273   1.273   1.495
 4208SOL     OW13522   1.392   2.958   0.492
 4208SOL    HW113523   1.375   3.046   0.536
 4208SOL    HW213524   1.320   2.894   0.516
 4209SOL     OW13525   2.574   6.635   5.003
 4209SOL    HW113526   2.635   6.710   4.977
 4209SOL    HW213527   2.479   6.665   4.997
 4210SOL     OW13528   4.431   3.023   0.647
 4210SOL    HW113529   4.363   2.982   0.708
 4210SOL    HW213530   4.395   3.025   0.553
 4211SOL     OW13531   4.464   4.953   3.806
 4211SOL    HW113532   4.428   4.867   3.841
 4211SOL    HW213533   4.452   4.956   3.707
 4212SOL     OW13534   6.239   1.472   2.673
 4212SOL    HW113535   6.225   1.509   2.765
 4212SOL    HW213536   6.306   1.528   2.625
 4213SOL     OW13537   1.514   1.108   2.206
 4213SOL    HW113538   1.557   1.018   2.211
 4213SOL    HW213539   1.448   1.110   2.131
 4214SOL     OW13540   0.542   3.133   4.568
 4214SOL    HW113541   0.616   3.070   4.544
 4214SOL    HW213542   0.468   3.083   4.612
 4215SOL     OW13543   0.396   5.495   4.415
 4215SOL    HW113544   0.457   5.417   4.400
 4215SOL    HW213545   0.341   5.479   4.497
 4216SOL     OW13546   0.996   2.902   4.861
 4216SOL    HW113547   0.902   2.907   4.894
 4216SOL    HW213548   1.041   2.990   4.877
 4217SOL     OW13549   0.114   0.767   2.953
 4217SOL    HW113550   0.153   0.853   2.988
 4217SOL    HW213551   0.132   0.694   3.019
 4218SOL     OW13552   3.925   0.096   1.547
 4218SOL    HW113553   3.896   0.140   1.462
 4218SOL    HW213554   4.011   0.048   1.531
 4219SOL     OW13555   4.424   5.669   3.784
 4219SOL    HW113556   4.470   5.655   3.872
 4219SOL    HW213557   4.422   5.767   3.764
 4220SOL     OW13558   6.103   3.109   3.987
 4220SOL    HW113559   6.097   3.011   4.004
 4220SOL    HW213560   6.129   3.156   4.072
 4221SOL     OW13561   5.615   5.570   6.524
 4221SOL    HW113562   5.587   5.494   6.465
 4221SOL    HW213563   5.714   5.585   6.515
 4222SOL     OW13564   4.991   2.340   1.296
 4222SOL    HW113565   5.073   2.377   1.252
 4222SOL    HW213566   4.910   2.380   1.254
 4223SOL     OW13567   3.375   4.151   2.142
 4223SOL    HW113568   3.439   4.172   2.068
 4223SOL    HW213569   3.299   4.216   2.141
 4224SOL     OW13570   4.488   2.394   4.963
 4224SOL    HW113571   4.547   2.469   4.992
 4224SOL    HW213572   4.392   2.420   4.977
 4225SOL     OW13573   5.731   6.703   5.122
 4225SOL    HW113574   5.791   6.781   5.106
 4225SOL    HW213575   5.654   6.731   5.181
 4226SOL     OW13576   0.395   1.198   3.881
 4226SOL    HW113577   0.353   1.267   3.940
 4226SOL    HW213578   0.460   1.241   3.819
 4227SOL     OW13579   4.879   4.709   0.383
 4227SOL    HW113580   4.860   4.613   0.406
 4227SOL    HW213581   4.794   4.756   0.361
 4228SOL     OW13582   6.215   5.228   2.908
 4228SOL    HW113583   6.220   5.131   2.931
 4228SOL    HW213584   6.157   5.275   2.974
 4229SOL     OW13585   4.868   4.900   5.631
 4229SOL    HW113586   4.826   4.810   5.638
 4229SOL    HW213587   4.822   4.952   5.559
 4230SOL     OW13588   3.877   0.222   4.923
 4230SOL    HW113589   3.902   0.282   4.999
 4230SOL    HW213590   3.830   0.276   4.853
 4231SOL     OW13591   4.684   0.340   5.605
 4231SOL    HW113592   4.587   0.328   5.622
 4231SOL    HW213593   4.713   0.431   5.635
 4232SOL     OW13594   2.643   4.619   2.559
 4232SOL    HW113595   2.697   4.627   2.643
 4232SOL    HW213596   2.683   4.675   2.487
 4233SOL     OW13597   6.514   6.170   6.762
 4233SOL    HW113598   6.553   6.118   6.686
 4233SOL    HW213599   6.468   6.107   6.825
 4234SOL     OW13600   3.188   4.228   6.131
 4234SOL    HW113601   3.278   4.204   6.097
 4234SOL    HW213602   3.194   4.257   6.227
 4235SOL     OW13603   6.430   3.757   5.861
 4235SOL    HW113604   6.387   3.820   5.926
 4235SOL    HW213605   6.446   3.804   5.775
 4236SOL     OW13606   1.023   2.735   4.114
 4236SOL    HW113607   1.108   2.784   4.098
 4236SOL    HW213608   0.959   2.754   4.039
 4237SOL     OW13609   5.343   3.173   4.847
 4237SOL    HW113610   5.315   3.269   4.851
 4237SOL    HW213611   5.379   3.153   4.756
 4238SOL     OW13612   4.328   5.538   4.131
 4238SOL    HW113613   4.268   5.602   4.081
 4238SOL    HW213614   4.316   5.551   4.229
 4239SOL     OW13615   5.028   5.858   5.832
 4239SOL    HW113616   5.043   5.811   5.919
 4239SOL    HW213617   4.964   5.933   5.844
 4240SOL     OW13618   2.366   4.798   6.734
 4240SOL    HW113619   2.333   4.704   6.730
 4240SOL    HW213620   2.290   4.860   6.715
 4241SOL     OW13621   4.091   0.655   0.017
 4241SOL    HW113622   4.089   0.743   0.066
 4241SOL    HW213623   4.026   0.659   6.964
 4242SOL     OW13624   2.167   0.844   2.353
 4242SOL    HW113625   2.189   0.747   2.360
 4242SOL    HW213626   2.113   0.872   2.433
 4243SOL     OW13627   1.515   3.277   2.682
 4243SOL    HW113628   1.596   3.220   2.668
 4243SOL    HW213629   1.432   3.223   2.670
 4244SOL     OW13630   4.507   6.829   1.068
 4244SOL    HW113631   4.481   6.919   1.034
 4244SOL    HW213632   4.559   6.840   1.153
 4245SOL     OW13633   6.256   3.543   0.899
 4245SOL    HW113634   6.242   3.476   0.826
 4245SOL    HW213635   6.291   3.628   0.859
 4246SOL     OW13636   5.118   1.724   3.047
 4246SOL    HW113637   5.201   1.713   3.101
 4246SOL    HW213638   5.041   1.742   3.109
 4247SOL     OW13639   1.736   5.066   5.539
 4247SOL    HW113640   1.751   5.018   5.452
 4247SOL    HW213641   1.697   5.003   5.605
 4248SOL     OW13642   1.875   0.932   3.332
 4248SOL    HW113643   1.793   0.986   3.311
 4248SOL    HW213644   1.866   0.891   3.423
 4249SOL     OW13645   6.824   0.169   4.857
 4249SOL    HW113646   6.746   0.146   4.798
 4249SOL    HW213647   6.892   0.219   4.805
 4250SOL     OW13648   6.989   5.360   4.441
 4250SOL    HW113649   0.021   5.338   4.360
 4250SOL    HW213650   0.023   5.407   4.508
 4251SOL     OW13651   6.109   1.957   5.803
 4251SOL    HW113652   6.177   1.942   5.732
 4251SOL    HW213653   6.144   1.925   5.891
 4252SOL     OW13654   0.084   6.576   0.190
 4252SOL    HW113655   0.135   6.555   0.274
 4252SOL    HW213656   0.148   6.607   0.120
 4253SOL     OW13657   4.920   5.684   2.509
 4253SOL    HW113658   4.969   5.737   2.579
 4253SOL    HW213659   4.893   5.596   2.547
 4254SOL     OW13660   1.675   3.132   6.923
 4254SOL    HW113661   1.771   3.117   6.899
 4254SOL    HW213662   1.665   3.124   7.022
 4255SOL     OW13663   1.558   3.830   2.748
 4255SOL    HW113664   1.471   3.824   2.797
 4255SOL    HW213665   1.562   3.917   2.699
 4256SOL     OW13666   0.785   5.557   2.135
 4256SOL    HW113667   0.796   5.476   2.077
 4256SOL    HW213668   0.709   5.613   2.100
 4257SOL     OW13669   6.072   0.917   4.655
 4257SOL    HW113670   6.044   1.011   4.673
 4257SOL    HW213671   6.166   0.916   4.619
 4258SOL     OW13672   3.874   5.916   0.297
 4258SOL    HW113673   3.855   6.008   0.332
 4258SOL    HW213674   3.966   5.913   0.258
 4259SOL     OW13675   0.949   0.193   2.423
 4259SOL    HW113676   0.889   0.244   2.485
 4259SOL    HW213677   0.944   0.233   2.331
 4260SOL     OW13678   5.187   0.628   4.576
 4260SOL    HW113679   5.202   0.609   4.673
 4260SOL    HW213680   5.114   0.696   4.567
 4261SOL     OW13681   2.080   6.482   4.160
 4261SOL    HW113682   2.035   6.552   4.104
 4261SOL    HW213683   2.096   6.518   4.252
 4262SOL     OW13684   1.426   4.197   6.983
 4262SOL    HW113685   1.461   4.148   0.040
 4262SOL    HW213686   1.331   4.224   6.999
 4263SOL     OW13687   2.578   2.548   3.993
 4263SOL    HW113688   2.586   2.581   4.087
 4263SOL    HW213689   2.512   2.605   3.944
 4264SOL     OW13690   5.157   0.886   5.053
 4264SOL    HW113691   5.084   0.850   5.111
 4264SOL    HW213692   5.169   0.984   5.072
 4265SOL     OW13693   3.818   0.994   0.099
 4265SOL    HW113694   3.805   1.054   0.178
 4265SOL    HW213695   3.880   1.038   0.034
 4266SOL     OW13696   1.304   6.281   1.456
 4266SOL    HW113697   1.304   6.209   1.387
 4266SOL    HW213698   1.224   6.340   1.443
 4267SOL     OW13699   1.510   4.244   4.791
 4267SOL    HW113700   1.577   4.174   4.769
 4267SOL    HW213701   1.486   4.294   4.708
 4268SOL     OW13702   0.970   4.517   6.621
 4268SOL    HW113703   0.906   4.528   6.697
 4268SOL    HW213704   1.057   4.560   6.644
 4269SOL     OW13705   2.717   1.529   4.544
 4269SOL    HW113706   2.814   1.542   4.566
 4269SOL    HW213707   2.673   1.619   4.538
 4270SOL     OW13708   3.807   2.724   0.383
 4270SOL    HW113709   3.872   2.778   0.437
 4270SOL    HW213710   3.725   2.707   0.437
 4271SOL     OW13711   6.917   0.666   1.270
 4271SOL    HW113712   6.967   0.707   1.346
 4271SOL    HW213713   6.819   0.664   1.292
 4272SOL     OW13714   6.746   1.089   6.606
 4272SOL    HW113715   6.730   0.999   6.566
 4272SOL    HW213716   6.833   1.088   6.655
 4273SOL     OW13717   3.333   5.484   4.524
 4273SOL    HW113718   3.357   5.389   4.507
 4273SOL    HW213719   3.354   5.508   4.619
 4274SOL     OW13720   6.962   1.598   2.073
 4274SOL    HW113721   0.033   1.605   2.109
 4274SOL    HW213722   6.965   1.558   1.981
 4275SOL     OW13723   0.125   2.989   3.040
 4275SOL    HW113724   0.140   3.083   3.071
 4275SOL    HW213725   0.027   2.974   3.025
 4276SOL     OW13726   2.079   5.716   4.410
 4276SOL    HW113727   2.109   5.647   4.475
 4276SOL    HW213728   2.133   5.800   4.422
 4277SOL     OW13729   6.120   5.245   3.297
 4277SOL    HW113730   6.161   5.177   3.236
 4277SOL    HW213731   6.124   5.335   3.253
 4278SOL     OW13732   1.325   6.700   1.762
 4278SOL    HW113733   1.262   6.627   1.735
 4278SOL    HW213734   1.283   6.755   1.835
 4279SOL     OW13735   1.530   1.600   3.538
 4279SOL    HW113736   1.597   1.672   3.525
 4279SOL    HW213737   1.496   1.603   3.632
 4280SOL     OW13738   0.664   6.769   6.361
 4280SOL    HW113739   0.715   6.687   6.333
 4280SOL    HW213740   0.664   6.835   6.286
 4281SOL     OW13741   4.677   5.574   3.346
 4281SOL    HW113742   4.658   5.627   3.263
 4281SOL    HW213743   4.592   5.562   3.398
 4282SOL     OW13744   3.900   4.196   1.152
 4282SOL    HW113745   3.914   4.098   1.139
 4282SOL    HW213746   3.950   4.226   1.232
 4283SOL     OW13747   5.070   1.326   4.138
 4283SOL    HW113748   5.052   1.383   4.218
 4283SOL    HW213749   5.124   1.378   4.072
 4284SOL     OW13750   4.388   5.791   6.015
 4284SOL    HW113751   4.433   5.783   5.926
 4284SOL    HW213752   4.326   5.714   6.028
 4285SOL     OW13753   2.898   0.470   5.756
 4285SOL    HW113754   2.942   0.389   5.717
 4285SOL    HW213755   2.923   0.551   5.703
 4286SOL     OW13756   5.605   0.776   6.347
 4286SOL    HW113757   5.536   0.783   6.420
 4286SOL    HW213758   5.653   0.863   6.338
 4287SOL     OW13759   4.712   0.202   6.978
 4287SOL    HW113760   4.807   0.175   6.998
 4287SOL    HW213761   4.657   0.121   6.962
 4288SOL     OW13762   6.654   6.641   2.326
 4288SOL    HW113763   6.699   6.705   2.389
 4288SOL    HW213764   6.596   6.578   2.377
 4289SOL     OW13765   0.477   3.632   4.222
 4289SOL    HW113766   0.564   3.608   4.179
 4289SOL    HW213767   0.477   3.729   4.245
 4290SOL     OW13768   0.316   0.842   3.620
 4290SOL    HW113769   0.235   0.787   3.639
 4290SOL    HW213770   0.320   0.864   3.523
 4291SOL     OW13771   5.005   3.279   6.185
 4291SOL    HW113772   4.923   3.313   6.139
 4291SOL    HW213773   5.017   3.181   6.165
 4292SOL     OW13774   5.855   2.216   1.321
 4292SOL    HW113775   5.773   2.191   1.373
 4292SOL    HW213776   5.878   2.312   1.339
 4293SOL     OW13777   3.715   4.314   6.854
 4293SOL    HW113778   3.806   4.301   6.816
 4293SOL    HW213779   3.722   4.353   6.946
 4294SOL     OW13780   1.965   1.809   6.282
 4294SOL    HW113781   1.930   1.747   6.212
 4294SOL    HW213782   1.947   1.904   6.254
 4295SOL     OW13783   3.910   5.953   2.933
 4295SOL    HW113784   3.996   6.004   2.924
 4295SOL    HW213785   3.835   6.017   2.949
 4296SOL     OW13786   2.958   6.207   2.200
 4296SOL    HW113787   3.055   6.204   2.174
 4296SOL    HW213788   2.947   6.266   2.280
 4297SOL     OW13789   5.900   4.712   0.735
 4297SOL    HW113790   5.911   4.741   0.830
 4297SOL    HW213791   5.803   4.706   0.713
 4298SOL     OW13792   2.620   6.696   0.161
 4298SOL    HW113793   2.610   6.791   0.189
 4298SOL    HW213794   2.715   6.667   0.172
 4299SOL     OW13795   0.993   2.997   0.294
 4299SOL    HW113796   0.937   3.050   0.358
 4299SOL    HW213797   1.071   3.053   0.264
 4300SOL     OW13798   2.950   1.105   0.930
 4300SOL    HW113799   2.921   1.073   1.020
 4300SOL    HW213800   3.040   1.067   0.909
 4301SOL     OW13801   2.986   6.822   1.365
 4301SOL    HW113802   2.897   6.783   1.390
 4301SOL    HW213803   3.019   6.778   1.281
 4302SOL     OW13804   2.017   5.775   6.173
 4302SOL    HW113805   1.978   5.692   6.212
 4302SOL    HW213806   1.988   5.854   6.227
 4303SOL     OW13807   6.262   4.904   2.924
 4303SOL    HW113808   6.217   4.815   2.919
 4303SOL    HW213809   6.328   4.913   2.850
 4304SOL     OW13810   3.495   3.708   1.498
 4304SOL    HW113811   3.469   3.720   1.402
 4304SOL    HW213812   3.418   3.734   1.556
 4305SOL     OW13813   1.760   0.318   5.292
 4305SOL    HW113814   1.780   0.227   5.256
 4305SOL    HW213815   1.808   0.331   5.379
 4306SOL     OW13816   5.493   3.342   5.249
 4306SOL    HW113817   5.402   3.374   5.277
 4306SOL    HW213818   5.532   3.285   5.321
 4307SOL     OW13819   0.183   1.575   5.406
 4307SOL    HW113820   0.143   1.502   5.352
 4307SOL    HW213821   0.120   1.601   5.479
 4308SOL     OW13822   4.546   5.816   6.866
 4308SOL    HW113823   4.523   5.843   6.959
 4308SOL    HW213824   4.473   5.757   6.830
 4309SOL     OW13825   1.031   2.717   0.855
 4309SOL    HW113826   1.009   2.657   0.933
 4309SOL    HW213827   1.126   2.745   0.861
 4310SOL     OW13828   6.537   1.854   3.109
 4310SOL    HW113829   6.590   1.919   3.055
 4310SOL    HW213830   6.579   1.763   3.104
 4311SOL     OW13831   0.646   0.632   2.703
 4311SOL    HW113832   0.580   0.558   2.716
 4311SOL    HW213833   0.637   0.669   2.610
 4312SOL     OW13834   0.711   4.888   2.551
 4312SOL    HW113835   0.634   4.870   2.490
 4312SOL    HW213836   0.791   4.913   2.496
 4313SOL     OW13837   6.269   2.266   0.068
 4313SOL    HW113838   6.294   2.207   7.014
 4313SOL    HW213839   6.219   2.212   0.136
 4314SOL     OW13840   6.521   2.108   5.325
 4314SOL    HW113841   6.575   2.124   5.242
 4314SOL    HW213842   6.493   2.196   5.364
 4315SOL     OW13843   3.014   1.555   4.261
 4315SOL    HW113844   3.090   1.585   4.204
 4315SOL    HW213845   3.050   1.507   4.342
 4316SOL     OW13846   5.190   6.924   1.466
 4316SOL    HW113847   5.159   7.019   1.474
 4316SOL    HW213848   5.147   6.869   1.538
 4317SOL     OW13849   4.398   0.918   6.039
 4317SOL    HW113850   4.378   0.921   5.941
 4317SOL    HW213851   4.479   0.974   6.057
 4318SOL     OW13852   0.576   0.647   4.268
 4318SOL    HW113853   0.612   0.605   4.185
 4318SOL    HW213854   0.513   0.720   4.244
 4319SOL     OW13855   1.775   4.845   2.471
 4319SOL    HW113856   1.803   4.795   2.389
 4319SOL    HW213857   1.825   4.931   2.476
 4320SOL     OW13858   3.400   6.280   0.733
 4320SOL    HW113859   3.431   6.357   0.789
 4320SOL    HW213860   3.442   6.286   0.642
 4321SOL     OW13861   6.301   6.760   3.066
 4321SOL    HW113862   6.205   6.783   3.048
 4321SOL    HW213863   6.332   6.808   3.148
 4322SOL     OW13864   0.844   3.323   5.438
 4322SOL    HW113865   0.904   3.250   5.405
 4322SOL    HW213866   0.819   3.305   5.533
 4323SOL     OW13867   3.935   5.146   6.546
 4323SOL    HW113868   3.892   5.080   6.607
 4323SOL    HW213869   3.886   5.149   6.459
 4324SOL     OW13870   6.737   4.052   6.045
 4324SOL    HW113871   6.814   4.077   5.986
 4324SOL    HW213872   6.714   3.956   6.030
 4325SOL     OW13873   2.481   1.005   2.038
 4325SOL    HW113874   2.543   1.001   2.116
 4325SOL    HW213875   2.531   0.980   1.955
 4326SOL     OW13876   4.851   2.744   2.438
 4326SOL    HW113877   4.820   2.781   2.526
 4326SOL    HW213878   4.771   2.718   2.384
 4327SOL     OW13879   3.001   5.654   3.995
 4327SOL    HW113880   3.039   5.590   3.927
 4327SOL    HW213881   3.076   5.696   4.046
 4328SOL     OW13882   5.947   6.717   4.491
 4328SOL    HW113883   6.014   6.679   4.426
 4328SOL    HW213884   5.910   6.643   4.547
 4329SOL     OW13885   6.858   2.030   6.050
 4329SOL    HW113886   6.858   2.074   6.140
 4329SOL    HW213887   6.828   2.097   5.981
 4330SOL     OW13888   2.857   4.889   5.098
 4330SOL    HW113889   2.949   4.922   5.075
 4330SOL    HW213890   2.854   4.789   5.088
 4331SOL     OW13891   6.024   0.909   2.010
 4331SOL    HW113892   5.931   0.885   1.980
 4331SOL    HW213893   6.023   0.999   2.053
 4332SOL     OW13894   0.377   5.234   2.452
 4332SOL    HW113895   0.422   5.306   2.400
 4332SOL    HW213896   0.341   5.165   2.390
 4333SOL     OW13897   3.699   2.165   5.565
 4333SOL    HW113898   3.660   2.173   5.657
 4333SOL    HW213899   3.648   2.098   5.512
 4334SOL     OW13900   0.398   2.330   4.349
 4334SOL    HW113901   0.374   2.384   4.269
 4334SOL    HW213902   0.478   2.274   4.328
 4335SOL     OW13903   2.608   4.153   1.618
 4335SOL    HW113904   2.531   4.120   1.564
 4335SOL    HW213905   2.667   4.075   1.642
 4336SOL     OW13906   2.780   4.841   5.494
 4336SOL    HW113907   2.806   4.747   5.475
 4336SOL    HW213908   2.680   4.849   5.495
 4337SOL     OW13909   1.398   5.148   4.007
 4337SOL    HW113910   1.352   5.142   3.918
 4337SOL    HW213911   1.456   5.229   4.009
 4338SOL     OW13912   3.862   1.198   5.852
 4338SOL    HW113913   3.768   1.164   5.851
 4338SOL    HW213914   3.910   1.162   5.932
 4339SOL     OW13915   3.467   3.614   5.987
 4339SOL    HW113916   3.556   3.625   5.943
 4339SOL    HW213917   3.477   3.558   6.069
 4340SOL     OW13918   6.452   3.527   1.081
 4340SOL    HW113919   6.489   3.619   1.094
 4340SOL    HW213920   6.383   3.528   1.009
 4341SOL     OW13921   0.619   6.893   2.556
 4341SOL    HW113922   0.699   6.942   2.590
 4341SOL    HW213923   0.623   6.798   2.586
 4342SOL     OW13924   5.350   4.012   2.361
 4342SOL    HW113925   5.359   4.075   2.439
 4342SOL    HW213926   5.254   3.988   2.349
 4343SOL     OW13927   4.446   0.282   5.759
 4343SOL    HW113928   4.522   0.297   5.823
 4343SOL    HW213929   4.375   0.352   5.775
 4344SOL     OW13930   0.478   3.436   3.916
 4344SOL    HW113931   0.436   3.417   3.827
 4344SOL    HW213932   0.464   3.533   3.938
 4345SOL     OW13933   3.148   3.459   2.356
 4345SOL    HW113934   3.203   3.378   2.372
 4345SOL    HW213935   3.206   3.533   2.322
 4346SOL     OW13936   1.085   2.948   2.393
 4346SOL    HW113937   1.044   2.875   2.448
 4346SOL    HW213938   1.139   2.906   2.319
 4347SOL     OW13939   5.888   5.168   0.871
 4347SOL    HW113940   5.802   5.121   0.853
 4347SOL    HW213941   5.927   5.134   0.957
 4348SOL     OW13942   6.022   5.720   4.434
 4348SOL    HW113943   6.018   5.620   4.442
 4348SOL    HW213944   5.966   5.761   4.507
 4349SOL     OW13945   0.117   3.565   4.591
 4349SOL    HW113946   0.214   3.561   4.566
 4349SOL    HW213947   0.062   3.552   4.509
 4350SOL     OW13948   4.620   1.689   4.730
 4350SOL    HW113949   4.681   1.612   4.748
 4350SOL    HW213950   4.539   1.683   4.788
 4351SOL     OW13951   0.951   6.491   0.409
 4351SOL    HW113952   1.016   6.415   0.407
 4351SOL    HW213953   0.983   6.561   0.473
 4352SOL     OW13954   3.574   3.899   0.995
 4352SOL    HW113955   3.489   3.870   1.040
 4352SOL    HW213956   3.595   3.992   1.022
 4353SOL     OW13957   3.088   3.505   1.006
 4353SOL    HW113958   3.052   3.419   0.971
 4353SOL    HW213959   3.024   3.579   0.987
 4354SOL     OW13960   5.514   6.594   3.893
 4354SOL    HW113961   5.414   6.590   3.889
 4354SOL    HW213962   5.544   6.689   3.889
 4355SOL     OW13963   1.446   5.983   3.147
 4355SOL    HW113964   1.498   5.923   3.208
 4355SOL    HW213965   1.509   6.028   3.084
 4356SOL     OW13966   5.470   2.780   5.703
 4356SOL    HW113967   5.568   2.760   5.714
 4356SOL    HW213968   5.458   2.845   5.628
 4357SOL     OW13969   6.084   0.510   2.384
 4357SOL    HW113970   6.049   0.558   2.304
 4357SOL    HW213971   6.179   0.483   2.367
 4358SOL     OW13972   2.158   6.471   6.771
 4358SOL    HW113973   2.190   6.483   6.677
 4358SOL    HW213974   2.234   6.484   6.834
 4359SOL     OW13975   2.550   2.072   6.935
 4359SOL    HW113976   2.588   2.134   6.866
 4359SOL    HW213977   2.620   2.051   7.003
 4360SOL     OW13978   1.276   3.263   3.847
 4360SOL    HW113979   1.237   3.336   3.904
 4360SOL    HW213980   1.207   3.191   3.833
 4361SOL     OW13981   6.738   1.567   0.706
 4361SOL    HW113982   6.775   1.654   0.672
 4361SOL    HW213983   6.674   1.530   0.639
 4362SOL     OW13984   1.298   5.786   3.711
 4362SOL    HW113985   1.286   5.884   3.700
 4362SOL    HW213986   1.223   5.738   3.664
 4363SOL     OW13987   4.617   1.587   2.294
 4363SOL    HW113988   4.653   1.541   2.375
 4363SOL    HW213989   4.607   1.685   2.312
 4364SOL     OW13990   3.982   3.936   2.762
 4364SOL    HW113991   4.067   3.908   2.806
 4364SOL    HW213992   3.906   3.880   2.797
 4365SOL     OW13993   2.901   2.114   1.300
 4365SOL    HW113994   2.963   2.124   1.377
 4365SOL    HW213995   2.852   2.200   1.284
 4366SOL     OW13996   4.358   6.034   4.848
 4366SOL    HW113997   4.286   6.082   4.897
 4366SOL    HW213998   4.445   6.046   4.896
 4367SOL     OW13999   2.206   5.381   3.596
 4367SOL    HW114000   2.253   5.298   3.566
 4367SOL    HW214001   2.267   5.434   3.655
 4368SOL     OW14002   4.712   4.221   2.824
 4368SOL    HW114003   4.667   4.165   2.893
 4368SOL    HW214004   4.705   4.176   2.735
 4369SOL     OW14005   4.074   4.817   3.209
 4369SOL    HW114006   4.038   4.834   3.300
 4369SOL    HW214007   4.132   4.736   3.211
 4370SOL     OW14008   3.842   4.345   1.602
 4370SOL    HW114009   3.806   4.315   1.514
 4370SOL    HW214010   3.766   4.365   1.664
 4371SOL     OW14011   2.988   1.553   0.906
 4371SOL    HW114012   2.968   1.511   0.818
 4371SOL    HW214013   3.002   1.482   0.975
 4372SOL     OW14014   1.930   3.162   4.485
 4372SOL    HW114015   1.972   3.239   4.534
 4372SOL    HW214016   1.991   3.083   4.487
 4373SOL     OW14017   4.488   1.486   5.706
 4373SOL    HW114018   4.417   1.468   5.639
 4373SOL    HW214019   4.551   1.409   5.710
 4374SOL     OW14020   2.664   1.357   1.526
 4374SOL    HW114021   2.637   1.306   1.607
 4374SOL    HW214022   2.761   1.377   1.530
 4375SOL     OW14023   4.793   1.105   3.534
 4375SOL    HW114024   4.875   1.126   3.586
 4375SOL    HW214025   4.765   1.186   3.482
 4376SOL     OW14026   1.123   6.613   0.745
 4376SOL    HW114027   1.089   6.519   0.740
 4376SOL    HW214028   1.222   6.613   0.740
 4377SOL     OW14029   6.111   7.000   6.547
 4377SOL    HW114030   6.200   0.022   6.536
 4377SOL    HW214031   6.043   0.026   6.492
 4378SOL     OW14032   1.814   5.607   2.580
 4378SOL    HW114033   1.814   5.676   2.652
 4378SOL    HW214034   1.834   5.651   2.492
 4379SOL     OW14035   1.187   0.745   2.093
 4379SOL    HW114036   1.191   0.655   2.136
 4379SOL    HW214037   1.276   0.790   2.103
 4380SOL     OW14038   1.585   5.557   5.443
 4380SOL    HW114039   1.610   5.460   5.453
 4380SOL    HW214040   1.509   5.577   5.505
 4381SOL     OW14041   3.661   6.484   4.840
 4381SOL    HW114042   3.677   6.562   4.780
 4381SOL    HW214043   3.634   6.405   4.786
 4382SOL     OW14044   4.955   3.887   3.272
 4382SOL    HW114045   5.041   3.849   3.239
 4382SOL    HW214046   4.971   3.979   3.308
 4383SOL     OW14047   0.717   2.928   6.462
 4383SOL    HW114048   0.730   2.891   6.554
 4383SOL    HW214049   0.791   2.992   6.441
 4384SOL     OW14050   3.781   5.688   0.750
 4384SOL    HW114051   3.871   5.646   0.760
 4384SOL    HW214052   3.791   5.787   0.741
 4385SOL     OW14053   0.336   1.789   2.399
 4385SOL    HW114054   0.305   1.875   2.439
 4385SOL    HW214055   0.427   1.767   2.434
 4386SOL     OW14056   1.023   3.159   6.748
 4386SOL    HW114057   0.988   3.112   6.668
 4386SOL    HW214058   0.948   3.209   6.792
 4387SOL     OW14059   0.116   3.598   1.908
 4387SOL    HW114060   0.198   3.541   1.908
 4387SOL    HW214061   0.078   3.600   1.815
 4388SOL     OW14062   3.417   1.021   5.501
 4388SOL    HW114063   3.477   1.044   5.424
 4388SOL    HW214064   3.332   0.982   5.466
 4389SOL     OW14065   5.141   2.409   2.945
 4389SOL    HW114066   5.069   2.465   2.904
 4389SOL    HW214067   5.186   2.461   3.017
 4390SOL     OW14068   4.748   2.751   2.111
 4390SOL    HW114069   4.741   2.700   2.025
 4390SOL    HW214070   4.749   2.849   2.091
 4391SOL     OW14071   1.190   5.616   0.651
 4391SOL    HW114072   1.153   5.544   0.592
 4391SOL    HW214073   1.276   5.584   0.692
 4392SOL     OW14074   4.887   3.240   4.415
 4392SOL    HW114075   4.880   3.146   4.449
 4392SOL    HW214076   4.897   3.303   4.492
 4393SOL     OW14077   4.613   6.348   3.466
 4393SOL    HW114078   4.637   6.417   3.533
 4393SOL    HW214079   4.645   6.258   3.497
 4394SOL     OW14080   5.068   6.962   2.694
 4394SOL    HW114081   5.008   6.994   2.767
 4394SOL    HW214082   5.163   6.983   2.718
 4395SOL     OW14083   5.324   1.483   2.195
 4395SOL    HW114084   5.343   1.555   2.261
 4395SOL    HW214085   5.262   1.517   2.125
 4396SOL     OW14086   1.203   0.682   4.143
 4396SOL    HW114087   1.248   0.687   4.054
 4396SOL    HW214088   1.208   0.588   4.177
 4397SOL     OW14089   6.070   0.622   5.281
 4397SOL    HW114090   6.032   0.658   5.366
 4397SOL    HW214091   6.147   0.678   5.252
 4398SOL     OW14092   0.164   4.142   4.340
 4398SOL    HW114093   0.144   4.134   4.438
 4398SOL    HW214094   0.135   4.232   4.307
 4399SOL     OW14095   2.540   1.506   1.345
 4399SOL    HW114096   2.610   1.570   1.314
 4399SOL    HW214097   2.583   1.434   1.401
 4400SOL     OW14098   3.285   6.604   4.774
 4400SOL    HW114099   3.315   6.658   4.695
 4400SOL    HW214100   3.353   6.613   4.847
 4401SOL     OW14101   5.525   5.829   4.120
 4401SOL    HW114102   5.572   5.803   4.205
 4401SOL    HW214103   5.510   5.927   4.119
 4402SOL     OW14104   0.538   6.669   2.714
 4402SOL    HW114105   0.496   6.620   2.790
 4402SOL    HW214106   0.470   6.686   2.643
 4403SOL     OW14107   0.684   0.231   3.392
 4403SOL    HW114108   0.775   0.196   3.412
 4403SOL    HW214109   0.657   0.297   3.462
 4404SOL     OW14110   1.151   3.945   3.453
 4404SOL    HW114111   1.244   3.968   3.426
 4404SOL    HW214112   1.152   3.896   3.540
 4405SOL     OW14113   3.061   4.337   5.625
 4405SOL    HW114114   3.153   4.318   5.659
 4405SOL    HW214115   3.068   4.384   5.536
 4406SOL     OW14116   5.506   4.002   1.233
 4406SOL    HW114117   5.594   4.039   1.204
 4406SOL    HW214118   5.497   4.011   1.332
 4407SOL     OW14119   5.820   7.010   7.005
 4407SOL    HW114120   5.852   0.083   7.005
 4407SOL    HW214121   5.886   6.953   6.955
 4408SOL     OW14122   4.318   6.148   6.723
 4408SOL    HW114123   4.335   6.246   6.735
 4408SOL    HW214124   4.404   6.099   6.733
 4409SOL     OW14125   3.176   1.082   1.561
 4409SOL    HW114126   3.236   1.145   1.512
 4409SOL    HW214127   3.230   1.005   1.597
 4410SOL     OW14128   2.436   5.277   1.968
 4410SOL    HW114129   2.414   5.368   1.934
 4410SOL    HW214130   2.361   5.245   2.027
 4411SOL     OW14131   3.943   3.306   2.796
 4411SOL    HW114132   3.989   3.232   2.747
 4411SOL    HW214133   3.946   3.287   2.894
 4412SOL     OW14134   3.663   1.937   6.502
 4412SOL    HW114135   3.669   1.880   6.585
 4412SOL    HW214136   3.718   2.019   6.515
 4413SOL     OW14137   4.387   6.268   4.543
 4413SOL    HW114138   4.331   6.186   4.557
 4413SOL    HW214139   4.477   6.241   4.511
 4414SOL     OW14140   3.925   4.826   1.984
 4414SOL    HW114141   3.937   4.874   2.070
 4414SOL    HW214142   3.830   4.793   1.977
 4415SOL     OW14143   5.348   2.827   0.135
 4415SOL    HW114144   5.333   2.784   0.224
 4415SOL    HW214145   5.268   2.809   0.076
 4416SOL     OW14146   3.895   0.410   3.707
 4416SOL    HW114147   3.923   0.318   3.681
 4416SOL    HW214148   3.936   0.434   3.796
 4417SOL     OW14149   6.849   6.770   2.484
 4417SOL    HW114150   6.884   6.714   2.409
 4417SOL    HW214151   6.838   6.714   2.566
 4418SOL     OW14152   4.257   0.067   3.468
 4418SOL    HW114153   4.251   0.071   3.368
 4418SOL    HW214154   4.168   0.088   3.507
 4419SOL     OW14155   0.276   4.967   6.644
 4419SOL    HW114156   0.208   4.944   6.714
 4419SOL    HW214157   0.336   5.039   6.679
 4420SOL     OW14158   5.154   1.800   6.232
 4420SOL    HW114159   5.064   1.779   6.270
 4420SOL    HW214160   5.145   1.821   6.135
 4421SOL     OW14161   1.495   1.613   3.817
 4421SOL    HW114162   1.399   1.635   3.837
 4421SOL    HW214163   1.550   1.697   3.820
 4422SOL     OW14164   1.971   3.971   6.136
 4422SOL    HW114165   2.057   3.925   6.159
 4422SOL    HW214166   1.951   3.955   6.039
 4423SOL     OW14167   1.426   1.891   6.237
 4423SOL    HW114168   1.491   1.921   6.307
 4423SOL    HW214169   1.373   1.813   6.271
 4424SOL     OW14170   6.634   0.536   3.040
 4424SOL    HW114171   6.608   0.485   2.958
 4424SOL    HW214172   6.665   0.628   3.014
 4425SOL     OW14173   4.345   4.653   6.303
 4425SOL    HW114174   4.407   4.729   6.326
 4425SOL    HW214175   4.306   4.669   6.213
 4426SOL     OW14176   0.796   0.390   5.897
 4426SOL    HW114177   0.885   0.386   5.942
 4426SOL    HW214178   0.736   0.321   5.937
 4427SOL     OW14179   0.999   0.183   3.474
 4427SOL    HW114180   1.008   0.212   3.570
 4427SOL    HW214181   1.078   0.215   3.422
 4428SOL     OW14182   2.550   5.240   3.273
 4428SOL    HW114183   2.487   5.253   3.350
 4428SOL    HW214184   2.643   5.256   3.304
 4429SOL     OW14185   3.964   6.990   2.957
 4429SOL    HW114186   3.982   0.041   3.021
 4429SOL    HW214187   3.867   6.964   2.961
 4430SOL     OW14188   2.208   0.922   2.105
 4430SOL    HW114189   2.174   0.905   2.197
 4430SOL    HW214190   2.305   0.946   2.109
 4431SOL     OW14191   2.182   2.130   3.000
 4431SOL    HW114192   2.145   2.116   3.092
 4431SOL    HW214193   2.281   2.148   3.006
 4432SOL     OW14194   3.068   3.861   2.966
 4432SOL    HW114195   3.041   3.800   3.042
 4432SOL    HW214196   3.139   3.923   2.998
 4433SOL     OW14197   6.519   7.022   2.969
 4433SOL    HW114198   6.468   6.976   3.042
 4433SOL    HW214199   6.458   0.065   2.924
 4434SOL     OW14200   6.117   2.413   4.459
 4434SOL    HW114201   6.047   2.349   4.492
 4434SOL    HW214202   6.100   2.504   4.497
 4435SOL     OW14203   3.202   3.078   1.567
 4435SOL    HW114204   3.256   3.162   1.570
 4435SOL    HW214205   3.264   3.000   1.557
 4436SOL     OW14206   5.010   1.978   6.548
 4436SOL    HW114207   5.044   1.913   6.616
 4436SOL    HW214208   5.080   1.992   6.478
 4437SOL     OW14209   3.760   1.022   4.801
 4437SOL    HW114210   3.781   1.064   4.889
 4437SOL    HW214211   3.687   1.074   4.757
 4438SOL     OW14212   4.254   2.838   6.941
 4438SOL    HW114213   4.215   2.786   7.018
 4438SOL    HW214214   4.278   2.930   6.973
 4439SOL     OW14215   2.137   5.991   2.250
 4439SOL    HW114216   2.139   5.915   2.315
 4439SOL    HW214217   2.100   6.072   2.296
 4440SOL     OW14218   1.054   6.756   6.342
 4440SOL    HW114219   0.959   6.777   6.318
 4440SOL    HW214220   1.068   6.770   6.440
 4441SOL     OW14221   5.824   2.740   3.173
 4441SOL    HW114222   5.752   2.755   3.105
 4441SOL    HW214223   5.848   2.827   3.216
 4442SOL     OW14224   3.166   6.435   3.186
 4442SOL    HW114225   3.138   6.423   3.090
 4442SOL    HW214226   3.145   6.352   3.237
 4443SOL     OW14227   2.828   1.848   5.436
 4443SOL    HW114228   2.839   1.871   5.340
 4443SOL    HW214229   2.732   1.860   5.462
 4444SOL     OW14230   5.653   0.814   1.186
 4444SOL    HW114231   5.605   0.876   1.123
 4444SOL    HW214232   5.586   0.757   1.233
 4445SOL     OW14233   1.124   0.862   6.607
 4445SOL    HW114234   1.068   0.835   6.529
 4445SOL    HW214235   1.209   0.809   6.607
 4446SOL     OW14236   6.517   0.379   2.850
 4446SOL    HW114237   6.455   0.439   2.800
 4446SOL    HW214238   6.468   0.298   2.882
 4447SOL     OW14239   5.637   2.456   5.513
 4447SOL    HW114240   5.579   2.439   5.593
 4447SOL    HW214241   5.655   2.554   5.505
 4448SOL     OW14242   2.579   3.741   6.866
 4448SOL    HW114243   2.496   3.721   6.813
 4448SOL    HW214244   2.572   3.698   6.956
 4449SOL     OW14245   1.161   1.353   5.322
 4449SOL    HW114246   1.178   1.386   5.415
 4449SOL    HW214247   1.229   1.285   5.297
 4450SOL     OW14248   3.809   3.516   3.538
 4450SOL    HW114249   3.824   3.556   3.448
 4450SOL    HW214250   3.894   3.522   3.592
 4451SOL     OW14251   6.488   4.523   1.955
 4451SOL    HW114252   6.451   4.430   1.963
 4451SOL    HW214253   6.462   4.575   2.036
 4452SOL     OW14254   6.337   6.352   6.329
 4452SOL    HW114255   6.240   6.352   6.355
 4452SOL    HW214256   6.347   6.306   6.240
 4453SOL     OW14257   5.621   2.574   1.251
 4453SOL    HW114258   5.671   2.647   1.205
 4453SOL    HW214259   5.532   2.608   1.280
 4454SOL     OW14260   5.304   3.238   1.599
 4454SOL    HW114261   5.215   3.251   1.556
 4454SOL    HW214262   5.362   3.318   1.582
 4455SOL     OW14263   3.774   1.364   2.180
 4455SOL    HW114264   3.675   1.372   2.195
 4455SOL    HW214265   3.811   1.294   2.241
 4456SOL     OW14266   1.152   5.073   3.175
 4456SOL    HW114267   1.183   5.000   3.115
 4456SOL    HW214268   1.147   5.040   3.269
 4457SOL     OW14269   5.436   2.366   6.212
 4457SOL    HW114270   5.495   2.288   6.230
 4457SOL    HW214271   5.467   2.413   6.129
 4458SOL     OW14272   3.711   2.291   5.943
 4458SOL    HW114273   3.646   2.360   5.912
 4458SOL    HW214274   3.788   2.335   5.989
 4459SOL     OW14275   5.107   6.133   4.664
 4459SOL    HW114276   5.025   6.075   4.661
 4459SOL    HW214277   5.163   6.107   4.742
 4460SOL     OW14278   2.240   1.950   6.094
 4460SOL    HW114279   2.263   1.999   6.179
 4460SOL    HW214280   2.266   2.007   6.016
 4461SOL     OW14281   2.320   0.272   2.195
 4461SOL    HW114282   2.284   0.354   2.240
 4461SOL    HW214283   2.334   0.291   2.098
 4462SOL     OW14284   0.207   5.428   1.616
 4462SOL    HW114285   0.257   5.344   1.598
 4462SOL    HW214286   0.118   5.407   1.655
 4463SOL     OW14287   1.475   3.921   6.267
 4463SOL    HW114288   1.475   3.842   6.205
 4463SOL    HW214289   1.455   3.889   6.360
 4464SOL     OW14290   5.420   3.337   6.802
 4464SOL    HW114291   5.359   3.393   6.857
 4464SOL    HW214292   5.491   3.297   6.861
 4465SOL     OW14293   1.327   6.763   2.225
 4465SOL    HW114294   1.311   6.808   2.137
 4465SOL    HW214295   1.246   6.711   2.251
 4466SOL     OW14296   0.628   1.886   3.635
 4466SOL    HW114297   0.548   1.909   3.579
 4466SOL    HW214298   0.699   1.954   3.621
 4467SOL     OW14299   1.026   6.374   3.518
 4467SOL    HW114300   0.984   6.401   3.605
 4467SOL    HW214301   0.988   6.429   3.444
 4468SOL     OW14302   1.217   2.572   0.433
 4468SOL    HW114303   1.142   2.593   0.370
 4468SOL    HW214304   1.186   2.588   0.527
 4469SOL     OW14305   4.059   0.175   0.778
 4469SOL    HW114306   4.068   0.130   0.689
 4469SOL    HW214307   4.020   0.110   0.844
 4470SOL     OW14308   4.846   4.113   0.863
 4470SOL    HW114309   4.892   4.111   0.774
 4470SOL    HW214310   4.880   4.191   0.916
 4471SOL     OW14311   6.120   3.301   1.523
 4471SOL    HW114312   6.030   3.284   1.562
 4471SOL    HW214313   6.116   3.294   1.423
 4472SOL     OW14314   1.709   4.260   2.418
 4472SOL    HW114315   1.718   4.234   2.514
 4472SOL    HW214316   1.670   4.184   2.366
 4473SOL     OW14317   6.774   6.693   4.224
 4473SOL    HW114318   6.838   6.616   4.225
 4473SOL    HW214319   6.824   6.778   4.204
 4474SOL     OW14320   4.597   0.183   2.579
 4474SOL    HW114321   4.685   0.219   2.608
 4474SOL    HW214322   4.584   0.091   2.616
 4475SOL     OW14323   1.987   3.863   0.474
 4475SOL    HW114324   2.023   3.954   0.497
 4475SOL    HW214325   1.965   3.861   0.377
 4476SOL     OW14326   5.083   6.134   1.980
 4476SOL    HW114327   4.991   6.153   2.015
 4476SOL    HW214328   5.150   6.151   2.052
 4477SOL     OW14329   1.593   1.438   0.830
 4477SOL    HW114330   1.654   1.437   0.751
 4477SOL    HW214331   1.538   1.522   0.830
 4478SOL     OW14332   2.152   6.331   1.767
 4478SOL    HW114333   2.235   6.328   1.712
 4478SOL    HW214334   2.147   6.249   1.824
 4479SOL     OW14335   0.883   0.089   5.555
 4479SOL    HW114336   0.824   0.153   5.604
 4479SOL    HW214337   0.828   0.039   5.488
 4480SOL     OW14338   0.570   4.924   3.844
 4480SOL    HW114339   0.534   4.834   3.870
 4480SOL    HW214340   0.670   4.924   3.855
 4481SOL     OW14341   1.161   6.536   4.585
 4481SOL    HW114342   1.109   6.451   4.573
 4481SOL    HW214343   1.176   6.578   4.495
 4482SOL     OW14344   7.006   4.536   3.768
 4482SOL    HW114345   0.037   4.454   3.789
 4482SOL    HW214346   6.928   4.542   3.831
 4483SOL     OW14347   5.462   2.982   2.262
 4483SOL    HW114348   5.537   2.988   2.328
 4483SOL    HW214349   5.433   3.075   2.237
 4484SOL     OW14350   4.308   2.904   5.897
 4484SOL    HW114351   4.335   2.891   5.802
 4484SOL    HW214352   4.243   2.980   5.903
 4485SOL     OW14353   5.257   2.000   6.422
 4485SOL    HW114354   5.239   1.937   6.347
 4485SOL    HW214355   5.280   1.948   6.504
 4486SOL     OW14356   6.149   3.233   4.257
 4486SOL    HW114357   6.193   3.295   4.321
 4486SOL    HW214358   6.059   3.207   4.293
 4487SOL     OW14359   2.882   2.842   6.318
 4487SOL    HW114360   2.853   2.930   6.356
 4487SOL    HW214361   2.981   2.834   6.325
 4488SOL     OW14362   0.115   1.278   4.340
 4488SOL    HW114363   0.171   1.360   4.331
 4488SOL    HW214364   0.109   1.252   4.436
 4489SOL     OW14365   6.077   6.955   4.514
 4489SOL    HW114366   6.128   6.956   4.428
 4489SOL    HW214367   6.032   6.866   4.524
 4490SOL     OW14368   6.548   1.606   2.806
 4490SOL    HW114369   6.627   1.665   2.822
 4490SOL    HW214370   6.516   1.618   2.712
 4491SOL     OW14371   1.182   3.448   2.955
 4491SOL    HW114372   1.265   3.447   2.899
 4491SOL    HW214373   1.102   3.448   2.895
 4492SOL     OW14374   4.601   3.306   6.785
 4492SOL    HW114375   4.693   3.306   6.744
 4492SOL    HW214376   4.609   3.288   6.883
 4493SOL     OW14377   5.783   5.194   4.540
 4493SOL    HW114378   5.866   5.139   4.527
 4493SOL    HW214379   5.728   5.191   4.457
 4494SOL     OW14380   6.065   4.061   5.045
 4494SOL    HW114381   6.047   4.045   5.142
 4494SOL    HW214382   5.995   4.123   5.008
 4495SOL     OW14383   4.782   6.254   1.558
 4495SOL    HW114384   4.752   6.220   1.469
 4495SOL    HW214385   4.758   6.351   1.566
 4496SOL     OW14386   4.961   4.006   5.241
 4496SOL    HW114387   5.046   3.993   5.291
 4496SOL    HW214388   4.897   3.933   5.264
 4497SOL     OW14389   6.415   4.787   0.373
 4497SOL    HW114390   6.449   4.776   0.279
 4497SOL    HW214391   6.415   4.699   0.419
 4498SOL     OW14392   6.812   3.465   0.177
 4498SOL    HW114393   6.832   3.387   0.118
 4498SOL    HW214394   6.734   3.445   0.236
 4499SOL     OW14395   6.962   2.667   5.799
 4499SOL    HW114396   0.001   2.599   5.838
 4499SOL    HW214397   6.973   2.669   5.699
 4500SOL     OW14398   3.004   3.952   4.646
 4500SOL    HW114399   2.943   4.022   4.683
 4500SOL    HW214400   2.996   3.868   4.700
 4501SOL     OW14401   0.010   4.534   5.515
 4501SOL    HW114402   6.989   4.444   5.518
 4501SOL    HW214403   0.107   4.524   5.497
 4502SOL     OW14404   0.476   2.569   0.105
 4502SOL    HW114405   0.510   2.659   0.077
 4502SOL    HW214406   0.381   2.559   0.077
 4503SOL     OW14407   0.900   1.776   4.051
 4503SOL    HW114408   0.931   1.697   3.998
 4503SOL    HW214409   0.826   1.748   4.112
 4504SOL     OW14410   5.100   2.051   4.287
 4504SOL    HW114411   5.067   2.106   4.210
 4504SOL    HW214412   5.141   2.112   4.356
 4505SOL     OW14413   1.780   6.523   5.698
 4505SOL    HW114414   1.695   6.569   5.724
 4505SOL    HW214415   1.770   6.425   5.716
 4506SOL     OW14416   4.315   0.288   4.968
 4506SOL    HW114417   4.276   0.258   4.881
 4506SOL    HW214418   4.389   0.353   4.951
 4507SOL     OW14419   5.940   4.592   0.428
 4507SOL    HW114420   5.990   4.652   0.490
 4507SOL    HW214421   5.870   4.541   0.479
 4508SOL     OW14422   1.053   3.919   0.161
 4508SOL    HW114423   0.963   3.877   0.153
 4508SOL    HW214424   1.096   3.924   0.071
 4509SOL     OW14425   2.588   1.867   4.145
 4509SOL    HW114426   2.641   1.888   4.063
 4509SOL    HW214427   2.543   1.949   4.178
 4510SOL     OW14428   4.476   6.537   4.993
 4510SOL    HW114429   4.449   6.624   4.952
 4510SOL    HW214430   4.528   6.483   4.927
 4511SOL     OW14431   6.275   2.248   0.891
 4511SOL    HW114432   6.325   2.285   0.969
 4511SOL    HW214433   6.334   2.185   0.841
 4512SOL     OW14434   3.046   5.815   7.009
 4512SOL    HW114435   3.097   5.890   6.968
 4512SOL    HW214436   3.107   5.759   0.042
 4513SOL     OW14437   5.090   0.738   1.677
 4513SOL    HW114438   5.180   0.766   1.709
 4513SOL    HW214439   5.026   0.733   1.754
 4514SOL     OW14440   3.002   1.781   5.174
 4514SOL    HW114441   3.032   1.739   5.088
 4514SOL    HW214442   3.081   1.804   5.229
 4515SOL     OW14443   0.698   5.202   1.210
 4515SOL    HW114444   0.665   5.108   1.219
 4515SOL    HW214445   0.680   5.235   1.117
 4516SOL     OW14446   0.920   0.842   5.024
 4516SOL    HW114447   0.893   0.761   4.972
 4516SOL    HW214448   0.860   0.918   5.001
 4517SOL     OW14449   3.461   6.931   5.049
 4517SOL    HW114450   3.396   6.856   5.037
 4517SOL    HW214451   3.418   7.005   5.101
 4518SOL     OW14452   1.445   2.286   4.293
 4518SOL    HW114453   1.544   2.292   4.274
 4518SOL    HW214454   1.425   2.330   4.380
 4519SOL     OW14455   0.185   3.065   3.822
 4519SOL    HW114456   0.222   3.146   3.868
 4519SOL    HW214457   0.092   3.048   3.855
 4520SOL     OW14458   0.174   4.038   3.155
 4520SOL    HW114459   0.190   4.114   3.219
 4520SOL    HW214460   0.241   3.966   3.172
 4521SOL     OW14461   5.358   2.468   6.962
 4521SOL    HW114462   5.450   2.469   7.000
 4521SOL    HW214463   5.355   2.522   6.878
 4522SOL     OW14464   5.838   0.373   4.493
 4522SOL    HW114465   5.766   0.395   4.426
 4522SOL    HW214466   5.810   0.405   4.583
 4523SOL     OW14467   3.362   4.143   0.044
 4523SOL    HW114468   3.437   4.143   0.110
 4523SOL    HW214469   3.347   4.236   0.010
 4524SOL     OW14470   5.260   0.236   4.670
 4524SOL    HW114471   5.325   0.178   4.621
 4524SOL    HW214472   5.200   0.282   4.604
 4525SOL     OW14473   6.436   1.778   5.094
 4525SOL    HW114474   6.508   1.768   5.162
 4525SOL    HW214475   6.476   1.785   5.002
 4526SOL     OW14476   4.805   6.877   0.690
 4526SOL    HW114477   4.780   6.839   0.601
 4526SOL    HW214478   4.864   6.812   0.738
 4527SOL     OW14479   5.004   0.549   2.423
 4527SOL    HW114480   5.068   0.472   2.421
 4527SOL    HW214481   5.041   0.622   2.482
 4528SOL     OW14482   5.844   6.984   0.788
 4528SOL    HW114483   5.885   0.001   0.705
 4528SOL    HW214484   5.781   0.027   0.829
 4529SOL     OW14485   3.844   6.649   3.219
 4529SOL    HW114486   3.866   6.552   3.235
 4529SOL    HW214487   3.750   6.656   3.186
 4530SOL     OW14488   0.472   3.426   5.763
 4530SOL    HW114489   0.505   3.521   5.766
 4530SOL    HW214490   0.465   3.390   5.856
 4531SOL     OW14491   0.234   3.520   4.285
 4531SOL    HW114492   0.316   3.573   4.265
 4531SOL    HW214493   0.247   3.425   4.257
 4532SOL     OW14494   6.565   1.256   0.748
 4532SOL    HW114495   6.592   1.228   0.656
 4532SOL    HW214496   6.481   1.208   0.774
 4533SOL     OW14497   2.263   5.689   2.720
 4533SOL    HW114498   2.193   5.760   2.728
 4533SOL    HW214499   2.220   5.599   2.716
 4534SOL     OW14500   5.988   3.579   4.969
 4534SOL    HW114501   5.967   3.507   5.036
 4534SOL    HW214502   5.993   3.539   4.878
 4535SOL     OW14503   4.928   3.239   2.044
 4535SOL    HW114504   4.986   3.203   1.971
 4535SOL    HW214505   4.841   3.190   2.045
 4536SOL     OW14506   6.310   0.911   4.356
 4536SOL    HW114507   6.251   0.853   4.301
 4536SOL    HW214508   6.310   0.879   4.451
 4537SOL     OW14509   3.481   2.885   6.676
 4537SOL    HW114510   3.458   2.917   6.768
 4537SOL    HW214511   3.557   2.820   6.681
 4538SOL     OW14512   3.260   1.321   2.930
 4538SOL    HW114513   3.280   1.399   2.871
 4538SOL    HW214514   3.253   1.238   2.874
 4539SOL     OW14515   1.855   1.611   3.263
 4539SOL    HW114516   1.816   1.669   3.191
 4539SOL    HW214517   1.781   1.565   3.312
 4540SOL     OW14518   3.708   3.421   4.492
 4540SOL    HW114519   3.653   3.338   4.504
 4540SOL    HW214520   3.751   3.445   4.579
 4541SOL     OW14521   4.819   2.086   1.202
 4541SOL    HW114522   4.886   2.160   1.204
 4541SOL    HW214523   4.864   2.000   1.180
 4542SOL     OW14524   5.579   0.024   2.582
 4542SOL    HW114525   5.668   7.002   2.590
 4542SOL    HW214526   5.559   0.039   2.485
 4543SOL     OW14527   5.581   1.656   1.205
 4543SOL    HW114528   5.633   1.696   1.281
 4543SOL    HW214529   5.508   1.718   1.178
 4544SOL     OW14530   3.381   5.317   6.269
 4544SOL    HW114531   3.291   5.274   6.258
 4544SOL    HW214532   3.451   5.247   6.280
 4545SOL     OW14533   3.837   2.427   5.643
 4545SOL    HW114534   3.924   2.388   5.673
 4545SOL    HW214535   3.766   2.405   5.709
 4546SOL     OW14536   1.452   5.996   6.542
 4546SOL    HW114537   1.454   6.008   6.641
 4546SOL    HW214538   1.362   5.962   6.514
 4547SOL     OW14539   4.943   2.049   1.994
 4547SOL    HW114540   4.900   2.065   1.905
 4547SOL    HW214541   4.881   1.994   2.051
 4548SOL     OW14542   0.965   4.143   3.389
 4548SOL    HW114543   0.940   4.215   3.453
 4548SOL    HW214544   1.007   4.067   3.440
 4549SOL     OW14545   6.614   2.896   2.364
 4549SOL    HW114546   6.576   2.987   2.349
 4549SOL    HW214547   6.562   2.849   2.435
 4550SOL     OW14548   1.207   5.570   4.234
 4550SOL    HW114549   1.154   5.535   4.157
 4550SOL    HW214550   1.147   5.622   4.295
 4551SOL     OW14551   0.831   2.325   5.732
 4551SOL    HW114552   0.788   2.409   5.696
 4551SOL    HW214553   0.905   2.298   5.671
 4552SOL     OW14554   0.230   3.152   4.634
 4552SOL    HW114555   0.179   3.193   4.709
 4552SOL    HW214556   0.276   3.224   4.582
 4553SOL     OW14557   4.317   4.857   0.434
 4553SOL    HW114558   4.278   4.920   0.366
 4553SOL    HW214559   4.266   4.865   0.520
 4554SOL     OW14560   5.181   6.526   2.483
 4554SOL    HW114561   5.183   6.590   2.559
 4554SOL    HW214562   5.116   6.453   2.502
 4555SOL     OW14563   5.321   2.521   6.680
 4555SOL    HW114564   5.229   2.547   6.710
 4555SOL    HW214565   5.331   2.422   6.689
 4556SOL     OW14566   4.511   0.976   3.678
 4556SOL    HW114567   4.524   1.052   3.742
 4556SOL    HW214568   4.529   1.008   3.585
 4557SOL     OW14569   5.314   6.935   6.175
 4557SOL    HW114570   5.260   6.980   6.246
 4557SOL    HW214571   5.391   6.994   6.150
 4558SOL     OW14572   6.467   3.254   6.642
 4558SOL    HW114573   6.371   3.262   6.670
 4558SOL    HW214574   6.527   3.275   6.719
 4559SOL     OW14575   1.353   6.694   1.467
 4559SOL    HW114576   1.342   6.696   1.567
 4559SOL    HW214577   1.400   6.610   1.440
 4560SOL     OW14578   4.911   3.376   2.895
 4560SOL    HW114579   4.851   3.319   2.839
 4560SOL    HW214580   4.975   3.318   2.945
 4561SOL     OW14581   3.307   0.507   6.527
 4561SOL    HW114582   3.398   0.540   6.553
 4561SOL    HW214583   3.262   0.468   6.607
 4562SOL     OW14584   2.991   5.009   6.713
 4562SOL    HW114585   3.056   5.079   6.683
 4562SOL    HW214586   2.994   5.002   6.813
 4563SOL     OW14587   5.655   2.341   6.796
 4563SOL    HW114588   5.737   2.310   6.844
 4563SOL    HW214589   5.668   2.329   6.697
 4564SOL     OW14590   1.535   6.132   0.379
 4564SOL    HW114591   1.598   6.154   0.454
 4564SOL    HW214592   1.576   6.161   0.293
 4565SOL     OW14593   1.483   0.699   5.428
 4565SOL    HW114594   1.494   0.717   5.526
 4565SOL    HW214595   1.430   0.615   5.416
 4566SOL     OW14596   6.681   1.437   0.171
 4566SOL    HW114597   6.694   1.341   0.197
 4566SOL    HW214598   6.751   1.463   0.104
 4567SOL     OW14599   6.700   1.303   0.967
 4567SOL    HW114600   6.649   1.293   0.881
 4567SOL    HW214601   6.793   1.334   0.947
 4568SOL     OW14602   3.254   4.322   5.863
 4568SOL    HW114603   3.223   4.417   5.857
 4568SOL    HW214604   3.264   4.296   5.959
 4569SOL     OW14605   1.172   1.425   4.282
 4569SOL    HW114606   1.140   1.477   4.361
 4569SOL    HW214607   1.241   1.359   4.311
 4570SOL     OW14608   0.339   5.523   3.983
 4570SOL    HW114609   0.292   5.606   4.012
 4570SOL    HW214610   0.421   5.510   4.039
 4571SOL     OW14611   3.599   3.175   4.553
 4571SOL    HW114612   3.576   3.120   4.633
 4571SOL    HW214613   3.626   3.115   4.478
 4572SOL     OW14614   1.761   7.015   1.449
 4572SOL    HW114615   1.848   6.969   1.466
 4572SOL    HW214616   1.778   0.079   1.403
 4573SOL     OW14617   5.715   6.434   0.885
 4573SOL    HW114618   5.753   6.525   0.901
 4573SOL    HW214619   5.790   6.367   0.884
 4574SOL     OW14620   0.049   4.356   1.489
 4574SOL    HW114621   0.120   4.286   1.492
 4574SOL    HW214622   0.043   4.402   1.577
 4575SOL     OW14623   6.471   0.017   2.107
 4575SOL    HW114624   6.485   0.053   2.199
 4575SOL    HW214625   6.486   6.940   2.108
 4576SOL     OW14626   3.413   5.619   6.035
 4576SOL    HW114627   3.335   5.559   6.015
 4576SOL    HW214628   3.402   5.705   5.985
 4577SOL     OW14629   1.294   3.136   3.381
 4577SOL    HW114630   1.338   3.112   3.294
 4577SOL    HW214631   1.220   3.072   3.399
 4578SOL     OW14632   6.871   3.443   4.282
 4578SOL    HW114633   6.782   3.481   4.257
 4578SOL    HW214634   6.927   3.513   4.325
 4579SOL     OW14635   5.540   2.327   3.599
 4579SOL    HW114636   5.452   2.301   3.560
 4579SOL    HW214637   5.584   2.394   3.539
 4580SOL     OW14638   6.596   6.171   0.682
 4580SOL    HW114639   6.534   6.166   0.604
 4580SOL    HW214640   6.621   6.079   0.711
 4581SOL     OW14641   2.990   5.462   3.180
 4581SOL    HW114642   3.007   5.497   3.088
 4581SOL    HW214643   2.892   5.470   3.201
 4582SOL     OW14644   5.341   6.389   2.917
 4582SOL    HW114645   5.270   6.326   2.886
 4582SOL    HW214646   5.386   6.431   2.838
 4583SOL     OW14647   3.507   2.002   5.420
 4583SOL    HW114648   3.510   1.928   5.487
 4583SOL    HW214649   3.414   2.013   5.386
 4584SOL     OW14650   0.703   5.255   5.490
 4584SOL    HW114651   0.688   5.295   5.400
 4584SOL    HW214652   0.670   5.161   5.491
 4585SOL     OW14653   3.684   6.125   2.928
 4585SOL    HW114654   3.606   6.129   2.866
 4585SOL    HW214655   3.663   6.176   3.011
 4586SOL     OW14656   3.557   5.764   2.339
 4586SOL    HW114657   3.619   5.686   2.331
 4586SOL    HW214658   3.611   5.848   2.349
 4587SOL     OW14659   2.568   3.834   1.301
 4587SOL    HW114660   2.484   3.796   1.264
 4587SOL    HW214661   2.630   3.857   1.226
 4588SOL     OW14662   3.914   3.574   4.995
 4588SOL    HW114663   3.974   3.653   5.011
 4588SOL    HW214664   3.900   3.525   5.081
 4589SOL     OW14665   6.426   2.146   4.331
 4589SOL    HW114666   6.521   2.115   4.340
 4589SOL    HW214667   6.391   2.174   4.421
 4590SOL     OW14668   4.118   5.334   2.384
 4590SOL    HW114669   4.142   5.241   2.410
 4590SOL    HW214670   4.043   5.366   2.441
 4591SOL     OW14671   5.688   6.020   5.355
 4591SOL    HW114672   5.636   5.947   5.398
 4591SOL    HW214673   5.662   6.027   5.259
 4592SOL     OW14674   3.955   2.457   6.821
 4592SOL    HW114675   3.966   2.462   6.721
 4592SOL    HW214676   3.966   2.362   6.851
 4593SOL     OW14677   3.836   6.275   2.733
 4593SOL    HW114678   3.837   6.374   2.723
 4593SOL    HW214679   3.793   6.250   2.820
 4594SOL     OW14680   2.071   1.616   2.313
 4594SOL    HW114681   2.041   1.641   2.221
 4594SOL    HW214682   2.014   1.543   2.349
 4595SOL     OW14683   4.013   3.020   6.466
 4595SOL    HW114684   4.033   3.110   6.426
 4595SOL    HW214685   4.093   2.961   6.455
 4596SOL     OW14686   5.638   0.064   1.720
 4596SOL    HW114687   5.690   0.148   1.736
 4596SOL    HW214688   5.569   0.053   1.791
 4597SOL     OW14689   5.089   4.339   6.663
 4597SOL    HW114690   5.097   4.280   6.744
 4597SOL    HW214691   5.157   4.411   6.667
 4598SOL     OW14692   2.291   5.150   6.810
 4598SOL    HW114693   2.318   5.155   6.713
 4598SOL    HW214694   2.276   5.242   6.844
 4599SOL     OW14695   1.575   4.631   0.791
 4599SOL    HW114696   1.607   4.546   0.835
 4599SOL    HW214697   1.623   4.709   0.831
 4600SOL     OW14698   2.743   5.654   0.870
 4600SOL    HW114699   2.657   5.680   0.913
 4600SOL    HW214700   2.811   5.631   0.940
 4601SOL     OW14701   1.883   0.089   5.464
 4601SOL    HW114702   1.912   0.182   5.485
 4601SOL    HW214703   1.785   0.089   5.441
 4602SOL     OW14704   1.438   0.439   2.119
 4602SOL    HW114705   1.408   0.359   2.170
 4602SOL    HW214706   1.472   0.411   2.029
 4603SOL     OW14707   3.306   6.545   1.062
 4603SOL    HW114708   3.314   6.487   1.143
 4603SOL    HW214709   3.376   6.518   0.995
 4604SOL     OW14710   3.498   6.709   1.764
 4604SOL    HW114711   3.567   6.653   1.809
 4604SOL    HW214712   3.542   6.768   1.696
 4605SOL     OW14713   5.270   6.899   4.860
 4605SOL    HW114714   5.347   6.906   4.796
 4605SOL    HW214715   5.222   6.987   4.864
 4606SOL     OW14716   6.597   6.119   5.146
 4606SOL    HW114717   6.667   6.190   5.145
 4606SOL    HW214718   6.520   6.150   5.202
 4607SOL     OW14719   3.403   1.989   1.678
 4607SOL    HW114720   3.465   1.931   1.624
 4607SOL    HW214721   3.333   1.932   1.720
 4608SOL     OW14722   2.048   3.650   5.691
 4608SOL    HW114723   2.132   3.671   5.742
 4608SOL    HW214724   1.973   3.636   5.755
 4609SOL     OW14725   5.143   6.733   6.884
 4609SOL    HW114726   5.213   6.682   6.835
 4609SOL    HW214727   5.180   6.821   6.913
 4610SOL     OW14728   0.086   3.175   6.716
 4610SOL    HW114729   0.008   3.191   6.656
 4610SOL    HW214730   0.074   3.227   6.801
 4611SOL     OW14731   0.475   4.127   0.088
 4611SOL    HW114732   0.440   4.177   0.008
 4611SOL    HW214733   0.421   4.044   0.101
 4612SOL     OW14734   2.383   6.576   6.897
 4612SOL    HW114735   2.383   6.673   6.924
 4612SOL    HW214736   2.478   6.545   6.887
 4613SOL     OW14737   3.315   5.335   2.515
 4613SOL    HW114738   3.349   5.380   2.433
 4613SOL    HW214739   3.226   5.293   2.496
 4614SOL     OW14740   1.520   5.388   0.239
 4614SOL    HW114741   1.568   5.301   0.256
 4614SOL    HW214742   1.587   5.463   0.241
 4615SOL     OW14743   0.791   2.433   0.331
 4615SOL    HW114744   0.713   2.446   0.392
 4615SOL    HW214745   0.857   2.508   0.344
 4616SOL     OW14746   5.358   1.596   6.504
 4616SOL    HW114747   5.397   1.512   6.541
 4616SOL    HW214748   5.431   1.656   6.472
 4617SOL     OW14749   0.372   2.539   1.479
 4617SOL    HW114750   0.308   2.514   1.407
 4617SOL    HW214751   0.373   2.468   1.549
 4618SOL     OW14752   1.287   2.373   6.470
 4618SOL    HW114753   1.365   2.417   6.514
 4618SOL    HW214754   1.238   2.441   6.415
 4619SOL     OW14755   3.945   0.795   3.371
 4619SOL    HW114756   4.006   0.871   3.351
 4619SOL    HW214757   3.959   0.722   3.303
 4620SOL     OW14758   2.584   4.644   6.581
 4620SOL    HW114759   2.591   4.721   6.644
 4620SOL    HW214760   2.499   4.595   6.598
 4621SOL     OW14761   0.348   6.635   5.462
 4621SOL    HW114762   0.366   6.631   5.364
 4621SOL    HW214763   0.385   6.553   5.506
 4622SOL     OW14764   1.719   4.005   0.721
 4622SOL    HW114765   1.723   4.066   0.642
 4622SOL    HW214766   1.747   4.054   0.803
 4623SOL     OW14767   6.650   5.216   1.339
 4623SOL    HW114768   6.697   5.173   1.261
 4623SOL    HW214769   6.625   5.146   1.405
 4624SOL     OW14770   5.116   0.371   4.470
 4624SOL    HW114771   5.120   0.467   4.500
 4624SOL    HW214772   5.021   0.340   4.472
 4625SOL     OW14773   1.203   4.261   6.701
 4625SOL    HW114774   1.119   4.272   6.648
 4625SOL    HW214775   1.272   4.216   6.644
 4626SOL     OW14776   6.646   5.471   1.306
 4626SOL    HW114777   6.646   5.378   1.342
 4626SOL    HW214778   6.704   5.475   1.224
 4627SOL     OW14779   3.588   6.206   5.501
 4627SOL    HW114780   3.495   6.236   5.481
 4627SOL    HW214781   3.651   6.243   5.433
 4628SOL     OW14782   0.068   4.323   1.938
 4628SOL    HW114783   0.033   4.293   2.027
 4628SOL    HW214784   0.114   4.247   1.893
 4629SOL     OW14785   1.872   4.606   5.962
 4629SOL    HW114786   1.880   4.512   5.995
 4629SOL    HW214787   1.963   4.640   5.936
 4630SOL     OW14788   2.224   6.334   2.897
 4630SOL    HW114789   2.239   6.274   2.818
 4630SOL    HW214790   2.278   6.417   2.887
 4631SOL     OW14791   2.829   6.658   2.579
 4631SOL    HW114792   2.800   6.627   2.488
 4631SOL    HW214793   2.748   6.670   2.637
 4632SOL     OW14794   5.213   5.467   4.195
 4632SOL    HW114795   5.130   5.435   4.149
 4632SOL    HW214796   5.284   5.485   4.128
 4633SOL     OW14797   6.248   1.976   4.218
 4633SOL    HW114798   6.321   2.031   4.258
 4633SOL    HW214799   6.288   1.904   4.162
 4634SOL     OW14800   2.954   4.707   0.850
 4634SOL    HW114801   2.988   4.653   0.773
 4634SOL    HW214802   2.857   4.727   0.836
 4635SOL     OW14803   5.023   3.474   1.911
 4635SOL    HW114804   5.003   3.380   1.938
 4635SOL    HW214805   4.978   3.495   1.824
 4636SOL     OW14806   3.080   5.693   0.731
 4636SOL    HW114807   3.035   5.782   0.739
 4636SOL    HW214808   3.159   5.691   0.792
 4637SOL     OW14809   1.510   1.099   5.518
 4637SOL    HW114810   1.595   1.072   5.562
 4637SOL    HW214811   1.486   1.192   5.544
 4638SOL     OW14812   5.256   3.667   5.766
 4638SOL    HW114813   5.307   3.661   5.680
 4638SOL    HW214814   5.319   3.690   5.840
 4639SOL     OW14815   0.274   3.925   5.373
 4639SOL    HW114816   0.223   3.994   5.423
 4639SOL    HW214817   0.297   3.849   5.435
 4640SOL     OW14818   5.600   4.303   2.663
 4640SOL    HW114819   5.581   4.253   2.748
 4640SOL    HW214820   5.543   4.266   2.590
 4641SOL     OW14821   1.980   4.987   4.830
 4641SOL    HW114822   2.015   5.080   4.824
 4641SOL    HW214823   2.057   4.923   4.820
 4642SOL     OW14824   6.253   5.969   4.722
 4642SOL    HW114825   6.170   5.979   4.668
 4642SOL    HW214826   6.304   6.055   4.721
 4643SOL     OW14827   3.959   2.239   1.793
 4643SOL    HW114828   4.015   2.322   1.797
 4643SOL    HW214829   3.868   2.257   1.829
 4644SOL     OW14830   2.133   5.889   4.864
 4644SOL    HW114831   2.038   5.911   4.886
 4644SOL    HW214832   2.186   5.974   4.857
 4645SOL     OW14833   1.866   6.450   4.725
 4645SOL    HW114834   1.808   6.488   4.652
 4645SOL    HW214835   1.812   6.440   4.808
 4646SOL     OW14836   3.670   0.776   1.740
 4646SOL    HW114837   3.629   0.701   1.688
 4646SOL    HW214838   3.756   0.745   1.781
 4647SOL     OW14839   6.220   0.550   4.476
 4647SOL    HW114840   6.269   0.527   4.392
 4647SOL    HW214841   6.130   0.506   4.475
 4648SOL     OW14842   2.507   5.782   2.883
 4648SOL    HW114843   2.552   5.696   2.908
 4648SOL    HW214844   2.417   5.763   2.845
 4649SOL     OW14845   5.312   0.567   6.164
 4649SOL    HW114846   5.341   0.662   6.163
 4649SOL    HW214847   5.367   0.514   6.099
 4650SOL     OW14848   5.649   4.997   2.149
 4650SOL    HW114849   5.711   5.063   2.106
 4650SOL    HW214850   5.683   4.904   2.135
 4651SOL     OW14851   0.439   2.394   1.691
 4651SOL    HW114852   0.384   2.357   1.766
 4651SOL    HW214853   0.483   2.318   1.642
 4652SOL     OW14854   6.661   6.825   5.355
 4652SOL    HW114855   6.678   6.751   5.289
 4652SOL    HW214856   6.567   6.857   5.345
 4653SOL     OW14857   6.994   6.492   6.951
 4653SOL    HW114858   6.948   6.454   6.871
 4653SOL    HW214859   6.940   6.474   0.010
 4654SOL     OW14860   1.390   0.516   6.986
 4654SOL    HW114861   1.476   0.495   0.011
 4654SOL    HW214862   1.314   0.508   0.028
 4655SOL     OW14863   0.402   4.413   3.305
 4655SOL    HW114864   0.371   4.485   3.368
 4655SOL    HW214865   0.323   4.372   3.260
 4656SOL     OW14866   1.640   0.189   3.849
 4656SOL    HW114867   1.604   0.271   3.892
 4656SOL    HW214868   1.653   0.206   3.751
 4657SOL     OW14869   5.214   6.702   0.761
 4657SOL    HW114870   5.301   6.736   0.797
 4657SOL    HW214871   5.232   6.622   0.703
 4658SOL     OW14872   4.966   0.119   2.910
 4658SOL    HW114873   5.055   0.140   2.868
 4658SOL    HW214874   4.952   0.178   2.989
 4659SOL     OW14875   1.761   2.703   5.053
 4659SOL    HW114876   1.761   2.628   5.119
 4659SOL    HW214877   1.779   2.789   5.100
 4660SOL     OW14878   0.065   0.694   5.990
 4660SOL    HW114879   0.054   0.704   5.891
 4660SOL    HW214880   7.020   0.752   6.037
 4661SOL     OW14881   2.964   3.776   3.628
 4661SOL    HW114882   2.938   3.690   3.585
 4661SOL    HW214883   2.980   3.846   3.558
 4662SOL     OW14884   5.338   0.341   5.326
 4662SOL    HW114885   5.413   0.378   5.271
 4662SOL    HW214886   5.259   0.322   5.268
 4663SOL     OW14887   0.423   2.104   2.555
 4663SOL    HW114888   0.514   2.077   2.588
 4663SOL    HW214889   0.430   2.190   2.505
 4664SOL     OW14890   3.153   1.968   0.204
 4664SOL    HW114891   3.213   1.890   0.184
 4664SOL    HW214892   3.205   2.041   0.247
 4665SOL     OW14893   4.791   0.113   0.404
 4665SOL    HW114894   4.818   0.200   0.446
 4665SOL    HW214895   4.789   0.123   0.304
 4666SOL     OW14896   2.386   1.268   0.562
 4666SOL    HW114897   2.338   1.353   0.583
 4666SOL    HW214898   2.484   1.287   0.551
 4667SOL     OW14899   0.175   5.173   6.423
 4667SOL    HW114900   0.127   5.085   6.432
 4667SOL    HW214901   0.160   5.227   6.506
 4668SOL     OW14902   6.609   1.573   4.039
 4668SOL    HW114903   6.644   1.571   4.132
 4668SOL    HW214904   6.674   1.528   3.978
 4669SOL     OW14905   1.700   0.457   0.405
 4669SOL    HW114906   1.704   0.556   0.418
 4669SOL    HW214907   1.761   0.412   0.471
 4670SOL     OW14908   2.345   2.059   3.990
 4670SOL    HW114909   2.267   2.027   3.936
 4670SOL    HW214910   2.349   2.159   3.987
 4671SOL     OW14911   5.867   3.427   1.727
 4671SOL    HW114912   5.941   3.494   1.734
 4671SOL    HW214913   5.821   3.439   1.639
 4672SOL     OW14914   2.124   3.654   6.298
 4672SOL    HW114915   2.040   3.602   6.282
 4672SOL    HW214916   2.195   3.593   6.334
 4673SOL     OW14917   4.388   0.745   2.812
 4673SOL    HW114918   4.467   0.792   2.772
 4673SOL    HW214919   4.386   0.762   2.911
 4674SOL     OW14920   4.474   5.583   5.511
 4674SOL    HW114921   4.388   5.542   5.540
 4674SOL    HW214922   4.455   5.666   5.458
 4675SOL     OW14923   0.905   4.424   0.240
 4675SOL    HW114924   0.808   4.436   0.258
 4675SOL    HW214925   0.958   4.462   0.316
 4676SOL     OW14926   1.329   5.543   3.843
 4676SOL    HW114927   1.350   5.637   3.814
 4676SOL    HW214928   1.333   5.482   3.763
 4677SOL     OW14929   1.741   3.039   0.214
 4677SOL    HW114930   1.801   2.965   0.182
 4677SOL    HW214931   1.759   3.058   0.310
 4678SOL     OW14932   2.424   4.800   2.784
 4678SOL    HW114933   2.389   4.756   2.702
 4678SOL    HW214934   2.521   4.778   2.795
 4679SOL     OW14935   5.067   0.162   1.548
 4679SOL    HW114936   5.017   0.141   1.464
 4679SOL    HW214937   5.152   0.209   1.524
 4680SOL     OW14938   2.242   1.453   1.785
 4680SOL    HW114939   2.323   1.510   1.776
 4680SOL    HW214940   2.238   1.389   1.708
 4681SOL     OW14941   5.553   4.092   1.495
 4681SOL    HW114942   5.574   4.080   1.592
 4681SOL    HW214943   5.545   4.190   1.474
 4682SOL     OW14944   4.098   3.503   6.606
 4682SOL    HW114945   4.188   3.464   6.627
 4682SOL    HW214946   4.104   3.557   6.523
 4683SOL     OW14947   6.236   4.094   3.499
 4683SOL    HW114948   6.226   4.053   3.590
 4683SOL    HW214949   6.185   4.180   3.496
 4684SOL     OW14950   4.711   6.360   0.102
 4684SOL    HW114951   4.793   6.382   0.155
 4684SOL    HW214952   4.701   6.260   0.097
 4685SOL     OW14953   2.420   3.519   5.956
 4685SOL    HW114954   2.419   3.441   5.894
 4685SOL    HW214955   2.330   3.562   5.958
 4686SOL     OW14956   2.934   5.958   0.343
 4686SOL    HW114957   2.899   6.026   0.408
 4686SOL    HW214958   3.032   5.970   0.331
 4687SOL     OW14959   2.987   0.633   2.678
 4687SOL    HW114960   2.915   0.609   2.612
 4687SOL    HW214961   3.003   0.556   2.739
 4688SOL     OW14962   5.506   3.337   5.892
 4688SOL    HW114963   5.415   3.374   5.875
 4688SOL    HW214964   5.574   3.409   5.879
 4689SOL     OW14965   5.716   0.970   0.918
 4689SOL    HW114966   5.751   1.056   0.956
 4689SOL    HW214967   5.625   0.985   0.879
 4690SOL     OW14968   2.658   1.320   0.574
 4690SOL    HW114969   2.666   1.256   0.651
 4690SOL    HW214970   2.672   1.272   0.488
 4691SOL     OW14971   6.636   4.492   1.098
 4691SOL    HW114972   6.729   4.519   1.073
 4691SOL    HW214973   6.618   4.519   1.193
 4692SOL     OW14974   6.358   4.064   3.127
 4692SOL    HW114975   6.410   4.050   3.043
 4692SOL    HW214976   6.400   4.013   3.202
 4693SOL     OW14977   1.992   0.737   3.886
 4693SOL    HW114978   1.956   0.678   3.813
 4693SOL    HW214979   1.993   0.687   3.972
 4694SOL     OW14980   2.637   1.680   0.003
 4694SOL    HW114981   2.545   1.712   0.023
 4694SOL    HW214982   2.702   1.725   0.065
 4695SOL     OW14983   1.037   6.156   1.620
 4695SOL    HW114984   0.977   6.181   1.696
 4695SOL    HW214985   1.105   6.090   1.652
 4696SOL     OW14986   0.860   5.028   6.058
 4696SOL    HW114987   0.891   5.057   5.968
 4696SOL    HW214988   0.765   4.998   6.053
 4697SOL     OW14989   3.021   4.892   0.607
 4697SOL    HW114990   2.971   4.903   0.693
 4697SOL    HW214991   2.990   4.961   0.541
 4698SOL     OW14992   5.170   0.840   3.089
 4698SOL    HW114993   5.232   0.916   3.104
 4698SOL    HW214994   5.167   0.782   3.171
 4699SOL     OW14995   1.134   6.873   2.694
 4699SOL    HW114996   1.127   6.873   2.794
 4699SOL    HW214997   1.191   6.796   2.665
 4700SOL     OW14998   5.745   2.113   2.691
 4700SOL    HW114999   5.823   2.072   2.643
 4700SOL    HW215000   5.671   2.130   2.626
 4701SOL     OW15001   3.220   1.838   2.221
 4701SOL    HW115002   3.215   1.912   2.153
 4701SOL    HW215003   3.129   1.799   2.234
 4702SOL     OW15004   5.224   4.789   6.200
 4702SOL    HW115005   5.243   4.756   6.293
 4702SOL    HW215006   5.288   4.747   6.136
 4703SOL     OW15007   0.843   4.739   3.676
 4703SOL    HW115008   0.746   4.715   3.672
 4703SOL    HW215009   0.896   4.671   3.626
 4704SOL     OW15010   0.881   4.871   5.548
 4704SOL    HW115011   0.843   4.889   5.457
 4704SOL    HW215012   0.824   4.914   5.617
 4705SOL     OW15013   3.156   2.866   1.914
 4705SOL    HW115014   3.226   2.907   1.972
 4705SOL    HW215015   3.196   2.791   1.861
 4706SOL     OW15016   1.497   1.058   0.345
 4706SOL    HW115017   1.597   1.062   0.345
 4706SOL    HW215018   1.460   1.149   0.364
 4707SOL     OW15019   1.356   0.192   1.233
 4707SOL    HW115020   1.278   0.245   1.200
 4707SOL    HW215021   1.349   0.098   1.199
 4708SOL     OW15022   0.681   2.943   4.176
 4708SOL    HW115023   0.607   2.884   4.210
 4708SOL    HW215024   0.663   2.965   4.080
 4709SOL     OW15025   4.597   3.911   5.472
 4709SOL    HW115026   4.539   3.989   5.495
 4709SOL    HW215027   4.682   3.944   5.431
 4710SOL     OW15028   5.863   6.140   4.306
 4710SOL    HW115029   5.946   6.106   4.351
 4710SOL    HW215030   5.813   6.199   4.369
 4711SOL     OW15031   6.209   3.234   2.954
 4711SOL    HW115032   6.297   3.282   2.952
 4711SOL    HW215033   6.148   3.277   3.020
 4712SOL     OW15034   4.389   4.247   5.284
 4712SOL    HW115035   4.390   4.331   5.228
 4712SOL    HW215036   4.415   4.270   5.378
 4713SOL     OW15037   5.734   4.364   0.893
 4713SOL    HW115038   5.654   4.403   0.938
 4713SOL    HW215039   5.716   4.356   0.795
 4714SOL     OW15040   5.951   0.958   5.962
 4714SOL    HW115041   5.902   0.989   6.043
 4714SOL    HW215042   5.972   1.037   5.904
 4715SOL     OW15043   5.837   1.705   1.634
 4715SOL    HW115044   5.912   1.653   1.675
 4715SOL    HW215045   5.874   1.773   1.570
 4716SOL     OW15046   3.953   4.518   5.474
 4716SOL    HW115047   4.034   4.501   5.418
 4716SOL    HW215048   3.930   4.436   5.527
 4717SOL     OW15049   2.701   5.644   5.354
 4717SOL    HW115050   2.686   5.591   5.437
 4717SOL    HW215051   2.699   5.582   5.275
 4718SOL     OW15052   5.278   4.168   1.175
 4718SOL    HW115053   5.207   4.104   1.204
 4718SOL    HW215054   5.368   4.128   1.193
 4719SOL     OW15055   6.887   3.324   3.756
 4719SOL    HW115056   6.790   3.347   3.746
 4719SOL    HW215057   6.906   3.298   3.850
 4720SOL     OW15058   2.779   4.156   6.932
 4720SOL    HW115059   2.681   4.135   6.923
 4720SOL    HW215060   2.796   4.248   6.898
 4721SOL     OW15061   6.644   3.691   2.719
 4721SOL    HW115062   6.693   3.631   2.656
 4721SOL    HW215063   6.709   3.738   2.779
 4722SOL     OW15064   0.813   4.293   6.461
 4722SOL    HW115065   0.725   4.321   6.422
 4722SOL    HW215066   0.852   4.370   6.512
 4723SOL     OW15067   4.044   3.751   6.537
 4723SOL    HW115068   4.111   3.813   6.495
 4723SOL    HW215069   4.057   3.750   6.636
 4724SOL     OW15070   1.250   6.859   4.722
 4724SOL    HW115071   1.285   6.770   4.750
 4724SOL    HW215072   1.321   6.909   4.672
 4725SOL     OW15073   5.847   5.756   0.587
 4725SOL    HW115074   5.912   5.719   0.652
 4725SOL    HW215075   5.765   5.787   0.635
 4726SOL     OW15076   1.437   3.035   5.400
 4726SOL    HW115077   1.492   3.012   5.319
 4726SOL    HW215078   1.373   3.107   5.377
 4727SOL     OW15079   1.242   5.720   0.400
 4727SOL    HW115080   1.269   5.813   0.421
 4727SOL    HW215081   1.212   5.674   0.484
 4728SOL     OW15082   6.097   1.411   3.983
 4728SOL    HW115083   6.118   1.379   4.076
 4728SOL    HW215084   6.153   1.492   3.962
 4729SOL     OW15085   6.322   0.883   0.762
 4729SOL    HW115086   6.250   0.892   0.692
 4729SOL    HW215087   6.296   0.935   0.843
 4730SOL     OW15088   3.622   0.432   4.815
 4730SOL    HW115089   3.581   0.522   4.830
 4730SOL    HW215090   3.563   0.361   4.854
 4731SOL     OW15091   3.346   0.700   0.788
 4731SOL    HW115092   3.347   0.711   0.689
 4731SOL    HW215093   3.433   0.731   0.826
 4732SOL     OW15094   6.821   3.950   4.170
 4732SOL    HW115095   6.754   3.996   4.112
 4732SOL    HW215096   6.845   4.010   4.247
 4733SOL     OW15097   2.133   3.275   3.093
 4733SOL    HW115098   2.108   3.324   3.009
 4733SOL    HW215099   2.198   3.202   3.071
 4734SOL     OW15100   4.759   3.941   6.410
 4734SOL    HW115101   4.756   4.041   6.413
 4734SOL    HW215102   4.791   3.905   6.498
 4735SOL     OW15103   0.280   6.823   4.814
 4735SOL    HW115104   0.236   6.794   4.729
 4735SOL    HW215105   0.209   6.840   4.883
 4736SOL     OW15106   6.326   1.748   2.962
 4736SOL    HW115107   6.375   1.750   2.875
 4736SOL    HW215108   6.385   1.786   3.034
 4737SOL     OW15109   2.312   5.129   1.001
 4737SOL    HW115110   2.315   5.033   1.030
 4737SOL    HW215111   2.313   5.188   1.081
 4738SOL     OW15112   2.104   7.012   3.969
 4738SOL    HW115113   2.175   0.059   3.956
 4738SOL    HW215114   2.018   0.033   3.991
 4739SOL     OW15115   5.836   3.464   3.900
 4739SOL    HW115116   5.916   3.412   3.871
 4739SOL    HW215117   5.826   3.544   3.842
 4740SOL     OW15118   0.349   1.081   1.265
 4740SOL    HW115119   0.358   1.108   1.169
 4740SOL    HW215120   0.252   1.086   1.291
 4741SOL     OW15121   4.654   4.733   1.472
 4741SOL    HW115122   4.641   4.651   1.527
 4741SOL    HW215123   4.639   4.814   1.529
 4742SOL     OW15124   2.641   6.039   1.518
 4742SOL    HW115125   2.643   6.035   1.618
 4742SOL    HW215126   2.705   6.108   1.485
 4743SOL     OW15127   2.469   2.342   0.215
 4743SOL    HW115128   2.447   2.383   0.303
 4743SOL    HW215129   2.481   2.243   0.226
 4744SOL     OW15130   1.811   3.158   5.463
 4744SOL    HW115131   1.796   3.059   5.458
 4744SOL    HW215132   1.899   3.176   5.507
 4745SOL     OW15133   2.950   5.789   4.689
 4745SOL    HW115134   2.921   5.766   4.781
 4745SOL    HW215135   2.991   5.881   4.689
 4746SOL     OW15136   6.488   6.895   0.835
 4746SOL    HW115137   6.539   6.979   0.816
 4746SOL    HW215138   6.432   6.907   0.916
 4747SOL     OW15139   6.734   2.039   0.817
 4747SOL    HW115140   6.696   2.070   0.730
 4747SOL    HW215141   6.692   2.090   0.892
 4748SOL     OW15142   1.277   1.130   1.331
 4748SOL    HW115143   1.203   1.068   1.303
 4748SOL    HW215144   1.363   1.080   1.332
 4749SOL     OW15145   2.172   0.000   0.127
 4749SOL    HW115146   2.073   0.013   0.131
 4749SOL    HW215147   2.208   7.004   0.219
 4750SOL     OW15148   6.880   0.561   4.460
 4750SOL    HW115149   6.911   0.656   4.460
 4750SOL    HW215150   6.917   0.514   4.540
 4751SOL     OW15151   1.077   4.476   6.355
 4751SOL    HW115152   1.024   4.499   6.437
 4751SOL    HW215153   1.071   4.552   6.289
 4752SOL     OW15154   3.009   5.945   2.087
 4752SOL    HW115155   2.967   6.035   2.099
 4752SOL    HW215156   3.063   5.944   2.003
 4753SOL     OW15157   5.592   6.521   5.468
 4753SOL    HW115158   5.620   6.563   5.555
 4753SOL    HW215159   5.625   6.427   5.464
 4754SOL     OW15160   0.435   0.690   5.891
 4754SOL    HW115161   0.534   0.674   5.888
 4754SOL    HW215162   0.394   0.663   5.804
 4755SOL     OW15163   2.354   1.374   6.367
 4755SOL    HW115164   2.281   1.438   6.342
 4755SOL    HW215165   2.345   1.349   6.464
 4756SOL     OW15166   5.051   3.062   1.568
 4756SOL    HW115167   4.969   3.024   1.525
 4756SOL    HW215168   5.106   2.988   1.607
 4757SOL     OW15169   2.267   2.337   1.707
 4757SOL    HW115170   2.363   2.343   1.736
 4757SOL    HW215171   2.244   2.242   1.689
 4758SOL     OW15172   5.358   5.114   5.459
 4758SOL    HW115173   5.385   5.027   5.418
 4758SOL    HW215174   5.277   5.101   5.516
 4759SOL     OW15175   5.551   5.308   6.298
 4759SOL    HW115176   5.611   5.283   6.222
 4759SOL    HW215177   5.466   5.346   6.263
 4760SOL     OW15178   1.939   1.168   1.674
 4760SOL    HW115179   1.903   1.168   1.767
 4760SOL    HW215180   1.995   1.249   1.660
 4761SOL     OW15181   0.003   6.949   6.690
 4761SOL    HW115182   0.047   6.869   6.731
 4761SOL    HW215183   6.966   6.992   6.757
 4762SOL     OW15184   2.380   5.970   1.928
 4762SOL    HW115185   2.372   5.883   1.879
 4762SOL    HW215186   2.429   5.955   2.014
 4763SOL     OW15187   5.905   6.184   3.581
 4763SOL    HW115188   5.980   6.146   3.634
 4763SOL    HW215189   5.831   6.212   3.642
 4764SOL     OW15190   3.667   3.836   4.721
 4764SOL    HW115191   3.692   3.831   4.624
 4764SOL    HW215192   3.629   3.927   4.741
 4765SOL     OW15193   4.996   5.850   4.833
 4765SOL    HW115194   5.073   5.883   4.886
 4765SOL    HW215195   5.028   5.788   4.761
 4766SOL     OW15196   2.940   0.042   3.465
 4766SOL    HW115197   2.980   0.047   3.556
 4766SOL    HW215198   2.916   6.969   3.445
 4767SOL     OW15199   4.648   6.623   6.685
 4767SOL    HW115200   4.682   6.657   6.597
 4767SOL    HW215201   4.610   6.532   6.673
 4768SOL     OW15202   6.505   0.846   5.098
 4768SOL    HW115203   6.579   0.780   5.113
 4768SOL    HW215204   6.544   0.938   5.092
 4769SOL     OW15205   4.078   6.655   1.720
 4769SOL    HW115206   4.004   6.715   1.693
 4769SOL    HW215207   4.049   6.598   1.797
 4770SOL     OW15208   2.825   0.305   3.122
 4770SOL    HW115209   2.901   0.295   3.185
 4770SOL    HW215210   2.782   0.216   3.106
 4771SOL     OW15211   3.920   4.297   5.666
 4771SOL    HW115212   3.905   4.213   5.614
 4771SOL    HW215213   3.968   4.277   5.751
 4772SOL     OW15214   2.817   1.657   1.734
 4772SOL    HW115215   2.795   1.661   1.831
 4772SOL    HW215216   2.863   1.742   1.707
 4773SOL     OW15217   0.047   5.658   3.804
 4773SOL    HW115218   0.109   5.579   3.811
 4773SOL    HW215219   0.054   5.697   3.713
 4774SOL     OW15220   0.723   3.644   1.104
 4774SOL    HW115221   0.663   3.724   1.099
 4774SOL    HW215222   0.792   3.650   1.033
 4775SOL     OW15223   4.311   0.272   2.158
 4775SOL    HW115224   4.218   0.295   2.186
 4775SOL    HW215225   4.376   0.324   2.214
 4776SOL     OW15226   2.933   5.714   2.655
 4776SOL    HW115227   3.017   5.701   2.708
 4776SOL    HW215228   2.866   5.645   2.681
 4777SOL     OW15229   3.188   4.107   1.113
 4777SOL    HW115230   3.202   4.128   1.210
 4777SOL    HW215231   3.125   4.173   1.074
 4778SOL     OW15232   4.894   3.975   2.084
 4778SOL    HW115233   4.911   3.886   2.041
 4778SOL    HW215234   4.857   4.038   2.015
 4779SOL     OW15235   5.973   0.831   2.880
 4779SOL    HW115236   6.031   0.831   2.962
 4779SOL    HW215237   6.027   0.859   2.801
 4780SOL     OW15238   1.148   6.811   6.593
 4780SOL    HW115239   1.246   6.794   6.604
 4780SOL    HW215240   1.112   6.856   6.675
 4781SOL     OW15241   2.685   5.540   1.509
 4781SOL    HW115242   2.631   5.469   1.465
 4781SOL    HW215243   2.631   5.583   1.582
 4782SOL     OW15244   5.578   6.342   6.917
 4782SOL    HW115245   5.520   6.307   6.990
 4782SOL    HW215246   5.630   6.266   6.877
 4783SOL     OW15247   5.330   4.374   0.725
 4783SOL    HW115248   5.348   4.361   0.628
 4783SOL    HW215249   5.319   4.284   0.769
 4784SOL     OW15250   5.152   5.063   4.641
 4784SOL    HW115251   5.249   5.069   4.663
 4784SOL    HW215252   5.136   4.983   4.583
 4785SOL     OW15253   6.674   6.384   1.153
 4785SOL    HW115254   6.764   6.411   1.117
 4785SOL    HW215255   6.611   6.369   1.077
 4786SOL     OW15256   2.000   3.377   2.033
 4786SOL    HW115257   1.962   3.388   2.124
 4786SOL    HW215258   2.075   3.441   2.020
 4787SOL     OW15259   3.341   2.108   3.206
 4787SOL    HW115260   3.298   2.157   3.130
 4787SOL    HW215261   3.287   2.122   3.289
 4788SOL     OW15262   1.168   5.243   4.398
 4788SOL    HW115263   1.223   5.217   4.477
 4788SOL    HW215264   1.198   5.191   4.318
 4789SOL     OW15265   5.847   0.471   0.050
 4789SOL    HW115266   5.904   0.543   0.088
 4789SOL    HW215267   5.784   0.437   0.121
 4790SOL     OW15268   5.697   2.727   6.487
 4790SOL    HW115269   5.616   2.726   6.547
 4790SOL    HW215270   5.721   2.821   6.465
 4791SOL     OW15271   5.637   6.788   1.839
 4791SOL    HW115272   5.709   6.748   1.896
 4791SOL    HW215273   5.549   6.747   1.862
 4792SOL     OW15274   1.975   2.595   2.858
 4792SOL    HW115275   2.061   2.607   2.808
 4792SOL    HW215276   1.964   2.499   2.883
 4793SOL     OW15277   1.583   6.684   6.450
 4793SOL    HW115278   1.520   6.612   6.420
 4793SOL    HW215279   1.633   6.654   6.531
 4794SOL     OW15280   2.956   0.187   2.751
 4794SOL    HW115281   2.859   0.162   2.754
 4794SOL    HW215282   2.995   0.157   2.663
 4795SOL     OW15283   6.329   3.007   4.228
 4795SOL    HW115284   6.270   3.083   4.257
 4795SOL    HW215285   6.309   2.927   4.284
 4796SOL     OW15286   5.950   3.918   0.840
 4796SOL    HW115287   5.955   3.989   0.770
 4796SOL    HW215288   5.880   3.851   0.815
 4797SOL     OW15289   0.565   4.740   5.590
 4797SOL    HW115290   0.495   4.797   5.546
 4797SOL    HW215291   0.628   4.706   5.520
 4798SOL     OW15292   0.084   3.914   4.217
 4798SOL    HW115293   7.014   3.905   4.181
 4798SOL    HW215294   0.090   3.994   4.276
 4799SOL     OW15295   4.195   1.581   5.152
 4799SOL    HW115296   4.164   1.612   5.062
 4799SOL    HW215297   4.228   1.659   5.204
 4800SOL     OW15298   2.345   2.403   5.204
 4800SOL    HW115299   2.263   2.369   5.156
 4800SOL    HW215300   2.322   2.486   5.255
 4801SOL     OW15301   1.435   1.659   0.774
 4801SOL    HW115302   1.344   1.684   0.739
 4801SOL    HW215303   1.495   1.739   0.769
 4802SOL     OW15304   3.111   0.242   1.802
 4802SOL    HW115305   3.087   0.325   1.752
 4802SOL    HW215306   3.029   0.184   1.811
 4803SOL     OW15307   0.776   0.340   0.512
 4803SOL    HW115308   0.832   0.411   0.555
 4803SOL    HW215309   0.696   0.322   0.569
 4804SOL     OW15310   3.992   5.531   6.231
 4804SOL    HW115311   4.055   5.481   6.172
 4804SOL    HW215312   3.900   5.493   6.221
 4805SOL     OW15313   7.018   1.620   0.523
 4805SOL    HW115314   7.011   1.564   0.606
 4805SOL    HW215315   6.968   1.705   0.536
 4806SOL     OW15316   0.412   3.123   2.550
 4806SOL    HW115317   0.393   3.110   2.453
 4806SOL    HW215318   0.416   3.034   2.596
 4807SOL     OW15319   0.530   6.600   1.008
 4807SOL    HW115320   0.471   6.546   0.948
 4807SOL    HW215321   0.589   6.539   1.061
 4808SOL     OW15322   5.048   3.199   1.056
 4808SOL    HW115323   4.978   3.258   1.095
 4808SOL    HW215324   5.135   3.215   1.102
 4809SOL     OW15325   3.528   5.310   6.706
 4809SOL    HW115326   3.430   5.303   6.687
 4809SOL    HW215327   3.561   5.400   6.677
 4810SOL     OW15328   0.728   6.686   1.349
 4810SOL    HW115329   0.678   6.772   1.349
 4810SOL    HW215330   0.741   6.656   1.444
 4811SOL     OW15331   3.648   5.256   2.038
 4811SOL    HW115332   3.662   5.176   1.980
 4811SOL    HW215333   3.560   5.249   2.085
 4812SOL     OW15334   6.779   5.233   4.346
 4812SOL    HW115335   6.705   5.288   4.309
 4812SOL    HW215336   6.856   5.292   4.371
 4813SOL     OW15337   4.893   2.165   2.534
 4813SOL    HW115338   4.833   2.206   2.465
 4813SOL    HW215339   4.988   2.172   2.503
 4814SOL     OW15340   0.430   3.818   0.980
 4814SOL    HW115341   0.348   3.875   0.985
 4814SOL    HW215342   0.414   3.741   0.918
 4815SOL     OW15343   5.041   5.588   1.124
 4815SOL    HW115344   5.102   5.541   1.188
 4815SOL    HW215345   4.999   5.520   1.063
 4816SOL     OW15346   5.244   5.248   3.017
 4816SOL    HW115347   5.237   5.346   3.035
 4816SOL    HW215348   5.312   5.208   3.078
 4817SOL     OW15349   1.253   2.518   6.198
 4817SOL    HW115350   1.219   2.612   6.203
 4817SOL    HW215351   1.193   2.464   6.139
 4818SOL     OW15352   0.439   6.752   3.938
 4818SOL    HW115353   0.398   6.723   3.851
 4818SOL    HW215354   0.522   6.805   3.919
 4819SOL     OW15355   1.462   3.201   0.629
 4819SOL    HW115356   1.475   3.292   0.669
 4819SOL    HW215357   1.549   3.168   0.592
 4820SOL     OW15358   0.067   2.968   1.733
 4820SOL    HW115359   0.049   2.894   1.668
 4820SOL    HW215360   0.003   3.043   1.717
 4821SOL     OW15361   6.700   6.000   2.880
 4821SOL    HW115362   6.628   5.939   2.846
 4821SOL    HW215363   6.780   5.995   2.820
 4822SOL     OW15364   1.533   3.710   4.347
 4822SOL    HW115365   1.468   3.768   4.296
 4822SOL    HW215366   1.482   3.638   4.394
 4823SOL     OW15367   2.082   2.793   2.164
 4823SOL    HW115368   2.153   2.834   2.221
 4823SOL    HW215369   2.065   2.851   2.085
 4824SOL     OW15370   6.129   1.367   5.182
 4824SOL    HW115371   6.171   1.305   5.116
 4824SOL    HW215372   6.152   1.462   5.158
 4825SOL     OW15373   1.555   6.700   4.322
 4825SOL    HW115374   1.539   6.786   4.371
 4825SOL    HW215375   1.610   6.719   4.240
 4826SOL     OW15376   4.525   0.502   1.593
 4826SOL    HW115377   4.610   0.553   1.586
 4826SOL    HW215378   4.540   0.418   1.644
 4827SOL     OW15379   0.151   1.815   1.243
 4827SOL    HW115380   0.098   1.852   1.166
 4827SOL    HW215381   0.218   1.749   1.208
 4828SOL     OW15382   4.733   0.564   2.585
 4828SOL    HW115383   4.791   0.553   2.505
 4828SOL    HW215384   4.780   0.528   2.666
 4829SOL     OW15385   3.876   0.400   5.154
 4829SOL    HW115386   3.942   0.384   5.227
 4829SOL    HW215387   3.783   0.386   5.188
 4830SOL     OW15388   3.056   5.869   3.285
 4830SOL    HW115389   2.980   5.813   3.253
 4830SOL    HW215390   3.025   5.927   3.360
 4831SOL     OW15391   3.289   5.001   6.035
 4831SOL    HW115392   3.220   4.934   6.062
 4831SOL    HW215393   3.373   4.985   6.087
 4832SOL     OW15394   3.029   3.129   4.009
 4832SOL    HW115395   3.115   3.180   4.017
 4832SOL    HW215396   2.980   3.132   4.095
 4833SOL     OW15397   0.260   2.810   3.772
 4833SOL    HW115398   0.227   2.899   3.805
 4833SOL    HW215399   0.185   2.764   3.723
 4834SOL     OW15400   1.638   5.208   1.888
 4834SOL    HW115401   1.617   5.295   1.932
 4834SOL    HW215402   1.645   5.221   1.789
 4835SOL     OW15403   6.983   2.601   5.255
 4835SOL    HW115404   7.014   2.679   5.202
 4835SOL    HW215405   6.963   2.629   5.349
 4836SOL     OW15406   5.072   1.481   5.424
 4836SOL    HW115407   5.138   1.430   5.368
 4836SOL    HW215408   5.003   1.417   5.460
 4837SOL     OW15409   6.861   4.095   4.387
 4837SOL    HW115410   6.921   4.072   4.464
 4837SOL    HW215411   6.842   4.193   4.388
 4838SOL     OW15412   1.424   4.749   6.869
 4838SOL    HW115413   1.392   4.681   6.802
 4838SOL    HW215414   1.511   4.787   6.838
 4839SOL     OW15415   2.630   1.309   6.842
 4839SOL    HW115416   2.666   1.395   6.807
 4839SOL    HW215417   2.664   1.295   6.935
 4840SOL     OW15418   5.697   3.499   4.770
 4840SOL    HW115419   5.659   3.407   4.773
 4840SOL    HW215420   5.785   3.498   4.723
 4841SOL     OW15421   3.038   5.635   2.978
 4841SOL    HW115422   3.138   5.637   2.978
 4841SOL    HW215423   3.004   5.675   2.892
 4842SOL     OW15424   2.818   5.312   3.356
 4842SOL    HW115425   2.897   5.296   3.296
 4842SOL    HW215426   2.848   5.359   3.439
 4843SOL     OW15427   0.393   1.873   2.116
 4843SOL    HW115428   0.308   1.917   2.088
 4843SOL    HW215429   0.377   1.821   2.200
 4844SOL     OW15430   1.087   5.643   4.656
 4844SOL    HW115431   1.186   5.627   4.662
 4844SOL    HW215432   1.040   5.555   4.655
 4845SOL     OW15433   4.894   3.880   4.906
 4845SOL    HW115434   4.872   3.789   4.942
 4845SOL    HW215435   4.986   3.906   4.935
 4846SOL     OW15436   6.930   3.499   4.765
 4846SOL    HW115437   6.965   3.483   4.858
 4846SOL    HW215438   7.003   3.487   4.699
 4847SOL     OW15439   2.098   6.404   6.211
 4847SOL    HW115440   2.164   6.435   6.143
 4847SOL    HW215441   2.009   6.392   6.167
 4848SOL     OW15442   3.212   0.750   4.115
 4848SOL    HW115443   3.264   0.671   4.147
 4848SOL    HW215444   3.126   0.720   4.075
 4849SOL     OW15445   1.809   6.893   1.046
 4849SOL    HW115446   1.791   6.865   0.952
 4849SOL    HW215447   1.765   6.829   1.109
 4850SOL     OW15448   4.513   0.328   0.606
 4850SOL    HW115449   4.447   0.321   0.682
 4850SOL    HW215450   4.463   0.328   0.519
 4851SOL     OW15451   3.763   5.167   6.355
 4851SOL    HW115452   3.765   5.267   6.349
 4851SOL    HW215453   3.684   5.138   6.409
 4852SOL     OW15454   4.914   5.537   4.870
 4852SOL    HW115455   5.012   5.533   4.849
 4852SOL    HW215456   4.897   5.485   4.954
 4853SOL     OW15457   4.046   7.007   2.292
 4853SOL    HW115458   4.017   0.007   2.385
 4853SOL    HW215459   3.987   0.030   2.226
 4854SOL     OW15460   6.052   6.109   1.683
 4854SOL    HW115461   5.971   6.161   1.656
 4854SOL    HW215462   6.026   6.039   1.750
 4855SOL     OW15463   6.130   4.913   5.035
 4855SOL    HW115464   6.096   4.898   4.943
 4855SOL    HW215465   6.140   5.011   5.052
 4856SOL     OW15466   0.021   3.717   3.080
 4856SOL    HW115467   6.984   3.793   3.106
 4856SOL    HW215468   6.992   3.650   3.026
 4857SOL     OW15469   2.733   2.051   4.739
 4857SOL    HW115470   2.802   2.111   4.780
 4857SOL    HW215471   2.643   2.094   4.744
 4858SOL     OW15472   0.584   5.808   4.015
 4858SOL    HW115473   0.572   5.709   4.001
 4858SOL    HW215474   0.536   5.836   4.098
 4859SOL     OW15475   0.622   6.220   2.325
 4859SOL    HW115476   0.698   6.155   2.331
 4859SOL    HW215477   0.540   6.172   2.295
 4860SOL     OW15478   4.279   5.386   1.182
 4860SOL    HW115479   4.320   5.477   1.192
 4860SOL    HW215480   4.314   5.343   1.099
 4861SOL     OW15481   0.074   4.696   6.680
 4861SOL    HW115482   7.010   4.719   6.636
 4861SOL    HW215483   0.147   4.693   6.611
 4862SOL     OW15484   2.447   5.246   5.520
 4862SOL    HW115485   2.423   5.210   5.610
 4862SOL    HW215486   2.385   5.206   5.451
 4863SOL     OW15487   4.498   1.857   2.695
 4863SOL    HW115488   4.440   1.843   2.775
 4863SOL    HW215489   4.498   1.953   2.669
 4864SOL     OW15490   2.490   1.567   1.828
 4864SOL    HW115491   2.505   1.663   1.851
 4864SOL    HW215492   2.575   1.516   1.839
 4865SOL     OW15493   3.801   5.955   5.490
 4865SOL    HW115494   3.720   5.973   5.545
 4865SOL    HW215495   3.862   6.034   5.494
 4866SOL     OW15496   6.635   4.556   1.370
 4866SOL    HW115497   6.596   4.470   1.402
 4866SOL    HW215498   6.671   4.607   1.449
 4867SOL     OW15499   5.105   6.090   3.281
 4867SOL    HW115500   5.174   6.030   3.241
 4867SOL    HW215501   5.118   6.094   3.380
 4868SOL     OW15502   0.532   6.037   1.188
 4868SOL    HW115503   0.618   6.037   1.139
 4868SOL    HW215504   0.532   5.962   1.255
 4869SOL     OW15505   6.312   0.564   0.718
 4869SOL    HW115506   6.307   0.601   0.811
 4869SOL    HW215507   6.298   0.465   0.721
 4870SOL     OW15508   6.382   6.187   2.104
 4870SOL    HW115509   6.373   6.115   2.035
 4870SOL    HW215510   6.437   6.154   2.180
 4871SOL     OW15511   1.171   3.494   4.006
 4871SOL    HW115512   1.186   3.522   4.100
 4871SOL    HW215513   1.102   3.553   3.963
 4872SOL     OW15514   1.058   0.849   2.731
 4872SOL    HW115515   0.993   0.776   2.711
 4872SOL    HW215516   1.008   0.936   2.741
 4873SOL     OW15517   0.280   5.739   5.377
 4873SOL    HW115518   0.317   5.734   5.469
 4873SOL    HW215519   0.186   5.773   5.380
 4874SOL     OW15520   5.462   3.672   3.204
 4874SOL    HW115521   5.463   3.718   3.293
 4874SOL    HW215522   5.370   3.673   3.166
 4875SOL     OW15523   6.001   2.628   0.037
 4875SOL    HW115524   5.930   2.578   7.010
 4875SOL    HW215525   5.964   2.658   0.126
 4876SOL     OW15526   0.434   1.525   6.587
 4876SOL    HW115527   0.452   1.467   6.667
 4876SOL    HW215528   0.499   1.503   6.514
 4877SOL     OW15529   6.615   1.496   1.146
 4877SOL    HW115530   6.664   1.439   1.082
 4877SOL    HW215531   6.667   1.503   1.232
 4878SOL     OW15532   0.312   1.936   1.478
 4878SOL    HW115533   0.334   2.033   1.477
 4878SOL    HW215534   0.277   1.909   1.388
 4879SOL     OW15535   4.370   5.020   3.532
 4879SOL    HW115536   4.383   5.116   3.559
 4879SOL    HW215537   4.355   5.015   3.433
 4880SOL     OW15538   5.639   1.941   5.777
 4880SOL    HW115539   5.600   1.899   5.695
 4880SOL    HW215540   5.612   2.038   5.781
 4881SOL     OW15541   3.705   6.303   6.422
 4881SOL    HW115542   3.772   6.371   6.452
 4881SOL    HW215543   3.699   6.304   6.322
 4882SOL     OW15544   5.725   0.652   5.667
 4882SOL    HW115545   5.676   0.698   5.741
 4882SOL    HW215546   5.666   0.647   5.587
 4883SOL     OW15547   6.984   5.650   1.376
 4883SOL    HW115548   0.016   5.579   1.333
 4883SOL    HW215549   6.927   5.695   1.307
 4884SOL     OW15550   3.351   6.445   1.324
 4884SOL    HW115551   3.430   6.495   1.361
 4884SOL    HW215552   3.337   6.362   1.378
 4885SOL     OW15553   1.842   7.009   1.883
 4885SOL    HW115554   1.789   6.962   1.812
 4885SOL    HW215555   1.833   0.085   1.871
 4886SOL     OW15556   6.394   0.624   6.491
 4886SOL    HW115557   6.413   0.715   6.528
 4886SOL    HW215558   6.436   0.614   6.401
 4887SOL     OW15559   0.457   1.955   4.382
 4887SOL    HW115560   0.475   1.957   4.480
 4887SOL    HW215561   0.495   2.038   4.340
 4888SOL     OW15562   2.791   5.504   2.773
 4888SOL    HW115563   2.756   5.524   2.864
 4888SOL    HW215564   2.745   5.423   2.736
 4889SOL     OW15565   1.405   1.881   0.177
 4889SOL    HW115566   1.482   1.862   0.115
 4889SOL    HW215567   1.331   1.816   0.159
 4890SOL     OW15568   1.123   0.523   4.555
 4890SOL    HW115569   1.076   0.441   4.588
 4890SOL    HW215570   1.065   0.603   4.571
 4891SOL     OW15571   1.041   4.865   0.083
 4891SOL    HW115572   0.967   4.919   0.124
 4891SOL    HW215573   1.012   4.833   7.015
 4892SOL     OW15574   0.813   5.689   1.254
 4892SOL    HW115575   0.887   5.624   1.275
 4892SOL    HW215576   0.783   5.676   1.160
 4893SOL     OW15577   0.223   3.672   6.321
 4893SOL    HW115578   0.320   3.676   6.342
 4893SOL    HW215579   0.178   3.755   6.355
 4894SOL     OW15580   2.529   0.757   2.943
 4894SOL    HW115581   2.502   0.680   3.000
 4894SOL    HW215582   2.628   0.754   2.927
 4895SOL     OW15583   0.825   3.408   0.208
 4895SOL    HW115584   0.824   3.309   0.222
 4895SOL    HW215585   0.819   3.427   0.110
 4896SOL     OW15586   4.029   5.399   4.297
 4896SOL    HW115587   4.056   5.492   4.273
 4896SOL    HW215588   3.990   5.354   4.217
 4897SOL     OW15589   3.350   5.595   6.400
 4897SOL    HW115590   3.386   5.505   6.423
 4897SOL    HW215591   3.289   5.588   6.321
 4898SOL     OW15592   5.778   2.011   5.141
 4898SOL    HW115593   5.688   2.055   5.135
 4898SOL    HW215594   5.819   2.034   5.229
 4899SOL     OW15595   5.738   3.986   3.999
 4899SOL    HW115596   5.706   3.907   3.946
 4899SOL    HW215597   5.735   4.068   3.941
 4900SOL     OW15598   1.025   6.838   5.440
 4900SOL    HW115599   0.976   6.911   5.487
 4900SOL    HW215600   0.963   6.761   5.425
 4901SOL     OW15601   1.308   6.717   3.984
 4901SOL    HW115602   1.341   6.646   3.923
 4901SOL    HW215603   1.250   6.781   3.934
 4902SOL     OW15604   2.767   4.874   1.924
 4902SOL    HW115605   2.775   4.774   1.920
 4902SOL    HW215606   2.775   4.904   2.019
 4903SOL     OW15607   4.781   7.017   6.502
 4903SOL    HW115608   4.782   0.094   6.506
 4903SOL    HW215609   4.872   6.982   6.525
 4904SOL     OW15610   3.079   5.821   3.708
 4904SOL    HW115611   3.118   5.766   3.634
 4904SOL    HW215612   3.140   5.898   3.728
 4905SOL     OW15613   5.688   3.498   2.233
 4905SOL    HW115614   5.668   3.592   2.207
 4905SOL    HW215615   5.725   3.448   2.154
 4906SOL     OW15616   5.612   0.566   0.620
 4906SOL    HW115617   5.617   0.472   0.653
 4906SOL    HW215618   5.575   0.625   0.692
 4907SOL     OW15619   3.150   1.017   2.540
 4907SOL    HW115620   3.196   1.030   2.452
 4907SOL    HW215621   3.060   1.059   2.538
 4908SOL     OW15622   2.764   5.731   6.675
 4908SOL    HW115623   2.793   5.665   6.606
 4908SOL    HW215624   2.775   5.691   6.766
 4909SOL     OW15625   6.966   6.878   5.230
 4909SOL    HW115626   6.919   6.943   5.290
 4909SOL    HW215627   6.976   6.791   5.277
 4910SOL     OW15628   5.729   6.987   4.999
 4910SOL    HW115629   5.812   6.983   5.055
 4910SOL    HW215630   5.648   6.987   5.058
 4911SOL     OW15631   6.673   2.726   6.132
 4911SOL    HW115632   6.736   2.772   6.069
 4911SOL    HW215633   6.618   2.660   6.082
 4912SOL     OW15634   2.445   2.221   2.089
 4912SOL    HW115635   2.408   2.133   2.119
 4912SOL    HW215636   2.421   2.292   2.156
 4913SOL     OW15637   2.912   3.453   2.949
 4913SOL    HW115638   2.878   3.490   2.862
 4913SOL    HW215639   2.950   3.528   3.004
 4914SOL     OW15640   2.166   6.581   3.769
 4914SOL    HW115641   2.079   6.533   3.781
 4914SOL    HW215642   2.242   6.522   3.796
 4915SOL     OW15643   3.125   5.670   3.493
 4915SOL    HW115644   3.100   5.748   3.435
 4915SOL    HW215645   3.186   5.609   3.442
 4916SOL     OW15646   2.885   1.027   2.459
 4916SOL    HW115647   2.868   1.009   2.362
 4916SOL    HW215648   2.836   1.110   2.486
 4917SOL     OW15649   1.875   5.028   0.678
 4917SOL    HW115650   1.919   5.095   0.737
 4917SOL    HW215651   1.830   4.958   0.734
 4918SOL     OW15652   2.334   0.366   1.924
 4918SOL    HW115653   2.416   0.424   1.915
 4918SOL    HW215654   2.252   0.423   1.914
 4919SOL     OW15655   2.403   2.398   2.307
 4919SOL    HW115656   2.431   2.478   2.360
 4919SOL    HW215657   2.331   2.424   2.242
 4920SOL     OW15658   4.389   0.777   0.207
 4920SOL    HW115659   4.387   0.693   0.263
 4920SOL    HW215660   4.301   0.823   0.214
 4921SOL     OW15661   1.397   5.112   1.700
 4921SOL    HW115662   1.413   5.038   1.635
 4921SOL    HW215663   1.434   5.197   1.663
 4922SOL     OW15664   1.603   2.636   5.579
 4922SOL    HW115665   1.598   2.653   5.480
 4922SOL    HW215666   1.698   2.631   5.608
 4923SOL     OW15667   4.532   1.281   0.877
 4923SOL    HW115668   4.573   1.338   0.806
 4923SOL    HW215669   4.478   1.338   0.939
 4924SOL     OW15670   0.333   3.882   4.859
 4924SOL    HW115671   0.350   3.783   4.863
 4924SOL    HW215672   0.354   3.923   4.948
 4925SOL     OW15673   4.356   6.148   0.039
 4925SOL    HW115674   4.428   6.217   0.041
 4925SOL    HW215675   4.279   6.181   7.008
 4926SOL     OW15676   4.652   2.300   1.865
 4926SOL    HW115677   4.612   2.235   1.929
 4926SOL    HW215678   4.736   2.262   1.825
 4927SOL     OW15679   3.582   3.208   3.341
 4927SOL    HW115680   3.489   3.173   3.337
 4927SOL    HW215681   3.620   3.212   3.249
 4928SOL     OW15682   0.267   6.157   0.246
 4928SOL    HW115683   0.343   6.216   0.272
 4928SOL    HW215684   0.218   6.198   0.169
 4929SOL     OW15685   0.744   5.244   4.138
 4929SOL    HW115686   0.841   5.257   4.119
 4929SOL    HW215687   0.723   5.146   4.139
 4930SOL     OW15688   0.161   1.676   0.876
 4930SOL    HW115689   0.117   1.609   0.818
 4930SOL    HW215690   0.244   1.710   0.831
 4931SOL     OW15691   6.843   0.876   0.636
 4931SOL    HW115692   6.928   0.826   0.653
 4931SOL    HW215693   6.844   0.912   0.543
 4932SOL     OW15694   2.515   2.364   1.869
 4932SOL    HW115695   2.503   2.320   1.959
 4932SOL    HW215696   2.535   2.461   1.882
 4933SOL     OW15697   3.175   0.856   4.369
 4933SOL    HW115698   3.189   0.819   4.277
 4933SOL    HW215699   3.115   0.795   4.421
 4934SOL     OW15700   1.020   6.259   5.001
 4934SOL    HW115701   0.936   6.204   5.009
 4934SOL    HW215702   1.031   6.314   5.084
 4935SOL     OW15703   1.596   1.156   0.800
 4935SOL    HW115704   1.523   1.098   0.763
 4935SOL    HW215705   1.557   1.239   0.838
 4936SOL     OW15706   3.472   5.315   0.681
 4936SOL    HW115707   3.423   5.367   0.612
 4936SOL    HW215708   3.570   5.338   0.677
 4937SOL     OW15709   0.311   3.259   6.577
 4937SOL    HW115710   0.275   3.307   6.496
 4937SOL    HW215711   0.236   3.219   6.628
 4938SOL     OW15712   3.347   4.846   1.469
 4938SOL    HW115713   3.355   4.809   1.561
 4938SOL    HW215714   3.251   4.850   1.443
 4939SOL     OW15715   1.841   1.921   2.198
 4939SOL    HW115716   1.880   1.857   2.133
 4939SOL    HW215717   1.760   1.965   2.158
 4940SOL     OW15718   0.166   2.110   5.107
 4940SOL    HW115719   0.124   2.198   5.129
 4940SOL    HW215720   0.162   2.095   5.009
 4941SOL     OW15721   3.981   2.107   5.198
 4941SOL    HW115722   4.021   2.057   5.274
 4941SOL    HW215723   4.053   2.133   5.134
 4942SOL     OW15724   6.676   1.927   4.104
 4942SOL    HW115725   6.586   1.886   4.115
 4942SOL    HW215726   6.670   2.002   4.039
 4943SOL     OW15727   5.459   3.064   6.695
 4943SOL    HW115728   5.535   3.095   6.638
 4943SOL    HW215729   5.388   3.135   6.696
 4944SOL     OW15730   1.444   5.206   1.015
 4944SOL    HW115731   1.392   5.288   1.037
 4944SOL    HW215732   1.450   5.148   1.096
 4945SOL     OW15733   1.874   1.306   5.121
 4945SOL    HW115734   1.854   1.209   5.127
 4945SOL    HW215735   1.826   1.355   5.194
 4946SOL     OW15736   2.505   5.031   6.933
 4946SOL    HW115737   2.429   5.066   6.877
 4946SOL    HW215738   2.482   5.041   0.007
 4947SOL     OW15739   1.559   1.144   1.887
 4947SOL    HW115740   1.460   1.155   1.894
 4947SOL    HW215741   1.603   1.233   1.898
 4948SOL     OW15742   1.462   2.836   1.800
 4948SOL    HW115743   1.541   2.882   1.840
 4948SOL    HW215744   1.480   2.815   1.704
 4949SOL     OW15745   6.703   3.808   0.100
 4949SOL    HW115746   6.784   3.815   0.158
 4949SOL    HW215747   6.655   3.723   0.120
 4950SOL     OW15748   2.277   3.770   5.274
 4950SOL    HW115749   2.353   3.720   5.316
 4950SOL    HW215750   2.313   3.848   5.223
 4951SOL     OW15751   5.044   5.241   3.753
 4951SOL    HW115752   4.962   5.215   3.701
 4951SOL    HW215753   5.125   5.207   3.706
 4952SOL     OW15754   0.272   6.455   5.800
 4952SOL    HW115755   0.273   6.547   5.840
 4952SOL    HW215756   0.295   6.388   5.870
 4953SOL     OW15757   0.836   2.034   4.962
 4953SOL    HW115758   0.775   2.058   5.037
 4953SOL    HW215759   0.920   2.088   4.969
 4954SOL     OW15760   3.291   4.245   5.225
 4954SOL    HW115761   3.211   4.285   5.269
 4954SOL    HW215762   3.264   4.202   5.139
 4955SOL     OW15763   3.529   5.123   6.485
 4955SOL    HW115764   3.503   5.029   6.506
 4955SOL    HW215765   3.548   5.172   6.570
 4956SOL     OW15766   2.724   0.077   4.933
 4956SOL    HW115767   2.784   0.150   4.965
 4956SOL    HW215768   2.641   0.076   4.989
 4957SOL     OW15769   5.857   4.185   0.055
 4957SOL    HW115770   5.871   4.253   0.126
 4957SOL    HW215771   5.946   4.152   0.022
 4958SOL     OW15772   3.195   6.007   0.297
 4958SOL    HW115773   3.243   6.044   0.217
 4958SOL    HW215774   3.192   6.077   0.369
 4959SOL     OW15775   0.848   3.383   2.436
 4959SOL    HW115776   0.890   3.446   2.501
 4959SOL    HW215777   0.885   3.400   2.345
 4960SOL     OW15778   4.334   5.561   4.446
 4960SOL    HW115779   4.419   5.590   4.491
 4960SOL    HW215780   4.268   5.636   4.447
 4961SOL     OW15781   4.220   1.031   6.919
 4961SOL    HW115782   4.255   0.938   6.906
 4961SOL    HW215783   4.246   1.063   7.010
 4962SOL     OW15784   1.143   4.433   0.981
 4962SOL    HW115785   1.142   4.356   1.045
 4962SOL    HW215786   1.174   4.403   0.892
 4963SOL     OW15787   1.015   4.255   6.161
 4963SOL    HW115788   1.113   4.239   6.160
 4963SOL    HW215789   0.992   4.320   6.233
 4964SOL     OW15790   3.150   0.071   4.754
 4964SOL    HW115791   3.127   7.017   4.814
 4964SOL    HW215792   3.249   0.083   4.750
 4965SOL     OW15793   1.735   6.234   3.048
 4965SOL    HW115794   1.651   6.267   3.005
 4965SOL    HW215795   1.720   6.222   3.146
 4966SOL     OW15796   3.548   6.524   4.306
 4966SOL    HW115797   3.604   6.578   4.243
 4966SOL    HW215798   3.554   6.427   4.282
 4967SOL     OW15799   4.332   4.868   5.079
 4967SOL    HW115800   4.250   4.912   5.117
 4967SOL    HW215801   4.305   4.798   5.013
 4968SOL     OW15802   6.544   2.155   3.056
 4968SOL    HW115803   6.547   2.223   2.982
 4968SOL    HW215804   6.449   2.129   3.074
 4969SOL     OW15805   0.945   6.456   3.041
 4969SOL    HW115806   0.998   6.541   3.035
 4969SOL    HW215807   1.002   6.383   3.079
 4970SOL     OW15808   0.897   1.552   1.930
 4970SOL    HW115809   0.858   1.634   1.972
 4970SOL    HW215810   0.989   1.574   1.895
 4971SOL     OW15811   6.727   6.362   2.976
 4971SOL    HW115812   6.660   6.291   2.955
 4971SOL    HW215813   6.819   6.329   2.952
 4972SOL     OW15814   1.696   4.781   1.307
 4972SOL    HW115815   1.613   4.728   1.288
 4972SOL    HW215816   1.759   4.725   1.361
 4973SOL     OW15817   6.652   0.794   1.104
 4973SOL    HW115818   6.679   0.749   1.189
 4973SOL    HW215819   6.568   0.847   1.119
 4974SOL     OW15820   3.308   5.469   5.146
 4974SOL    HW115821   3.280   5.547   5.201
 4974SOL    HW215822   3.376   5.499   5.079
 4975SOL     OW15823   5.717   4.096   0.873
 4975SOL    HW115824   5.695   4.036   0.949
 4975SOL    HW215825   5.727   4.190   0.907
 4976SOL     OW15826   1.828   6.960   4.225
 4976SOL    HW115827   1.887   6.985   4.302
 4976SOL    HW215828   1.817   0.017   4.165
 4977SOL     OW15829   2.155   4.772   6.472
 4977SOL    HW115830   2.184   4.780   6.377
 4977SOL    HW215831   2.124   4.678   6.489
 4978SOL     OW15832   4.967   4.751   4.734
 4978SOL    HW115833   4.939   4.695   4.656
 4978SOL    HW215834   5.022   4.695   4.796
 4979SOL     OW15835   2.329   0.002   6.334
 4979SOL    HW115836   2.317   6.968   6.253
 4979SOL    HW215837   2.309   6.971   6.416
 4980SOL     OW15838   5.749   3.698   3.015
 4980SOL    HW115839   5.770   3.610   3.056
 4980SOL    HW215840   5.649   3.709   3.011
 4981SOL     OW15841   3.571   5.021   1.895
 4981SOL    HW115842   3.615   5.022   1.804
 4981SOL    HW215843   3.566   4.927   1.927
 4982SOL     OW15844   4.289   1.702   6.522
 4982SOL    HW115845   4.201   1.745   6.502
 4982SOL    HW215846   4.307   1.629   6.456
 4983SOL     OW15847   6.677   5.424   3.100
 4983SOL    HW115848   6.619   5.455   3.176
 4983SOL    HW215849   6.642   5.336   3.066
 4984SOL     OW15850   5.099   4.807   3.134
 4984SOL    HW115851   5.141   4.772   3.218
 4984SOL    HW215852   5.169   4.849   3.077
 4985SOL     OW15853   5.740   6.197   2.601
 4985SOL    HW115854   5.655   6.249   2.611
 4985SOL    HW215855   5.816   6.260   2.584
 4986SOL     OW15856   0.547   4.788   2.361
 4986SOL    HW115857   0.494   4.766   2.279
 4986SOL    HW215858   0.645   4.777   2.342
 4987SOL     OW15859   0.698   0.970   2.325
 4987SOL    HW115860   0.777   1.031   2.334
 4987SOL    HW215861   0.633   1.009   2.259
 4988SOL     OW15862   6.042   0.220   3.569
 4988SOL    HW115863   5.960   0.268   3.600
 4988SOL    HW215864   6.117   0.236   3.633
 4989SOL     OW15865   4.343   0.621   2.554
 4989SOL    HW115866   4.310   0.640   2.646
 4989SOL    HW215867   4.423   0.562   2.559
 4990SOL     OW15868   5.077   2.179   5.412
 4990SOL    HW115869   5.008   2.249   5.395
 4990SOL    HW215870   5.076   2.112   5.338
 4991SOL     OW15871   1.157   5.390   5.034
 4991SOL    HW115872   1.165   5.490   5.043
 4991SOL    HW215873   1.096   5.356   5.106
 4992SOL     OW15874   0.051   1.562   3.383
 4992SOL    HW115875   0.021   1.653   3.354
 4992SOL    HW215876   0.025   1.495   3.313
 4993SOL     OW15877   3.956   6.349   4.463
 4993SOL    HW115878   4.033   6.413   4.465
 4993SOL    HW215879   3.870   6.400   4.470
 4994SOL     OW15880   3.007   4.924   5.386
 4994SOL    HW115881   2.986   5.013   5.345
 4994SOL    HW215882   2.927   4.891   5.436
 4995SOL     OW15883   0.587   0.207   5.419
 4995SOL    HW115884   0.620   0.114   5.428
 4995SOL    HW215885   0.623   0.263   5.494
 4996SOL     OW15886   0.118   1.172   4.583
 4996SOL    HW115887   0.170   1.231   4.645
 4996SOL    HW215888   0.071   1.102   4.636
 4997SOL     OW15889   3.714   2.245   1.010
 4997SOL    HW115890   3.726   2.149   0.988
 4997SOL    HW215891   3.681   2.255   1.104
 4998SOL     OW15892   0.765   3.410   3.896
 4998SOL    HW115893   0.671   3.376   3.897
 4998SOL    HW215894   0.825   3.342   3.939
 4999SOL     OW15895   0.430   3.898   4.362
 4999SOL    HW115896   0.495   3.941   4.426
 4999SOL    HW215897   0.389   3.818   4.406
 5000SOL     OW15898   2.722   5.067   3.568
 5000SOL    HW115899   2.799   5.068   3.631
 5000SOL    HW215900   2.743   5.122   3.487
 5001SOL     OW15901   0.990   5.073   2.666
 5001SOL    HW115902   0.969   5.014   2.588
 5001SOL    HW215903   0.926   5.053   2.741
 5002SOL     OW15904   0.692   3.428   3.332
 5002SOL    HW115905   0.621   3.361   3.355
 5002SOL    HW215906   0.763   3.425   3.402
 5003SOL     OW15907   4.386   6.410   4.045
 5003SOL    HW115908   4.340   6.443   4.127
 5003SOL    HW215909   4.459   6.347   4.070
 5004SOL     OW15910   2.505   6.068   6.478
 5004SOL    HW115911   2.448   6.150   6.481
 5004SOL    HW215912   2.469   5.999   6.541
 5005SOL     OW15913   2.456   2.629   6.717
 5005SOL    HW115914   2.526   2.647   6.647
 5005SOL    HW215915   2.438   2.531   6.721
 5006SOL     OW15916   5.563   1.888   2.071
 5006SOL    HW115917   5.575   1.878   1.973
 5006SOL    HW215918   5.513   1.973   2.091
 5007SOL     OW15919   5.878   7.004   1.958
 5007SOL    HW115920   5.847   6.960   2.042
 5007SOL    HW215921   5.963   6.961   1.927
 5008SOL     OW15922   5.716   6.497   1.972
 5008SOL    HW115923   5.732   6.406   2.010
 5008SOL    HW215924   5.696   6.489   1.874
 5009SOL     OW15925   0.585   2.432   0.517
 5009SOL    HW115926   0.513   2.446   0.449
 5009SOL    HW215927   0.548   2.377   0.593
 5010SOL     OW15928   3.689   3.571   0.343
 5010SOL    HW115929   3.628   3.499   0.377
 5010SOL    HW215930   3.644   3.659   0.353
 5011SOL     OW15931   2.093   3.973   6.989
 5011SOL    HW115932   1.996   3.993   6.979
 5011SOL    HW215933   2.120   3.902   6.924
 5012SOL     OW15934   6.206   1.634   5.128
 5012SOL    HW115935   6.125   1.692   5.129
 5012SOL    HW215936   6.288   1.691   5.129
 5013SOL     OW15937   6.039   0.298   5.906
 5013SOL    HW115938   6.014   0.204   5.931
 5013SOL    HW215939   5.956   0.349   5.882
 5014SOL     OW15940   6.771   3.459   1.593
 5014SOL    HW115941   6.791   3.431   1.687
 5014SOL    HW215942   6.805   3.390   1.529
 5015SOL     OW15943   5.834   6.758   4.126
 5015SOL    HW115944   5.886   6.703   4.192
 5015SOL    HW215945   5.852   6.725   4.033
 5016SOL     OW15946   1.423   3.588   4.996
 5016SOL    HW115947   1.407   3.686   4.981
 5016SOL    HW215948   1.337   3.544   5.020
 5017SOL     OW15949   0.785   2.278   1.832
 5017SOL    HW115950   0.872   2.281   1.882
 5017SOL    HW215951   0.799   2.231   1.744
 5018SOL     OW15952   0.752   6.513   1.545
 5018SOL    HW115953   0.787   6.486   1.635
 5018SOL    HW215954   0.770   6.440   1.479
 5019SOL     OW15955   1.413   5.276   5.143
 5019SOL    HW115956   1.496   5.320   5.108
 5019SOL    HW215957   1.335   5.303   5.086
 5020SOL     OW15958   1.223   0.152   4.779
 5020SOL    HW115959   1.243   0.084   4.708
 5020SOL    HW215960   1.153   0.117   4.840
 5021SOL     OW15961   1.849   0.962   1.265
 5021SOL    HW115962   1.755   0.957   1.232
 5021SOL    HW215963   1.869   1.056   1.293
 5022SOL     OW15964   0.286   3.394   1.584
 5022SOL    HW115965   0.299   3.296   1.597
 5022SOL    HW215966   0.329   3.444   1.659
 5023SOL     OW15967   0.416   4.570   2.742
 5023SOL    HW115968   0.475   4.498   2.779
 5023SOL    HW215969   0.320   4.542   2.751
 5024SOL     OW15970   5.076   3.619   1.622
 5024SOL    HW115971   5.114   3.673   1.698
 5024SOL    HW215972   5.006   3.557   1.657
 5025SOL     OW15973   4.351   1.142   3.332
 5025SOL    HW115974   4.253   1.126   3.333
 5025SOL    HW215975   4.374   1.211   3.401
 5026SOL     OW15976   5.434   6.372   5.171
 5026SOL    HW115977   5.522   6.384   5.126
 5026SOL    HW215978   5.435   6.286   5.223
 5027SOL     OW15979   5.102   0.671   6.753
 5027SOL    HW115980   5.028   0.611   6.781
 5027SOL    HW215981   5.079   0.712   6.664
 5028SOL     OW15982   0.613   2.202   2.949
 5028SOL    HW115983   0.521   2.200   2.988
 5028SOL    HW215984   0.673   2.257   3.006
 5029SOL     OW15985   6.422   2.020   2.157
 5029SOL    HW115986   6.396   2.094   2.219
 5029SOL    HW215987   6.419   2.052   2.063
 5030SOL     OW15988   6.799   5.033   0.032
 5030SOL    HW115989   6.768   5.002   0.121
 5030SOL    HW215990   6.810   4.954   6.994
 5031SOL     OW15991   6.853   0.515   5.682
 5031SOL    HW115992   6.860   0.416   5.675
 5031SOL    HW215993   6.763   0.540   5.718
 5032SOL     OW15994   3.325   3.032   5.544
 5032SOL    HW115995   3.361   2.947   5.583
 5032SOL    HW215996   3.240   3.013   5.495
 5033SOL     OW15997   2.389   1.540   0.171
 5033SOL    HW115998   2.464   1.601   0.145
 5033SOL    HW215999   2.371   1.475   0.097
 5034SOL     OW16000   4.648   6.087   4.008
 5034SOL    HW116001   4.665   6.054   3.915
 5034SOL    HW216002   4.551   6.076   4.031
 5035SOL     OW16003   0.718   4.961   4.262
 5035SOL    HW116004   0.790   4.894   4.283
 5035SOL    HW216005   0.656   4.968   4.340
 5036SOL     OW16006   6.717   3.151   5.083
 5036SOL    HW116007   6.738   3.186   5.175
 5036SOL    HW216008   6.659   3.216   5.035
 5037SOL     OW16009   4.317   4.021   1.160
 5037SOL    HW116010   4.397   4.059   1.206
 5037SOL    HW216011   4.301   4.070   1.075
 5038SOL     OW16012   3.174   3.447   4.033
 5038SOL    HW116013   3.076   3.466   4.026
 5038SOL    HW216014   3.225   3.520   3.988
 5039SOL     OW16015   1.117   3.013   6.979
 5039SOL    HW116016   1.127   3.072   0.036
 5039SOL    HW216017   1.093   3.068   6.899
 5040SOL     OW16018   1.323   5.532   5.993
 5040SOL    HW116019   1.408   5.536   5.942
 5040SOL    HW216020   1.311   5.440   6.030
 5041SOL     OW16021   0.119   2.970   2.061
 5041SOL    HW116022   0.211   2.974   2.099
 5041SOL    HW216023   0.110   3.039   1.988
 5042SOL     OW16024   0.102   3.316   6.060
 5042SOL    HW116025   0.044   3.243   6.095
 5042SOL    HW216026   0.045   3.385   6.015
 5043SOL     OW16027   3.986   0.487   0.809
 5043SOL    HW116028   4.014   0.391   0.812
 5043SOL    HW216029   4.059   0.545   0.844
 5044SOL     OW16030   6.519   5.238   0.486
 5044SOL    HW116031   6.455   5.250   0.410
 5044SOL    HW216032   6.475   5.269   0.571
 5045SOL     OW16033   6.201   3.750   6.211
 5045SOL    HW116034   6.227   3.801   6.130
 5045SOL    HW216035   6.108   3.776   6.239
 5046SOL     OW16036   3.424   3.380   3.846
 5046SOL    HW116037   3.430   3.328   3.761
 5046SOL    HW216038   3.359   3.336   3.908
 5047SOL     OW16039   1.751   3.375   3.376
 5047SOL    HW116040   1.768   3.396   3.279
 5047SOL    HW216041   1.833   3.337   3.417
 5048SOL     OW16042   1.034   1.208   5.910
 5048SOL    HW116043   1.032   1.116   5.872
 5048SOL    HW216044   0.948   1.255   5.890
 5049SOL     OW16045   5.899   0.510   6.157
 5049SOL    HW116046   5.973   0.549   6.212
 5049SOL    HW216047   5.877   0.419   6.191
 5050SOL     OW16048   2.036   0.969   0.566
 5050SOL    HW116049   1.972   1.046   0.575
 5050SOL    HW216050   2.130   1.002   0.572
 5051SOL     OW16051   3.607   4.798   1.400
 5051SOL    HW116052   3.510   4.821   1.404
 5051SOL    HW216053   3.643   4.789   1.493
 5052SOL     OW16054   3.641   1.769   5.327
 5052SOL    HW116055   3.601   1.860   5.318
 5052SOL    HW216056   3.735   1.770   5.295
 5053SOL     OW16057   0.675   5.876   2.434
 5053SOL    HW116058   0.733   5.859   2.354
 5053SOL    HW216059   0.729   5.860   2.517
 5054SOL     OW16060   4.044   4.839   4.655
 5054SOL    HW116061   4.026   4.851   4.753
 5054SOL    HW216062   4.141   4.819   4.641
 5055SOL     OW16063   6.589   2.956   6.572
 5055SOL    HW116064   6.529   2.884   6.607
 5055SOL    HW216065   6.627   3.008   6.648
 5056SOL     OW16066   5.052   3.691   5.108
 5056SOL    HW116067   4.958   3.680   5.074
 5056SOL    HW216068   5.050   3.746   5.192
 5057SOL     OW16069   1.236   6.536   2.925
 5057SOL    HW116070   1.159   6.506   2.868
 5057SOL    HW216071   1.260   6.462   2.988
 5058SOL     OW16072   3.063   4.725   6.629
 5058SOL    HW116073   3.052   4.649   6.694
 5058SOL    HW216074   3.018   4.807   6.667
 5059SOL     OW16075   0.497   0.359   2.976
 5059SOL    HW116076   0.460   0.280   3.024
 5059SOL    HW216077   0.521   0.334   2.882
 5060SOL     OW16078   6.048   1.814   6.300
 5060SOL    HW116079   6.044   1.914   6.292
 5060SOL    HW216080   5.998   1.773   6.224
 5061SOL     OW16081   4.707   3.220   0.001
 5061SOL    HW116082   4.792   3.170   7.006
 5061SOL    HW216083   4.662   3.181   0.081
 5062SOL     OW16084   0.008   0.408   1.420
 5062SOL    HW116085   6.933   0.411   1.396
 5062SOL    HW216086   0.051   0.494   1.394
 5063SOL     OW16087   0.989   6.876   2.110
 5063SOL    HW116088   0.977   6.973   2.088
 5063SOL    HW216089   0.945   6.857   2.197
 5064SOL     OW16090   4.801   3.285   0.322
 5064SOL    HW116091   4.842   3.346   0.391
 5064SOL    HW216092   4.828   3.191   0.341
 5065SOL     OW16093   2.919   6.787   5.513
 5065SOL    HW116094   2.900   6.881   5.485
 5065SOL    HW216095   2.991   6.788   5.583
 5066SOL     OW16096   5.924   4.726   1.274
 5066SOL    HW116097   6.020   4.700   1.271
 5066SOL    HW216098   5.867   4.644   1.267
 5067SOL     OW16099   4.830   0.796   0.417
 5067SOL    HW116100   4.736   0.774   0.442
 5067SOL    HW216101   4.893   0.746   0.478
 5068SOL     OW16102   2.909   4.749   6.884
 5068SOL    HW116103   2.904   4.838   6.929
 5068SOL    HW216104   2.817   4.710   6.876
 5069SOL     OW16105   1.102   4.180   2.573
 5069SOL    HW116106   1.082   4.112   2.644
 5069SOL    HW216107   1.031   4.250   2.573
 5070SOL     OW16108   4.828   3.191   3.903
 5070SOL    HW116109   4.802   3.139   3.984
 5070SOL    HW216110   4.810   3.137   3.821
 5071SOL     OW16111   4.664   2.151   6.081
 5071SOL    HW116112   4.646   2.085   6.154
 5071SOL    HW216113   4.703   2.234   6.120
 5072SOL     OW16114   0.370   4.234   1.308
 5072SOL    HW116115   0.431   4.217   1.232
 5072SOL    HW216116   0.363   4.332   1.325
 5073SOL     OW16117   5.440   0.531   2.686
 5073SOL    HW116118   5.536   0.507   2.699
 5073SOL    HW216119   5.384   0.448   2.696
 5074SOL     OW16120   2.507   4.092   6.652
 5074SOL    HW116121   2.543   4.028   6.584
 5074SOL    HW216122   2.530   4.185   6.626
 5075SOL     OW16123   0.285   5.571   4.825
 5075SOL    HW116124   0.225   5.535   4.897
 5075SOL    HW216125   0.289   5.671   4.833
 5076SOL     OW16126   3.581   0.821   0.849
 5076SOL    HW116127   3.638   0.873   0.913
 5076SOL    HW216128   3.635   0.749   0.805
 5077SOL     OW16129   0.946   2.525   3.577
 5077SOL    HW116130   1.014   2.523   3.650
 5077SOL    HW216131   0.941   2.435   3.533
 5078SOL     OW16132   1.943   2.008   4.473
 5078SOL    HW116133   1.901   1.967   4.393
 5078SOL    HW216134   1.968   1.937   4.539
 5079SOL     OW16135   3.605   5.040   5.579
 5079SOL    HW116136   3.570   5.058   5.671
 5079SOL    HW216137   3.543   4.978   5.531
 5080SOL     OW16138   5.466   6.785   5.750
 5080SOL    HW116139   5.452   6.883   5.765
 5080SOL    HW216140   5.458   6.765   5.652
 5081SOL     OW16141   3.504   3.573   3.539
 5081SOL    HW116142   3.599   3.541   3.548
 5081SOL    HW216143   3.499   3.669   3.564
 5082SOL     OW16144   5.201   5.934   5.515
 5082SOL    HW116145   5.177   5.841   5.540
 5082SOL    HW216146   5.159   5.998   5.579
 5083SOL     OW16147   1.746   6.827   2.089
 5083SOL    HW116148   1.826   6.770   2.110
 5083SOL    HW216149   1.772   6.897   2.023
 5084SOL     OW16150   1.290   5.899   4.234
 5084SOL    HW116151   1.216   5.845   4.275
 5084SOL    HW216152   1.274   5.907   4.135
 5085SOL     OW16153   5.604   1.890   6.556
 5085SOL    HW116154   5.604   1.930   6.647
 5085SOL    HW216155   5.698   1.882   6.523
 5086SOL     OW16156   6.473   5.008   3.602
 5086SOL    HW116157   6.384   5.049   3.584
 5086SOL    HW216158   6.541   5.081   3.617
 5087SOL     OW16159   6.871   5.658   5.344
 5087SOL    HW116160   6.854   5.722   5.269
 5087SOL    HW216161   6.784   5.616   5.371
 5088SOL     OW16162   6.000   0.696   5.980
 5088SOL    HW116163   5.944   0.640   6.043
 5088SOL    HW216164   5.948   0.777   5.953
 5089SOL     OW16165   5.561   3.734   2.727
 5089SOL    HW116166   5.613   3.648   2.723
 5089SOL    HW216167   5.464   3.714   2.717
 5090SOL     OW16168   1.873   5.504   1.218
 5090SOL    HW116169   1.968   5.528   1.198
 5090SOL    HW216170   1.865   5.478   1.315
 5091SOL     OW16171   1.022   6.444   2.767
 5091SOL    HW116172   0.958   6.475   2.697
 5091SOL    HW216173   0.982   6.368   2.817
 5092SOL     OW16174   4.024   2.244   1.111
 5092SOL    HW116175   4.060   2.237   1.204
 5092SOL    HW216176   3.926   2.227   1.111
 5093SOL     OW16177   1.570   2.000   2.174
 5093SOL    HW116178   1.555   2.017   2.272
 5093SOL    HW216179   1.481   2.000   2.127
 5094SOL     OW16180   0.623   6.309   4.671
 5094SOL    HW116181   0.544   6.341   4.620
 5094SOL    HW216182   0.674   6.388   4.705
 5095SOL     OW16183   2.928   0.529   5.150
 5095SOL    HW116184   2.936   0.624   5.182
 5095SOL    HW216185   3.005   0.476   5.185
 5096SOL     OW16186   4.840   3.734   0.599
 5096SOL    HW116187   4.873   3.645   0.569
 5096SOL    HW216188   4.845   3.739   0.699
 5097SOL     OW16189   1.504   6.452   5.905
 5097SOL    HW116190   1.459   6.385   5.964
 5097SOL    HW216191   1.500   6.542   5.948
 5098SOL     OW16192   0.060   1.758   2.883
 5098SOL    HW116193   0.014   1.705   2.955
 5098SOL    HW216194   0.156   1.768   2.907
 5099SOL     OW16195   1.400   0.411   5.434
 5099SOL    HW116196   1.315   0.378   5.393
 5099SOL    HW216197   1.384   0.434   5.530
 5100SOL     OW16198   5.857   6.153   0.164
 5100SOL    HW116199   5.788   6.115   0.226
 5100SOL    HW216200   5.915   6.079   0.130
 5101SOL     OW16201   4.148   6.315   0.187
 5101SOL    HW116202   4.062   6.279   0.224
 5101SOL    HW216203   4.159   6.285   0.092
 5102SOL     OW16204   3.941   6.418   4.817
 5102SOL    HW116205   3.969   6.473   4.896
 5102SOL    HW216206   3.842   6.408   4.816
 5103SOL     OW16207   0.133   0.284   3.960
 5103SOL    HW116208   0.095   0.332   3.881
 5103SOL    HW216209   0.182   0.203   3.929
 5104SOL     OW16210   1.191   0.831   1.460
 5104SOL    HW116211   1.144   0.881   1.532
 5104SOL    HW216212   1.203   0.736   1.488
 5105SOL     OW16213   3.255   3.939   6.461
 5105SOL    HW116214   3.329   3.996   6.499
 5105SOL    HW216215   3.168   3.965   6.503
 5106SOL     OW16216   3.441   0.927   2.252
 5106SOL    HW116217   3.517   0.917   2.187
 5106SOL    HW216218   3.473   0.904   2.344
 5107SOL     OW16219   2.333   6.867   6.118
 5107SOL    HW116220   2.245   6.830   6.087
 5107SOL    HW216221   2.390   6.886   6.038
 5108SOL     OW16222   2.992   3.826   4.326
 5108SOL    HW116223   3.056   3.826   4.402
 5108SOL    HW216224   2.939   3.911   4.327
 5109SOL     OW16225   0.116   1.106   1.381
 5109SOL    HW116226   0.172   1.150   1.451
 5109SOL    HW216227   0.038   1.164   1.359
 5110SOL     OW16228   1.887   5.594   5.745
 5110SOL    HW116229   1.831   5.511   5.751
 5110SOL    HW216230   1.962   5.589   5.810
 5111SOL     OW16231   1.977   1.318   0.346
 5111SOL    HW116232   2.064   1.276   0.371
 5111SOL    HW216233   1.986   1.364   0.258
 5112SOL     OW16234   0.429   5.897   3.813
 5112SOL    HW116235   0.484   5.894   3.730
 5112SOL    HW216236   0.487   5.881   3.893
 5113SOL     OW16237   1.558   0.901   6.758
 5113SOL    HW116238   1.493   0.879   6.831
 5113SOL    HW216239   1.523   0.977   6.703
 5114SOL     OW16240   3.510   4.819   6.485
 5114SOL    HW116241   3.592   4.765   6.469
 5114SOL    HW216242   3.444   4.764   6.536
 5115SOL     OW16243   1.299   3.265   5.373
 5115SOL    HW116244   1.271   3.361   5.380
 5115SOL    HW216245   1.346   3.250   5.286
 5116SOL     OW16246   6.285   4.622   0.581
 5116SOL    HW116247   6.282   4.550   0.512
 5116SOL    HW216248   6.380   4.638   0.608
 5117SOL     OW16249   2.244   4.542   4.545
 5117SOL    HW116250   2.229   4.447   4.574
 5117SOL    HW216251   2.179   4.602   4.592
 5118SOL     OW16252   4.342   6.214   0.559
 5118SOL    HW116253   4.321   6.119   0.584
 5118SOL    HW216254   4.315   6.275   0.633
 5119SOL     OW16255   5.669   0.222   2.088
 5119SOL    HW116256   5.705   0.197   1.998
 5119SOL    HW216257   5.742   0.260   2.144
 5120SOL     OW16258   4.798   1.870   2.568
 5120SOL    HW116259   4.834   1.963   2.575
 5120SOL    HW216260   4.788   1.831   2.659
 5121SOL     OW16261   0.228   3.429   5.086
 5121SOL    HW116262   0.225   3.336   5.121
 5121SOL    HW216263   0.165   3.487   5.138
 5122SOL     OW16264   2.283   6.991   3.717
 5122SOL    HW116265   2.259   6.952   3.628
 5122SOL    HW216266   2.353   6.935   3.761
 5123SOL     OW16267   5.115   4.841   2.063
 5123SOL    HW116268   5.151   4.768   2.005
 5123SOL    HW216269   5.190   4.902   2.091
 5124SOL     OW16270   2.954   6.306   6.785
 5124SOL    HW116271   2.947   6.260   6.696
 5124SOL    HW216272   2.996   6.244   6.851
 5125SOL     OW16273   0.515   2.586   4.461
 5125SOL    HW116274   0.456   2.509   4.438
 5125SOL    HW216275   0.513   2.653   4.387
 5126SOL     OW16276   5.981   3.950   6.537
 5126SOL    HW116277   5.946   4.039   6.567
 5126SOL    HW216278   6.028   3.905   6.612
 5127SOL     OW16279   5.816   3.048   6.722
 5127SOL    HW116280   5.913   3.056   6.744
 5127SOL    HW216281   5.791   3.117   6.654
 5128SOL     OW16282   0.103   0.593   6.844
 5128SOL    HW116283   0.051   0.675   6.864
 5128SOL    HW216284   0.040   0.516   6.829
 5129SOL     OW16285   4.296   2.049   2.344
 5129SOL    HW116286   4.377   2.098   2.374
 5129SOL    HW216287   4.289   1.962   2.392
 5130SOL     OW16288   0.863   5.876   4.020
 5130SOL    HW116289   0.897   5.879   4.113
 5130SOL    HW216290   0.764   5.860   4.021
 5131SOL     OW16291   2.949   4.850   3.768
 5131SOL    HW116292   3.020   4.854   3.698
 5131SOL    HW216293   2.988   4.871   3.857
 5132SOL     OW16294   3.641   1.757   6.693
 5132SOL    HW116295   3.650   1.795   6.785
 5132SOL    HW216296   3.610   1.662   6.699
 5133SOL     OW16297   4.415   4.363   6.371
 5133SOL    HW116298   4.423   4.452   6.326
 5133SOL    HW216299   4.427   4.290   6.304
 5134SOL     OW16300   6.817   5.751   1.182
 5134SOL    HW116301   6.869   5.829   1.148
 5134SOL    HW216302   6.733   5.784   1.226
 5135SOL     OW16303   6.691   3.141   2.079
 5135SOL    HW116304   6.633   3.078   2.026
 5135SOL    HW216305   6.633   3.210   2.123
 5136SOL     OW16306   0.983   0.670   5.965
 5136SOL    HW116307   0.961   0.582   6.008
 5136SOL    HW216308   0.972   0.743   6.032
 5137SOL     OW16309   5.601   0.911   4.649
 5137SOL    HW116310   5.654   0.827   4.633
 5137SOL    HW216311   5.578   0.953   4.561
 5138SOL     OW16312   3.530   2.983   3.693
 5138SOL    HW116313   3.507   2.958   3.787
 5138SOL    HW216314   3.516   3.081   3.680
 5139SOL     OW16315   2.322   0.256   4.736
 5139SOL    HW116316   2.367   0.299   4.657
 5139SOL    HW216317   2.243   0.312   4.763
 5140SOL     OW16318   4.312   2.368   6.723
 5140SOL    HW116319   4.309   2.323   6.633
 5140SOL    HW216320   4.223   2.410   6.742
 5141SOL     OW16321   6.237   2.951   1.813
 5141SOL    HW116322   6.249   2.961   1.912
 5141SOL    HW216323   6.279   2.865   1.783
 5142SOL     OW16324   0.054   0.333   2.775
 5142SOL    HW116325   7.010   0.400   2.806
 5142SOL    HW216326   0.008   0.246   2.756
 5143SOL     OW16327   0.458   5.821   3.109
 5143SOL    HW116328   0.430   5.911   3.075
 5143SOL    HW216329   0.516   5.833   3.189
 5144SOL     OW16330   2.729   2.797   5.436
 5144SOL    HW116331   2.700   2.877   5.385
 5144SOL    HW216332   2.814   2.816   5.484
 5145SOL     OW16333   2.466   6.111   0.062
 5145SOL    HW116334   2.517   6.110   6.998
 5145SOL    HW216335   2.404   6.190   0.063
 5146SOL     OW16336   4.929   4.982   6.230
 5146SOL    HW116337   5.006   5.043   6.247
 5146SOL    HW216338   4.960   4.902   6.179
 5147SOL     OW16339   4.680   2.708   3.683
 5147SOL    HW116340   4.704   2.748   3.771
 5147SOL    HW216341   4.686   2.609   3.688
 5148SOL     OW16342   0.912   0.027   0.191
 5148SOL    HW116343   0.836   0.071   0.239
 5148SOL    HW216344   0.893   0.025   0.093
 5149SOL     OW16345   5.034   4.873   3.586
 5149SOL    HW116346   5.031   4.950   3.521
 5149SOL    HW216347   4.972   4.801   3.555
 5150SOL     OW16348   0.222   5.822   3.946
 5150SOL    HW116349   0.150   5.777   3.892
 5150SOL    HW216350   0.298   5.846   3.886
 5151SOL     OW16351   6.100   5.106   1.455
 5151SOL    HW116352   6.151   5.104   1.369
 5151SOL    HW216353   6.163   5.086   1.531
 5152SOL     OW16354   1.038   1.424   6.859
 5152SOL    HW116355   1.114   1.485   6.837
 5152SOL    HW216356   1.069   1.354   6.923
 5153SOL     OW16357   1.281   1.990   0.876
 5153SOL    HW116358   1.188   1.960   0.896
 5153SOL    HW216359   1.305   1.967   0.782
 5154SOL     OW16360   6.872   2.825   0.075
 5154SOL    HW116361   6.886   2.892   0.003
 5154SOL    HW216362   6.792   2.851   0.129
 5155SOL     OW16363   1.735   1.293   1.032
 5155SOL    HW116364   1.701   1.284   1.126
 5155SOL    HW216365   1.675   1.354   0.981
 5156SOL     OW16366   5.520   5.817   5.502
 5156SOL    HW116367   5.565   5.731   5.480
 5156SOL    HW216368   5.428   5.800   5.536
 5157SOL     OW16369   3.527   0.056   1.207
 5157SOL    HW116370   3.443   0.104   1.232
 5157SOL    HW216371   3.505   6.985   1.180
 5158SOL     OW16372   2.357   2.005   2.227
 5158SOL    HW116373   2.366   2.062   2.308
 5158SOL    HW216374   2.260   1.998   2.202
 5159SOL     OW16375   6.394   3.139   5.288
 5159SOL    HW116376   6.320   3.144   5.355
 5159SOL    HW216377   6.384   3.214   5.223
 5160SOL     OW16378   6.419   6.242   3.512
 5160SOL    HW116379   6.329   6.260   3.472
 5160SOL    HW216380   6.491   6.266   3.446
 5161SOL     OW16381   0.797   3.522   0.459
 5161SOL    HW116382   0.807   3.509   0.360
 5161SOL    HW216383   0.862   3.591   0.490
 5162SOL     OW16384   0.353   6.670   3.681
 5162SOL    HW116385   0.437   6.679   3.628
 5162SOL    HW216386   0.308   6.583   3.657
 5163SOL     OW16387   3.032   6.874   1.874
 5163SOL    HW116388   3.036   6.785   1.829
 5163SOL    HW216389   3.119   6.922   1.859
 5164SOL     OW16390   3.404   3.823   0.589
 5164SOL    HW116391   3.411   3.923   0.582
 5164SOL    HW216392   3.455   3.781   0.515
 5165SOL     OW16393   1.578   4.348   6.801
 5165SOL    HW116394   1.601   4.431   6.852
 5165SOL    HW216395   1.528   4.285   6.860
 5166SOL     OW16396   1.663   5.956   1.692
 5166SOL    HW116397   1.730   6.030   1.684
 5166SOL    HW216398   1.574   5.986   1.658
 5167SOL     OW16399   5.299   2.514   4.941
 5167SOL    HW116400   5.256   2.563   4.865
 5167SOL    HW216401   5.239   2.441   4.972
 5168SOL     OW16402   4.393   2.425   2.340
 5168SOL    HW116403   4.302   2.390   2.322
 5168SOL    HW216404   4.413   2.419   2.437
 5169SOL     OW16405   4.186   6.216   3.899
 5169SOL    HW116406   4.141   6.305   3.904
 5169SOL    HW216407   4.277   6.226   3.859
 5170SOL     OW16408   1.504   3.429   6.409
 5170SOL    HW116409   1.590   3.441   6.458
 5170SOL    HW216410   1.522   3.424   6.311
 5171SOL     OW16411   1.783   5.762   5.452
 5171SOL    HW116412   1.714   5.690   5.456
 5171SOL    HW216413   1.873   5.722   5.438
 5172SOL     OW16414   6.514   5.125   4.545
 5172SOL    HW116415   6.474   5.054   4.603
 5172SOL    HW216416   6.590   5.168   4.594
 5173SOL     OW16417   4.450   4.167   5.544
 5173SOL    HW116418   4.375   4.105   5.568
 5173SOL    HW216419   4.423   4.261   5.561
 5174SOL     OW16420   2.543   6.240   3.506
 5174SOL    HW116421   2.618   6.301   3.481
 5174SOL    HW216422   2.476   6.291   3.561
 5175SOL     OW16423   3.126   3.878   0.036
 5175SOL    HW116424   3.081   3.796   0.072
 5175SOL    HW216425   3.127   3.875   6.959
 5176SOL     OW16426   5.671   6.029   0.317
 5176SOL    HW116427   5.591   6.008   0.373
 5176SOL    HW216428   5.754   6.003   0.365
 5177SOL     OW16429   5.732   0.234   0.401
 5177SOL    HW116430   5.798   0.265   0.469
 5177SOL    HW216431   5.711   0.137   0.417
 5178SOL     OW16432   0.784   4.573   1.710
 5178SOL    HW116433   0.792   4.555   1.809
 5178SOL    HW216434   0.722   4.505   1.670
 5179SOL     OW16435   5.716   5.239   2.706
 5179SOL    HW116436   5.620   5.262   2.720
 5179SOL    HW216437   5.763   5.233   2.794
 5180SOL     OW16438   2.399   6.891   2.542
 5180SOL    HW116439   2.391   6.986   2.513
 5180SOL    HW216440   2.418   6.833   2.463
 5181SOL     OW16441   0.390   0.420   6.037
 5181SOL    HW116442   0.402   0.341   5.977
 5181SOL    HW216443   0.418   0.503   5.989
 5182SOL     OW16444   3.160   5.190   3.293
 5182SOL    HW116445   3.142   5.193   3.391
 5182SOL    HW216446   3.081   5.154   3.245
 5183SOL     OW16447   3.937   1.754   3.762
 5183SOL    HW116448   3.854   1.699   3.749
 5183SOL    HW216449   3.977   1.776   3.674
 5184SOL     OW16450   2.908   0.875   3.907
 5184SOL    HW116451   2.899   0.795   3.967
 5184SOL    HW216452   2.909   0.958   3.963
 5185SOL     OW16453   6.272   0.618   1.599
 5185SOL    HW116454   6.261   0.578   1.690
 5185SOL    HW216455   6.198   0.585   1.539
 5186SOL     OW16456   6.850   3.269   6.573
 5186SOL    HW116457   6.833   3.254   6.475
 5186SOL    HW216458   6.822   3.187   6.624
 5187SOL     OW16459   1.829   4.742   5.419
 5187SOL    HW116460   1.835   4.657   5.367
 5187SOL    HW216461   1.801   4.816   5.359
 5188SOL     OW16462   6.159   6.603   2.128
 5188SOL    HW116463   6.157   6.514   2.174
 5188SOL    HW216464   6.245   6.612   2.077
 5189SOL     OW16465   5.417   6.786   6.506
 5189SOL    HW116466   5.424   6.878   6.544
 5189SOL    HW216467   5.496   6.767   6.447
 5190SOL     OW16468   1.210   4.142   0.597
 5190SOL    HW116469   1.304   4.129   0.567
 5190SOL    HW216470   1.154   4.170   0.519
 5191SOL     OW16471   3.346   4.905   2.659
 5191SOL    HW116472   3.339   5.003   2.676
 5191SOL    HW216473   3.442   4.876   2.668
 5192SOL     OW16474   2.054   5.004   2.345
 5192SOL    HW116475   2.009   4.947   2.277
 5192SOL    HW216476   2.151   4.978   2.352
 5193SOL     OW16477   5.345   0.238   6.150
 5193SOL    HW116478   5.261   0.201   6.191
 5193SOL    HW216479   5.424   0.207   6.203
 5194SOL     OW16480   5.293   2.269   6.421
 5194SOL    HW116481   5.290   2.170   6.419
 5194SOL    HW216482   5.332   2.303   6.335
 5195SOL     OW16483   6.995   0.314   4.612
 5195SOL    HW116484   6.934   0.254   4.560
 5195SOL    HW216485   0.067   0.283   4.602
 5196SOL     OW16486   5.539   5.974   2.615
 5196SOL    HW116487   5.635   6.003   2.608
 5196SOL    HW216488   5.523   5.899   2.551
 5197SOL     OW16489   1.320   3.919   5.446
 5197SOL    HW116490   1.220   3.919   5.440
 5197SOL    HW216491   1.357   3.856   5.378
 5198SOL     OW16492   6.034   5.502   2.611
 5198SOL    HW116493   6.027   5.540   2.703
 5198SOL    HW216494   6.048   5.577   2.545
 5199SOL     OW16495   6.915   4.530   1.066
 5199SOL    HW116496   6.938   4.567   1.157
 5199SOL    HW216497   6.990   4.473   1.034
 5200SOL     OW16498   0.194   4.140   5.019
 5200SOL    HW116499   0.165   4.171   4.929
 5200SOL    HW216500   0.290   4.165   5.034
 5201SOL     OW16501   1.655   5.055   3.826
 5201SOL    HW116502   1.666   5.135   3.766
 5201SOL    HW216503   1.738   5.041   3.879
 5202SOL     OW16504   0.235   4.726   1.109
 5202SOL    HW116505   0.272   4.723   1.016
 5202SOL    HW216506   0.207   4.634   1.136
 5203SOL     OW16507   1.070   2.528   0.189
 5203SOL    HW116508   1.025   2.460   0.131
 5203SOL    HW216509   1.087   2.611   0.136
 5204SOL     OW16510   4.628   4.987   0.066
 5204SOL    HW116511   4.570   4.972   7.009
 5204SOL    HW216512   4.707   4.926   0.062
 5205SOL     OW16513   1.522   0.373   1.852
 5205SOL    HW116514   1.479   0.454   1.811
 5205SOL    HW216515   1.587   0.333   1.787
 5206SOL     OW16516   0.343   4.276   6.246
 5206SOL    HW116517   0.283   4.341   6.293
 5206SOL    HW216518   0.338   4.291   6.147
 5207SOL     OW16519   1.949   4.585   4.273
 5207SOL    HW116520   1.856   4.617   4.254
 5207SOL    HW216521   1.944   4.496   4.320
 5208SOL     OW16522   3.565   1.466   6.649
 5208SOL    HW116523   3.484   1.432   6.601
 5208SOL    HW216524   3.647   1.435   6.601
 5209SOL     OW16525   5.573   6.251   3.030
 5209SOL    HW116526   5.552   6.204   3.116
 5209SOL    HW216527   5.489   6.285   2.989
 5210SOL     OW16528   5.036   5.022   3.944
 5210SOL    HW116529   5.098   4.945   3.934
 5210SOL    HW216530   5.017   5.061   3.853
 5211SOL     OW16531   4.086   3.482   3.415
 5211SOL    HW116532   4.033   3.417   3.362
 5211SOL    HW216533   4.131   3.435   3.492
 5212SOL     OW16534   1.101   2.275   0.659
 5212SOL    HW116535   1.180   2.254   0.601
 5212SOL    HW216536   1.034   2.201   0.651
 5213SOL     OW16537   4.425   2.474   6.020
 5213SOL    HW116538   4.490   2.433   5.955
 5213SOL    HW216539   4.380   2.401   6.072
 5214SOL     OW16540   5.285   1.330   5.266
 5214SOL    HW116541   5.268   1.234   5.287
 5214SOL    HW216542   5.379   1.354   5.292
 5215SOL     OW16543   5.050   4.959   2.711
 5215SOL    HW116544   5.083   4.976   2.618
 5215SOL    HW216545   4.953   4.982   2.716
 5216SOL     OW16546   4.798   4.945   0.744
 5216SOL    HW116547   4.785   4.948   0.843
 5216SOL    HW216548   4.869   4.878   0.722
 5217SOL     OW16549   2.268   5.068   4.280
 5217SOL    HW116550   2.243   4.984   4.232
 5217SOL    HW216551   2.355   5.054   4.328
 5218SOL     OW16552   1.683   6.683   3.685
 5218SOL    HW116553   1.705   6.590   3.713
 5218SOL    HW216554   1.765   6.740   3.688
 5219SOL     OW16555   3.469   6.900   6.522
 5219SOL    HW116556   3.552   6.901   6.577
 5219SOL    HW216557   3.402   6.839   6.566
 5220SOL     OW16558   0.705   6.460   2.934
 5220SOL    HW116559   0.705   6.481   2.837
 5220SOL    HW216560   0.796   6.474   2.971
 5221SOL     OW16561   5.048   1.271   4.829
 5221SOL    HW116562   5.141   1.279   4.864
 5221SOL    HW216563   5.047   1.287   4.730
 5222SOL     OW16564   1.608   0.443   3.685
 5222SOL    HW116565   1.622   0.502   3.605
 5222SOL    HW216566   1.560   0.494   3.756
 5223SOL     OW16567   4.944   0.446   1.091
 5223SOL    HW116568   4.940   0.434   1.190
 5223SOL    HW216569   4.897   0.531   1.066
 5224SOL     OW16570   5.712   1.699   2.187
 5224SOL    HW116571   5.657   1.767   2.138
 5224SOL    HW216572   5.656   1.618   2.204
 5225SOL     OW16573   5.997   5.999   4.601
 5225SOL    HW116574   6.017   6.040   4.511
 5225SOL    HW216575   5.917   5.939   4.593
 5226SOL     OW16576   1.320   6.309   4.213
 5226SOL    HW116577   1.373   6.237   4.257
 5226SOL    HW216578   1.346   6.315   4.116
 5227SOL     OW16579   5.948   4.530   3.025
 5227SOL    HW116580   5.854   4.545   3.054
 5227SOL    HW216581   6.008   4.535   3.105
 5228SOL     OW16582   5.506   1.552   0.634
 5228SOL    HW116583   5.478   1.596   0.548
 5228SOL    HW216584   5.544   1.621   0.696
 5229SOL     OW16585   1.063   3.874   5.389
 5229SOL    HW116586   1.053   3.801   5.457
 5229SOL    HW216587   1.023   3.958   5.424
 5230SOL     OW16588   0.180   0.316   0.132
 5230SOL    HW116589   0.202   0.394   0.074
 5230SOL    HW216590   0.146   0.241   0.076
 5231SOL     OW16591   4.085   3.254   3.958
 5231SOL    HW116592   4.004   3.245   3.900
 5231SOL    HW216593   4.124   3.164   3.976
 5232SOL     OW16594   4.537   2.428   6.833
 5232SOL    HW116595   4.454   2.434   6.779
 5232SOL    HW216596   4.553   2.333   6.860
 5233SOL     OW16597   1.268   0.096   2.442
 5233SOL    HW116598   1.170   0.113   2.450
 5233SOL    HW216599   1.299   0.045   2.522
 5234SOL     OW16600   3.681   6.519   0.677
 5234SOL    HW116601   3.651   6.524   0.582
 5234SOL    HW216602   3.743   6.595   0.697
 5235SOL     OW16603   0.883   2.952   0.909
 5235SOL    HW116604   0.906   2.862   0.946
 5235SOL    HW216605   0.811   2.943   0.840
 5236SOL     OW16606   5.389   3.496   0.752
 5236SOL    HW116607   5.294   3.527   0.755
 5236SOL    HW216608   5.413   3.453   0.839
 5237SOL     OW16609   2.496   2.185   5.277
 5237SOL    HW116610   2.566   2.232   5.330
 5237SOL    HW216611   2.439   2.252   5.229
 5238SOL     OW16612   2.074   4.769   1.001
 5238SOL    HW116613   2.042   4.840   1.063
 5238SOL    HW216614   2.174   4.771   0.997
 5239SOL     OW16615   3.183   3.000   3.591
 5239SOL    HW116616   3.242   2.925   3.560
 5239SOL    HW216617   3.196   3.014   3.689
 5240SOL     OW16618   3.524   2.136   5.049
 5240SOL    HW116619   3.477   2.048   5.054
 5240SOL    HW216620   3.457   2.209   5.034
 5241SOL     OW16621   1.774   6.162   6.762
 5241SOL    HW116622   1.821   6.177   6.849
 5241SOL    HW216623   1.699   6.097   6.775
 5242SOL     OW16624   5.914   1.232   5.570
 5242SOL    HW116625   5.979   1.209   5.642
 5242SOL    HW216626   5.871   1.320   5.592
 5243SOL     OW16627   1.710   5.180   0.981
 5243SOL    HW116628   1.620   5.220   0.969
 5243SOL    HW216629   1.706   5.108   1.051
 5244SOL     OW16630   5.236   4.587   5.193
 5244SOL    HW116631   5.253   4.602   5.290
 5244SOL    HW216632   5.249   4.491   5.171
 5245SOL     OW16633   4.687   4.116   6.824
 5245SOL    HW116634   4.597   4.149   6.796
 5245SOL    HW216635   4.685   4.016   6.833
 5246SOL     OW16636   1.384   3.503   2.767
 5246SOL    HW116637   1.434   3.429   2.721
 5246SOL    HW216638   1.370   3.578   2.703
 5247SOL     OW16639   0.637   5.286   0.935
 5247SOL    HW116640   0.538   5.297   0.926
 5247SOL    HW216641   0.675   5.254   0.849
 5248SOL     OW16642   5.155   0.754   5.868
 5248SOL    HW116643   5.160   0.659   5.898
 5248SOL    HW216644   5.128   0.757   5.771
 5249SOL     OW16645   0.938   4.945   4.793
 5249SOL    HW116646   0.947   4.883   4.715
 5249SOL    HW216647   0.891   5.028   4.764
 5250SOL     OW16648   0.638   1.566   6.388
 5250SOL    HW116649   0.687   1.480   6.397
 5250SOL    HW216650   0.665   1.612   6.304
 5251SOL     OW16651   6.245   3.052   1.222
 5251SOL    HW116652   6.267   2.954   1.223
 5251SOL    HW216653   6.317   3.103   1.268
 5252SOL     OW16654   4.027   5.766   0.499
 5252SOL    HW116655   4.014   5.832   0.425
 5252SOL    HW216656   4.047   5.814   0.584
 5253SOL     OW16657   5.635   3.759   3.889
 5253SOL    HW116658   5.540   3.744   3.864
 5253SOL    HW216659   5.694   3.732   3.813
 5254SOL     OW16660   4.454   0.738   3.808
 5254SOL    HW116661   4.527   0.679   3.773
 5254SOL    HW216662   4.447   0.820   3.752
 5255SOL     OW16663   2.941   6.429   4.931
 5255SOL    HW116664   2.956   6.345   4.879
 5255SOL    HW216665   2.861   6.417   4.990
 5256SOL     OW16666   5.368   6.865   3.715
 5256SOL    HW116667   5.338   6.833   3.805
 5256SOL    HW216668   5.464   6.893   3.720
 5257SOL     OW16669   3.948   6.994   0.355
 5257SOL    HW116670   3.917   0.061   0.323
 5257SOL    HW216671   4.018   7.005   0.425
 5258SOL     OW16672   5.072   4.213   2.470
 5258SOL    HW116673   5.005   4.195   2.398
 5258SOL    HW216674   5.037   4.286   2.530
 5259SOL     OW16675   4.649   5.286   2.659
 5259SOL    HW116676   4.679   5.197   2.691
 5259SOL    HW216677   4.550   5.283   2.642
 5260SOL     OW16678   5.589   3.419   1.456
 5260SOL    HW116679   5.598   3.495   1.391
 5260SOL    HW216680   5.527   3.445   1.530
 5261SOL     OW16681   1.064   2.558   4.525
 5261SOL    HW116682   1.072   2.468   4.568
 5261SOL    HW216683   1.114   2.626   4.579
 5262SOL     OW16684   3.051   6.583   1.742
 5262SOL    HW116685   3.109   6.501   1.745
 5262SOL    HW216686   2.961   6.562   1.781
 5263SOL     OW16687   1.517   6.962   6.426
 5263SOL    HW116688   1.534   6.869   6.459
 5263SOL    HW216689   1.514   6.961   6.326
 5264SOL     OW16690   0.285   2.227   0.843
 5264SOL    HW116691   0.249   2.149   0.895
 5264SOL    HW216692   0.256   2.219   0.747
 5265SOL     OW16693   5.223   4.788   1.546
 5265SOL    HW116694   5.134   4.753   1.574
 5265SOL    HW216695   5.255   4.738   1.466
 5266SOL     OW16696   1.578   6.797   1.794
 5266SOL    HW116697   1.486   6.776   1.760
 5266SOL    HW216698   1.591   6.755   1.883
 5267SOL     OW16699   4.890   4.876   5.047
 5267SOL    HW116700   4.990   4.875   5.050
 5267SOL    HW216701   4.860   4.915   4.960
 5268SOL     OW16702   5.936   5.360   5.393
 5268SOL    HW116703   5.945   5.408   5.480
 5268SOL    HW216704   5.913   5.427   5.322
 5269SOL     OW16705   1.950   5.634   4.178
 5269SOL    HW116706   2.006   5.643   4.261
 5269SOL    HW216707   2.003   5.589   4.107
 5270SOL     OW16708   6.165   2.465   1.856
 5270SOL    HW116709   6.083   2.424   1.896
 5270SOL    HW216710   6.245   2.409   1.877
 5271SOL     OW16711   5.322   4.231   4.788
 5271SOL    HW116712   5.301   4.321   4.750
 5271SOL    HW216713   5.249   4.168   4.766
 5272SOL     OW16714   0.603   0.024   4.658
 5272SOL    HW116715   0.635   6.954   4.641
 5272SOL    HW216716   0.681   0.086   4.668
 5273SOL     OW16717   0.759   1.269   3.756
 5273SOL    HW116718   0.759   1.260   3.855
 5273SOL    HW216719   0.671   1.239   3.719
 5274SOL     OW16720   6.824   5.036   3.975
 5274SOL    HW116721   6.904   5.012   4.031
 5274SOL    HW216722   6.841   5.122   3.928
 5275SOL     OW16723   2.486   0.315   6.852
 5275SOL    HW116724   2.398   0.282   6.886
 5275SOL    HW216725   2.472   0.371   6.771
 5276SOL     OW16726   0.098   6.698   1.533
 5276SOL    HW116727   0.040   6.701   1.452
 5276SOL    HW216728   0.127   6.791   1.557
 5277SOL     OW16729   0.970   1.596   3.317
 5277SOL    HW116730   1.033   1.518   3.316
 5277SOL    HW216731   1.010   1.670   3.372
 5278SOL     OW16732   0.767   5.453   5.666
 5278SOL    HW116733   0.724   5.379   5.615
 5278SOL    HW216734   0.806   5.519   5.601
 5279SOL     OW16735   1.660   5.686   6.378
 5279SOL    HW116736   1.731   5.751   6.406
 5279SOL    HW216737   1.686   5.645   6.291
 5280SOL     OW16738   4.142   5.742   4.485
 5280SOL    HW116739   4.159   5.838   4.508
 5280SOL    HW216740   4.046   5.730   4.460
 5281SOL     OW16741   2.191   0.390   4.951
 5281SOL    HW116742   2.183   0.489   4.948
 5281SOL    HW216743   2.104   0.350   4.983
 5282SOL     OW16744   1.333   0.439   2.555
 5282SOL    HW116745   1.254   0.399   2.602
 5282SOL    HW216746   1.383   0.367   2.506
 5283SOL     OW16747   7.016   1.063   4.195
 5283SOL    HW116748   6.936   1.096   4.146
 5283SOL    HW216749   0.030   1.136   4.253
 5284SOL     OW16750   5.179   2.191   1.954
 5284SOL    HW116751   5.233   2.202   1.870
 5284SOL    HW216752   5.114   2.116   1.941
 5285SOL     OW16753   0.685   2.627   3.619
 5285SOL    HW116754   0.774   2.584   3.620
 5285SOL    HW216755   0.639   2.613   3.707
 5286SOL     OW16756   6.292   2.775   1.173
 5286SOL    HW116757   6.245   2.693   1.140
 5286SOL    HW216758   6.391   2.765   1.158
 5287SOL     OW16759   2.864   4.861   1.521
 5287SOL    HW116760   2.948   4.814   1.494
 5287SOL    HW216761   2.815   4.805   1.588
 5288SOL     OW16762   5.269   0.796   2.483
 5288SOL    HW116763   5.177   0.833   2.468
 5288SOL    HW216764   5.319   0.795   2.396
 5289SOL     OW16765   1.812   4.979   6.357
 5289SOL    HW116766   1.868   4.976   6.440
 5289SOL    HW216767   1.828   4.896   6.303
 5290SOL     OW16768   1.600   3.103   5.617
 5290SOL    HW116769   1.683   3.130   5.569
 5290SOL    HW216770   1.536   3.061   5.552
 5291SOL     OW16771   2.601   4.679   5.181
 5291SOL    HW116772   2.691   4.648   5.151
 5291SOL    HW216773   2.606   4.775   5.209
 5292SOL     OW16774   6.553   4.224   6.551
 5292SOL    HW116775   6.599   4.306   6.585
 5292SOL    HW216776   6.456   4.226   6.577
 5293SOL     OW16777   2.056   5.580   4.654
 5293SOL    HW116778   1.967   5.584   4.698
 5293SOL    HW216779   2.077   5.485   4.629
 5294SOL     OW16780   4.062   0.717   5.288
 5294SOL    HW116781   3.979   0.662   5.281
 5294SOL    HW216782   4.100   0.733   5.197
 5295SOL     OW16783   3.215   0.889   2.099
 5295SOL    HW116784   3.148   0.963   2.090
 5295SOL    HW216785   3.295   0.923   2.147
 5296SOL     OW16786   4.137   4.369   1.064
 5296SOL    HW116787   4.164   4.289   1.010
 5296SOL    HW216788   4.107   4.340   1.155
 5297SOL     OW16789   2.344   4.441   0.378
 5297SOL    HW116790   2.310   4.392   0.298
 5297SOL    HW216791   2.435   4.408   0.402
 5298SOL     OW16792   2.510   6.931   0.330
 5298SOL    HW116793   2.410   6.919   0.330
 5298SOL    HW216794   2.535   7.001   0.263
 5299SOL     OW16795   3.075   2.150   0.510
 5299SOL    HW116796   3.065   2.223   0.443
 5299SOL    HW216797   3.015   2.167   0.588
 5300SOL     OW16798   1.880   4.877   0.337
 5300SOL    HW116799   1.789   4.871   0.378
 5300SOL    HW216800   1.898   4.972   0.311
 5301SOL     OW16801   4.612   0.443   6.674
 5301SOL    HW116802   4.587   0.437   6.771
 5301SOL    HW216803   4.534   0.477   6.621
 5302SOL     OW16804   5.038   5.746   3.370
 5302SOL    HW116805   5.034   5.651   3.337
 5302SOL    HW216806   5.126   5.761   3.416
 5303SOL     OW16807   6.822   5.027   6.359
 5303SOL    HW116808   6.767   4.951   6.392
 5303SOL    HW216809   6.808   5.039   6.260
 5304SOL     OW16810   6.374   1.287   1.175
 5304SOL    HW116811   6.312   1.361   1.150
 5304SOL    HW216812   6.468   1.319   1.166
 5305SOL     OW16813   1.212   5.411   2.876
 5305SOL    HW116814   1.150   5.463   2.818
 5305SOL    HW216815   1.269   5.475   2.929
 5306SOL     OW16816   6.681   3.805   5.974
 5306SOL    HW116817   6.736   3.725   5.999
 5306SOL    HW216818   6.600   3.775   5.924
 5307SOL     OW16819   4.792   2.462   0.645
 5307SOL    HW116820   4.710   2.418   0.610
 5307SOL    HW216821   4.773   2.500   0.736
 5308SOL     OW16822   1.419   4.570   2.939
 5308SOL    HW116823   1.450   4.578   2.844
 5308SOL    HW216824   1.323   4.541   2.941
 5309SOL     OW16825   4.247   6.002   2.951
 5309SOL    HW116826   4.309   6.073   2.984
 5309SOL    HW216827   4.177   5.983   3.021
 5310SOL     OW16828   6.001   3.063   2.873
 5310SOL    HW116829   6.000   3.076   2.773
 5310SOL    HW216830   6.085   3.099   2.911
 5311SOL     OW16831   5.936   6.834   0.530
 5311SOL    HW116832   5.989   6.840   0.446
 5311SOL    HW216833   5.903   6.741   0.542
 5312SOL     OW16834   0.516   6.800   1.693
 5312SOL    HW116835   0.470   6.721   1.732
 5312SOL    HW216836   0.614   6.795   1.713
 5313SOL     OW16837   6.647   5.390   5.425
 5313SOL    HW116838   6.562   5.372   5.375
 5313SOL    HW216839   6.707   5.310   5.420
 5314SOL     OW16840   6.148   6.839   1.009
 5314SOL    HW116841   6.211   6.765   1.033
 5314SOL    HW216842   6.147   6.851   0.910
 5315SOL     OW16843   4.352   1.890   3.319
 5315SOL    HW116844   4.415   1.824   3.278
 5315SOL    HW216845   4.258   1.864   3.299
 5316SOL     OW16846   0.671   3.365   5.233
 5316SOL    HW116847   0.728   3.350   5.314
 5316SOL    HW216848   0.728   3.362   5.151
 5317SOL     OW16849   6.382   1.514   5.884
 5317SOL    HW116850   6.460   1.480   5.832
 5317SOL    HW216851   6.346   1.441   5.943
 5318SOL     OW16852   6.491   3.397   0.172
 5318SOL    HW116853   6.430   3.322   0.146
 5318SOL    HW216854   6.483   3.414   0.270
 5319SOL     OW16855   4.187   6.995   1.042
 5319SOL    HW116856   4.135   6.976   1.125
 5319SOL    HW216857   4.261   0.036   1.064
 5320SOL     OW16858   3.642   5.693   1.555
 5320SOL    HW116859   3.645   5.594   1.568
 5320SOL    HW216860   3.637   5.714   1.457
 5321SOL     OW16861   1.408   4.505   5.089
 5321SOL    HW116862   1.485   4.550   5.045
 5321SOL    HW216863   1.330   4.502   5.025
 5322SOL     OW16864   5.443   6.623   1.736
 5322SOL    HW116865   5.428   6.553   1.807
 5322SOL    HW216866   5.435   6.581   1.646
 5323SOL     OW16867   4.635   1.696   5.328
 5323SOL    HW116868   4.668   1.690   5.422
 5323SOL    HW216869   4.545   1.654   5.322
 5324SOL     OW16870   2.381   2.365   6.721
 5324SOL    HW116871   2.300   2.376   6.664
 5324SOL    HW216872   2.353   2.337   6.813
 5325SOL     OW16873   2.932   2.043   5.165
 5325SOL    HW116874   2.959   2.085   5.079
 5325SOL    HW216875   2.959   1.947   5.166
 5326SOL     OW16876   6.495   5.857   2.754
 5326SOL    HW116877   6.478   5.919   2.678
 5326SOL    HW216878   6.416   5.859   2.816
 5327SOL     OW16879   5.344   2.737   4.681
 5327SOL    HW116880   5.254   2.717   4.642
 5327SOL    HW216881   5.407   2.661   4.663
 5328SOL     OW16882   4.063   4.014   5.923
 5328SOL    HW116883   4.148   3.966   5.945
 5328SOL    HW216884   3.985   3.954   5.943
 5329SOL     OW16885   1.387   5.658   6.285
 5329SOL    HW116886   1.382   5.580   6.222
 5329SOL    HW216887   1.480   5.666   6.321
 5330SOL     OW16888   3.774   3.565   0.746
 5330SOL    HW116889   3.803   3.472   0.768
 5330SOL    HW216890   3.749   3.570   0.650
 5331SOL     OW16891   6.706   1.835   6.773
 5331SOL    HW116892   6.677   1.790   6.858
 5331SOL    HW216893   6.628   1.843   6.712
 5332SOL     OW16894   1.623   4.701   1.689
 5332SOL    HW116895   1.684   4.626   1.661
 5332SOL    HW216896   1.543   4.663   1.736
 5333SOL     OW16897   1.507   6.910   3.613
 5333SOL    HW116898   1.410   6.896   3.596
 5333SOL    HW216899   1.553   6.821   3.622
 5334SOL     OW16900   3.147   0.368   4.940
 5334SOL    HW116901   3.067   0.375   4.881
 5334SOL    HW216902   3.199   0.454   4.936
 5335SOL     OW16903   6.709   5.601   0.696
 5335SOL    HW116904   6.612   5.577   0.696
 5335SOL    HW216905   6.732   5.644   0.783
 5336SOL     OW16906   1.671   3.549   2.032
 5336SOL    HW116907   1.770   3.552   2.020
 5336SOL    HW216908   1.628   3.514   1.948
 5337SOL     OW16909   5.127   3.931   1.321
 5337SOL    HW116910   5.114   3.832   1.316
 5337SOL    HW216911   5.062   3.977   1.260
 5338SOL     OW16912   6.567   1.805   0.365
 5338SOL    HW116913   6.525   1.837   0.281
 5338SOL    HW216914   6.504   1.819   0.442
 5339SOL     OW16915   6.824   2.063   3.736
 5339SOL    HW116916   6.921   2.061   3.759
 5339SOL    HW216917   6.785   1.971   3.748
 5340SOL     OW16918   5.635   3.104   0.119
 5340SOL    HW116919   5.721   3.076   0.076
 5340SOL    HW216920   5.559   3.085   0.056
 5341SOL     OW16921   4.032   1.949   5.445
 5341SOL    HW116922   4.067   1.992   5.528
 5341SOL    HW216923   3.987   1.862   5.469
 5342SOL     OW16924   3.940   0.561   4.952
 5342SOL    HW116925   3.921   0.530   4.859
 5342SOL    HW216926   3.923   0.486   5.016
 5343SOL     OW16927   4.140   3.533   2.496
 5343SOL    HW116928   4.131   3.550   2.594
 5343SOL    HW216929   4.113   3.438   2.477
 5344SOL     OW16930   1.405   2.758   2.974
 5344SOL    HW116931   1.460   2.786   3.052
 5344SOL    HW216932   1.310   2.744   3.003
 5345SOL     OW16933   4.763   6.359   1.209
 5345SOL    HW116934   4.810   6.445   1.231
 5345SOL    HW216935   4.679   6.379   1.157
 5346SOL     OW16936   3.252   6.155   3.463
 5346SOL    HW116937   3.228   6.129   3.369
 5346SOL    HW216938   3.342   6.201   3.462
 5347SOL     OW16939   0.236   1.819   1.728
 5347SOL    HW116940   0.252   1.851   1.635
 5347SOL    HW216941   0.139   1.801   1.742
 5348SOL     OW16942   1.240   1.555   0.403
 5348SOL    HW116943   1.235   1.616   0.482
 5348SOL    HW216944   1.300   1.477   0.424
 5349SOL     OW16945   0.046   1.882   0.302
 5349SOL    HW116946   6.981   1.845   0.274
 5349SOL    HW216947   0.057   1.872   0.401
 5350SOL     OW16948   2.297   0.590   6.146
 5350SOL    HW116949   2.383   0.640   6.148
 5350SOL    HW216950   2.307   0.510   6.087
 5351SOL     OW16951   5.168   6.002   1.211
 5351SOL    HW116952   5.115   6.084   1.233
 5351SOL    HW216953   5.225   5.978   1.289
 5352SOL     OW16954   2.213   5.619   3.812
 5352SOL    HW116955   2.313   5.621   3.808
 5352SOL    HW216956   2.175   5.690   3.753
 5353SOL     OW16957   4.592   6.079   4.988
 5353SOL    HW116958   4.638   6.132   4.917
 5353SOL    HW216959   4.649   6.002   5.016
 5354SOL     OW16960   2.339   4.933   2.316
 5354SOL    HW116961   2.438   4.939   2.329
 5354SOL    HW216962   2.316   4.847   2.271
 5355SOL     OW16963   4.526   1.858   3.854
 5355SOL    HW116964   4.565   1.863   3.946
 5355SOL    HW216965   4.519   1.762   3.827
 5356SOL     OW16966   6.143   3.761   1.520
 5356SOL    HW116967   6.151   3.776   1.421
 5356SOL    HW216968   6.196   3.829   1.569
 5357SOL     OW16969   3.930   0.511   0.325
 5357SOL    HW116970   3.870   0.590   0.336
 5357SOL    HW216971   3.945   0.494   0.228
 5358SOL     OW16972   4.061   2.491   0.585
 5358SOL    HW116973   4.022   2.400   0.590
 5358SOL    HW216974   4.001   2.556   0.632
 5359SOL     OW16975   2.450   1.837   1.097
 5359SOL    HW116976   2.474   1.769   1.028
 5359SOL    HW216977   2.534   1.878   1.133
 5360SOL     OW16978   3.644   6.777   5.402
 5360SOL    HW116979   3.690   6.811   5.321
 5360SOL    HW216980   3.555   6.738   5.377
 5361SOL     OW16981   2.209   1.209   5.105
 5361SOL    HW116982   2.159   1.269   5.043
 5361SOL    HW216983   2.150   1.134   5.134
 5362SOL     OW16984   4.824   4.437   3.310
 5362SOL    HW116985   4.815   4.439   3.211
 5362SOL    HW216986   4.734   4.439   3.353
 5363SOL     OW16987   1.150   5.750   5.930
 5363SOL    HW116988   1.217   5.675   5.941
 5363SOL    HW216989   1.199   5.836   5.918
 5364SOL     OW16990   6.593   5.927   1.067
 5364SOL    HW116991   6.559   5.861   1.000
 5364SOL    HW216992   6.690   5.946   1.048
 5365SOL     OW16993   4.225   2.989   6.161
 5365SOL    HW116994   4.284   2.909   6.169
 5365SOL    HW216995   4.279   3.067   6.130
 5366SOL     OW16996   4.124   4.528   0.405
 5366SOL    HW116997   4.136   4.527   0.306
 5366SOL    HW216998   4.111   4.434   0.438
 5367SOL     OW16999   0.352   5.020   0.813
 5367SOL    HW117000   0.289   5.087   0.851
 5367SOL    HW217001   0.315   4.928   0.825
 5368SOL     OW17002   5.361   1.717   2.316
 5368SOL    HW117003   5.414   1.733   2.400
 5368SOL    HW217004   5.354   1.803   2.265
 5369SOL     OW17005   2.027   4.759   3.145
 5369SOL    HW117006   2.095   4.804   3.202
 5369SOL    HW217007   2.064   4.746   3.053
 5370SOL     OW17008   3.604   3.152   1.537
 5370SOL    HW117009   3.703   3.159   1.522
 5370SOL    HW217010   3.585   3.075   1.597
 5371SOL     OW17011   1.807   4.259   4.772
 5371SOL    HW117012   1.899   4.255   4.733
 5371SOL    HW217013   1.757   4.176   4.748
 5372SOL     OW17014   3.150   5.502   2.337
 5372SOL    HW117015   3.121   5.475   2.429
 5372SOL    HW217016   3.095   5.580   2.308
 5373SOL     OW17017   3.240   4.972   4.520
 5373SOL    HW117018   3.261   4.943   4.426
 5373SOL    HW217019   3.249   4.894   4.582
 5374SOL     OW17020   1.654   3.365   6.757
 5374SOL    HW117021   1.646   3.278   6.807
 5374SOL    HW217022   1.595   3.433   6.800
 5375SOL     OW17023   1.492   4.113   5.114
 5375SOL    HW117024   1.406   4.094   5.067
 5375SOL    HW217025   1.560   4.044   5.088
 5376SOL     OW17026   1.482   3.521   1.840
 5376SOL    HW117027   1.492   3.609   1.793
 5376SOL    HW217028   1.386   3.507   1.865
 5377SOL     OW17029   6.858   6.975   1.820
 5377SOL    HW117030   6.895   6.958   1.729
 5377SOL    HW217031   6.776   0.009   1.812
 5378SOL     OW17032   6.282   0.364   0.186
 5378SOL    HW117033   6.375   0.379   0.151
 5378SOL    HW217034   6.248   0.275   0.153
 5379SOL     OW17035   0.315   4.983   3.717
 5379SOL    HW117036   0.349   4.899   3.760
 5379SOL    HW217037   0.229   4.964   3.671
 5380SOL     OW17038   2.309   0.460   3.695
 5380SOL    HW117039   2.232   0.412   3.737
 5380SOL    HW217040   2.395   0.429   3.737
 5381SOL     OW17041   6.108   4.102   0.973
 5381SOL    HW117042   6.180   4.131   0.909
 5381SOL    HW217043   6.047   4.039   0.927
 5382SOL     OW17044   3.078   0.478   1.298
 5382SOL    HW117045   3.011   0.544   1.264
 5382SOL    HW217046   3.056   0.387   1.262
 5383SOL     OW17047   2.825   2.296   5.595
 5383SOL    HW117048   2.882   2.293   5.512
 5383SOL    HW217049   2.857   2.371   5.653
 5384SOL     OW17050   6.539   6.588   4.541
 5384SOL    HW117051   6.599   6.665   4.520
 5384SOL    HW217052   6.444   6.613   4.522
 5385SOL     OW17053   2.902   3.419   2.659
 5385SOL    HW117054   2.905   3.455   2.566
 5385SOL    HW217055   2.921   3.320   2.657
 5386SOL     OW17056   4.832   6.280   4.073
 5386SOL    HW117057   4.759   6.218   4.045
 5386SOL    HW217058   4.825   6.366   4.024
 5387SOL     OW17059   2.487   5.612   2.283
 5387SOL    HW117060   2.413   5.550   2.257
 5387SOL    HW217061   2.467   5.653   2.372
 5388SOL     OW17062   5.615   6.176   2.320
 5388SOL    HW117063   5.535   6.182   2.378
 5388SOL    HW217064   5.631   6.081   2.292
 5389SOL     OW17065   4.672   1.205   1.501
 5389SOL    HW117066   4.766   1.171   1.509
 5389SOL    HW217067   4.671   1.304   1.513
 5390SOL     OW17068   5.410   4.946   4.548
 5390SOL    HW117069   5.439   4.861   4.591
 5390SOL    HW217070   5.483   5.014   4.555
 5391SOL     OW17071   2.601   3.693   0.432
 5391SOL    HW117072   2.527   3.748   0.469
 5391SOL    HW217073   2.615   3.613   0.489
 5392SOL     OW17074   5.799   2.851   1.488
 5392SOL    HW117075   5.855   2.768   1.495
 5392SOL    HW217076   5.854   2.926   1.451
 5393SOL     OW17077   0.232   6.905   6.983
 5393SOL    HW117078   0.283   6.866   0.036
 5393SOL    HW217079   0.183   6.832   6.935
 5394SOL     OW17080   0.811   3.937   6.400
 5394SOL    HW117081   0.737   3.986   6.445
 5394SOL    HW217082   0.899   3.977   6.429
 5395SOL     OW17083   4.268   0.337   0.753
 5395SOL    HW117084   4.246   0.365   0.660
 5395SOL    HW217085   4.208   0.263   0.781
 5396SOL     OW17086   5.122   3.866   2.271
 5396SOL    HW117087   5.028   3.881   2.240
 5396SOL    HW217088   5.132   3.771   2.300
 5397SOL     OW17089   6.632   2.958   1.737
 5397SOL    HW117090   6.711   3.012   1.764
 5397SOL    HW217091   6.573   2.944   1.817
 5398SOL     OW17092   3.166   2.618   1.690
 5398SOL    HW117093   3.176   2.604   1.591
 5398SOL    HW217094   3.108   2.546   1.728
 5399SOL     OW17095   2.899   6.162   0.545
 5399SOL    HW117096   2.849   6.205   0.621
 5399SOL    HW217097   2.878   6.211   0.460
 5400SOL     OW17098   2.655   4.669   0.516
 5400SOL    HW117099   2.611   4.580   0.532
 5400SOL    HW217100   2.741   4.655   0.467
 5401SOL     OW17101   5.985   3.262   2.074
 5401SOL    HW117102   6.069   3.212   2.055
 5401SOL    HW217103   6.007   3.356   2.102
 5402SOL     OW17104   2.574   6.178   1.843
 5402SOL    HW117105   2.526   6.090   1.847
 5402SOL    HW217106   2.640   6.183   1.917
 5403SOL     OW17107   0.174   3.394   6.401
 5403SOL    HW117108   0.076   3.388   6.382
 5403SOL    HW217109   0.205   3.488   6.387
 5404SOL     OW17110   1.235   2.742   3.731
 5404SOL    HW117111   1.192   2.655   3.757
 5404SOL    HW217112   1.327   2.745   3.769
 5405SOL     OW17113   0.085   5.336   6.624
 5405SOL    HW117114   0.076   5.318   6.722
 5405SOL    HW217115   7.017   5.333   6.581
 5406SOL     OW17116   1.753   2.080   0.052
 5406SOL    HW117117   1.852   2.091   0.066
 5406SOL    HW217118   1.704   2.129   0.123
 5407SOL     OW17119   4.438   3.384   0.318
 5407SOL    HW117120   4.518   3.383   0.378
 5407SOL    HW217121   4.361   3.339   0.363
 5408SOL     OW17122   2.690   1.286   5.471
 5408SOL    HW117123   2.714   1.193   5.500
 5408SOL    HW217124   2.615   1.281   5.405
 5409SOL     OW17125   5.153   0.334   2.924
 5409SOL    HW117126   5.210   0.409   2.957
 5409SOL    HW217127   5.088   0.308   2.996
 5410SOL     OW17128   3.289   2.088   1.998
 5410SOL    HW117129   3.194   2.120   1.999
 5410SOL    HW217130   3.350   2.167   1.995
 5411SOL     OW17131   6.601   4.884   6.025
 5411SOL    HW117132   6.555   4.953   6.081
 5411SOL    HW217133   6.533   4.838   5.968
 5412SOL     OW17134   4.872   3.041   0.440
 5412SOL    HW117135   4.805   2.991   0.495
 5412SOL    HW217136   4.962   3.001   0.454
 5413SOL     OW17137   3.010   1.856   1.607
 5413SOL    HW117138   3.042   1.925   1.542
 5413SOL    HW217139   3.066   1.859   1.689
 5414SOL     OW17140   4.748   1.463   4.823
 5414SOL    HW117141   4.684   1.475   4.899
 5414SOL    HW217142   4.824   1.527   4.833
 5415SOL     OW17143   0.329   6.144   1.004
 5415SOL    HW117144   0.391   6.127   1.081
 5415SOL    HW217145   0.247   6.189   1.037
 5416SOL     OW17146   4.044   4.956   4.890
 5416SOL    HW117147   3.964   4.991   4.940
 5416SOL    HW217148   4.116   5.025   4.890
 5417SOL     OW17149   3.651   0.162   5.107
 5417SOL    HW117150   3.731   0.169   5.047
 5417SOL    HW217151   3.679   0.126   5.196
 5418SOL     OW17152   3.469   0.056   2.294
 5418SOL    HW117153   3.475   0.118   2.373
 5418SOL    HW217154   3.413   0.099   2.223
 5419SOL     OW17155   3.475   4.649   0.045
 5419SOL    HW117156   3.471   4.699   6.981
 5419SOL    HW217157   3.449   4.554   0.030
 5420SOL     OW17158   1.952   2.674   3.401
 5420SOL    HW117159   2.029   2.727   3.438
 5420SOL    HW217160   1.907   2.726   3.329
 5421SOL     OW17161   1.694   3.711   0.685
 5421SOL    HW117162   1.704   3.736   0.781
 5421SOL    HW217163   1.723   3.787   0.627
 5422SOL     OW17164   1.334   4.582   1.127
 5422SOL    HW117165   1.395   4.503   1.127
 5422SOL    HW217166   1.241   4.553   1.104
 5423SOL     OW17167   6.322   2.848   6.229
 5423SOL    HW117168   6.347   2.754   6.254
 5423SOL    HW217169   6.223   2.859   6.239
 5424SOL     OW17170   4.884   3.485   4.224
 5424SOL    HW117171   4.837   3.398   4.208
 5424SOL    HW217172   4.976   3.467   4.258
 5425SOL     OW17173   4.204   1.328   4.902
 5425SOL    HW117174   4.111   1.355   4.928
 5425SOL    HW217175   4.237   1.389   4.830
 5426SOL     OW17176   5.683   6.288   4.429
 5426SOL    HW117177   5.628   6.270   4.511
 5426SOL    HW217178   5.648   6.369   4.383
 5427SOL     OW17179   4.571   5.815   6.243
 5427SOL    HW117180   4.665   5.839   6.219
 5427SOL    HW217181   4.511   5.831   6.164
 5428SOL     OW17182   0.675   0.328   0.965
 5428SOL    HW117183   0.763   0.362   0.999
 5428SOL    HW217184   0.614   0.405   0.946
 5429SOL     OW17185   2.102   1.656   7.022
 5429SOL    HW117186   2.055   1.741   7.000
 5429SOL    HW217187   2.036   1.586   0.026
 5430SOL     OW17188   0.388   2.111   6.435
 5430SOL    HW117189   0.334   2.075   6.359
 5430SOL    HW217190   0.485   2.099   6.416
 5431SOL     OW17191   3.178   6.851   6.530
 5431SOL    HW117192   3.094   6.831   6.581
 5431SOL    HW217193   3.208   6.944   6.550
 5432SOL     OW17194   5.451   6.695   0.045
 5432SOL    HW117195   5.508   6.660   6.994
 5432SOL    HW217196   5.408   6.781   0.017
 5433SOL     OW17197   0.090   1.900   4.510
 5433SOL    HW117198   0.011   1.843   4.486
 5433SOL    HW217199   0.164   1.841   4.543
 5434SOL     OW17200   3.062   0.060   5.749
 5434SOL    HW117201   3.053   0.074   5.847
 5434SOL    HW217202   3.081   0.148   5.705
 5435SOL     OW17203   4.560   6.855   1.759
 5435SOL    HW117204   4.508   6.771   1.745
 5435SOL    HW217205   4.531   6.898   1.845
 5436SOL     OW17206   4.567   4.442   3.392
 5436SOL    HW117207   4.561   4.370   3.460
 5436SOL    HW217208   4.520   4.524   3.425
 5437SOL     OW17209   2.613   4.363   0.312
 5437SOL    HW117210   2.544   4.306   0.267
 5437SOL    HW217211   2.703   4.344   0.273
 5438SOL     OW17212   6.668   2.345   1.811
 5438SOL    HW117213   6.644   2.252   1.784
 5438SOL    HW217214   6.751   2.373   1.763
 5439SOL     OW17215   1.704   2.232   1.470
 5439SOL    HW117216   1.669   2.301   1.533
 5439SOL    HW217217   1.637   2.215   1.398
 5440SOL     OW17218   1.562   1.806   1.282
 5440SOL    HW117219   1.533   1.870   1.211
 5440SOL    HW217220   1.591   1.720   1.241
 5441SOL     OW17221   3.658   2.055   4.020
 5441SOL    HW117222   3.567   2.084   4.049
 5441SOL    HW217223   3.724   2.128   4.040
 5442SOL     OW17224   4.118   6.375   2.598
 5442SOL    HW117225   4.059   6.299   2.624
 5442SOL    HW217226   4.214   6.351   2.617
 5443SOL     OW17227   3.147   0.176   5.357
 5443SOL    HW117228   3.232   0.129   5.333
 5443SOL    HW217229   3.073   0.145   5.297
 5444SOL     OW17230   0.742   0.288   4.002
 5444SOL    HW117231   0.839   0.266   3.997
 5444SOL    HW217232   0.692   0.241   3.929
 5445SOL     OW17233   6.448   3.739   3.136
 5445SOL    HW117234   6.506   3.661   3.160
 5445SOL    HW217235   6.435   3.796   3.217
 5446SOL     OW17236   5.663   5.751   4.877
 5446SOL    HW117237   5.649   5.787   4.785
 5446SOL    HW217238   5.606   5.670   4.890
 5447SOL     OW17239   2.911   2.731   6.855
 5447SOL    HW117240   2.932   2.634   6.838
 5447SOL    HW217241   2.949   2.786   6.781
 5448SOL     OW17242   5.233   2.093   5.635
 5448SOL    HW117243   5.180   2.146   5.569
 5448SOL    HW217244   5.274   2.014   5.589
 5449SOL     OW17245   1.339   2.724   0.016
 5449SOL    HW117246   1.371   2.773   0.097
 5449SOL    HW217247   1.244   2.750   7.020
 5450SOL     OW17248   2.261   1.176   1.885
 5450SOL    HW117249   2.317   1.132   1.956
 5450SOL    HW217250   2.215   1.256   1.925
 5451SOL     OW17251   0.958   5.892   3.095
 5451SOL    HW117252   0.935   5.849   3.007
 5451SOL    HW217253   1.054   5.918   3.095
 5452SOL     OW17254   2.139   4.589   0.474
 5452SOL    HW117255   2.044   4.557   0.469
 5452SOL    HW217256   2.200   4.518   0.438
 5453SOL     OW17257   6.392   4.105   0.421
 5453SOL    HW117258   6.406   4.067   0.330
 5453SOL    HW217259   6.464   4.071   0.482
 5454SOL     OW17260   6.868   4.716   6.522
 5454SOL    HW117261   6.772   4.739   6.505
 5454SOL    HW217262   6.886   4.624   6.486
 5455SOL     OW17263   7.004   3.207   1.238
 5455SOL    HW117264   0.000   3.125   1.184
 5455SOL    HW217265   0.066   3.259   1.251
 5456SOL     OW17266   3.088   0.949   6.541
 5456SOL    HW117267   3.165   0.990   6.492
 5456SOL    HW217268   3.121   0.869   6.592
 5457SOL     OW17269   5.602   2.933   0.774
 5457SOL    HW117270   5.585   2.953   0.677
 5457SOL    HW217271   5.562   3.005   0.830
 5458SOL     OW17272   0.835   4.525   6.848
 5458SOL    HW117273   0.852   4.447   6.908
 5458SOL    HW217274   0.758   4.505   6.788
 5459SOL     OW17275   2.257   5.226   0.129
 5459SOL    HW117276   2.207   5.161   0.072
 5459SOL    HW217277   2.303   5.293   0.070
 5460SOL     OW17278   3.092   0.396   1.557
 5460SOL    HW117279   3.152   0.316   1.566
 5460SOL    HW217280   3.103   0.435   1.466
 5461SOL     OW17281   5.167   6.385   5.173
 5461SOL    HW117282   5.132   6.478   5.158
 5461SOL    HW217283   5.266   6.384   5.161
 5462SOL     OW17284   1.554   0.862   0.833
 5462SOL    HW117285   1.567   0.907   0.921
 5462SOL    HW217286   1.642   0.851   0.787
 5463SOL     OW17287   5.992   2.436   0.834
 5463SOL    HW117288   5.922   2.464   0.899
 5463SOL    HW217289   6.042   2.358   0.871
 5464SOL     OW17290   1.618   0.730   4.171
 5464SOL    HW117291   1.676   0.783   4.109
 5464SOL    HW217292   1.634   0.632   4.156
 5465SOL     OW17293   4.076   6.884   4.088
 5465SOL    HW117294   4.090   6.846   3.997
 5465SOL    HW217295   3.978   6.897   4.104
 5466SOL     OW17296   5.151   4.182   4.488
 5466SOL    HW117297   5.244   4.197   4.456
 5466SOL    HW217298   5.087   4.192   4.411
 5467SOL     OW17299   5.587   1.518   2.550
 5467SOL    HW117300   5.505   1.468   2.524
 5467SOL    HW217301   5.573   1.563   2.638
 5468SOL     OW17302   4.756   1.654   4.449
 5468SOL    HW117303   4.720   1.675   4.540
 5468SOL    HW217304   4.789   1.738   4.406
 5469SOL     OW17305   4.194   4.702   6.087
 5469SOL    HW117306   4.259   4.736   6.019
 5469SOL    HW217307   4.105   4.689   6.044
 5470SOL     OW17308   1.979   5.112   3.534
 5470SOL    HW117309   1.919   5.189   3.556
 5470SOL    HW217310   1.928   5.027   3.543
 5471SOL     OW17311   5.696   6.034   1.254
 5471SOL    HW117312   5.705   5.937   1.231
 5471SOL    HW217313   5.636   6.078   1.187
 5472SOL     OW17314   4.251   3.831   6.001
 5472SOL    HW117315   4.289   3.815   5.910
 5472SOL    HW217316   4.261   3.748   6.056
 5473SOL     OW17317   1.035   3.410   3.172
 5473SOL    HW117318   1.053   3.322   3.218
 5473SOL    HW217319   1.098   3.421   3.096
 5474SOL     OW17320   2.157   4.886   4.122
 5474SOL    HW117321   2.204   4.883   4.034
 5474SOL    HW217322   2.083   4.818   4.122
 5475SOL     OW17323   3.310   2.213   1.058
 5475SOL    HW117324   3.240   2.151   1.094
 5475SOL    HW217325   3.351   2.173   0.976
 5476SOL     OW17326   1.624   3.352   6.168
 5476SOL    HW117327   1.610   3.364   6.070
 5476SOL    HW217328   1.645   3.256   6.187
 5477SOL     OW17329   2.189   3.162   3.442
 5477SOL    HW117330   2.215   3.198   3.532
 5477SOL    HW217331   2.186   3.063   3.445
 5478SOL     OW17332   5.331   5.929   5.831
 5478SOL    HW117333   5.232   5.942   5.841
 5478SOL    HW217334   5.377   6.016   5.842
 5479SOL     OW17335   4.837   0.372   4.468
 5479SOL    HW117336   4.822   0.276   4.443
 5479SOL    HW217337   4.863   0.424   4.386
 5480SOL     OW17338   1.038   4.232   4.796
 5480SOL    HW117339   0.979   4.151   4.794
 5480SOL    HW217340   0.982   4.314   4.781
 5481SOL     OW17341   3.438   0.161   4.740
 5481SOL    HW117342   3.497   0.083   4.761
 5481SOL    HW217343   3.424   0.215   4.823
 5482SOL     OW17344   3.598   4.379   1.716
 5482SOL    HW117345   3.585   4.455   1.780
 5482SOL    HW217346   3.531   4.387   1.641
 5483SOL     OW17347   0.400   2.676   5.844
 5483SOL    HW117348   0.324   2.733   5.814
 5483SOL    HW217349   0.384   2.582   5.814
 5484SOL     OW17350   4.393   0.463   4.242
 5484SOL    HW117351   4.377   0.491   4.337
 5484SOL    HW217352   4.438   0.537   4.193
 5485SOL     OW17353   2.716   6.213   5.431
 5485SOL    HW117354   2.731   6.135   5.371
 5485SOL    HW217355   2.662   6.184   5.510
 5486SOL     OW17356   2.647   5.819   4.581
 5486SOL    HW117357   2.708   5.882   4.630
 5486SOL    HW217358   2.561   5.865   4.559
 5487SOL     OW17359   2.431   4.631   5.849
 5487SOL    HW117360   2.494   4.580   5.790
 5487SOL    HW217361   2.476   4.712   5.884
 5488SOL     OW17362   5.704   1.233   0.508
 5488SOL    HW117363   5.670   1.248   0.601
 5488SOL    HW217364   5.632   1.192   0.452
 5489SOL     OW17365   6.763   3.355   1.851
 5489SOL    HW117366   6.835   3.413   1.888
 5489SOL    HW217367   6.718   3.306   1.925
 5490SOL     OW17368   1.201   6.802   2.966
 5490SOL    HW117369   1.269   6.852   3.019
 5490SOL    HW217370   1.220   6.704   2.971
 5491SOL     OW17371   6.817   3.307   0.936
 5491SOL    HW117372   6.782   3.375   0.871
 5491SOL    HW217373   6.804   3.340   1.029
 5492SOL     OW17374   0.500   1.802   5.672
 5492SOL    HW117375   0.500   1.876   5.605
 5492SOL    HW217376   0.464   1.718   5.631
 5493SOL     OW17377   4.187   3.578   1.762
 5493SOL    HW117378   4.115   3.590   1.694
 5493SOL    HW217379   4.156   3.612   1.851
 5494SOL     OW17380   5.980   4.277   5.213
 5494SOL    HW117381   6.037   4.194   5.214
 5494SOL    HW217382   5.950   4.297   5.306
 5495SOL     OW17383   6.203   0.726   0.523
 5495SOL    HW117384   6.153   0.669   0.458
 5495SOL    HW217385   6.247   0.668   0.591
 5496SOL     OW17386   4.229   0.800   4.476
 5496SOL    HW117387   4.311   0.830   4.427
 5496SOL    HW217388   4.148   0.834   4.428
 5497SOL     OW17389   0.919   1.199   6.227
 5497SOL    HW117390   0.980   1.193   6.305
 5497SOL    HW217391   0.966   1.164   6.145
 5498SOL     OW17392   1.023   4.911   2.038
 5498SOL    HW117393   0.955   4.889   2.107
 5498SOL    HW217394   1.037   5.010   2.035
 5499SOL     OW17395   0.571   0.134   5.027
 5499SOL    HW117396   0.523   0.104   4.945
 5499SOL    HW217397   0.612   0.224   5.011
 5500SOL     OW17398   2.380   0.571   0.382
 5500SOL    HW117399   2.380   0.475   0.351
 5500SOL    HW217400   2.300   0.587   0.439
 5501SOL     OW17401   3.746   2.550   6.940
 5501SOL    HW117402   3.746   2.631   6.998
 5501SOL    HW217403   3.833   2.544   6.891
 5502SOL     OW17404   4.394   2.211   0.068
 5502SOL    HW117405   4.461   2.273   0.108
 5502SOL    HW217406   4.437   2.158   7.017
 5503SOL     OW17407   0.528   3.535   0.323
 5503SOL    HW117408   0.569   3.551   0.413
 5503SOL    HW217409   0.591   3.482   0.266
 5504SOL     OW17410   3.779   0.881   6.740
 5504SOL    HW117411   3.784   0.938   6.658
 5504SOL    HW217412   3.693   0.899   6.788
 5505SOL     OW17413   2.532   4.547   4.574
 5505SOL    HW117414   2.573   4.594   4.652
 5505SOL    HW217415   2.433   4.562   4.574
 5506SOL     OW17416   0.362   3.661   5.947
 5506SOL    HW117417   0.347   3.568   5.981
 5506SOL    HW217418   0.274   3.708   5.939
 5507SOL     OW17419   2.978   0.201   6.566
 5507SOL    HW117420   2.897   0.166   6.613
 5507SOL    HW217421   2.970   0.300   6.556
 5508SOL     OW17422   0.471   1.074   6.912
 5508SOL    HW117423   0.468   1.018   6.829
 5508SOL    HW217424   0.529   1.028   6.980
 5509SOL     OW17425   6.866   5.758   0.489
 5509SOL    HW117426   6.845   5.818   0.412
 5509SOL    HW217427   6.782   5.728   0.533
 5510SOL     OW17428   4.189   5.428   6.829
 5510SOL    HW117429   4.240   5.373   6.896
 5510SOL    HW217430   4.125   5.488   6.878
 5511SOL     OW17431   0.456   1.204   5.500
 5511SOL    HW117432   0.492   1.275   5.439
 5511SOL    HW217433   0.491   1.115   5.471
 5512SOL     OW17434   4.038   0.804   2.243
 5512SOL    HW117435   4.086   0.743   2.180
 5512SOL    HW217436   4.102   0.870   2.281
 5513SOL     OW17437   4.179   4.987   6.528
 5513SOL    HW117438   4.090   5.033   6.538
 5513SOL    HW217439   4.165   4.895   6.491
 5514SOL     OW17440   3.063   0.337   6.197
 5514SOL    HW117441   2.967   0.360   6.214
 5514SOL    HW217442   3.070   0.240   6.176
 5515SOL     OW17443   2.401   6.026   2.356
 5515SOL    HW117444   2.458   5.959   2.309
 5515SOL    HW217445   2.306   6.014   2.328
 5516SOL     OW17446   2.379   2.709   5.049
 5516SOL    HW117447   2.404   2.681   5.142
 5516SOL    HW217448   2.380   2.809   5.044
 5517SOL     OW17449   1.863   3.680   3.053
 5517SOL    HW117450   1.869   3.717   2.960
 5517SOL    HW217451   1.954   3.652   3.083
 5518SOL     OW17452   4.667   4.482   5.489
 5518SOL    HW117453   4.582   4.488   5.542
 5518SOL    HW217454   4.645   4.474   5.392
 5519SOL     OW17455   4.756   2.425   3.786
 5519SOL    HW117456   4.694   2.349   3.763
 5519SOL    HW217457   4.768   2.429   3.885
 5520SOL     OW17458   5.306   6.540   2.047
 5520SOL    HW117459   5.211   6.572   2.052
 5520SOL    HW217460   5.314   6.471   1.975
 5521SOL     OW17461   5.822   5.879   1.718
 5521SOL    HW117462   5.748   5.877   1.651
 5521SOL    HW217463   5.836   5.787   1.755
 5522SOL     OW17464   5.989   5.643   0.787
 5522SOL    HW117465   5.946   5.661   0.875
 5522SOL    HW217466   6.079   5.603   0.801
 5523SOL     OW17467   5.852   0.959   2.311
 5523SOL    HW117468   5.769   0.906   2.294
 5523SOL    HW217469   5.872   1.016   2.231
 5524SOL     OW17470   2.964   0.770   4.551
 5524SOL    HW117471   2.920   0.705   4.612
 5524SOL    HW217472   2.935   0.863   4.574
 5525SOL     OW17473   6.439   2.182   1.573
 5525SOL    HW117474   6.442   2.089   1.611
 5525SOL    HW217475   6.377   2.182   1.494
 5526SOL     OW17476   4.733   5.082   3.319
 5526SOL    HW117477   4.766   5.037   3.236
 5526SOL    HW217478   4.668   5.153   3.294
 5527SOL     OW17479   5.759   2.307   3.779
 5527SOL    HW117480   5.764   2.399   3.817
 5527SOL    HW217481   5.686   2.304   3.710
 5528SOL     OW17482   1.088   1.847   1.424
 5528SOL    HW117483   1.143   1.904   1.485
 5528SOL    HW217484   1.147   1.778   1.381
 5529SOL     OW17485   3.876   0.697   1.891
 5529SOL    HW117486   3.902   0.790   1.919
 5529SOL    HW217487   3.859   0.641   1.972
 5530SOL     OW17488   6.713   2.230   1.502
 5530SOL    HW117489   6.617   2.223   1.527
 5530SOL    HW217490   6.762   2.280   1.573
 5531SOL     OW17491   3.168   4.191   1.405
 5531SOL    HW117492   3.132   4.153   1.490
 5531SOL    HW217493   3.100   4.252   1.364
 5532SOL     OW17494   1.714   3.188   1.540
 5532SOL    HW117495   1.757   3.254   1.601
 5532SOL    HW217496   1.698   3.230   1.450
 5533SOL     OW17497   4.411   1.595   3.846
 5533SOL    HW117498   4.317   1.612   3.877
 5533SOL    HW217499   4.410   1.570   3.749
 5534SOL     OW17500   0.962   1.214   5.007
 5534SOL    HW117501   0.893   1.148   4.978
 5534SOL    HW217502   1.020   1.238   4.929
 5535SOL     OW17503   0.825   2.091   3.594
 5535SOL    HW117504   0.918   2.077   3.627
 5535SOL    HW217505   0.822   2.172   3.535
 5536SOL     OW17506   3.582   0.445   4.509
 5536SOL    HW117507   3.633   0.531   4.516
 5536SOL    HW217508   3.576   0.418   4.413
 5537SOL     OW17509   3.415   1.111   3.128
 5537SOL    HW117510   3.374   1.189   3.174
 5537SOL    HW217511   3.515   1.117   3.134
 5538SOL     OW17512   4.532   5.935   4.447
 5538SOL    HW117513   4.512   5.857   4.506
 5538SOL    HW217514   4.613   5.914   4.391
 5539SOL     OW17515   2.680   3.433   0.536
 5539SOL    HW117516   2.740   3.444   0.615
 5539SOL    HW217517   2.621   3.354   0.549
 5540SOL     OW17518   5.442   4.662   2.287
 5540SOL    HW117519   5.359   4.621   2.325
 5540SOL    HW217520   5.463   4.746   2.337
 5541SOL     OW17521   4.564   1.233   5.403
 5541SOL    HW117522   4.499   1.166   5.439
 5541SOL    HW217523   4.515   1.308   5.360
 5542SOL     OW17524   4.655   4.344   5.774
 5542SOL    HW117525   4.670   4.278   5.848
 5542SOL    HW217526   4.727   4.413   5.777
 5543SOL     OW17527   6.745   2.481   5.791
 5543SOL    HW117528   6.828   2.538   5.792
 5543SOL    HW217529   6.665   2.538   5.805
 5544SOL     OW17530   5.763   1.217   5.867
 5544SOL    HW117531   5.716   1.150   5.809
 5544SOL    HW217532   5.754   1.308   5.826
 5545SOL     OW17533   3.067   2.149   2.205
 5545SOL    HW117534   2.995   2.093   2.246
 5545SOL    HW217535   3.026   2.231   2.164
 5546SOL     OW17536   1.933   5.008   5.755
 5546SOL    HW117537   1.974   4.916   5.759
 5546SOL    HW217538   1.887   5.020   5.667
 5547SOL     OW17539   3.703   5.578   4.589
 5547SOL    HW117540   3.635   5.527   4.643
 5547SOL    HW217541   3.768   5.513   4.548
 5548SOL     OW17542   6.499   3.395   5.538
 5548SOL    HW117543   6.471   3.423   5.630
 5548SOL    HW217544   6.543   3.305   5.543
 5549SOL     OW17545   2.662   4.860   6.726
 5549SOL    HW117546   2.757   4.887   6.742
 5549SOL    HW217547   2.606   4.886   6.805
 5550SOL     OW17548   4.205   6.180   1.523
 5550SOL    HW117549   4.119   6.139   1.552
 5550SOL    HW217550   4.222   6.264   1.575
 5551SOL     OW17551   0.707   1.325   3.219
 5551SOL    HW117552   0.716   1.418   3.182
 5551SOL    HW217553   0.762   1.262   3.165
 5552SOL     OW17554   0.193   2.668   1.992
 5552SOL    HW117555   0.193   2.701   2.086
 5552SOL    HW217556   0.259   2.721   1.938
 5553SOL     OW17557   4.741   6.028   0.357
 5553SOL    HW117558   4.781   6.095   0.420
 5553SOL    HW217559   4.725   6.071   0.269
 5554SOL     OW17560   3.022   1.888   4.579
 5554SOL    HW117561   2.924   1.869   4.593
 5554SOL    HW217562   3.063   1.915   4.666
 5555SOL     OW17563   0.189   5.791   2.614
 5555SOL    HW117564   0.255   5.729   2.573
 5555SOL    HW217565   0.149   5.849   2.544
 5556SOL     OW17566   0.151   1.073   4.912
 5556SOL    HW117567   0.099   0.996   4.875
 5556SOL    HW217568   0.205   1.042   4.990
 5557SOL     OW17569   2.513   0.149   3.720
 5557SOL    HW117570   2.417   0.123   3.710
 5557SOL    HW217571   2.547   0.186   3.633
 5558SOL     OW17572   5.126   2.970   4.774
 5558SOL    HW117573   5.171   3.052   4.809
 5558SOL    HW217574   5.190   2.893   4.777
 5559SOL     OW17575   2.053   0.772   1.306
 5559SOL    HW117576   1.976   0.834   1.288
 5559SOL    HW217577   2.070   0.768   1.405
 5560SOL     OW17578   0.439   0.875   4.197
 5560SOL    HW117579   0.373   0.840   4.265
 5560SOL    HW217580   0.407   0.851   4.106
 5561SOL     OW17581   1.441   3.409   3.674
 5561SOL    HW117582   1.386   3.362   3.743
 5561SOL    HW217583   1.498   3.342   3.626
 5562SOL     OW17584   2.549   2.608   5.541
 5562SOL    HW117585   2.594   2.683   5.492
 5562SOL    HW217586   2.525   2.637   5.633
 5563SOL     OW17587   4.328   4.978   1.451
 5563SOL    HW117588   4.321   5.077   1.441
 5563SOL    HW217589   4.236   4.939   1.454
 5564SOL     OW17590   5.731   4.433   1.780
 5564SOL    HW117591   5.633   4.412   1.783
 5564SOL    HW217592   5.764   4.451   1.873
 5565SOL     OW17593   3.066   3.586   5.649
 5565SOL    HW117594   3.085   3.643   5.728
 5565SOL    HW217595   3.044   3.644   5.570
 5566SOL     OW17596   2.060   4.927   1.206
 5566SOL    HW117597   2.079   5.003   1.268
 5566SOL    HW217598   2.091   4.842   1.248
 5567SOL     OW17599   1.635   5.765   2.357
 5567SOL    HW117600   1.730   5.753   2.327
 5567SOL    HW217601   1.596   5.677   2.382
 5568SOL     OW17602   3.398   2.247   1.603
 5568SOL    HW117603   3.399   2.151   1.633
 5568SOL    HW217604   3.332   2.258   1.529
 5569SOL     OW17605   5.738   1.664   0.159
 5569SOL    HW117606   5.799   1.607   0.103
 5569SOL    HW217607   5.644   1.631   0.149
 5570SOL     OW17608   6.600   4.305   6.029
 5570SOL    HW117609   6.578   4.213   5.996
 5570SOL    HW217610   6.594   4.306   6.129
 5571SOL     OW17611   6.683   4.536   5.911
 5571SOL    HW117612   6.739   4.578   5.983
 5571SOL    HW217613   6.650   4.447   5.943
 5572SOL     OW17614   5.033   2.866   5.902
 5572SOL    HW117615   5.046   2.777   5.946
 5572SOL    HW217616   5.120   2.898   5.865
 5573SOL     OW17617   0.744   4.140   0.718
 5573SOL    HW117618   0.839   4.149   0.749
 5573SOL    HW217619   0.719   4.219   0.662
 5574SOL     OW17620   0.384   6.020   4.724
 5574SOL    HW117621   0.350   5.959   4.795
 5574SOL    HW217622   0.401   5.968   4.640
 5575SOL     OW17623   2.012   1.294   0.972
 5575SOL    HW117624   2.028   1.198   0.947
 5575SOL    HW217625   1.917   1.304   1.003
 5576SOL     OW17626   6.364   5.963   6.243
 5576SOL    HW117627   6.449   5.967   6.191
 5576SOL    HW217628   6.295   6.021   6.200
 5577SOL     OW17629   2.095   3.610   5.397
 5577SOL    HW117630   2.105   3.586   5.494
 5577SOL    HW217631   2.173   3.666   5.369
 5578SOL     OW17632   4.086   2.155   6.061
 5578SOL    HW117633   4.038   2.231   6.017
 5578SOL    HW217634   4.111   2.087   5.993
 5579SOL     OW17635   5.142   5.017   0.507
 5579SOL    HW117636   5.071   5.035   0.439
 5579SOL    HW217637   5.121   4.933   0.556
 5580SOL     OW17638   5.752   1.270   0.975
 5580SOL    HW117639   5.698   1.328   1.036
 5580SOL    HW217640   5.730   1.291   0.880
 5581SOL     OW17641   2.766   2.421   0.081
 5581SOL    HW117642   2.835   2.474   0.129
 5581SOL    HW217643   2.694   2.481   0.048
 5582SOL     OW17644   3.690   3.270   3.604
 5582SOL    HW117645   3.644   3.260   3.516
 5582SOL    HW217646   3.726   3.363   3.612
 5583SOL     OW17647   3.947   0.620   0.566
 5583SOL    HW117648   3.935   0.557   0.489
 5583SOL    HW217649   3.953   0.567   0.650
 5584SOL     OW17650   5.949   3.031   3.169
 5584SOL    HW117651   6.018   2.982   3.222
 5584SOL    HW217652   5.977   3.037   3.074
 5585SOL     OW17653   6.511   0.015   4.229
 5585SOL    HW117654   6.431   6.994   4.190
 5585SOL    HW217655   6.515   7.019   4.327
 5586SOL     OW17656   2.298   1.306   6.619
 5586SOL    HW117657   2.298   1.210   6.592
 5586SOL    HW217658   2.251   1.316   6.706
 5587SOL     OW17659   3.603   0.173   3.993
 5587SOL    HW117660   3.559   0.245   4.047
 5587SOL    HW217661   3.701   0.172   4.012
 5588SOL     OW17662   4.274   0.174   6.223
 5588SOL    HW117663   4.181   0.138   6.213
 5588SOL    HW217664   4.340   0.104   6.198
 5589SOL     OW17665   3.705   3.002   6.504
 5589SOL    HW117666   3.646   2.922   6.518
 5589SOL    HW217667   3.796   2.971   6.476
 5590SOL     OW17668   7.011   6.761   3.381
 5590SOL    HW117669   0.004   6.672   3.422
 5590SOL    HW217670   0.076   6.805   3.361
 5591SOL     OW17671   4.885   0.772   0.125
 5591SOL    HW117672   4.815   0.790   0.057
 5591SOL    HW217673   4.851   0.795   0.216
 5592SOL     OW17674   2.287   1.713   3.022
 5592SOL    HW117675   2.229   1.647   3.070
 5592SOL    HW217676   2.263   1.806   3.051
 5593SOL     OW17677   1.323   3.231   5.097
 5593SOL    HW117678   1.287   3.156   5.042
 5593SOL    HW217679   1.422   3.238   5.082
 5594SOL     OW17680   2.717   0.600   6.399
 5594SOL    HW117681   2.741   0.695   6.417
 5594SOL    HW217682   2.624   0.582   6.433
 5595SOL     OW17683   0.271   1.222   5.300
 5595SOL    HW117684   0.297   1.185   5.390
 5595SOL    HW217685   0.349   1.271   5.260
 5596SOL     OW17686   4.714   1.771   2.828
 5596SOL    HW117687   4.623   1.796   2.793
 5596SOL    HW217688   4.749   1.846   2.884
 5597SOL     OW17689   0.358   1.336   6.257
 5597SOL    HW117690   0.396   1.338   6.164
 5597SOL    HW217691   0.431   1.355   6.323
 5598SOL     OW17692   6.741   2.350   4.022
 5598SOL    HW117693   6.822   2.327   3.969
 5598SOL    HW217694   6.664   2.294   3.991
 5599SOL     OW17695   4.753   2.835   3.441
 5599SOL    HW117696   4.733   2.930   3.462
 5599SOL    HW217697   4.711   2.777   3.512
 5600SOL     OW17698   2.440   1.491   2.125
 5600SOL    HW117699   2.423   1.502   2.028
 5600SOL    HW217700   2.515   1.426   2.139
 5601SOL     OW17701   6.030   2.634   5.372
 5601SOL    HW117702   5.942   2.587   5.365
 5601SOL    HW217703   6.081   2.621   5.287
 5602SOL     OW17704   6.624   2.134   2.436
 5602SOL    HW117705   6.588   2.190   2.362
 5602SOL    HW217706   6.603   2.038   2.419
 5603SOL     OW17707   4.492   0.849   5.431
 5603SOL    HW117708   4.424   0.780   5.456
 5603SOL    HW217709   4.550   0.812   5.358
 5604SOL     OW17710   1.256   0.221   3.805
 5604SOL    HW117711   1.350   0.216   3.770
 5604SOL    HW217712   1.215   0.308   3.779
 5605SOL     OW17713   4.585   6.311   4.232
 5605SOL    HW117714   4.675   6.295   4.191
 5605SOL    HW217715   4.578   6.260   4.317
 5606SOL     OW17716   4.682   2.924   0.632
 5606SOL    HW117717   4.599   2.971   0.602
 5606SOL    HW217718   4.658   2.832   0.663
 5607SOL     OW17719   6.211   2.499   2.711
 5607SOL    HW117720   6.238   2.418   2.762
 5607SOL    HW217721   6.226   2.483   2.613
 5608SOL     OW17722   5.151   0.696   3.349
 5608SOL    HW117723   5.182   0.737   3.434
 5608SOL    HW217724   5.188   0.603   3.341
 5609SOL     OW17725   0.037   0.403   0.849
 5609SOL    HW117726   0.029   0.391   0.948
 5609SOL    HW217727   6.970   0.427   0.812
 5610SOL     OW17728   4.800   5.121   1.303
 5610SOL    HW117729   4.866   5.153   1.235
 5610SOL    HW217730   4.809   5.178   1.386
 5611SOL     OW17731   6.158   5.207   1.927
 5611SOL    HW117732   6.093   5.232   1.855
 5611SOL    HW217733   6.230   5.151   1.888
 5612SOL     OW17734   3.753   1.753   0.808
 5612SOL    HW117735   3.712   1.793   0.890
 5612SOL    HW217736   3.751   1.654   0.814
 5613SOL     OW17737   5.642   4.574   6.117
 5613SOL    HW117738   5.640   4.633   6.198
 5613SOL    HW217739   5.572   4.605   6.052
 5614SOL     OW17740   4.950   3.368   3.734
 5614SOL    HW117741   4.896   3.303   3.786
 5614SOL    HW217742   4.905   3.385   3.646
 5615SOL     OW17743   6.877   2.327   3.180
 5615SOL    HW117744   6.966   2.372   3.187
 5615SOL    HW217745   6.854   2.313   3.084
 5616SOL     OW17746   1.671   3.114   2.537
 5616SOL    HW117747   1.606   3.118   2.461
 5616SOL    HW217748   1.763   3.101   2.501
 5617SOL     OW17749   1.930   5.214   5.972
 5617SOL    HW117750   1.965   5.306   5.956
 5617SOL    HW217751   1.848   5.199   5.917
 5618SOL     OW17752   5.591   6.656   2.495
 5618SOL    HW117753   5.683   6.680   2.464
 5618SOL    HW217754   5.525   6.682   2.425
 5619SOL     OW17755   3.916   3.072   3.553
 5619SOL    HW117756   3.935   2.983   3.594
 5619SOL    HW217757   3.818   3.091   3.558
 5620SOL     OW17758   4.947   4.321   4.824
 5620SOL    HW117759   4.967   4.224   4.808
 5620SOL    HW217760   4.912   4.362   4.740
 5621SOL     OW17761   0.689   2.293   6.222
 5621SOL    HW117762   0.736   2.323   6.305
 5621SOL    HW217763   0.705   2.358   6.149
 5622SOL     OW17764   4.765   5.995   3.769
 5622SOL    HW117765   4.793   5.942   3.849
 5622SOL    HW217766   4.804   5.955   3.686
 5623SOL     OW17767   5.050   5.264   4.059
 5623SOL    HW117768   4.994   5.258   4.141
 5623SOL    HW217769   5.032   5.184   4.001
 5624SOL     OW17770   5.848   5.084   3.362
 5624SOL    HW117771   5.930   5.131   3.328
 5624SOL    HW217772   5.811   5.026   3.289
 5625SOL     OW17773   1.700   5.875   5.716
 5625SOL    HW117774   1.736   5.784   5.698
 5625SOL    HW217775   1.737   5.940   5.649
 5626SOL     OW17776   0.865   4.866   6.303
 5626SOL    HW117777   0.907   4.793   6.249
 5626SOL    HW217778   0.866   4.951   6.250
 5627SOL     OW17779   0.991   5.561   0.287
 5627SOL    HW117780   1.084   5.561   0.322
 5627SOL    HW217781   0.934   5.620   0.344
 5628SOL     OW17782   2.819   3.329   0.789
 5628SOL    HW117783   2.792   3.253   0.848
 5628SOL    HW217784   2.874   3.293   0.713
 5629SOL     OW17785   5.781   3.583   2.483
 5629SOL    HW117786   5.707   3.589   2.416
 5629SOL    HW217787   5.834   3.499   2.467
 5630SOL     OW17788   1.034   4.055   6.489
 5630SOL    HW117789   0.961   4.123   6.493
 5630SOL    HW217790   1.122   4.100   6.505
 5631SOL     OW17791   3.526   1.739   2.116
 5631SOL    HW117792   3.441   1.713   2.162
 5631SOL    HW217793   3.522   1.835   2.091
 5632SOL     OW17794   4.951   0.024   5.797
 5632SOL    HW117795   5.042   7.020   5.830
 5632SOL    HW217796   4.946   0.010   5.698
 5633SOL     OW17797   0.865   4.884   5.274
 5633SOL    HW117798   0.941   4.948   5.271
 5633SOL    HW217799   0.900   4.790   5.279
 5634SOL     OW17800   1.941   0.526   1.197
 5634SOL    HW117801   1.976   0.447   1.247
 5634SOL    HW217802   1.961   0.609   1.249
 5635SOL     OW17803   2.843   0.550   0.756
 5635SOL    HW117804   2.834   0.473   0.693
 5635SOL    HW217805   2.936   0.552   0.793
 5636SOL     OW17806   5.174   1.606   5.649
 5636SOL    HW117807   5.154   1.541   5.576
 5636SOL    HW217808   5.253   1.574   5.702
 5637SOL     OW17809   5.050   6.739   4.672
 5637SOL    HW117810   5.048   6.762   4.575
 5637SOL    HW217811   5.132   6.777   4.715
 5638SOL     OW17812   6.134   4.973   1.024
 5638SOL    HW117813   6.185   4.978   0.938
 5638SOL    HW217814   6.055   4.914   1.012
 5639SOL     OW17815   2.126   0.654   1.752
 5639SOL    HW117816   2.190   0.675   1.825
 5639SOL    HW217817   2.153   0.702   1.668
 5640SOL     OW17818   3.059   6.515   2.672
 5640SOL    HW117819   3.143   6.560   2.644
 5640SOL    HW217820   2.981   6.576   2.655
 5641SOL     OW17821   6.796   4.265   3.763
 5641SOL    HW117822   6.798   4.220   3.674
 5641SOL    HW217823   6.784   4.363   3.749
 5642SOL     OW17824   1.712   4.117   0.134
 5642SOL    HW117825   1.766   4.070   0.064
 5642SOL    HW217826   1.627   4.066   0.149
 5643SOL     OW17827   4.755   2.249   5.094
 5643SOL    HW117828   4.674   2.281   5.142
 5643SOL    HW217829   4.758   2.149   5.098
 5644SOL     OW17830   4.535   0.890   4.669
 5644SOL    HW117831   4.490   0.804   4.692
 5644SOL    HW217832   4.494   0.964   4.723
 5645SOL     OW17833   6.178   5.620   4.017
 5645SOL    HW117834   6.238   5.621   3.936
 5645SOL    HW217835   6.116   5.542   4.011
 5646SOL     OW17836   0.447   5.882   4.263
 5646SOL    HW117837   0.420   5.977   4.281
 5646SOL    HW217838   0.368   5.822   4.273
 5647SOL     OW17839   5.454   4.972   6.233
 5647SOL    HW117840   5.391   5.004   6.304
 5647SOL    HW217841   5.403   4.953   6.149
 5648SOL     OW17842   2.182   1.436   5.263
 5648SOL    HW117843   2.181   1.340   5.236
 5648SOL    HW217844   2.178   1.442   5.363
 5649SOL     OW17845   1.000   0.684   5.485
 5649SOL    HW117846   1.021   0.750   5.412
 5649SOL    HW217847   1.065   0.695   5.560
 5650SOL     OW17848   6.474   4.993   0.128
 5650SOL    HW117849   6.506   5.078   0.087
 5650SOL    HW217850   6.375   4.985   0.118
 5651SOL     OW17851   6.372   1.160   2.712
 5651SOL    HW117852   6.410   1.251   2.728
 5651SOL    HW217853   6.321   1.130   2.792
 5652SOL     OW17854   4.997   4.806   0.610
 5652SOL    HW117855   5.054   4.730   0.643
 5652SOL    HW217856   4.942   4.775   0.533
 5653SOL     OW17857   1.789   6.375   6.308
 5653SOL    HW117858   1.797   6.388   6.210
 5653SOL    HW217859   1.704   6.325   6.328
 5654SOL     OW17860   1.016   5.969   5.535
 5654SOL    HW117861   1.031   6.006   5.627
 5654SOL    HW217862   1.097   5.986   5.478
 5655SOL     OW17863   0.054   3.473   3.670
 5655SOL    HW117864   0.069   3.534   3.748
 5655SOL    HW217865   6.998   3.414   3.687
 5656SOL     OW17866   3.050   4.465   6.777
 5656SOL    HW117867   3.128   4.412   6.742
 5656SOL    HW217868   3.076   4.509   6.863
 5657SOL     OW17869   4.091   6.020   1.813
 5657SOL    HW117870   4.127   6.098   1.864
 5657SOL    HW217871   4.161   5.949   1.805
 5658SOL     OW17872   4.832   6.717   5.298
 5658SOL    HW117873   4.820   6.736   5.396
 5658SOL    HW217874   4.866   6.799   5.252
 5659SOL     OW17875   3.663   3.544   2.859
 5659SOL    HW117876   3.695   3.475   2.793
 5659SOL    HW217877   3.590   3.598   2.818
 5660SOL     OW17878   5.826   6.711   0.870
 5660SOL    HW117879   5.817   6.721   0.969
 5660SOL    HW217880   5.853   6.799   0.829
 5661SOL     OW17881   6.436   5.728   4.409
 5661SOL    HW117882   6.342   5.738   4.379
 5661SOL    HW217883   6.441   5.740   4.508
 5662SOL     OW17884   2.417   4.369   4.332
 5662SOL    HW117885   2.344   4.385   4.266
 5662SOL    HW217886   2.433   4.452   4.386
 5663SOL     OW17887   1.086   4.107   0.343
 5663SOL    HW117888   1.021   4.181   0.322
 5663SOL    HW217889   1.064   4.027   0.287
 5664SOL     OW17890   0.771   4.693   2.736
 5664SOL    HW117891   0.713   4.612   2.745
 5664SOL    HW217892   0.716   4.770   2.701
 5665SOL     OW17893   2.447   2.365   6.145
 5665SOL    HW117894   2.508   2.421   6.201
 5665SOL    HW217895   2.357   2.359   6.188
 5666SOL     OW17896   5.880   5.493   0.500
 5666SOL    HW117897   5.972   5.471   0.531
 5666SOL    HW217898   5.869   5.592   0.495
 5667SOL     OW17899   0.465   5.273   3.367
 5667SOL    HW117900   0.410   5.268   3.451
 5667SOL    HW217901   0.561   5.286   3.391
 5668SOL     OW17902   6.283   2.545   5.522
 5668SOL    HW117903   6.195   2.550   5.475
 5668SOL    HW217904   6.274   2.586   5.613
 5669SOL     OW17905   6.699   3.495   5.897
 5669SOL    HW117906   6.700   3.545   5.810
 5669SOL    HW217907   6.793   3.481   5.928
 5670SOL     OW17908   1.230   4.382   3.789
 5670SOL    HW117909   1.227   4.426   3.698
 5670SOL    HW217910   1.172   4.434   3.852
 5671SOL     OW17911   1.704   1.390   5.962
 5671SOL    HW117912   1.651   1.333   5.900
 5671SOL    HW217913   1.644   1.429   6.031
 5672SOL     OW17914   5.101   4.875   5.754
 5672SOL    HW117915   5.019   4.876   5.696
 5672SOL    HW217916   5.155   4.793   5.733
 5673SOL     OW17917   0.976   0.596   2.014
 5673SOL    HW117918   1.063   0.645   2.006
 5673SOL    HW217919   0.907   0.657   2.053
 5674SOL     OW17920   6.885   3.654   1.426
 5674SOL    HW117921   6.809   3.639   1.489
 5674SOL    HW217922   6.873   3.597   1.344
 5675SOL     OW17923   4.138   2.323   5.638
 5675SOL    HW117924   4.189   2.345   5.555
 5675SOL    HW217925   4.148   2.398   5.704
 5676SOL     OW17926   2.844   0.527   1.582
 5676SOL    HW117927   2.923   0.466   1.573
 5676SOL    HW217928   2.811   0.553   1.492
 5677SOL     OW17929   6.880   0.209   4.197
 5677SOL    HW117930   6.979   0.226   4.196
 5677SOL    HW217931   6.832   0.295   4.177
 5678SOL     OW17932   1.747   5.413   3.171
 5678SOL    HW117933   1.740   5.421   3.271
 5678SOL    HW217934   1.843   5.407   3.145
 5679SOL     OW17935   1.730   6.274   5.140
 5679SOL    HW117936   1.699   6.281   5.235
 5679SOL    HW217937   1.823   6.237   5.139
 5680SOL     OW17938   2.274   6.851   6.538
 5680SOL    HW117939   2.200   6.843   6.606
 5680SOL    HW217940   2.361   6.861   6.585
 5681SOL     OW17941   1.009   3.347   0.565
 5681SOL    HW117942   0.961   3.400   0.495
 5681SOL    HW217943   1.107   3.364   0.559
 5682SOL     OW17944   1.111   3.653   4.317
 5682SOL    HW117945   1.167   3.721   4.268
 5682SOL    HW217946   1.153   3.563   4.308
 5683SOL     OW17947   3.601   2.422   5.401
 5683SOL    HW117948   3.564   2.373   5.322
 5683SOL    HW217949   3.540   2.412   5.479
 5684SOL     OW17950   3.076   3.986   3.465
 5684SOL    HW117951   3.127   4.039   3.532
 5684SOL    HW217952   3.139   3.934   3.408
 5685SOL     OW17953   0.152   5.287   2.090
 5685SOL    HW117954   0.074   5.335   2.050
 5685SOL    HW217955   0.236   5.340   2.072
 5686SOL     OW17956   3.340   6.702   6.711
 5686SOL    HW117957   3.254   6.740   6.678
 5686SOL    HW217958   3.327   6.663   6.802
 5687SOL     OW17959   5.072   5.415   6.021
 5687SOL    HW117960   5.048   5.418   5.924
 5687SOL    HW217961   5.004   5.361   6.070
 5688SOL     OW17962   5.911   1.928   1.487
 5688SOL    HW117963   5.859   1.988   1.548
 5688SOL    HW217964   6.006   1.921   1.519
 5689SOL     OW17965   3.365   2.822   0.756
 5689SOL    HW117966   3.384   2.919   0.772
 5689SOL    HW217967   3.277   2.798   0.796
 5690SOL     OW17968   4.771   6.615   1.280
 5690SOL    HW117969   4.763   6.595   1.377
 5690SOL    HW217970   4.798   6.711   1.267
 5691SOL     OW17971   1.337   0.077   1.975
 5691SOL    HW117972   1.383   0.040   1.894
 5691SOL    HW217973   1.274   0.149   1.946
 5692SOL     OW17974   5.461   2.798   6.649
 5692SOL    HW117975   5.373   2.755   6.666
 5692SOL    HW217976   5.452   2.897   6.657
 5693SOL     OW17977   4.697   2.787   3.183
 5693SOL    HW117978   4.623   2.724   3.159
 5693SOL    HW217979   4.706   2.793   3.282
 5694SOL     OW17980   0.332   1.759   4.248
 5694SOL    HW117981   0.380   1.834   4.294
 5694SOL    HW217982   0.387   1.726   4.171
 5695SOL     OW17983   1.929   3.136   3.294
 5695SOL    HW117984   1.943   3.162   3.199
 5695SOL    HW217985   2.016   3.145   3.344
 5696SOL     OW17986   3.067   0.295   5.609
 5696SOL    HW117987   3.100   0.263   5.520
 5696SOL    HW217988   3.140   0.345   5.655
 5697SOL     OW17989   6.246   3.254   0.108
 5697SOL    HW117990   6.244   3.229   0.205
 5697SOL    HW217991   6.262   3.173   0.053
 5698SOL     OW17992   0.282   4.085   1.998
 5698SOL    HW117993   0.279   4.093   1.898
 5698SOL    HW217994   0.298   4.175   2.038
 5699SOL     OW17995   6.127   1.051   5.294
 5699SOL    HW117996   6.031   1.035   5.272
 5699SOL    HW217997   6.167   1.112   5.226
 5700SOL     OW17998   1.720   5.722   3.530
 5700SOL    HW117999   1.662   5.755   3.605
 5700SOL    HW218000   1.753   5.630   3.551
 5701SOL     OW18001   6.039   5.540   1.082
 5701SOL    HW118002   6.002   5.448   1.092
 5701SOL    HW218003   5.965   5.603   1.057
 5702SOL     OW18004   2.030   0.582   6.637
 5702SOL    HW118005   2.002   0.511   6.572
 5702SOL    HW218006   1.949   0.630   6.671
 5703SOL     OW18007   4.262   4.148   0.928
 5703SOL    HW118008   4.236   4.136   0.832
 5703SOL    HW218009   4.344   4.204   0.934
 5704SOL     OW18010   3.554   5.238   3.544
 5704SOL    HW118011   3.630   5.268   3.601
 5704SOL    HW218012   3.489   5.313   3.533
 5705SOL     OW18013   6.124   0.884   1.615
 5705SOL    HW118014   6.094   0.941   1.538
 5705SOL    HW218015   6.199   0.825   1.585
 5706SOL     OW18016   1.438   1.373   6.673
 5706SOL    HW118017   1.353   1.414   6.639
 5706SOL    HW218018   1.506   1.445   6.687
 5707SOL     OW18019   2.773   2.389   0.394
 5707SOL    HW118020   2.730   2.299   0.384
 5707SOL    HW218021   2.873   2.379   0.395
 5708SOL     OW18022   5.102   6.561   1.598
 5708SOL    HW118023   5.104   6.558   1.498
 5708SOL    HW218024   5.186   6.522   1.635
 5709SOL     OW18025   1.442   0.539   3.097
 5709SOL    HW118026   1.526   0.495   3.129
 5709SOL    HW218027   1.453   0.638   3.099
 5710SOL     OW18028   3.046   3.283   6.448
 5710SOL    HW118029   3.097   3.368   6.459
 5710SOL    HW218030   3.106   3.213   6.409
 5711SOL     OW18031   4.107   1.352   3.743
 5711SOL    HW118032   4.198   1.357   3.783
 5711SOL    HW218033   4.042   1.322   3.813
 5712SOL     OW18034   0.095   6.056   6.387
 5712SOL    HW118035   0.140   6.038   6.299
 5712SOL    HW218036   0.088   5.971   6.439
 5713SOL     OW18037   6.348   2.017   2.579
 5713SOL    HW118038   6.322   2.059   2.492
 5713SOL    HW218039   6.427   1.958   2.566
 5714SOL     OW18040   1.347   0.849   6.363
 5714SOL    HW118041   1.333   0.820   6.457
 5714SOL    HW218042   1.411   0.787   6.318
 5715SOL     OW18043   1.031   6.222   3.268
 5715SOL    HW118044   0.937   6.192   3.254
 5715SOL    HW218045   1.045   6.242   3.365
 5716SOL     OW18046   2.225   3.384   6.169
 5716SOL    HW118047   2.207   3.444   6.091
 5716SOL    HW218048   2.140   3.338   6.195
 5717SOL     OW18049   0.946   3.738   0.552
 5717SOL    HW118050   0.935   3.834   0.524
 5717SOL    HW218051   1.002   3.734   0.634
 5718SOL     OW18052   2.120   4.404   5.558
 5718SOL    HW118053   2.181   4.451   5.495
 5718SOL    HW218054   2.142   4.306   5.559
 5719SOL     OW18055   3.583   0.876   6.494
 5719SOL    HW118056   3.483   0.867   6.487
 5719SOL    HW218057   3.625   0.787   6.479
 5720SOL     OW18058   1.300   5.042   4.583
 5720SOL    HW118059   1.352   4.959   4.563
 5720SOL    HW218060   1.356   5.104   4.637
 5721SOL     OW18061   0.760   4.228   1.409
 5721SOL    HW118062   0.784   4.263   1.318
 5721SOL    HW218063   0.714   4.140   1.399
 5722SOL     OW18064   5.471   0.124   4.535
 5722SOL    HW118065   5.528   0.132   4.453
 5722SOL    HW218066   5.522   0.153   4.615
 5723SOL     OW18067   2.425   5.374   0.920
 5723SOL    HW118068   2.362   5.296   0.912
 5723SOL    HW218069   2.487   5.358   0.996
 5724SOL     OW18070   5.102   1.848   6.780
 5724SOL    HW118071   5.096   1.801   6.868
 5724SOL    HW218072   5.198   1.862   6.755
 5725SOL     OW18073   4.988   5.789   6.361
 5725SOL    HW118074   5.049   5.865   6.382
 5725SOL    HW218075   4.904   5.797   6.415
 5726SOL     OW18076   5.502   3.385   6.165
 5726SOL    HW118077   5.422   3.342   6.208
 5726SOL    HW218078   5.504   3.362   6.068
 5727SOL     OW18079   6.285   1.909   3.574
 5727SOL    HW118080   6.218   1.884   3.504
 5727SOL    HW218081   6.370   1.938   3.530
 5728SOL     OW18082   6.148   0.761   5.726
 5728SOL    HW118083   6.084   0.809   5.786
 5728SOL    HW218084   6.239   0.802   5.736
 5729SOL     OW18085   0.515   2.106   6.123
 5729SOL    HW118086   0.563   2.165   6.187
 5729SOL    HW218087   0.515   2.012   6.157
 5730SOL     OW18088   5.374   4.517   5.834
 5730SOL    HW118089   5.298   4.455   5.856
 5730SOL    HW218090   5.440   4.469   5.777
 5731SOL     OW18091   3.450   0.658   3.892
 5731SOL    HW118092   3.442   0.756   3.873
 5731SOL    HW218093   3.360   0.614   3.879
 5732SOL     OW18094   5.839   4.356   4.752
 5732SOL    HW118095   5.790   4.348   4.839
 5732SOL    HW218096   5.900   4.278   4.741
 5733SOL     OW18097   3.306   1.241   0.210
 5733SOL    HW118098   3.225   1.284   0.250
 5733SOL    HW218099   3.290   1.142   0.201
 5734SOL     OW18100   2.445   6.392   5.597
 5734SOL    HW118101   2.510   6.410   5.524
 5734SOL    HW218102   2.449   6.295   5.621
 5735SOL     OW18103   4.402   0.925   1.866
 5735SOL    HW118104   4.434   0.961   1.954
 5735SOL    HW218105   4.367   0.833   1.878
 5736SOL     OW18106   4.884   4.448   6.386
 5736SOL    HW118107   4.959   4.395   6.425
 5736SOL    HW218108   4.894   4.544   6.413
 5737SOL     OW18109   4.066   5.437   1.024
 5737SOL    HW118110   4.155   5.421   1.067
 5737SOL    HW218111   4.014   5.502   1.078
 5738SOL     OW18112   3.324   1.359   6.555
 5738SOL    HW118113   3.289   1.279   6.605
 5738SOL    HW218114   3.260   1.435   6.565
 5739SOL     OW18115   2.185   0.603   5.670
 5739SOL    HW118116   2.230   0.519   5.640
 5739SOL    HW218117   2.088   0.599   5.649
 5740SOL     OW18118   5.297   3.193   2.169
 5740SOL    HW118119   5.205   3.179   2.206
 5740SOL    HW218120   5.291   3.223   2.074
 5741SOL     OW18121   0.126   3.096   4.377
 5741SOL    HW118122   0.162   3.070   4.288
 5741SOL    HW218123   0.201   3.118   4.439
 5742SOL     OW18124   5.114   0.223   3.381
 5742SOL    HW118125   5.167   0.302   3.351
 5742SOL    HW218126   5.176   0.150   3.410
 5743SOL     OW18127   4.073   3.626   5.702
 5743SOL    HW118128   4.081   3.644   5.604
 5743SOL    HW218129   4.153   3.574   5.733
 5744SOL     OW18130   5.843   6.641   2.365
 5744SOL    HW118131   5.834   6.554   2.316
 5744SOL    HW218132   5.939   6.660   2.382
 5745SOL     OW18133   1.837   1.913   2.488
 5745SOL    HW118134   1.848   1.934   2.390
 5745SOL    HW218135   1.919   1.867   2.521
 5746SOL     OW18136   4.430   0.588   3.479
 5746SOL    HW118137   4.332   0.607   3.485
 5746SOL    HW218138   4.478   0.671   3.451
 5747SOL     OW18139   0.614   6.275   1.324
 5747SOL    HW118140   0.537   6.283   1.387
 5747SOL    HW218141   0.603   6.194   1.266
 5748SOL     OW18142   0.606   5.775   0.511
 5748SOL    HW118143   0.563   5.857   0.548
 5748SOL    HW218144   0.558   5.747   0.428
 5749SOL     OW18145   1.792   6.067   5.510
 5749SOL    HW118146   1.838   6.019   5.435
 5749SOL    HW218147   1.741   6.145   5.474
 5750SOL     OW18148   6.347   4.519   4.015
 5750SOL    HW118149   6.346   4.594   4.081
 5750SOL    HW218150   6.343   4.431   4.063
 5751SOL     OW18151   1.888   3.796   4.413
 5751SOL    HW118152   1.973   3.788   4.466
 5751SOL    HW218153   1.906   3.773   4.318
 5752SOL     OW18154   4.988   0.664   0.599
 5752SOL    HW118155   5.032   0.575   0.609
 5752SOL    HW218156   4.991   0.713   0.687
 5753SOL     OW18157   3.275   4.038   4.708
 5753SOL    HW118158   3.322   4.085   4.634
 5753SOL    HW218159   3.181   4.019   4.682
 5754SOL     OW18160   0.910   6.282   1.406
 5754SOL    HW118161   0.955   6.233   1.481
 5754SOL    HW218162   0.895   6.219   1.329
 5755SOL     OW18163   1.592   2.681   6.921
 5755SOL    HW118164   1.652   2.694   6.999
 5755SOL    HW218165   1.497   2.689   6.950
 5756SOL     OW18166   5.643   5.912   1.512
 5756SOL    HW118167   5.555   5.930   1.556
 5756SOL    HW218168   5.643   5.950   1.420
 5757SOL     OW18169   6.214   6.988   4.176
 5757SOL    HW118170   6.263   6.901   4.180
 5757SOL    HW218171   6.180   7.003   4.083
 5758SOL     OW18172   0.477   0.399   2.673
 5758SOL    HW118173   0.473   0.299   2.676
 5758SOL    HW218174   0.389   0.435   2.641
 5759SOL     OW18175   3.658   0.164   0.629
 5759SOL    HW118176   3.606   0.234   0.580
 5759SOL    HW218177   3.752   0.195   0.643
 5760SOL     OW18178   0.657   3.023   1.370
 5760SOL    HW118179   0.654   3.027   1.470
 5760SOL    HW218180   0.708   2.941   1.342
 5761SOL     OW18181   5.643   5.848   5.121
 5761SOL    HW118182   5.676   5.815   5.033
 5761SOL    HW218183   5.580   5.781   5.161
 5762SOL     OW18184   5.755   4.841   6.815
 5762SOL    HW118185   5.760   4.890   6.728
 5762SOL    HW218186   5.790   4.748   6.804
 5763SOL     OW18187   5.427   0.112   0.343
 5763SOL    HW118188   5.498   0.127   0.275
 5763SOL    HW218189   5.345   0.077   0.298
 5764SOL     OW18190   4.043   5.980   3.882
 5764SOL    HW118191   4.067   6.077   3.888
 5764SOL    HW218192   4.076   5.943   3.795
 5765SOL     OW18193   6.167   5.656   1.317
 5765SOL    HW118194   6.228   5.583   1.349
 5765SOL    HW218195   6.124   5.628   1.231
 5766SOL     OW18196   0.795   2.329   4.427
 5766SOL    HW118197   0.787   2.369   4.519
 5766SOL    HW218198   0.881   2.278   4.421
 5767SOL     OW18199   2.486   0.547   0.643
 5767SOL    HW118200   2.457   0.535   0.548
 5767SOL    HW218201   2.583   0.523   0.652
 5768SOL     OW18202   0.504   6.755   4.658
 5768SOL    HW118203   0.427   6.802   4.702
 5768SOL    HW218204   0.498   6.767   4.559
 5769SOL     OW18205   1.690   5.027   6.097
 5769SOL    HW118206   1.785   5.010   6.073
 5769SOL    HW218207   1.630   4.999   6.022
 5770SOL     OW18208   2.032   4.884   1.582
 5770SOL    HW118209   2.067   4.819   1.650
 5770SOL    HW218210   1.934   4.894   1.595
 5771SOL     OW18211   2.224   5.235   4.055
 5771SOL    HW118212   2.241   5.174   4.133
 5771SOL    HW218213   2.204   5.180   3.973
 5772SOL     OW18214   4.177   0.668   2.057
 5772SOL    HW118215   4.111   0.658   1.983
 5772SOL    HW218216   4.269   0.676   2.019
 5773SOL     OW18217   4.108   2.264   2.585
 5773SOL    HW118218   4.080   2.208   2.508
 5773SOL    HW218219   4.091   2.361   2.564
 5774SOL     OW18220   0.017   6.266   3.025
 5774SOL    HW118221   0.029   6.173   2.988
 5774SOL    HW218222   0.095   6.288   3.083
 5775SOL     OW18223   0.200   5.731   2.020
 5775SOL    HW118224   0.243   5.658   1.966
 5775SOL    HW218225   0.169   5.803   1.958
 5776SOL     OW18226   2.171   0.422   3.437
 5776SOL    HW118227   2.220   0.464   3.514
 5776SOL    HW218228   2.169   0.486   3.360
 5777SOL     OW18229   1.971   0.002   3.366
 5777SOL    HW118230   2.061   6.993   3.397
 5777SOL    HW218231   1.900   6.962   3.399
 5778SOL     OW18232   0.825   1.387   0.207
 5778SOL    HW118233   0.772   1.446   0.269
 5778SOL    HW218234   0.903   1.438   0.173
 5779SOL     OW18235   5.655   2.736   0.065
 5779SOL    HW118236   5.677   2.763   6.994
 5779SOL    HW218237   5.597   2.805   0.107
 5780SOL     OW18238   5.697   5.406   3.644
 5780SOL    HW118239   5.735   5.375   3.731
 5780SOL    HW218240   5.769   5.404   3.574
 5781SOL     OW18241   0.708   3.911   5.827
 5781SOL    HW118242   0.803   3.931   5.803
 5781SOL    HW218243   0.651   3.992   5.806
 5782SOL     OW18244   0.181   1.068   0.658
 5782SOL    HW118245   0.210   1.156   0.620
 5782SOL    HW218246   0.081   1.067   0.668
 5783SOL     OW18247   2.111   1.715   1.723
 5783SOL    HW118248   2.172   1.791   1.749
 5783SOL    HW218249   2.148   1.630   1.760
 5784SOL     OW18250   0.609   6.335   6.785
 5784SOL    HW118251   0.580   6.276   6.710
 5784SOL    HW218252   0.706   6.358   6.774
 5785SOL     OW18253   1.855   1.729   1.062
 5785SOL    HW118254   1.766   1.688   1.045
 5785SOL    HW218255   1.854   1.776   1.150
 5786SOL     OW18256   6.802   3.789   0.908
 5786SOL    HW118257   6.816   3.886   0.885
 5786SOL    HW218258   6.713   3.778   0.953
 5787SOL     OW18259   3.007   1.672   5.746
 5787SOL    HW118260   3.089   1.625   5.778
 5787SOL    HW218261   2.928   1.639   5.798
 5788SOL     OW18262   2.783   0.740   2.916
 5788SOL    HW118263   2.788   0.755   2.818
 5788SOL    HW218264   2.864   0.689   2.947
 5789SOL     OW18265   4.124   4.994   5.903
 5789SOL    HW118266   4.193   5.049   5.949
 5789SOL    HW218267   4.168   4.915   5.860
 5790SOL     OW18268   0.650   2.598   3.931
 5790SOL    HW118269   0.671   2.544   4.013
 5790SOL    HW218270   0.554   2.587   3.908
 5791SOL     OW18271   2.576   0.223   2.513
 5791SOL    HW118272   2.605   0.201   2.419
 5791SOL    HW218273   2.613   0.155   2.576
 5792SOL     OW18274   6.838   2.250   2.918
 5792SOL    HW118275   6.757   2.209   2.878
 5792SOL    HW218276   6.918   2.194   2.896
 5793SOL     OW18277   6.345   1.201   3.806
 5793SOL    HW118278   6.418   1.268   3.792
 5793SOL    HW218279   6.266   1.245   3.847
 5794SOL     OW18280   3.651   3.569   6.632
 5794SOL    HW118281   3.731   3.551   6.689
 5794SOL    HW218282   3.648   3.666   6.608
 5795SOL     OW18283   5.960   4.435   5.888
 5795SOL    HW118284   5.907   4.417   5.971
 5795SOL    HW218285   5.908   4.495   5.828
 5796SOL     OW18286   3.535   2.057   6.789
 5796SOL    HW118287   3.528   2.152   6.762
 5796SOL    HW218288   3.444   2.018   6.801
 5797SOL     OW18289   3.373   1.931   4.537
 5797SOL    HW118290   3.298   1.880   4.494
 5797SOL    HW218291   3.336   1.991   4.608
 5798SOL     OW18292   6.654   4.567   4.954
 5798SOL    HW118293   6.596   4.646   4.970
 5798SOL    HW218294   6.599   4.483   4.959
 5799SOL     OW18295   5.381   0.082   3.195
 5799SOL    HW118296   5.314   0.156   3.183
 5799SOL    HW218297   5.366   0.013   3.125
 5800SOL     OW18298   5.491   4.437   1.009
 5800SOL    HW118299   5.436   4.481   0.938
 5800SOL    HW218300   5.471   4.481   1.097
 5801SOL     OW18301   0.829   0.626   3.428
 5801SOL    HW118302   0.765   0.633   3.505
 5801SOL    HW218303   0.777   0.608   3.344
 5802SOL     OW18304   0.129   3.930   5.973
 5802SOL    HW118305   0.131   3.887   5.883
 5802SOL    HW218306   0.215   3.979   5.988
 5803SOL     OW18307   1.214   4.380   0.727
 5803SOL    HW118308   1.236   4.444   0.653
 5803SOL    HW218309   1.238   4.287   0.699
 5804SOL     OW18310   6.059   4.130   4.186
 5804SOL    HW118311   6.105   4.085   4.262
 5804SOL    HW218312   5.965   4.152   4.212
 5805SOL     OW18313   4.569   3.809   6.228
 5805SOL    HW118314   4.610   3.867   6.298
 5805SOL    HW218315   4.629   3.732   6.209
 5806SOL     OW18316   0.548   6.481   0.031
 5806SOL    HW118317   0.528   6.490   6.956
 5806SOL    HW218318   0.645   6.456   0.042
 5807SOL     OW18319   1.408   3.640   1.093
 5807SOL    HW118320   1.333   3.619   1.031
 5807SOL    HW218321   1.404   3.737   1.118
 5808SOL     OW18322   5.781   4.421   2.058
 5808SOL    HW118323   5.724   4.417   2.140
 5808SOL    HW218324   5.871   4.381   2.077
 5809SOL     OW18325   0.136   2.866   4.569
 5809SOL    HW118326   0.099   2.867   4.662
 5809SOL    HW218327   0.134   2.959   4.531
 5810SOL     OW18328   3.121   1.394   3.599
 5810SOL    HW118329   3.220   1.407   3.604
 5810SOL    HW218330   3.075   1.472   3.643
 5811SOL     OW18331   2.629   0.486   4.799
 5811SOL    HW118332   2.599   0.530   4.883
 5811SOL    HW218333   2.550   0.452   4.748
 5812SOL     OW18334   4.862   0.233   2.689
 5812SOL    HW118335   4.888   0.188   2.775
 5812SOL    HW218336   4.875   0.332   2.699
 5813SOL     OW18337   1.402   1.212   5.259
 5813SOL    HW118338   1.443   1.210   5.351
 5813SOL    HW218339   1.366   1.121   5.237
 5814SOL     OW18340   7.014   4.869   1.092
 5814SOL    HW118341   0.069   4.820   1.130
 5814SOL    HW218342   6.993   4.833   1.000
 5815SOL     OW18343   3.783   2.085   2.990
 5815SOL    HW118344   3.722   2.121   2.919
 5815SOL    HW218345   3.730   2.064   3.072
 5816SOL     OW18346   4.581   0.578   0.287
 5816SOL    HW118347   4.661   0.550   0.340
 5816SOL    HW218348   4.597   0.557   0.190
 5817SOL     OW18349   5.222   3.437   5.889
 5817SOL    HW118350   5.221   3.509   5.819
 5817SOL    HW218351   5.188   3.352   5.849
 5818SOL     OW18352   5.750   6.867   6.001
 5818SOL    HW118353   5.672   6.806   6.017
 5818SOL    HW218354   5.795   6.841   5.915
 5819SOL     OW18355   5.546   0.412   1.015
 5819SOL    HW118356   5.635   0.454   0.996
 5819SOL    HW218357   5.552   0.362   1.102
 5820SOL     OW18358   4.804   6.558   3.206
 5820SOL    HW118359   4.758   6.627   3.262
 5820SOL    HW218360   4.902   6.577   3.202
 5821SOL     OW18361   2.936   0.526   1.838
 5821SOL    HW118362   2.881   0.481   1.909
 5821SOL    HW218363   2.888   0.521   1.751
 5822SOL     OW18364   0.584   2.034   2.291
 5822SOL    HW118365   0.518   1.980   2.239
 5822SOL    HW218366   0.549   2.127   2.302
 5823SOL     OW18367   1.670   1.320   4.893
 5823SOL    HW118368   1.735   1.304   4.968
 5823SOL    HW218369   1.594   1.376   4.926
 5824SOL     OW18370   6.530   6.841   3.224
 5824SOL    HW118371   6.542   6.775   3.150
 5824SOL    HW218372   6.526   6.793   3.311
 5825SOL     OW18373   2.269   0.734   0.157
 5825SOL    HW118374   2.298   0.661   0.219
 5825SOL    HW218375   2.169   0.739   0.156
 5826SOL     OW18376   6.432   6.164   4.733
 5826SOL    HW118377   6.486   6.248   4.732
 5826SOL    HW218378   6.475   6.097   4.794
 5827SOL     OW18379   0.544   5.493   4.941
 5827SOL    HW118380   0.468   5.478   4.878
 5827SOL    HW218381   0.508   5.515   5.032
 5828SOL     OW18382   0.429   3.756   2.462
 5828SOL    HW118383   0.373   3.839   2.462
 5828SOL    HW218384   0.412   3.705   2.378
 5829SOL     OW18385   2.711   1.388   1.895
 5829SOL    HW118386   2.730   1.302   1.848
 5829SOL    HW218387   2.792   1.417   1.946
 5830SOL     OW18388   3.545   0.826   5.646
 5830SOL    HW118389   3.499   0.873   5.570
 5830SOL    HW218390   3.485   0.826   5.726
 5831SOL     OW18391   5.843   6.530   2.812
 5831SOL    HW118392   5.750   6.497   2.796
 5831SOL    HW218393   5.871   6.508   2.906
 5832SOL     OW18394   4.247   3.699   5.205
 5832SOL    HW118395   4.225   3.785   5.160
 5832SOL    HW218396   4.316   3.714   5.275
 5833SOL     OW18397   2.878   3.411   3.706
 5833SOL    HW118398   2.892   3.431   3.803
 5833SOL    HW218399   2.932   3.332   3.680
 5834SOL     OW18400   5.447   2.076   0.755
 5834SOL    HW118401   5.527   2.109   0.806
 5834SOL    HW218402   5.446   2.119   0.664
 5835SOL     OW18403   4.996   2.457   3.452
 5835SOL    HW118404   5.024   2.366   3.481
 5835SOL    HW218405   4.915   2.450   3.393
 5836SOL     OW18406   3.494   6.264   2.188
 5836SOL    HW118407   3.404   6.220   2.193
 5836SOL    HW218408   3.558   6.213   2.244
 5837SOL     OW18409   4.704   4.285   0.344
 5837SOL    HW118410   4.753   4.344   0.408
 5837SOL    HW218411   4.753   4.281   0.257
 5838SOL     OW18412   1.539   1.899   5.584
 5838SOL    HW118413   1.610   1.829   5.575
 5838SOL    HW218414   1.582   1.987   5.605
 5839SOL     OW18415   6.975   3.400   2.553
 5839SOL    HW118416   6.895   3.359   2.597
 5839SOL    HW218417   0.035   3.352   2.583
 5840SOL     OW18418   1.597   5.648   6.833
 5840SOL    HW118419   1.578   5.555   6.866
 5840SOL    HW218420   1.681   5.681   6.876
 5841SOL     OW18421   6.461   3.116   3.720
 5841SOL    HW118422   6.408   3.109   3.635
 5841SOL    HW218423   6.450   3.032   3.773
 5842SOL     OW18424   4.155   3.098   0.423
 5842SOL    HW118425   4.211   3.159   0.479
 5842SOL    HW218426   4.115   3.149   0.348
 5843SOL     OW18427   1.812   2.975   3.011
 5843SOL    HW118428   1.751   3.037   3.062
 5843SOL    HW218429   1.852   3.024   2.934
 5844SOL     OW18430   0.413   5.976   6.510
 5844SOL    HW118431   0.322   5.950   6.542
 5844SOL    HW218432   0.428   5.940   6.418
 5845SOL     OW18433   1.209   2.286   3.862
 5845SOL    HW118434   1.253   2.233   3.935
 5845SOL    HW218435   1.121   2.319   3.895
 5846SOL     OW18436   6.991   2.703   5.513
 5846SOL    HW118437   0.042   2.770   5.526
 5846SOL    HW218438   6.903   2.750   5.508
 5847SOL     OW18439   2.123   2.604   2.637
 5847SOL    HW118440   2.220   2.582   2.639
 5847SOL    HW218441   2.088   2.595   2.543
 5848SOL     OW18442   1.842   4.605   3.412
 5848SOL    HW118443   1.918   4.541   3.399
 5848SOL    HW218444   1.800   4.625   3.324
 5849SOL     OW18445   1.685   0.510   5.905
 5849SOL    HW118446   1.777   0.515   5.944
 5849SOL    HW218447   1.667   0.416   5.874
 5850SOL     OW18448   1.287   4.505   2.497
 5850SOL    HW118449   1.340   4.558   2.431
 5850SOL    HW218450   1.193   4.539   2.499
 5851SOL     OW18451   6.312   4.378   2.344
 5851SOL    HW118452   6.317   4.468   2.301
 5851SOL    HW218453   6.291   4.388   2.441
 5852SOL     OW18454   4.196   5.957   2.679
 5852SOL    HW118455   4.244   6.002   2.754
 5852SOL    HW218456   4.140   5.882   2.716
 5853SOL     OW18457   3.186   4.602   5.859
 5853SOL    HW118458   3.217   4.635   5.949
 5853SOL    HW218459   3.197   4.675   5.791
 5854SOL     OW18460   6.794   1.882   5.776
 5854SOL    HW118461   6.723   1.822   5.812
 5854SOL    HW218462   6.759   1.933   5.697
 5855SOL     OW18463   1.352   0.859   4.820
 5855SOL    HW118464   1.252   0.857   4.816
 5855SOL    HW218465   1.385   0.947   4.783
 5856SOL     OW18466   2.450   5.270   3.014
 5856SOL    HW118467   2.429   5.183   2.969
 5856SOL    HW218468   2.493   5.252   3.103
 5857SOL     OW18469   6.660   2.202   4.628
 5857SOL    HW118470   6.583   2.263   4.645
 5857SOL    HW218471   6.683   2.203   4.530
 5858SOL     OW18472   3.256   1.111   2.764
 5858SOL    HW118473   3.220   1.094   2.672
 5858SOL    HW218474   3.340   1.057   2.776
 5859SOL     OW18475   6.481   6.355   0.914
 5859SOL    HW118476   6.457   6.450   0.894
 5859SOL    HW218477   6.517   6.312   0.832
 5860SOL     OW18478   1.609   4.334   1.839
 5860SOL    HW118479   1.649   4.377   1.758
 5860SOL    HW218480   1.587   4.404   1.906
 5861SOL     OW18481   5.252   2.360   4.122
 5861SOL    HW118482   5.196   2.280   4.101
 5861SOL    HW218483   5.253   2.422   4.043
 5862SOL     OW18484   3.985   5.118   2.804
 5862SOL    HW118485   3.896   5.145   2.767
 5862SOL    HW218486   3.972   5.054   2.880
 5863SOL     OW18487   2.024   0.902   6.369
 5863SOL    HW118488   2.022   1.001   6.355
 5863SOL    HW218489   1.930   0.867   6.369
 5864SOL     OW18490   4.226   4.020   1.714
 5864SOL    HW118491   4.296   3.969   1.664
 5864SOL    HW218492   4.270   4.085   1.776
 5865SOL     OW18493   5.229   0.819   3.629
 5865SOL    HW118494   5.279   0.773   3.702
 5865SOL    HW218495   5.147   0.861   3.667
 5866SOL     OW18496   4.022   6.522   5.366
 5866SOL    HW118497   4.098   6.468   5.401
 5866SOL    HW218498   3.941   6.507   5.423
 5867SOL     OW18499   0.841   2.720   1.554
 5867SOL    HW118500   0.788   2.657   1.612
 5867SOL    HW218501   0.844   2.810   1.597
 5868SOL     OW18502   1.642   0.264   5.778
 5868SOL    HW118503   1.719   0.204   5.757
 5868SOL    HW218504   1.562   0.235   5.724
 5869SOL     OW18505   2.620   4.652   4.822
 5869SOL    HW118506   2.551   4.617   4.886
 5869SOL    HW218507   2.706   4.601   4.834
 5870SOL     OW18508   5.317   5.152   4.110
 5870SOL    HW118509   5.234   5.206   4.094
 5870SOL    HW218510   5.294   5.068   4.158
 5871SOL     OW18511   3.439   2.996   0.035
 5871SOL    HW118512   3.527   3.008   0.081
 5871SOL    HW218513   3.422   3.073   6.996
 5872SOL     OW18514   4.225   6.003   6.052
 5872SOL    HW118515   4.280   5.923   6.026
 5872SOL    HW218516   4.241   6.077   5.988
 5873SOL     OW18517   2.889   3.148   0.287
 5873SOL    HW118518   2.835   3.068   0.316
 5873SOL    HW218519   2.830   3.228   0.283
 5874SOL     OW18520   2.360   3.672   1.686
 5874SOL    HW118521   2.379   3.587   1.735
 5874SOL    HW218522   2.296   3.728   1.740
 5875SOL     OW18523   3.502   2.361   0.210
 5875SOL    HW118524   3.599   2.384   0.214
 5875SOL    HW218525   3.472   2.359   0.114
 5876SOL     OW18526   3.179   3.533   6.458
 5876SOL    HW118527   3.214   3.590   6.532
 5876SOL    HW218528   3.089   3.567   6.429
 5877SOL     OW18529   6.588   0.734   1.645
 5877SOL    HW118530   6.563   0.705   1.738
 5877SOL    HW218531   6.505   0.757   1.595
 5878SOL     OW18532   4.399   5.204   1.776
 5878SOL    HW118533   4.372   5.294   1.741
 5878SOL    HW218534   4.334   5.174   1.846
 5879SOL     OW18535   3.238   3.099   6.354
 5879SOL    HW118536   3.290   3.127   6.435
 5879SOL    HW218537   3.231   2.999   6.353
 5880SOL     OW18538   5.152   3.884   5.397
 5880SOL    HW118539   5.107   3.796   5.409
 5880SOL    HW218540   5.172   3.924   5.487
 5881SOL     OW18541   1.146   6.477   2.151
 5881SOL    HW118542   1.059   6.484   2.103
 5881SOL    HW218543   1.132   6.494   2.248
 5882SOL     OW18544   1.513   6.157   5.726
 5882SOL    HW118545   1.530   6.081   5.664
 5882SOL    HW218546   1.455   6.225   5.681
 5883SOL     OW18547   0.374   3.660   0.768
 5883SOL    HW118548   0.467   3.660   0.731
 5883SOL    HW218549   0.350   3.568   0.800
 5884SOL     OW18550   5.886   2.001   3.454
 5884SOL    HW118551   5.794   2.027   3.484
 5884SOL    HW218552   5.954   2.061   3.497
 5885SOL     OW18553   6.913   5.249   0.170
 5885SOL    HW118554   6.883   5.193   0.093
 5885SOL    HW218555   6.838   5.308   0.201
 5886SOL     OW18556   1.427   3.759   3.611
 5886SOL    HW118557   1.368   3.831   3.646
 5886SOL    HW218558   1.458   3.782   3.519
 5887SOL     OW18559   2.027   2.946   0.896
 5887SOL    HW118560   1.942   2.996   0.913
 5887SOL    HW218561   2.060   2.906   0.982
 5888SOL     OW18562   2.991   6.457   1.214
 5888SOL    HW118563   2.991   6.512   1.131
 5888SOL    HW218564   3.043   6.373   1.198
 5889SOL     OW18565   6.966   0.446   1.121
 5889SOL    HW118566   6.959   0.531   1.173
 5889SOL    HW218567   6.875   0.405   1.112
 5890SOL     OW18568   2.726   6.635   2.325
 5890SOL    HW118569   2.680   6.562   2.275
 5890SOL    HW218570   2.794   6.678   2.266
 5891SOL     OW18571   2.387   3.654   0.644
 5891SOL    HW118572   2.294   3.689   0.651
 5891SOL    HW218573   2.384   3.555   0.630
 5892SOL     OW18574   0.931   3.201   1.006
 5892SOL    HW118575   0.928   3.110   0.966
 5892SOL    HW218576   0.881   3.201   1.093
 5893SOL     OW18577   0.894   5.613   1.727
 5893SOL    HW118578   0.993   5.620   1.713
 5893SOL    HW218579   0.865   5.686   1.788
 5894SOL     OW18580   2.007   5.819   5.887
 5894SOL    HW118581   1.942   5.770   5.828
 5894SOL    HW218582   2.031   5.761   5.965
 5895SOL     OW18583   5.563   2.968   4.311
 5895SOL    HW118584   5.623   3.039   4.348
 5895SOL    HW218585   5.568   2.970   4.211
 5896SOL     OW18586   5.809   2.479   1.828
 5896SOL    HW118587   5.883   2.506   1.768
 5896SOL    HW218588   5.843   2.415   1.898
 5897SOL     OW18589   4.720   1.771   0.682
 5897SOL    HW118590   4.666   1.841   0.635
 5897SOL    HW218591   4.755   1.705   0.615
 5898SOL     OW18592   1.945   1.575   5.440
 5898SOL    HW118593   1.983   1.664   5.465
 5898SOL    HW218594   2.013   1.504   5.456
 5899SOL     OW18595   6.913   5.199   5.452
 5899SOL    HW118596   6.954   5.188   5.361
 5899SOL    HW218597   6.973   5.258   5.507
 5900SOL     OW18598   6.183   6.213   3.383
 5900SOL    HW118599   6.147   6.120   3.384
 5900SOL    HW218600   6.130   6.268   3.319
 5901SOL     OW18601   1.965   6.998   6.109
 5901SOL    HW118602   1.965   6.983   6.208
 5901SOL    HW218603   1.993   6.914   6.063
 5902SOL     OW18604   5.280   4.153   5.130
 5902SOL    HW118605   5.373   4.174   5.160
 5902SOL    HW218606   5.279   4.065   5.082
 5903SOL     OW18607   5.881   1.803   6.516
 5903SOL    HW118608   5.934   1.797   6.431
 5903SOL    HW218609   5.931   1.859   6.582
 5904SOL     OW18610   1.988   4.382   2.755
 5904SOL    HW118611   2.005   4.478   2.733
 5904SOL    HW218612   2.074   4.338   2.783
 5905SOL     OW18613   5.919   1.273   4.422
 5905SOL    HW118614   5.959   1.276   4.514
 5905SOL    HW218615   5.876   1.184   4.407
 5906SOL     OW18616   5.027   0.498   5.171
 5906SOL    HW118617   5.044   0.586   5.214
 5906SOL    HW218618   4.972   0.510   5.089
 5907SOL     OW18619   1.776   2.424   0.072
 5907SOL    HW118620   1.760   2.514   0.112
 5907SOL    HW218621   1.873   2.400   0.080
 5908SOL     OW18622   4.516   3.264   6.218
 5908SOL    HW118623   4.518   3.315   6.304
 5908SOL    HW218624   4.443   3.299   6.160
 5909SOL     OW18625   7.005   4.693   4.675
 5909SOL    HW118626   0.020   4.663   4.588
 5909SOL    HW218627   6.905   4.684   4.673
 5910SOL     OW18628   1.959   3.898   1.346
 5910SOL    HW118629   2.027   3.916   1.417
 5910SOL    HW218630   2.001   3.910   1.256
 5911SOL     OW18631   6.716   5.740   6.277
 5911SOL    HW118632   6.739   5.715   6.371
 5911SOL    HW218633   6.626   5.704   6.254
 5912SOL     OW18634   6.130   4.220   7.002
 5912SOL    HW118635   6.094   4.127   6.995
 5912SOL    HW218636   6.099   4.274   6.924
 5913SOL     OW18637   1.870   1.537   5.786
 5913SOL    HW118638   1.800   1.503   5.848
 5913SOL    HW218639   1.952   1.481   5.795
 5914SOL     OW18640   1.975   5.856   0.877
 5914SOL    HW118641   1.955   5.938   0.822
 5914SOL    HW218642   1.991   5.778   0.817
 5915SOL     OW18643   5.113   2.753   2.505
 5915SOL    HW118644   5.019   2.746   2.472
 5915SOL    HW218645   5.118   2.822   2.578
 5916SOL     OW18646   3.937   0.128   5.852
 5916SOL    HW118647   3.977   0.105   5.940
 5916SOL    HW218648   3.896   0.047   5.811
 5917SOL     OW18649   3.519   3.521   3.147
 5917SOL    HW118650   3.577   3.476   3.080
 5917SOL    HW218651   3.439   3.465   3.167
 5918SOL     OW18652   1.650   3.303   4.452
 5918SOL    HW118653   1.679   3.396   4.474
 5918SOL    HW218654   1.728   3.241   4.465
 5919SOL     OW18655   1.923   3.137   6.773
 5919SOL    HW118656   1.935   3.170   6.680
 5919SOL    HW218657   1.974   3.051   6.784
 5920SOL     OW18658   3.594   0.612   6.963
 5920SOL    HW118659   3.671   0.552   6.940
 5920SOL    HW218660   3.549   0.577   0.022
 5921SOL     OW18661   3.678   4.937   5.261
 5921SOL    HW118662   3.734   5.008   5.302
 5921SOL    HW218663   3.703   4.848   5.299
 5922SOL     OW18664   6.159   4.324   2.590
 5922SOL    HW118665   6.165   4.264   2.670
 5922SOL    HW218666   6.064   4.347   2.572
 5923SOL     OW18667   0.015   6.980   3.784
 5923SOL    HW118668   0.085   6.952   3.718
 5923SOL    HW218669   0.018   0.057   3.795
 5924SOL     OW18670   5.093   2.189   4.551
 5924SOL    HW118671   5.023   2.258   4.537
 5924SOL    HW218672   5.052   2.108   4.594
 5925SOL     OW18673   5.422   6.122   1.120
 5925SOL    HW118674   5.405   6.172   1.206
 5925SOL    HW218675   5.344   6.133   1.059
 5926SOL     OW18676   3.722   5.077   1.380
 5926SOL    HW118677   3.660   4.998   1.373
 5926SOL    HW218678   3.727   5.124   1.292
 5927SOL     OW18679   2.833   6.107   2.480
 5927SOL    HW118680   2.874   6.167   2.549
 5927SOL    HW218681   2.876   6.124   2.391
 5928SOL     OW18682   1.582   0.128   3.000
 5928SOL    HW118683   1.553   0.199   2.936
 5928SOL    HW218684   1.659   0.078   2.961
 5929SOL     OW18685   1.254   6.263   6.811
 5929SOL    HW118686   1.286   6.357   6.822
 5929SOL    HW218687   1.189   6.258   6.735
 5930SOL     OW18688   6.565   1.487   4.620
 5930SOL    HW118689   6.535   1.393   4.603
 5930SOL    HW218690   6.640   1.486   4.686
 5931SOL     OW18691   6.768   5.766   1.536
 5931SOL    HW118692   6.734   5.719   1.618
 5931SOL    HW218693   6.847   5.717   1.500
 5932SOL     OW18694   2.705   6.871   0.972
 5932SOL    HW118695   2.647   6.819   1.036
 5932SOL    HW218696   2.679   6.967   0.975
 5933SOL     OW18697   6.781   3.734   2.978
 5933SOL    HW118698   6.735   3.661   3.027
 5933SOL    HW218699   6.771   3.820   3.028
 5934SOL     OW18700   3.804   3.483   3.086
 5934SOL    HW118701   3.831   3.556   3.149
 5934SOL    HW218702   3.751   3.522   3.011
 5935SOL     OW18703   4.061   3.761   4.566
 5935SOL    HW118704   4.060   3.704   4.648
 5935SOL    HW218705   4.013   3.847   4.585
 5936SOL     OW18706   5.456   5.649   6.763
 5936SOL    HW118707   5.512   5.620   6.685
 5936SOL    HW218708   5.359   5.636   6.741
 5937SOL     OW18709   2.071   3.542   1.104
 5937SOL    HW118710   2.111   3.450   1.102
 5937SOL    HW218711   2.064   3.577   1.010
 5938SOL     OW18712   1.684   4.001   3.048
 5938SOL    HW118713   1.597   4.049   3.057
 5938SOL    HW218714   1.700   3.979   2.952
 5939SOL     OW18715   3.638   0.075   2.691
 5939SOL    HW118716   3.668   0.170   2.701
 5939SOL    HW218717   3.672   0.038   2.604
 5940SOL     OW18718   4.337   6.548   2.873
 5940SOL    HW118719   4.373   6.597   2.952
 5940SOL    HW218720   4.328   6.611   2.796
 5941SOL     OW18721   6.220   4.980   2.473
 5941SOL    HW118722   6.284   5.037   2.422
 5941SOL    HW218723   6.169   5.038   2.538
 5942SOL     OW18724   4.095   3.335   6.111
 5942SOL    HW118725   4.039   3.269   6.061
 5942SOL    HW218726   4.173   3.362   6.055
 5943SOL     OW18727   1.938   6.076   0.757
 5943SOL    HW118728   1.960   6.102   0.663
 5943SOL    HW218729   1.976   6.143   0.821
 5944SOL     OW18730   5.075   1.767   2.548
 5944SOL    HW118731   4.999   1.826   2.575
 5944SOL    HW218732   5.069   1.748   2.450
 5945SOL     OW18733   6.326   5.011   5.708
 5945SOL    HW118734   6.380   5.089   5.678
 5945SOL    HW218735   6.377   4.960   5.777
 5946SOL     OW18736   5.075   3.303   5.699
 5946SOL    HW118737   5.063   3.222   5.643
 5946SOL    HW218738   4.991   3.320   5.751
 5947SOL     OW18739   4.445   3.624   1.645
 5947SOL    HW118740   4.505   3.550   1.616
 5947SOL    HW218741   4.382   3.591   1.715
 5948SOL     OW18742   3.995   4.900   2.969
 5948SOL    HW118743   3.907   4.855   2.952
 5948SOL    HW218744   4.019   4.891   3.065
 5949SOL     OW18745   4.457   4.803   1.273
 5949SOL    HW118746   4.390   4.869   1.307
 5949SOL    HW218747   4.520   4.779   1.346
 5950SOL     OW18748   6.355   2.416   4.324
 5950SOL    HW118749   6.386   2.321   4.328
 5950SOL    HW218750   6.262   2.422   4.361
 5951SOL     OW18751   1.965   5.797   3.772
 5951SOL    HW118752   1.899   5.842   3.832
 5951SOL    HW218753   2.010   5.866   3.715
 5952SOL     OW18754   0.087   6.536   3.975
 5952SOL    HW118755   0.017   6.479   3.933
 5952SOL    HW218756   0.176   6.519   3.932
 5953SOL     OW18757   6.795   3.231   6.320
 5953SOL    HW118758   6.758   3.285   6.244
 5953SOL    HW218759   6.756   3.139   6.317
 5954SOL     OW18760   0.079   4.977   6.868
 5954SOL    HW118761   0.037   4.904   6.921
 5954SOL    HW218762   0.163   5.006   6.913
 5955SOL     OW18763   4.838   5.327   1.485
 5955SOL    HW118764   4.763   5.376   1.528
 5955SOL    HW218765   4.912   5.391   1.463
 5956SOL     OW18766   5.613   2.472   0.099
 5956SOL    HW118767   5.633   2.565   0.066
 5956SOL    HW218768   5.698   2.420   0.106
 5957SOL     OW18769   6.016   6.269   6.013
 5957SOL    HW118770   5.959   6.271   6.096
 5957SOL    HW218771   5.970   6.214   5.943
 5958SOL     OW18772   6.756   5.544   2.194
 5958SOL    HW118773   6.745   5.444   2.193
 5958SOL    HW218774   6.836   5.568   2.249
 5959SOL     OW18775   2.072   1.796   5.968
 5959SOL    HW118776   2.131   1.855   6.022
 5959SOL    HW218777   2.011   1.851   5.912
 5960SOL     OW18778   3.345   0.060   3.977
 5960SOL    HW118779   3.441   0.084   3.991
 5960SOL    HW218780   3.324   7.000   4.029
 5961SOL     OW18781   3.381   0.966   4.528
 5961SOL    HW118782   3.366   1.064   4.539
 5961SOL    HW218783   3.310   0.928   4.468
 5962SOL     OW18784   4.898   5.113   2.217
 5962SOL    HW118785   4.976   5.145   2.164
 5962SOL    HW218786   4.848   5.191   2.253
 5963SOL     OW18787   3.878   3.722   2.551
 5963SOL    HW118788   3.894   3.656   2.624
 5963SOL    HW218789   3.956   3.784   2.545
 5964SOL     OW18790   0.075   5.246   6.151
 5964SOL    HW118791   0.065   5.156   6.108
 5964SOL    HW218792   0.122   5.236   6.238
 5965SOL     OW18793   2.500   2.551   5.837
 5965SOL    HW118794   2.503   2.462   5.883
 5965SOL    HW218795   2.406   2.586   5.839
 5966SOL     OW18796   3.030   6.177   4.531
 5966SOL    HW118797   2.977   6.244   4.480
 5966SOL    HW218798   3.033   6.091   4.481
 5967SOL     OW18799   4.841   6.314   2.918
 5967SOL    HW118800   4.838   6.346   3.013
 5967SOL    HW218801   4.897   6.231   2.913
 5968SOL     OW18802   6.720   2.478   3.332
 5968SOL    HW118803   6.661   2.416   3.385
 5968SOL    HW218804   6.787   2.424   3.281
 5969SOL     OW18805   5.880   3.713   3.395
 5969SOL    HW118806   5.786   3.722   3.425
 5969SOL    HW218807   5.914   3.622   3.419
 5970SOL     OW18808   1.834   3.395   2.751
 5970SOL    HW118809   1.859   3.301   2.774
 5970SOL    HW218810   1.753   3.422   2.804
 5971SOL     OW18811   2.136   6.923   2.661
 5971SOL    HW118812   2.236   6.922   2.660
 5971SOL    HW218813   2.102   6.930   2.567
 5972SOL     OW18814   5.084   6.561   0.328
 5972SOL    HW118815   5.029   6.624   0.382
 5972SOL    HW218816   5.066   6.575   0.231
 5973SOL     OW18817   1.444   4.187   3.068
 5973SOL    HW118818   1.384   4.107   3.065
 5973SOL    HW218819   1.486   4.200   2.978
 5974SOL     OW18820   6.922   3.851   0.257
 5974SOL    HW118821   7.022   3.840   0.257
 5974SOL    HW218822   6.899   3.947   0.273
 5975SOL     OW18823   2.590   2.985   1.231
 5975SOL    HW118824   2.533   2.945   1.303
 5975SOL    HW218825   2.578   3.084   1.229
 5976SOL     OW18826   2.953   3.325   4.781
 5976SOL    HW118827   3.006   3.275   4.850
 5976SOL    HW218828   2.902   3.398   4.825
 5977SOL     OW18829   1.155   3.977   2.195
 5977SOL    HW118830   1.199   4.046   2.138
 5977SOL    HW218831   1.225   3.917   2.234
 5978SOL     OW18832   5.436   4.793   1.893
 5978SOL    HW118833   5.438   4.883   1.936
 5978SOL    HW218834   5.371   4.734   1.942
 5979SOL     OW18835   6.751   0.959   3.140
 5979SOL    HW118836   6.736   0.904   3.222
 5979SOL    HW218837   6.826   1.022   3.155
 5980SOL     OW18838   5.375   4.715   0.521
 5980SOL    HW118839   5.369   4.799   0.466
 5980SOL    HW218840   5.412   4.641   0.465
 5981SOL     OW18841   5.143   0.616   2.675
 5981SOL    HW118842   5.222   0.667   2.643
 5981SOL    HW218843   5.164   0.571   2.762
 5982SOL     OW18844   6.853   1.974   6.991
 5982SOL    HW118845   6.918   1.957   6.917
 5982SOL    HW218846   6.763   1.995   6.953
 5983SOL     OW18847   1.710   1.193   4.317
 5983SOL    HW118848   1.747   1.201   4.410
 5983SOL    HW218849   1.667   1.104   4.306
 5984SOL     OW18850   0.205   6.237   4.848
 5984SOL    HW118851   0.289   6.192   4.819
 5984SOL    HW218852   0.227   6.306   4.918
 5985SOL     OW18853   4.610   1.883   4.161
 5985SOL    HW118854   4.573   1.790   4.156
 5985SOL    HW218855   4.694   1.883   4.216
 5986SOL     OW18856   3.258   3.191   2.353
 5986SOL    HW118857   3.245   3.118   2.419
 5986SOL    HW218858   3.242   3.156   2.261
 5987SOL     OW18859   4.209   6.778   4.760
 5987SOL    HW118860   4.305   6.796   4.736
 5987SOL    HW218861   4.197   6.788   4.858
 5988SOL     OW18862   4.540   6.588   4.255
 5988SOL    HW118863   4.442   6.596   4.269
 5988SOL    HW218864   4.565   6.491   4.246
 5989SOL     OW18865   3.438   0.216   6.151
 5989SOL    HW118866   3.397   0.209   6.060
 5989SOL    HW218867   3.399   0.146   6.210
 5990SOL     OW18868   2.876   5.291   0.993
 5990SOL    HW118869   2.912   5.351   0.922
 5990SOL    HW218870   2.952   5.248   1.042
 5991SOL     OW18871   3.053   5.384   4.599
 5991SOL    HW118872   3.102   5.454   4.650
 5991SOL    HW218873   3.112   5.349   4.526
 5992SOL     OW18874   4.302   0.495   3.813
 5992SOL    HW118875   4.279   0.452   3.726
 5992SOL    HW218876   4.338   0.587   3.796
 5993SOL     OW18877   2.487   6.109   5.575
 5993SOL    HW118878   2.558   6.042   5.594
 5993SOL    HW218879   2.399   6.063   5.565
 5994SOL     OW18880   6.124   2.699   2.464
 5994SOL    HW118881   6.081   2.786   2.440
 5994SOL    HW218882   6.054   2.629   2.477
 5995SOL     OW18883   6.827   5.115   1.097
 5995SOL    HW118884   6.897   5.052   1.132
 5995SOL    HW218885   6.825   5.111   0.998
 5996SOL     OW18886   0.030   5.079   5.928
 5996SOL    HW118887   7.018   5.003   5.874
 5996SOL    HW218888   0.053   5.156   5.868
 5997SOL     OW18889   0.561   6.846   2.077
 5997SOL    HW118890   0.536   6.782   2.150
 5997SOL    HW218891   0.645   6.815   2.032
 5998SOL     OW18892   5.580   2.258   2.497
 5998SOL    HW118893   5.607   2.344   2.540
 5998SOL    HW218894   5.648   2.232   2.428
 5999SOL     OW18895   1.479   2.323   2.808
 5999SOL    HW118896   1.484   2.289   2.902
 5999SOL    HW218897   1.484   2.423   2.808
 6000SOL     OW18898   4.590   5.704   2.330
 6000SOL    HW118899   4.613   5.800   2.317
 6000SOL    HW218900   4.590   5.682   2.428
 6001SOL     OW18901   6.539   2.481   6.534
 6001SOL    HW118902   6.495   2.471   6.623
 6001SOL    HW218903   6.573   2.392   6.504
 6002SOL     OW18904   1.680   0.228   1.661
 6002SOL    HW118905   1.770   0.250   1.700
 6002SOL    HW218906   1.669   0.277   1.574
 6003SOL     OW18907   4.728   4.126   5.056
 6003SOL    HW118908   4.812   4.125   5.003
 6003SOL    HW218909   4.715   4.038   5.101
 6004SOL     OW18910   0.527   3.321   2.262
 6004SOL    HW118911   0.531   3.412   2.302
 6004SOL    HW218912   0.560   3.254   2.328
 6005SOL     OW18913   3.534   5.260   3.242
 6005SOL    HW118914   3.581   5.230   3.325
 6005SOL    HW218915   3.449   5.209   3.232
 6006SOL     OW18916   2.926   6.887   6.730
 6006SOL    HW118917   2.867   6.955   6.686
 6006SOL    HW218918   2.932   6.805   6.673
 6007SOL     OW18919   5.779   2.457   4.124
 6007SOL    HW118920   5.820   2.512   4.197
 6007SOL    HW218921   5.802   2.496   4.035
 6008SOL     OW18922   3.059   4.817   6.157
 6008SOL    HW118923   2.978   4.805   6.100
 6008SOL    HW218924   3.034   4.808   6.253
 6009SOL     OW18925   2.348   2.033   4.249
 6009SOL    HW118926   2.345   2.036   4.150
 6009SOL    HW218927   2.326   1.940   4.280
 6010SOL     OW18928   1.972   4.141   2.604
 6010SOL    HW118929   1.963   4.229   2.651
 6010SOL    HW218930   1.956   4.154   2.506
 6011SOL     OW18931   5.400   2.783   2.728
 6011SOL    HW118932   5.416   2.713   2.658
 6011SOL    HW218933   5.347   2.858   2.689
 6012SOL     OW18934   6.510   3.234   0.963
 6012SOL    HW118935   6.555   3.144   0.961
 6012SOL    HW218936   6.554   3.291   1.032
 6013SOL     OW18937   5.729   0.674   2.938
 6013SOL    HW118938   5.719   0.593   2.880
 6013SOL    HW218939   5.812   0.722   2.913
 6014SOL     OW18940   5.852   0.474   0.477
 6014SOL    HW118941   5.942   0.482   0.434
 6014SOL    HW218942   5.802   0.560   0.464
 6015SOL     OW18943   5.576   1.472   3.827
 6015SOL    HW118944   5.575   1.375   3.847
 6015SOL    HW218945   5.639   1.519   3.889
 6016SOL     OW18946   2.161   0.913   5.471
 6016SOL    HW118947   2.141   0.867   5.558
 6016SOL    HW218948   2.158   1.012   5.484
 6017SOL     OW18949   6.759   5.392   2.657
 6017SOL    HW118950   6.802   5.309   2.692
 6017SOL    HW218951   6.709   5.370   2.573
 6018SOL     OW18952   2.600   3.722   0.788
 6018SOL    HW118953   2.630   3.668   0.866
 6018SOL    HW218954   2.512   3.686   0.755
 6019SOL     OW18955   3.733   0.879   4.002
 6019SOL    HW118956   3.717   0.927   3.915
 6019SOL    HW218957   3.769   0.788   3.983
 6020SOL     OW18958   3.926   0.501   2.664
 6020SOL    HW118959   3.947   0.452   2.579
 6020SOL    HW218960   3.908   0.597   2.642
 6021SOL     OW18961   4.388   1.517   2.170
 6021SOL    HW118962   4.466   1.544   2.227
 6021SOL    HW218963   4.312   1.580   2.186
 6022SOL     OW18964   4.292   1.487   3.318
 6022SOL    HW118965   4.388   1.461   3.328
 6022SOL    HW218966   4.236   1.435   3.382
 6023SOL     OW18967   0.311   1.691   2.925
 6023SOL    HW118968   0.369   1.638   2.986
 6023SOL    HW218969   0.323   1.658   2.831
 6024SOL     OW18970   0.562   4.893   1.534
 6024SOL    HW118971   0.646   4.889   1.588
 6024SOL    HW218972   0.585   4.921   1.440
 6025SOL     OW18973   4.693   1.574   1.110
 6025SOL    HW118974   4.744   1.493   1.139
 6025SOL    HW218975   4.733   1.610   1.026
 6026SOL     OW18976   6.589   4.532   5.337
 6026SOL    HW118977   6.652   4.608   5.320
 6026SOL    HW218978   6.539   4.548   5.422
 6027SOL     OW18979   2.792   3.518   6.628
 6027SOL    HW118980   2.856   3.581   6.584
 6027SOL    HW218981   2.814   3.508   6.724
 6028SOL     OW18982   1.647   3.852   0.440
 6028SOL    HW118983   1.695   3.940   0.443
 6028SOL    HW218984   1.681   3.799   0.362
 6029SOL     OW18985   2.316   6.414   1.564
 6029SOL    HW118986   2.375   6.409   1.484
 6029SOL    HW218987   2.237   6.473   1.543
 6030SOL     OW18988   2.049   0.935   1.891
 6030SOL    HW118989   2.115   0.923   1.966
 6030SOL    HW218990   2.088   0.997   1.823
 6031SOL     OW18991   5.135   6.636   5.421
 6031SOL    HW118992   5.131   6.537   5.438
 6031SOL    HW218993   5.127   6.653   5.323
 6032SOL     OW18994   0.657   2.720   2.583
 6032SOL    HW118995   0.648   2.786   2.658
 6032SOL    HW218996   0.691   2.633   2.619
 6033SOL     OW18997   1.113   1.323   3.325
 6033SOL    HW118998   1.179   1.263   3.369
 6033SOL    HW218999   1.022   1.306   3.363
 6034SOL     OW19000   1.698   4.317   5.050
 6034SOL    HW119001   1.745   4.279   4.970
 6034SOL    HW219002   1.609   4.353   5.022
 6035SOL     OW19003   6.025   0.210   4.378
 6035SOL    HW119004   6.001   0.187   4.283
 6035SOL    HW219005   5.952   0.266   4.418
 6036SOL     OW19006   0.526   6.213   5.252
 6036SOL    HW119007   0.491   6.179   5.340
 6036SOL    HW219008   0.622   6.188   5.243
 6037SOL     OW19009   5.957   5.721   4.961
 6037SOL    HW119010   5.991   5.639   4.914
 6037SOL    HW219011   5.866   5.744   4.926
 6038SOL     OW19012   6.167   4.308   5.968
 6038SOL    HW119013   6.085   4.353   5.934
 6038SOL    HW219014   6.142   4.240   6.037
 6039SOL     OW19015   3.340   3.590   2.608
 6039SOL    HW119016   3.259   3.647   2.611
 6039SOL    HW219017   3.419   3.645   2.581
 6040SOL     OW19018   0.463   2.074   0.284
 6040SOL    HW119019   0.460   2.169   0.252
 6040SOL    HW219020   0.409   2.017   0.224
 6041SOL     OW19021   1.117   2.001   6.859
 6041SOL    HW119022   1.198   1.948   6.882
 6041SOL    HW219023   1.120   2.089   6.906
 6042SOL     OW19024   4.979   5.221   3.105
 6042SOL    HW119025   4.941   5.312   3.121
 6042SOL    HW219026   5.076   5.229   3.082
 6043SOL     OW19027   1.070   4.543   4.552
 6043SOL    HW119028   0.988   4.559   4.496
 6043SOL    HW219029   1.106   4.631   4.583
 6044SOL     OW19030   0.561   0.820   1.057
 6044SOL    HW119031   0.649   0.852   1.024
 6044SOL    HW219032   0.488   0.856   0.998
 6045SOL     OW19033   6.781   4.240   1.403
 6045SOL    HW119034   6.866   4.288   1.426
 6045SOL    HW219035   6.772   4.158   1.459
 6046SOL     OW19036   3.266   2.457   0.313
 6046SOL    HW119037   3.356   2.419   0.291
 6046SOL    HW219038   3.278   2.544   0.361
 6047SOL     OW19039   6.578   0.301   4.265
 6047SOL    HW119040   6.655   0.359   4.239
 6047SOL    HW219041   6.598   0.206   4.241
 6048SOL     OW19042   4.149   6.970   4.571
 6048SOL    HW119043   4.141   6.970   4.472
 6048SOL    HW219044   4.180   6.879   4.602
 6049SOL     OW19045   5.289   4.519   6.787
 6049SOL    HW119046   5.380   4.499   6.824
 6049SOL    HW219047   5.281   4.618   6.772
 6050SOL     OW19048   4.364   4.414   5.546
 6050SOL    HW119049   4.318   4.446   5.463
 6050SOL    HW219050   4.313   4.443   5.626
 6051SOL     OW19051   1.879   1.756   2.812
 6051SOL    HW119052   1.956   1.819   2.811
 6051SOL    HW219053   1.796   1.804   2.784
 6052SOL     OW19054   0.587   1.372   0.848
 6052SOL    HW119055   0.582   1.363   0.748
 6052SOL    HW219056   0.605   1.467   0.872
 6053SOL     OW19057   1.724   6.864   6.698
 6053SOL    HW119058   1.798   6.916   6.655
 6053SOL    HW219059   1.733   6.767   6.674
 6054SOL     OW19060   1.860   4.575   0.272
 6054SOL    HW119061   1.865   4.668   0.310
 6054SOL    HW219062   1.765   4.543   0.276
 6055SOL     OW19063   4.729   0.776   5.011
 6055SOL    HW119064   4.631   0.757   5.007
 6055SOL    HW219065   4.755   0.835   4.935
 6056SOL     OW19066   4.119   2.118   6.590
 6056SOL    HW119067   4.151   2.086   6.679
 6056SOL    HW219068   4.198   2.137   6.531
 6057SOL     OW19069   3.015   1.206   4.814
 6057SOL    HW119070   2.988   1.110   4.819
 6057SOL    HW219071   2.935   1.262   4.792
 6058SOL     OW19072   5.598   2.312   4.252
 6058SOL    HW119073   5.559   2.258   4.178
 6058SOL    HW219074   5.667   2.374   4.215
 6059SOL     OW19075   5.466   4.088   0.159
 6059SOL    HW119076   5.435   4.183   0.165
 6059SOL    HW219077   5.494   4.068   0.065
 6060SOL     OW19078   4.240   5.481   5.615
 6060SOL    HW119079   4.247   5.382   5.603
 6060SOL    HW219080   4.245   5.502   5.712
 6061SOL     OW19081   3.155   1.557   6.642
 6061SOL    HW119082   3.084   1.523   6.704
 6061SOL    HW219083   3.204   1.632   6.684
 6062SOL     OW19084   1.814   0.533   4.992
 6062SOL    HW119085   1.830   0.628   4.965
 6062SOL    HW219086   1.730   0.527   5.046
 6063SOL     OW19087   4.381   0.812   6.892
 6063SOL    HW119088   4.478   0.809   6.914
 6063SOL    HW219089   4.336   0.731   6.929
 6064SOL     OW19090   1.064   5.430   3.485
 6064SOL    HW119091   1.022   5.414   3.396
 6064SOL    HW219092   0.993   5.428   3.556
 6065SOL     OW19093   0.019   7.018   0.629
 6065SOL    HW119094   0.032   7.011   0.728
 6065SOL    HW219095   6.947   0.022   0.610
 6066SOL     OW19096   4.186   2.663   0.290
 6066SOL    HW119097   4.134   2.681   0.373
 6066SOL    HW219098   4.127   2.676   0.210
 6067SOL     OW19099   6.039   1.317   6.378
 6067SOL    HW119100   6.122   1.368   6.356
 6067SOL    HW219101   6.064   1.224   6.404
 6068SOL     OW19102   4.629   2.727   4.787
 6068SOL    HW119103   4.630   2.823   4.815
 6068SOL    HW219104   4.601   2.670   4.865
 6069SOL     OW19105   6.494   3.951   4.845
 6069SOL    HW119106   6.501   3.971   4.943
 6069SOL    HW219107   6.551   3.872   4.823
 6070SOL     OW19108   4.110   2.495   6.264
 6070SOL    HW119109   4.063   2.583   6.254
 6070SOL    HW219110   4.137   2.461   6.174
 6071SOL     OW19111   3.964   6.533   5.064
 6071SOL    HW119112   4.016   6.599   5.120
 6071SOL    HW219113   3.866   6.549   5.077
 6072SOL     OW19114   0.444   1.664   1.448
 6072SOL    HW119115   0.403   1.755   1.458
 6072SOL    HW219116   0.540   1.674   1.424
 6073SOL     OW19117   6.600   2.532   0.918
 6073SOL    HW119118   6.668   2.464   0.891
 6073SOL    HW219119   6.546   2.558   0.838
 6074SOL     OW19120   0.145   0.103   4.995
 6074SOL    HW119121   0.206   0.110   4.917
 6074SOL    HW219122   0.079   0.030   4.980
 6075SOL     OW19123   5.791   3.561   0.435
 6075SOL    HW119124   5.833   3.520   0.354
 6075SOL    HW219125   5.817   3.657   0.442
 6076SOL     OW19126   1.979   6.366   3.805
 6076SOL    HW119127   2.018   6.299   3.741
 6076SOL    HW219128   1.952   6.320   3.889
 6077SOL     OW19129   5.819   6.076   1.906
 6077SOL    HW119130   5.809   6.022   1.822
 6077SOL    HW219131   5.916   6.087   1.927
 6078SOL     OW19132   2.922   4.769   4.093
 6078SOL    HW119133   2.838   4.772   4.039
 6078SOL    HW219134   2.908   4.711   4.173
 6079SOL     OW19135   2.510   1.789   6.368
 6079SOL    HW119136   2.602   1.771   6.333
 6079SOL    HW219137   2.500   1.749   6.459
 6080SOL     OW19138   5.855   2.480   1.383
 6080SOL    HW119139   5.879   2.515   1.474
 6080SOL    HW219140   5.774   2.527   1.350
 6081SOL     OW19141   6.976   3.047   3.980
 6081SOL    HW119142   6.962   3.120   4.047
 6081SOL    HW219143   6.893   3.035   3.926
 6082SOL     OW19144   4.146   1.309   2.975
 6082SOL    HW119145   4.215   1.269   3.034
 6082SOL    HW219146   4.182   1.391   2.931
 6083SOL     OW19147   1.320   6.016   6.942
 6083SOL    HW119148   1.340   5.961   0.000
 6083SOL    HW219149   1.278   6.103   6.970
 6084SOL     OW19150   0.062   5.484   5.523
 6084SOL    HW119151   7.010   5.544   5.494
 6084SOL    HW219152   0.084   5.420   5.449
 6085SOL     OW19153   5.810   3.499   0.042
 6085SOL    HW119154   5.907   3.480   0.028
 6085SOL    HW219155   5.799   3.586   0.089
 6086SOL     OW19156   3.270   1.999   4.215
 6086SOL    HW119157   3.264   1.902   4.240
 6086SOL    HW219158   3.203   2.051   4.267
 6087SOL     OW19159   5.776   6.543   6.414
 6087SOL    HW119160   5.846   6.588   6.468
 6087SOL    HW219161   5.755   6.454   6.454
 6088SOL     OW19162   0.884   0.154   5.026
 6088SOL    HW119163   0.975   0.113   5.017
 6088SOL    HW219164   0.814   0.082   5.022
 6089SOL     OW19165   0.276   3.570   1.171
 6089SOL    HW119166   0.348   3.637   1.192
 6089SOL    HW219167   0.258   3.572   1.072
 6090SOL     OW19168   0.690   5.401   5.251
 6090SOL    HW119169   0.760   5.362   5.190
 6090SOL    HW219170   0.607   5.418   5.199
 6091SOL     OW19171   6.263   1.485   1.879
 6091SOL    HW119172   6.362   1.474   1.881
 6091SOL    HW219173   6.225   1.469   1.970
 6092SOL     OW19174   2.151   1.451   2.722
 6092SOL    HW119175   2.065   1.474   2.768
 6092SOL    HW219176   2.148   1.356   2.691
 6093SOL     OW19177   1.302   2.670   1.233
 6093SOL    HW119178   1.327   2.766   1.245
 6093SOL    HW219179   1.374   2.623   1.183
 6094SOL     OW19180   0.523   0.981   1.444
 6094SOL    HW119181   0.536   1.040   1.523
 6094SOL    HW219182   0.456   1.022   1.382
 6095SOL     OW19183   6.543   3.395   6.407
 6095SOL    HW119184   6.451   3.409   6.370
 6095SOL    HW219185   6.538   3.337   6.488
 6096SOL     OW19186   3.869   2.114   3.617
 6096SOL    HW119187   3.790   2.139   3.674
 6096SOL    HW219188   3.840   2.109   3.522
 6097SOL     OW19189   2.647   1.299   2.155
 6097SOL    HW119190   2.652   1.317   2.057
 6097SOL    HW219191   2.738   1.281   2.191
 6098SOL     OW19192   2.317   2.328   5.630
 6098SOL    HW119193   2.385   2.336   5.703
 6098SOL    HW219194   2.286   2.419   5.604
 6099SOL     OW19195   6.063   5.970   5.109
 6099SOL    HW119196   6.037   6.052   5.059
 6099SOL    HW219197   6.018   5.890   5.069
 6100SOL     OW19198   6.260   2.603   0.027
 6100SOL    HW119199   6.293   2.509   0.029
 6100SOL    HW219200   6.161   2.604   0.019
 6101SOL     OW19201   6.783   1.163   5.585
 6101SOL    HW119202   6.709   1.192   5.524
 6101SOL    HW219203   6.845   1.102   5.535
 6102SOL     OW19204   2.912   0.944   4.836
 6102SOL    HW119205   2.863   0.938   4.749
 6102SOL    HW219206   2.980   0.871   4.842
 6103SOL     OW19207   6.430   6.602   5.241
 6103SOL    HW119208   6.380   6.668   5.296
 6103SOL    HW219209   6.525   6.597   5.273
 6104SOL     OW19210   6.292   1.809   6.560
 6104SOL    HW119211   6.370   1.760   6.598
 6104SOL    HW219212   6.228   1.744   6.519
 6105SOL     OW19213   3.239   5.865   4.984
 6105SOL    HW119214   3.219   5.869   4.886
 6105SOL    HW219215   3.327   5.819   4.998
 6106SOL     OW19216   3.483   5.042   5.834
 6106SOL    HW119217   3.562   4.982   5.848
 6106SOL    HW219218   3.405   5.005   5.884
 6107SOL     OW19219   1.922   4.624   5.072
 6107SOL    HW119220   1.859   4.588   5.141
 6107SOL    HW219221   1.871   4.645   4.989
 6108SOL     OW19222   0.971   2.124   4.463
 6108SOL    HW119223   1.062   2.091   4.437
 6108SOL    HW219224   0.901   2.065   4.421
 6109SOL     OW19225   5.873   3.586   1.004
 6109SOL    HW119226   5.847   3.499   0.964
 6109SOL    HW219227   5.821   3.660   0.961
 6110SOL     OW19228   3.421   1.711   4.891
 6110SOL    HW119229   3.406   1.764   4.974
 6110SOL    HW219230   3.484   1.760   4.831
 6111SOL     OW19231   1.371   4.733   3.232
 6111SOL    HW119232   1.276   4.721   3.261
 6111SOL    HW219233   1.432   4.709   3.308
 6112SOL     OW19234   0.885   1.965   2.967
 6112SOL    HW119235   0.849   2.043   2.917
 6112SOL    HW219236   0.837   1.954   3.053
 6113SOL     OW19237   2.007   6.943   5.673
 6113SOL    HW119238   2.103   6.968   5.679
 6113SOL    HW219239   1.963   7.000   5.602
 6114SOL     OW19240   4.300   5.778   0.790
 6114SOL    HW119241   4.209   5.740   0.803
 6114SOL    HW219242   4.341   5.798   0.879
 6115SOL     OW19243   5.288   5.202   2.484
 6115SOL    HW119244   5.242   5.117   2.460
 6115SOL    HW219245   5.387   5.192   2.469
 6116SOL     OW19246   3.960   0.973   1.899
 6116SOL    HW119247   4.003   1.057   1.932
 6116SOL    HW219248   4.005   0.943   1.815
 6117SOL     OW19249   5.700   6.804   4.817
 6117SOL    HW119250   5.692   6.868   4.894
 6117SOL    HW219251   5.612   6.797   4.770
 6118SOL     OW19252   6.205   0.649   3.597
 6118SOL    HW119253   6.242   0.669   3.506
 6118SOL    HW219254   6.264   0.689   3.667
 6119SOL     OW19255   6.943   4.869   4.918
 6119SOL    HW119256   6.945   4.824   4.829
 6119SOL    HW219257   0.014   4.886   4.949
 6120SOL     OW19258   2.353   0.214   2.679
 6120SOL    HW119259   2.370   0.284   2.749
 6120SOL    HW219260   2.417   0.227   2.603
 6121SOL     OW19261   0.508   2.267   4.019
 6121SOL    HW119262   0.445   2.241   3.947
 6121SOL    HW219263   0.601   2.269   3.983
 6122SOL     OW19264   4.034   5.622   3.256
 6122SOL    HW119265   4.057   5.525   3.252
 6122SOL    HW219266   4.003   5.654   3.166
 6123SOL     OW19267   6.566   1.034   2.268
 6123SOL    HW119268   6.508   1.028   2.349
 6123SOL    HW219269   6.540   0.962   2.203
 6124SOL     OW19270   3.400   0.238   5.720
 6124SOL    HW119271   3.332   0.208   5.786
 6124SOL    HW219272   3.384   0.333   5.695
 6125SOL     OW19273   2.180   6.145   2.004
 6125SOL    HW119274   2.229   6.072   1.957
 6125SOL    HW219275   2.182   6.129   2.103
 6126SOL     OW19276   5.260   4.873   2.870
 6126SOL    HW119277   5.318   4.939   2.918
 6126SOL    HW219278   5.175   4.917   2.841
 6127SOL     OW19279   1.838   6.167   1.678
 6127SOL    HW119280   1.886   6.195   1.762
 6127SOL    HW219281   1.889   6.199   1.599
 6128SOL     OW19282   6.103   2.147   0.249
 6128SOL    HW119283   6.077   2.227   0.302
 6128SOL    HW219284   6.028   2.080   0.252
 6129SOL     OW19285   6.214   4.292   3.196
 6129SOL    HW119286   6.135   4.240   3.230
 6129SOL    HW219287   6.287   4.229   3.171
 6130SOL     OW19288   5.333   3.128   2.808
 6130SOL    HW119289   5.281   3.164   2.886
 6130SOL    HW219290   5.427   3.109   2.837
 6131SOL     OW19291   6.136   1.116   5.764
 6131SOL    HW119292   6.179   1.081   5.681
 6131SOL    HW219293   6.205   1.120   5.837
 6132SOL     OW19294   4.005   2.892   0.518
 6132SOL    HW119295   4.026   2.872   0.613
 6132SOL    HW219296   4.063   2.968   0.486
 6133SOL     OW19297   1.002   4.105   1.513
 6133SOL    HW119298   0.985   4.035   1.444
 6133SOL    HW219299   0.945   4.185   1.493
 6134SOL     OW19300   4.430   3.732   6.586
 6134SOL    HW119301   4.405   3.640   6.615
 6134SOL    HW219302   4.354   3.774   6.535
 6135SOL     OW19303   6.059   6.650   1.416
 6135SOL    HW119304   6.028   6.657   1.321
 6135SOL    HW219305   6.089   6.556   1.435
 6136SOL     OW19306   1.382   1.798   1.765
 6136SOL    HW119307   1.373   1.713   1.817
 6136SOL    HW219308   1.457   1.790   1.700
 6137SOL     OW19309   3.107   6.489   5.493
 6137SOL    HW119310   3.019   6.452   5.523
 6137SOL    HW219311   3.097   6.530   5.402
 6138SOL     OW19312   3.712   5.861   3.244
 6138SOL    HW119313   3.747   5.833   3.333
 6138SOL    HW219314   3.777   5.834   3.173
 6139SOL     OW19315   1.424   4.775   4.613
 6139SOL    HW119316   1.393   4.703   4.551
 6139SOL    HW219317   1.524   4.780   4.610
 6140SOL     OW19318   1.526   6.904   1.382
 6140SOL    HW119319   1.465   6.840   1.428
 6140SOL    HW219320   1.592   6.941   1.447
 6141SOL     OW19321   6.457   5.558   6.212
 6141SOL    HW119322   6.533   5.493   6.202
 6141SOL    HW219323   6.413   5.572   6.123
 6142SOL     OW19324   0.058   4.236   1.022
 6142SOL    HW119325   6.994   4.200   1.056
 6142SOL    HW219326   0.049   4.259   0.925
 6143SOL     OW19327   5.793   5.024   6.621
 6143SOL    HW119328   5.883   4.996   6.587
 6143SOL    HW219329   5.763   5.107   6.573
 6144SOL     OW19330   0.243   4.282   4.092
 6144SOL    HW119331   0.338   4.313   4.097
 6144SOL    HW219332   0.233   4.197   4.145
 6145SOL     OW19333   5.189   5.518   3.079
 6145SOL    HW119334   5.177   5.479   3.170
 6145SOL    HW219335   5.251   5.597   3.085
 6146SOL     OW19336   5.466   1.349   3.465
 6146SOL    HW119337   5.432   1.291   3.540
 6146SOL    HW219338   5.563   1.331   3.450
 6147SOL     OW19339   2.152   3.590   2.439
 6147SOL    HW119340   2.239   3.618   2.480
 6147SOL    HW219341   2.134   3.646   2.358
 6148SOL     OW19342   6.128   6.041   4.364
 6148SOL    HW119343   6.203   6.103   4.387
 6148SOL    HW219344   6.165   5.957   4.325
 6149SOL     OW19345   3.231   5.507   3.302
 6149SOL    HW119346   3.252   5.410   3.297
 6149SOL    HW219347   3.132   5.520   3.306
 6150SOL     OW19348   4.803   6.024   5.876
 6150SOL    HW119349   4.816   6.114   5.833
 6150SOL    HW219350   4.776   5.957   5.806
 6151SOL     OW19351   5.206   2.711   5.582
 6151SOL    HW119352   5.208   2.666   5.492
 6151SOL    HW219353   5.283   2.681   5.637
 6152SOL     OW19354   6.234   4.613   6.509
 6152SOL    HW119355   6.252   4.640   6.604
 6152SOL    HW219356   6.259   4.517   6.496
 6153SOL     OW19357   3.972   3.620   1.570
 6153SOL    HW119358   3.975   3.708   1.522
 6153SOL    HW219359   3.878   3.591   1.581
 6154SOL     OW19360   5.011   3.131   3.019
 6154SOL    HW119361   4.945   3.057   3.027
 6154SOL    HW219362   5.091   3.110   3.075
 6155SOL     OW19363   0.455   3.874   5.143
 6155SOL    HW119364   0.469   3.780   5.174
 6155SOL    HW219365   0.381   3.916   5.196
 6156SOL     OW19366   6.340   6.910   3.571
 6156SOL    HW119367   6.390   6.996   3.568
 6156SOL    HW219368   6.395   6.839   3.615
 6157SOL     OW19369   2.407   1.056   3.962
 6157SOL    HW119370   2.326   1.016   3.920
 6157SOL    HW219371   2.390   1.071   4.059
 6158SOL     OW19372   4.677   1.355   5.983
 6158SOL    HW119373   4.630   1.443   5.978
 6158SOL    HW219374   4.774   1.368   5.961
 6159SOL     OW19375   5.172   3.174   6.976
 6159SOL    HW119376   5.171   3.249   6.910
 6159SOL    HW219377   5.254   3.118   6.962
 6160SOL     OW19378   5.586   5.944   1.993
 6160SOL    HW119379   5.666   5.980   1.945
 6160SOL    HW219380   5.510   5.935   1.929
 6161SOL     OW19381   5.656   0.120   6.055
 6161SOL    HW119382   5.712   0.201   6.042
 6161SOL    HW219383   5.706   0.039   6.024
 6162SOL     OW19384   6.542   4.905   4.778
 6162SOL    HW119385   6.633   4.925   4.741
 6162SOL    HW219386   6.508   4.820   4.737
 6163SOL     OW19387   6.487   4.474   1.612
 6163SOL    HW119388   6.455   4.418   1.688
 6163SOL    HW219389   6.420   4.545   1.591
 6164SOL     OW19390   3.768   1.974   1.064
 6164SOL    HW119391   3.682   1.928   1.088
 6164SOL    HW219392   3.835   1.958   1.136
 6165SOL     OW19393   3.309   6.081   0.063
 6165SOL    HW119394   3.379   6.152   0.054
 6165SOL    HW219395   3.240   6.094   7.015
 6166SOL     OW19396   2.796   1.588   5.923
 6166SOL    HW119397   2.726   1.585   5.852
 6166SOL    HW219398   2.753   1.582   6.013
 6167SOL     OW19399   0.577   3.923   3.555
 6167SOL    HW119400   0.552   3.974   3.473
 6167SOL    HW219401   0.644   3.853   3.532
 6168SOL     OW19402   0.112   4.019   2.402
 6168SOL    HW119403   0.044   4.015   2.329
 6168SOL    HW219404   0.083   3.961   2.478
 6169SOL     OW19405   1.980   4.117   2.297
 6169SOL    HW119406   2.039   4.037   2.309
 6169SOL    HW219407   1.905   4.093   2.236
 6170SOL     OW19408   0.471   3.197   5.356
 6170SOL    HW119409   0.421   3.140   5.291
 6170SOL    HW219410   0.557   3.227   5.314
 6171SOL     OW19411   0.052   0.331   6.494
 6171SOL    HW119412   7.015   0.330   6.575
 6171SOL    HW219413   7.019   0.351   6.413
 6172SOL     OW19414   0.438   3.589   2.972
 6172SOL    HW119415   0.528   3.632   2.971
 6172SOL    HW219416   0.369   3.655   2.943
 6173SOL     OW19417   6.806   6.848   3.195
 6173SOL    HW119418   6.859   6.807   3.270
 6173SOL    HW219419   6.711   6.858   3.223
 6174SOL     OW19420   5.399   3.948   2.867
 6174SOL    HW119421   5.441   4.038   2.857
 6174SOL    HW219422   5.465   3.877   2.845
 6175SOL     OW19423   2.627   2.067   5.595
 6175SOL    HW119424   2.603   2.089   5.501
 6175SOL    HW219425   2.688   2.138   5.632
 6176SOL     OW19426   4.042   4.184   5.408
 6176SOL    HW119427   4.134   4.217   5.388
 6176SOL    HW219428   3.976   4.234   5.353
 6177SOL     OW19429   5.836   0.910   1.632
 6177SOL    HW119430   5.818   0.988   1.573
 6177SOL    HW219431   5.935   0.894   1.637
 6178SOL     OW19432   4.368   4.186   1.504
 6178SOL    HW119433   4.378   4.209   1.601
 6178SOL    HW219434   4.309   4.105   1.495
 6179SOL     OW19435   5.480   5.013   2.917
 6179SOL    HW119436   5.563   4.990   2.866
 6179SOL    HW219437   5.502   5.021   3.015
 6180SOL     OW19438   2.867   4.306   0.169
 6180SOL    HW119439   2.849   4.253   0.086
 6180SOL    HW219440   2.961   4.290   0.199
 6181SOL     OW19441   4.872   5.190   6.069
 6181SOL    HW119442   4.863   5.141   5.982
 6181SOL    HW219443   4.895   5.125   6.142
 6182SOL     OW19444   3.260   3.295   0.334
 6182SOL    HW119445   3.299   3.215   0.380
 6182SOL    HW219446   3.227   3.269   0.244
 6183SOL     OW19447   0.844   1.830   1.541
 6183SOL    HW119448   0.844   1.849   1.639
 6183SOL    HW219449   0.929   1.864   1.501
 6184SOL     OW19450   2.649   0.427   5.896
 6184SOL    HW119451   2.729   0.422   5.836
 6184SOL    HW219452   2.599   0.512   5.877
 6185SOL     OW19453   3.358   2.762   5.630
 6185SOL    HW119454   3.441   2.733   5.581
 6185SOL    HW219455   3.287   2.693   5.617
 6186SOL     OW19456   6.526   1.476   1.937
 6186SOL    HW119457   6.559   1.508   2.026
 6186SOL    HW219458   6.568   1.388   1.916
 6187SOL     OW19459   5.555   1.773   5.262
 6187SOL    HW119460   5.628   1.772   5.194
 6187SOL    HW219461   5.467   1.756   5.218
 6188SOL     OW19462   1.373   1.951   5.318
 6188SOL    HW119463   1.360   2.041   5.277
 6188SOL    HW219464   1.466   1.944   5.355
 6189SOL     OW19465   6.300   6.132   2.449
 6189SOL    HW119466   6.260   6.041   2.442
 6189SOL    HW219467   6.399   6.124   2.462
 6190SOL     OW19468   0.151   2.341   5.516
 6190SOL    HW119469   0.231   2.306   5.563
 6190SOL    HW219470   0.178   2.413   5.452
 6191SOL     OW19471   3.799   3.409   6.443
 6191SOL    HW119472   3.821   3.489   6.387
 6191SOL    HW219473   3.767   3.439   6.533
 6192SOL     OW19474   2.787   1.315   0.083
 6192SOL    HW119475   2.823   1.395   0.130
 6192SOL    HW219476   2.863   1.261   0.048
 6193SOL     OW19477   4.611   5.449   6.710
 6193SOL    HW119478   4.624   5.360   6.665
 6193SOL    HW219479   4.640   5.522   6.648
 6194SOL     OW19480   6.335   0.156   5.990
 6194SOL    HW119481   6.425   0.187   5.959
 6194SOL    HW219482   6.263   0.210   5.946
 6195SOL     OW19483   6.804   6.752   5.837
 6195SOL    HW119484   6.774   6.715   5.925
 6195SOL    HW219485   6.791   6.684   5.765
 6196SOL     OW19486   5.737   3.921   3.276
 6196SOL    HW119487   5.704   3.969   3.194
 6196SOL    HW219488   5.740   3.823   3.258
 6197SOL     OW19489   3.149   5.898   1.800
 6197SOL    HW119490   3.240   5.925   1.831
 6197SOL    HW219491   3.151   5.804   1.766
 6198SOL     OW19492   6.430   6.621   6.257
 6198SOL    HW119493   6.404   6.529   6.286
 6198SOL    HW219494   6.414   6.686   6.331
 6199SOL     OW19495   1.329   0.351   0.885
 6199SOL    HW119496   1.274   0.405   0.949
 6199SOL    HW219497   1.399   0.301   0.935
 6200SOL     OW19498   1.727   2.158   2.941
 6200SOL    HW119499   1.748   2.237   2.884
 6200SOL    HW219500   1.735   2.074   2.887
 6201SOL     OW19501   6.778   3.689   3.807
 6201SOL    HW119502   6.703   3.673   3.870
 6201SOL    HW219503   6.860   3.642   3.840
 6202SOL     OW19504   6.294   1.327   2.358
 6202SOL    HW119505   6.220   1.359   2.418
 6202SOL    HW219506   6.327   1.238   2.390
 6203SOL     OW19507   6.601   6.107   2.264
 6203SOL    HW119508   6.618   6.010   2.243
 6203SOL    HW219509   6.688   6.152   2.282
 6204SOL     OW19510   2.420   6.946   5.211
 6204SOL    HW119511   2.415   0.009   5.158
 6204SOL    HW219512   2.494   6.954   5.278
 6205SOL     OW19513   5.182   4.151   3.183
 6205SOL    HW119514   5.093   4.177   3.222
 6205SOL    HW219515   5.212   4.222   3.119
 6206SOL     OW19516   5.219   2.177   3.811
 6206SOL    HW119517   5.246   2.082   3.791
 6206SOL    HW219518   5.301   2.230   3.835
 6207SOL     OW19519   2.021   5.328   4.501
 6207SOL    HW119520   1.961   5.357   4.427
 6207SOL    HW219521   2.112   5.306   4.464
 6208SOL     OW19522   3.639   3.461   5.623
 6208SOL    HW119523   3.601   3.531   5.562
 6208SOL    HW219524   3.620   3.370   5.585
 6209SOL     OW19525   3.421   3.090   0.788
 6209SOL    HW119526   3.412   3.189   0.774
 6209SOL    HW219527   3.474   3.073   0.871
 6210SOL     OW19528   4.820   1.772   3.781
 6210SOL    HW119529   4.849   1.856   3.827
 6210SOL    HW219530   4.898   1.711   3.770
 6211SOL     OW19531   5.754   4.888   4.942
 6211SOL    HW119532   5.792   4.821   4.879
 6211SOL    HW219533   5.805   4.887   5.028
 6212SOL     OW19534   4.384   4.739   5.384
 6212SOL    HW119535   4.448   4.753   5.308
 6212SOL    HW219536   4.310   4.806   5.377
 6213SOL     OW19537   4.146   5.924   0.144
 6213SOL    HW119538   4.185   5.989   0.079
 6213SOL    HW219539   4.193   5.933   0.232
 6214SOL     OW19540   5.906   5.613   6.506
 6214SOL    HW119541   5.968   5.535   6.512
 6214SOL    HW219542   5.960   5.697   6.501
 6215SOL     OW19543   5.923   2.484   5.768
 6215SOL    HW119544   6.005   2.429   5.757
 6215SOL    HW219545   5.843   2.424   5.774
 6216SOL     OW19546   4.545   2.175   2.733
 6216SOL    HW119547   4.629   2.227   2.751
 6216SOL    HW219548   4.494   2.164   2.818
 6217SOL     OW19549   0.662   4.609   2.092
 6217SOL    HW119550   0.563   4.624   2.087
 6217SOL    HW219551   0.691   4.552   2.015
 6218SOL     OW19552   4.945   6.645   6.707
 6218SOL    HW119553   4.855   6.602   6.719
 6218SOL    HW219554   4.986   6.663   6.796
 6219SOL     OW19555   0.957   0.896   6.132
 6219SOL    HW119556   0.866   0.925   6.101
 6219SOL    HW219557   0.949   0.855   6.223
 6220SOL     OW19558   4.144   0.653   0.969
 6220SOL    HW119559   4.083   0.703   1.030
 6220SOL    HW219560   4.172   0.567   1.012
 6221SOL     OW19561   6.152   5.749   6.614
 6221SOL    HW119562   6.127   5.680   6.682
 6221SOL    HW219563   6.206   5.707   6.542
 6222SOL     OW19564   6.540   1.371   2.221
 6222SOL    HW119565   6.447   1.395   2.249
 6222SOL    HW219566   6.539   1.282   2.174
 6223SOL     OW19567   0.079   5.019   3.345
 6223SOL    HW119568   7.014   5.030   3.298
 6223SOL    HW219569   0.138   5.097   3.326
 6224SOL     OW19570   3.800   1.408   6.466
 6224SOL    HW119571   3.840   1.387   6.377
 6224SOL    HW219572   3.855   1.366   6.538
 6225SOL     OW19573   4.750   6.397   6.460
 6225SOL    HW119574   4.834   6.439   6.427
 6225SOL    HW219575   4.769   6.347   6.545
 6226SOL     OW19576   1.461   1.112   4.764
 6226SOL    HW119577   1.446   1.197   4.713
 6226SOL    HW219578   1.472   1.133   4.861
 6227SOL     OW19579   2.819   3.998   5.478
 6227SOL    HW119580   2.740   4.004   5.416
 6227SOL    HW219581   2.820   4.078   5.538
 6228SOL     OW19582   1.505   3.297   4.203
 6228SOL    HW119583   1.558   3.282   4.287
 6228SOL    HW219584   1.506   3.214   4.148
 6229SOL     OW19585   0.454   3.961   3.854
 6229SOL    HW119586   0.403   3.950   3.940
 6229SOL    HW219587   0.540   4.007   3.872
 6230SOL     OW19588   0.312   0.849   2.135
 6230SOL    HW119589   0.230   0.807   2.174
 6230SOL    HW219590   0.367   0.778   2.091
 6231SOL     OW19591   1.178   5.301   0.104
 6231SOL    HW119592   1.173   5.382   0.163
 6231SOL    HW219593   1.198   5.221   0.160
 6232SOL     OW19594   4.173   1.199   6.232
 6232SOL    HW119595   4.200   1.192   6.136
 6232SOL    HW219596   4.104   1.271   6.243
 6233SOL     OW19597   6.958   3.879   1.743
 6233SOL    HW119598   6.988   3.785   1.727
 6233SOL    HW219599   6.928   3.889   1.838
 6234SOL     OW19600   4.752   6.255   4.763
 6234SOL    HW119601   4.664   6.287   4.797
 6234SOL    HW219602   4.825   6.314   4.797
 6235SOL     OW19603   6.682   0.817   2.897
 6235SOL    HW119604   6.587   0.848   2.900
 6235SOL    HW219605   6.733   0.858   2.972
 6236SOL     OW19606   1.039   5.361   0.855
 6236SOL    HW119607   0.964   5.352   0.921
 6236SOL    HW219608   1.102   5.433   0.885
 6237SOL     OW19609   3.705   1.507   0.939
 6237SOL    HW119610   3.613   1.506   0.978
 6237SOL    HW219611   3.747   1.417   0.951
 6238SOL     OW19612   2.345   6.732   4.443
 6238SOL    HW119613   2.396   6.647   4.432
 6238SOL    HW219614   2.387   6.787   4.516
 6239SOL     OW19615   4.708   1.351   3.413
 6239SOL    HW119616   4.732   1.419   3.482
 6239SOL    HW219617   4.740   1.381   3.323
 6240SOL     OW19618   4.090   3.552   4.385
 6240SOL    HW119619   4.099   3.477   4.450
 6240SOL    HW219620   4.082   3.639   4.434
 6241SOL     OW19621   3.658   0.356   2.661
 6241SOL    HW119622   3.727   0.427   2.648
 6241SOL    HW219623   3.576   0.397   2.702
 6242SOL     OW19624   2.585   2.133   3.826
 6242SOL    HW119625   2.631   2.222   3.830
 6242SOL    HW219626   2.513   2.129   3.895
 6243SOL     OW19627   4.944   0.920   5.917
 6243SOL    HW119628   4.988   0.999   5.959
 6243SOL    HW219629   5.011   0.848   5.901
 6244SOL     OW19630   4.404   4.628   2.958
 6244SOL    HW119631   4.365   4.713   2.923
 6244SOL    HW219632   4.478   4.597   2.898
 6245SOL     OW19633   0.878   4.362   2.582
 6245SOL    HW119634   0.818   4.337   2.506
 6245SOL    HW219635   0.823   4.393   2.659
 6246SOL     OW19636   6.609   6.423   4.331
 6246SOL    HW119637   6.650   6.494   4.274
 6246SOL    HW219638   6.581   6.462   4.418
 6247SOL     OW19639   6.337   6.877   2.516
 6247SOL    HW119640   6.428   6.892   2.554
 6247SOL    HW219641   6.286   6.815   2.575
 6248SOL     OW19642   3.266   3.238   6.096
 6248SOL    HW119643   3.295   3.191   6.180
 6248SOL    HW219644   3.292   3.183   6.017
 6249SOL     OW19645   6.267   3.211   1.729
 6249SOL    HW119646   6.218   3.249   1.650
 6249SOL    HW219647   6.239   3.116   1.742
 6250SOL     OW19648   6.669   6.914   0.303
 6250SOL    HW119649   6.584   6.967   0.298
 6250SOL    HW219650   6.647   6.817   0.304
 6251SOL     OW19651   2.814   6.689   4.396
 6251SOL    HW119652   2.716   6.675   4.387
 6251SOL    HW219653   2.857   6.683   4.305
 6252SOL     OW19654   2.942   5.347   6.694
 6252SOL    HW119655   2.856   5.328   6.646
 6252SOL    HW219656   3.017   5.352   6.628
 6253SOL     OW19657   3.752   4.986   4.985
 6253SOL    HW119658   3.749   4.943   5.075
 6253SOL    HW219659   3.667   4.968   4.936
 6254SOL     OW19660   0.407   6.768   1.175
 6254SOL    HW119661   0.440   6.860   1.153
 6254SOL    HW219662   0.460   6.701   1.123
 6255SOL     OW19663   0.501   1.048   2.178
 6255SOL    HW119664   0.510   1.094   2.090
 6255SOL    HW219665   0.433   0.975   2.171
 6256SOL     OW19666   4.763   5.808   2.067
 6256SOL    HW119667   4.845   5.808   2.124
 6256SOL    HW219668   4.700   5.878   2.099
 6257SOL     OW19669   3.680   4.166   1.419
 6257SOL    HW119670   3.584   4.192   1.408
 6257SOL    HW219671   3.687   4.067   1.426
 6258SOL     OW19672   4.003   6.012   5.280
 6258SOL    HW119673   3.920   5.987   5.328
 6258SOL    HW219674   3.995   6.106   5.246
 6259SOL     OW19675   2.844   0.470   4.656
 6259SOL    HW119676   2.749   0.492   4.677
 6259SOL    HW219677   2.872   0.389   4.707
 6260SOL     OW19678   1.897   1.551   0.512
 6260SOL    HW119679   1.946   1.635   0.537
 6260SOL    HW219680   1.955   1.496   0.453
 6261SOL     OW19681   3.474   0.290   0.920
 6261SOL    HW119682   3.544   0.357   0.941
 6261SOL    HW219683   3.420   0.271   1.003
 6262SOL     OW19684   6.253   0.220   2.284
 6262SOL    HW119685   6.334   0.161   2.281
 6262SOL    HW219686   6.282   0.315   2.299
 6263SOL     OW19687   5.811   5.800   6.189
 6263SOL    HW119688   5.848   5.717   6.149
 6263SOL    HW219689   5.712   5.802   6.177
 6264SOL     OW19690   1.690   0.067   0.588
 6264SOL    HW119691   1.735   0.151   0.620
 6264SOL    HW219692   1.594   0.086   0.570
 6265SOL     OW19693   4.622   0.772   0.019
 6265SOL    HW119694   4.570   0.795   0.102
 6265SOL    HW219695   4.619   0.673   0.004
 6266SOL     OW19696   2.259   5.035   2.582
 6266SOL    HW119697   2.315   5.069   2.507
 6266SOL    HW219698   2.314   5.029   2.665
 6267SOL     OW19699   1.661   6.456   4.943
 6267SOL    HW119700   1.689   6.386   5.009
 6267SOL    HW219701   1.561   6.465   4.945
 6268SOL     OW19702   3.343   1.260   1.399
 6268SOL    HW119703   3.442   1.252   1.414
 6268SOL    HW219704   3.319   1.356   1.389
 6269SOL     OW19705   6.301   5.345   0.349
 6269SOL    HW119706   6.268   5.389   0.432
 6269SOL    HW219707   6.230   5.285   0.313
 6270SOL     OW19708   2.040   6.614   0.188
 6270SOL    HW119709   2.035   6.515   0.177
 6270SOL    HW219710   2.120   6.638   0.243
 6271SOL     OW19711   5.858   3.269   6.549
 6271SOL    HW119712   5.818   3.318   6.627
 6271SOL    HW219713   5.816   3.301   6.465
 6272SOL     OW19714   0.749   6.789   0.944
 6272SOL    HW119715   0.673   6.724   0.950
 6272SOL    HW219716   0.833   6.744   0.974
 6273SOL     OW19717   0.274   6.560   1.273
 6273SOL    HW119718   0.318   6.637   1.229
 6273SOL    HW219719   0.328   6.530   1.351
 6274SOL     OW19720   3.167   5.721   4.222
 6274SOL    HW119721   3.119   5.663   4.288
 6274SOL    HW219722   3.247   5.673   4.187
 6275SOL     OW19723   1.907   5.475   6.960
 6275SOL    HW119724   1.877   5.539   6.889
 6275SOL    HW219725   2.003   5.493   6.982
 6276SOL     OW19726   1.394   5.595   2.991
 6276SOL    HW119727   1.347   5.600   3.079
 6276SOL    HW219728   1.492   5.610   3.004
 6277SOL     OW19729   5.115   3.623   0.844
 6277SOL    HW119730   5.151   3.581   0.928
 6277SOL    HW219731   5.025   3.663   0.863
 6278SOL     OW19732   2.435   1.081   6.238
 6278SOL    HW119733   2.392   1.030   6.164
 6278SOL    HW219734   2.367   1.101   6.309
 6279SOL     OW19735   2.418   0.237   1.500
 6279SOL    HW119736   2.335   0.285   1.468
 6279SOL    HW219737   2.407   0.211   1.596
 6280SOL     OW19738   6.316   2.106   0.428
 6280SOL    HW119739   6.388   2.153   0.377
 6280SOL    HW219740   6.244   2.077   0.364
 6281SOL     OW19741   5.922   3.835   6.005
 6281SOL    HW119742   5.917   3.866   6.100
 6281SOL    HW219743   5.934   3.736   6.003
 6282SOL     OW19744   0.112   3.162   5.821
 6282SOL    HW119745   0.159   3.077   5.845
 6282SOL    HW219746   0.120   3.227   5.896
 6283SOL     OW19747   1.170   6.057   4.629
 6283SOL    HW119748   1.098   5.998   4.665
 6283SOL    HW219749   1.251   6.001   4.608
 6284SOL     OW19750   2.034   4.524   6.488
 6284SOL    HW119751   2.107   4.455   6.487
 6284SOL    HW219752   1.971   4.506   6.413
 6285SOL     OW19753   0.805   3.759   3.200
 6285SOL    HW119754   0.896   3.797   3.218
 6285SOL    HW219755   0.794   3.746   3.102
 6286SOL     OW19756   0.686   2.495   6.932
 6286SOL    HW119757   0.613   2.435   6.966
 6286SOL    HW219758   0.646   2.575   6.889
 6287SOL     OW19759   4.839   4.983   4.804
 6287SOL    HW119760   4.854   5.044   4.726
 6287SOL    HW219761   4.879   4.893   4.785
 6288SOL     OW19762   3.416   3.150   6.552
 6288SOL    HW119763   3.421   3.228   6.614
 6288SOL    HW219764   3.448   3.068   6.600
 6289SOL     OW19765   2.654   4.461   5.684
 6289SOL    HW119766   2.729   4.522   5.710
 6289SOL    HW219767   2.594   4.508   5.620
 6290SOL     OW19768   5.522   5.554   4.073
 6290SOL    HW119769   5.603   5.533   4.019
 6290SOL    HW219770   5.514   5.653   4.084
 6291SOL     OW19771   3.900   3.654   3.271
 6291SOL    HW119772   3.880   3.745   3.237
 6291SOL    HW219773   3.991   3.652   3.312
 6292SOL     OW19774   1.280   3.418   4.287
 6292SOL    HW119775   1.373   3.399   4.255
 6292SOL    HW219776   1.245   3.339   4.337
 6293SOL     OW19777   3.878   1.081   6.535
 6293SOL    HW119778   3.911   1.169   6.569
 6293SOL    HW219779   3.953   1.015   6.534
 6294SOL     OW19780   1.459   1.364   3.178
 6294SOL    HW119781   1.362   1.352   3.160
 6294SOL    HW219782   1.502   1.274   3.190
 6295SOL     OW19783   5.452   3.698   5.959
 6295SOL    HW119784   5.545   3.713   5.992
 6295SOL    HW219785   5.387   3.721   6.032
 6296SOL     OW19786   0.752   2.927   0.118
 6296SOL    HW119787   0.740   2.828   0.125
 6296SOL    HW219788   0.837   2.954   0.164
 6297SOL     OW19789   5.717   0.979   4.107
 6297SOL    HW119790   5.783   0.957   4.035
 6297SOL    HW219791   5.765   1.009   4.189
 6298SOL     OW19792   6.293   5.578   0.733
 6298SOL    HW119793   6.365   5.614   0.793
 6298SOL    HW219794   6.303   5.617   0.641
 6299SOL     OW19795   4.113   1.308   2.418
 6299SOL    HW119796   4.089   1.372   2.492
 6299SOL    HW219797   4.066   1.221   2.434
 6300SOL     OW19798   2.915   1.118   6.181
 6300SOL    HW119799   2.898   1.210   6.147
 6300SOL    HW219800   2.863   1.052   6.127
 6301SOL     OW19801   3.703   6.387   6.725
 6301SOL    HW119802   3.637   6.424   6.790
 6301SOL    HW219803   3.735   6.298   6.759
 6302SOL     OW19804   2.994   2.144   6.302
 6302SOL    HW119805   2.930   2.191   6.242
 6302SOL    HW219806   2.979   2.045   6.296
 6303SOL     OW19807   0.818   6.048   5.064
 6303SOL    HW119808   0.839   5.951   5.051
 6303SOL    HW219809   0.739   6.072   5.007
 6304SOL     OW19810   4.233   0.963   3.596
 6304SOL    HW119811   4.313   1.007   3.637
 6304SOL    HW219812   4.164   1.032   3.575
 6305SOL     OW19813   1.017   6.062   6.054
 6305SOL    HW119814   0.952   6.036   6.125
 6305SOL    HW219815   1.105   6.085   6.096
 6306SOL     OW19816   0.089   4.689   4.417
 6306SOL    HW119817   0.188   4.699   4.421
 6306SOL    HW219818   0.060   4.683   4.321
 6307SOL     OW19819   4.162   3.484   3.135
 6307SOL    HW119820   4.172   3.467   3.233
 6307SOL    HW219821   4.102   3.415   3.095
 6308SOL     OW19822   0.058   2.333   0.563
 6308SOL    HW119823   0.071   2.395   0.640
 6308SOL    HW219824   0.111   2.250   0.577
 6309SOL     OW19825   2.237   6.145   4.804
 6309SOL    HW119826   2.175   6.178   4.733
 6309SOL    HW219827   2.311   6.211   4.817
 6310SOL     OW19828   1.383   6.723   3.229
 6310SOL    HW119829   1.302   6.665   3.242
 6310SOL    HW219830   1.354   6.814   3.198
 6311SOL     OW19831   5.490   1.006   5.949
 6311SOL    HW119832   5.458   1.086   6.000
 6311SOL    HW219833   5.450   0.924   5.987
 6312SOL     OW19834   3.612   6.066   6.563
 6312SOL    HW119835   3.670   5.993   6.527
 6312SOL    HW219836   3.657   6.155   6.547
 6313SOL     OW19837   5.854   5.470   4.611
 6313SOL    HW119838   5.923   5.482   4.540
 6313SOL    HW219839   5.815   5.378   4.605
 6314SOL     OW19840   1.827   0.139   2.449
 6314SOL    HW119841   1.897   0.130   2.378
 6314SOL    HW219842   1.864   0.109   2.537
 6315SOL     OW19843   2.061   2.663   4.591
 6315SOL    HW119844   1.996   2.618   4.651
 6315SOL    HW219845   2.148   2.676   4.639
 6316SOL     OW19846   5.147   0.955   4.734
 6316SOL    HW119847   5.104   0.923   4.818
 6316SOL    HW219848   5.246   0.965   4.749
 6317SOL     OW19849   5.266   5.058   1.594
 6317SOL    HW119850   5.260   4.962   1.569
 6317SOL    HW219851   5.176   5.092   1.620
 6318SOL     OW19852   6.933   6.731   6.508
 6318SOL    HW119853   6.941   6.738   6.409
 6318SOL    HW219854   6.993   6.798   6.552
 6319SOL     OW19855   5.239   0.711   4.195
 6319SOL    HW119856   5.310   0.767   4.153
 6319SOL    HW219857   5.229   0.625   4.146
 6320SOL     OW19858   6.226   0.491   5.789
 6320SOL    HW119859   6.207   0.588   5.802
 6320SOL    HW219860   6.155   0.436   5.834
 6321SOL     OW19861   5.941   2.109   6.751
 6321SOL    HW119862   5.971   2.173   6.821
 6321SOL    HW219863   5.907   2.025   6.794
 6322SOL     OW19864   1.243   1.564   2.003
 6322SOL    HW119865   1.318   1.505   1.972
 6322SOL    HW219866   1.218   1.628   1.931
 6323SOL     OW19867   2.444   4.039   1.439
 6323SOL    HW119868   2.491   3.969   1.385
 6323SOL    HW219869   2.420   4.116   1.380
 6324SOL     OW19870   4.850   1.669   0.911
 6324SOL    HW119871   4.809   1.720   0.836
 6324SOL    HW219872   4.857   1.572   0.886
 6325SOL     OW19873   1.531   3.046   4.055
 6325SOL    HW119874   1.589   3.025   4.134
 6325SOL    HW219875   1.588   3.058   3.974
 6326SOL     OW19876   5.412   4.744   6.009
 6326SOL    HW119877   5.400   4.673   5.940
 6326SOL    HW219878   5.489   4.802   5.983
 6327SOL     OW19879   7.001   0.799   4.116
 6327SOL    HW119880   0.052   0.761   4.059
 6327SOL    HW219881   7.006   0.899   4.114
 6328SOL     OW19882   4.507   3.475   5.359
 6328SOL    HW119883   4.557   3.473   5.273
 6328SOL    HW219884   4.475   3.568   5.377
 6329SOL     OW19885   1.139   2.266   5.885
 6329SOL    HW119886   1.128   2.249   5.983
 6329SOL    HW219887   1.114   2.183   5.835
 6330SOL     OW19888   5.273   1.490   3.305
 6330SOL    HW119889   5.266   1.448   3.215
 6330SOL    HW219890   5.332   1.434   3.364
 6331SOL     OW19891   1.026   3.210   3.659
 6331SOL    HW119892   0.950   3.262   3.620
 6331SOL    HW219893   1.112   3.249   3.629
 6332SOL     OW19894   3.360   1.485   0.075
 6332SOL    HW119895   3.360   1.398   0.124
 6332SOL    HW219896   3.364   1.468   6.999
 6333SOL     OW19897   5.190   1.957   0.740
 6333SOL    HW119898   5.182   1.867   0.782
 6333SOL    HW219899   5.287   1.982   0.734
 6334SOL     OW19900   1.576   1.380   2.264
 6334SOL    HW119901   1.607   1.406   2.356
 6334SOL    HW219902   1.550   1.283   2.265
 6335SOL     OW19903   6.427   1.534   0.063
 6335SOL    HW119904   6.504   1.474   0.086
 6335SOL    HW219905   6.383   1.565   0.147
 6336SOL     OW19906   0.918   3.231   5.926
 6336SOL    HW119907   0.984   3.190   5.989
 6336SOL    HW219908   0.831   3.183   5.931
 6337SOL     OW19909   4.722   5.489   5.423
 6337SOL    HW119910   4.750   5.394   5.406
 6337SOL    HW219911   4.626   5.491   5.448
 6338SOL     OW19912   2.546   1.218   2.980
 6338SOL    HW119913   2.556   1.272   3.064
 6338SOL    HW219914   2.536   1.281   2.902
 6339SOL     OW19915   0.612   4.593   3.583
 6339SOL    HW119916   0.543   4.553   3.643
 6339SOL    HW219917   0.571   4.613   3.493
 6340SOL     OW19918   2.063   4.193   1.049
 6340SOL    HW119919   2.153   4.172   1.013
 6340SOL    HW219920   2.049   4.292   1.050
 6341SOL     OW19921   0.555   4.858   3.418
 6341SOL    HW119922   0.614   4.890   3.491
 6341SOL    HW219923   0.459   4.878   3.441
 6342SOL     OW19924   2.335   1.495   1.509
 6342SOL    HW119925   2.416   1.506   1.451
 6342SOL    HW219926   2.341   1.410   1.561
 6343SOL     OW19927   1.442   5.655   1.217
 6343SOL    HW119928   1.436   5.710   1.301
 6343SOL    HW219929   1.538   5.648   1.188
 6344SOL     OW19930   6.778   1.127   4.035
 6344SOL    HW119931   6.830   1.101   3.953
 6344SOL    HW219932   6.681   1.108   4.019
 6345SOL     OW19933   5.793   3.778   2.197
 6345SOL    HW119934   5.742   3.742   2.118
 6345SOL    HW219935   5.728   3.818   2.262
 6346SOL     OW19936   6.768   4.267   5.384
 6346SOL    HW119937   6.799   4.243   5.476
 6346SOL    HW219938   6.734   4.361   5.384
 6347SOL     OW19939   2.012   1.818   3.356
 6347SOL    HW119940   1.945   1.746   3.335
 6347SOL    HW219941   2.098   1.776   3.383
 6348SOL     OW19942   0.159   2.105   6.201
 6348SOL    HW119943   0.240   2.084   6.145
 6348SOL    HW219944   0.103   2.022   6.210
 6349SOL     OW19945   7.019   1.251   0.000
 6349SOL    HW119946   6.931   1.253   6.976
 6349SOL    HW219947   0.062   1.198   6.969
 6350SOL     OW19948   0.997   5.177   2.126
 6350SOL    HW119949   1.089   5.139   2.122
 6350SOL    HW219950   0.989   5.252   2.060
 6351SOL     OW19951   5.640   2.831   2.016
 6351SOL    HW119952   5.600   2.742   1.992
 6351SOL    HW219953   5.625   2.849   2.114
 6352SOL     OW19954   3.141   0.454   4.473
 6352SOL    HW119955   3.208   0.423   4.540
 6352SOL    HW219956   3.094   0.535   4.508
 6353SOL     OW19957   3.337   6.269   5.792
 6353SOL    HW119958   3.434   6.255   5.812
 6353SOL    HW219959   3.282   6.223   5.862
 6354SOL     OW19960   4.655   5.468   1.674
 6354SOL    HW119961   4.672   5.564   1.697
 6354SOL    HW219962   4.616   5.421   1.754
 6355SOL     OW19963   2.358   4.791   0.981
 6355SOL    HW119964   2.346   4.838   0.894
 6355SOL    HW219965   2.380   4.695   0.964
 6356SOL     OW19966   6.304   4.817   6.331
 6356SOL    HW119967   6.363   4.896   6.344
 6356SOL    HW219968   6.301   4.763   6.415
 6357SOL     OW19969   5.857   1.208   1.581
 6357SOL    HW119970   5.942   1.187   1.535
 6357SOL    HW219971   5.872   1.282   1.647
 6358SOL     OW19972   1.503   2.314   6.302
 6358SOL    HW119973   1.576   2.355   6.357
 6358SOL    HW219974   1.416   2.319   6.353
 6359SOL     OW19975   5.710   6.458   0.293
 6359SOL    HW119976   5.733   6.373   0.341
 6359SOL    HW219977   5.722   6.444   0.195
 6360SOL     OW19978   0.785   2.324   2.303
 6360SOL    HW119979   0.804   2.421   2.295
 6360SOL    HW219980   0.765   2.286   2.212
 6361SOL     OW19981   0.222   0.730   6.607
 6361SOL    HW119982   0.188   0.653   6.660
 6361SOL    HW219983   0.237   0.701   6.512
 6362SOL     OW19984   1.540   5.858   0.679
 6362SOL    HW119985   1.476   5.789   0.647
 6362SOL    HW219986   1.505   5.901   0.762
 6363SOL     OW19987   2.285   4.239   3.161
 6363SOL    HW119988   2.253   4.218   3.254
 6363SOL    HW219989   2.276   4.157   3.104
 6364SOL     OW19990   2.334   2.862   4.334
 6364SOL    HW119991   2.262   2.796   4.311
 6364SOL    HW219992   2.299   2.954   4.321
 6365SOL     OW19993   5.769   6.003   3.121
 6365SOL    HW119994   5.773   6.067   3.197
 6365SOL    HW219995   5.764   6.054   3.035
 6366SOL     OW19996   6.194   0.088   4.936
 6366SOL    HW119997   6.116   0.073   4.876
 6366SOL    HW219998   6.211   0.186   4.946
 6367SOL     OW19999   2.036   2.265   2.150
 6367SOL    HW120000   2.055   2.299   2.242
 6367SOL    HW220001   2.060   2.168   2.146
 6368SOL     OW20002   4.848   3.003   4.582
 6368SOL    HW120003   4.786   2.960   4.516
 6368SOL    HW220004   4.840   2.957   4.670
 6369SOL     OW20005   3.930   5.609   6.965
 6369SOL    HW120006   3.854   5.549   6.942
 6369SOL    HW220007   3.934   5.622   0.041
 6370SOL     OW20008   5.320   3.509   4.423
 6370SOL    HW120009   5.350   3.477   4.333
 6370SOL    HW220010   5.329   3.608   4.428
 6371SOL     OW20011   4.941   4.123   1.428
 6371SOL    HW120012   5.014   4.069   1.385
 6371SOL    HW220013   4.892   4.067   1.495
 6372SOL     OW20014   6.464   1.588   2.553
 6372SOL    HW120015   6.409   1.648   2.494
 6372SOL    HW220016   6.535   1.543   2.498
 6373SOL     OW20017   4.535   4.150   1.268
 6373SOL    HW120018   4.617   4.208   1.272
 6373SOL    HW220019   4.470   4.178   1.338
 6374SOL     OW20020   4.530   3.871   6.821
 6374SOL    HW120021   4.493   3.830   6.738
 6374SOL    HW220022   4.571   3.800   6.878
 6375SOL     OW20023   5.437   2.153   2.055
 6375SOL    HW120024   5.340   2.160   2.032
 6375SOL    HW220025   5.450   2.176   2.152
 6376SOL     OW20026   3.553   1.108   6.651
 6376SOL    HW120027   3.564   1.154   6.739
 6376SOL    HW220028   3.503   1.022   6.665
 6377SOL     OW20029   6.829   0.541   0.537
 6377SOL    HW120030   6.765   0.562   0.463
 6377SOL    HW220031   6.895   0.617   0.546
 6378SOL     OW20032   5.378   5.280   1.997
 6378SOL    HW120033   5.420   5.259   1.909
 6378SOL    HW220034   5.433   5.348   2.045
 6379SOL     OW20035   2.213   6.018   6.532
 6379SOL    HW120036   2.166   6.091   6.582
 6379SOL    HW220037   2.223   6.044   6.436
 6380SOL     OW20038   1.196   3.458   5.019
 6380SOL    HW120039   1.106   3.436   5.057
 6380SOL    HW220040   1.263   3.392   5.051
 6381SOL     OW20041   4.169   2.365   0.034
 6381SOL    HW120042   4.259   2.323   0.045
 6381SOL    HW220043   4.106   2.300   7.015
 6382SOL     OW20044   1.741   2.007   1.016
 6382SOL    HW120045   1.794   1.938   1.066
 6382SOL    HW220046   1.743   2.094   1.066
 6383SOL     OW20047   2.423   2.612   2.477
 6383SOL    HW120048   2.440   2.584   2.572
 6383SOL    HW220049   2.408   2.711   2.473
 6384SOL     OW20050   6.628   2.487   2.572
 6384SOL    HW120051   6.721   2.493   2.609
 6384SOL    HW220052   6.590   2.397   2.593
 6385SOL     OW20053   6.849   3.218   1.447
 6385SOL    HW120054   6.769   3.162   1.426
 6385SOL    HW220055   6.916   3.209   1.373
 6386SOL     OW20056   2.282   4.117   0.573
 6386SOL    HW120057   2.287   4.084   0.667
 6386SOL    HW220058   2.370   4.100   0.527
 6387SOL     OW20059   6.805   0.040   6.500
 6387SOL    HW120060   6.824   0.075   6.408
 6387SOL    HW220061   6.890   0.007   6.541
 6388SOL     OW20062   6.742   5.269   2.259
 6388SOL    HW120063   6.712   5.184   2.304
 6388SOL    HW220064   6.839   5.284   2.277
 6389SOL     OW20065   0.839   0.455   0.088
 6389SOL    HW120066   0.779   0.451   0.008
 6389SOL    HW220067   0.788   0.488   0.167
 6390SOL     OW20068   5.757   0.374   6.834
 6390SOL    HW120069   5.791   0.408   6.922
 6390SOL    HW220070   5.832   0.372   6.768
 6391SOL     OW20071   0.979   1.505   5.190
 6391SOL    HW120072   1.050   1.447   5.230
 6391SOL    HW220073   0.894   1.453   5.182
 6392SOL     OW20074   3.980   6.847   3.399
 6392SOL    HW120075   4.027   6.801   3.474
 6392SOL    HW220076   3.944   6.779   3.335
 6393SOL     OW20077   0.464   5.661   0.175
 6393SOL    HW120078   0.429   5.730   0.239
 6393SOL    HW220079   0.467   5.700   0.083
 6394SOL     OW20080   1.258   5.639   1.498
 6394SOL    HW120081   1.354   5.655   1.475
 6394SOL    HW220082   1.251   5.615   1.595
 6395SOL     OW20083   2.057   3.768   3.365
 6395SOL    HW120084   2.008   3.714   3.434
 6395SOL    HW220085   2.093   3.707   3.295
 6396SOL     OW20086   1.135   3.536   6.602
 6396SOL    HW120087   1.060   3.529   6.668
 6396SOL    HW220088   1.166   3.630   6.597
 6397SOL     OW20089   5.307   3.445   4.145
 6397SOL    HW120090   5.355   3.414   4.063
 6397SOL    HW220091   5.239   3.377   4.172
 6398SOL     OW20092   2.098   0.517   0.976
 6398SOL    HW120093   2.095   0.591   0.909
 6398SOL    HW220094   2.047   0.545   1.058
 6399SOL     OW20095   3.545   0.837   6.025
 6399SOL    HW120096   3.467   0.855   6.085
 6399SOL    HW220097   3.546   0.740   6.000
 6400SOL     OW20098   1.541   6.355   3.582
 6400SOL    HW120099   1.476   6.282   3.563
 6400SOL    HW220100   1.549   6.415   3.503
 6401SOL     OW20101   3.602   5.659   3.497
 6401SOL    HW120102   3.613   5.617   3.407
 6401SOL    HW220103   3.677   5.725   3.512
 6402SOL     OW20104   1.809   4.545   4.818
 6402SOL    HW120105   1.787   4.475   4.750
 6402SOL    HW220106   1.725   4.588   4.850
 6403SOL     OW20107   5.183   5.708   5.074
 6403SOL    HW120108   5.093   5.734   5.111
 6403SOL    HW220109   5.171   5.643   4.999
 6404SOL     OW20110   4.445   6.971   2.009
 6404SOL    HW120111   4.523   0.005   1.981
 6404SOL    HW220112   4.398   7.014   2.086
 6405SOL     OW20113   5.084   1.725   2.258
 6405SOL    HW120114   5.068   1.822   2.242
 6405SOL    HW220115   5.176   1.712   2.295
 6406SOL     OW20116   0.486   3.169   3.100
 6406SOL    HW120117   0.462   3.174   3.197
 6406SOL    HW220118   0.575   3.124   3.091
 6407SOL     OW20119   0.955   6.021   2.620
 6407SOL    HW120120   0.923   6.060   2.534
 6407SOL    HW220121   1.045   5.981   2.607
 6408SOL     OW20122   6.737   0.330   1.863
 6408SOL    HW120123   6.793   0.395   1.915
 6408SOL    HW220124   6.682   0.380   1.796
 6409SOL     OW20125   5.705   5.069   3.597
 6409SOL    HW120126   5.735   5.092   3.504
 6409SOL    HW220127   5.622   5.120   3.618
 6410SOL     OW20128   2.209   1.392   6.120
 6410SOL    HW120129   2.248   1.450   6.049
 6410SOL    HW220130   2.283   1.343   6.167
 6411SOL     OW20131   0.622   2.304   2.074
 6411SOL    HW120132   0.541   2.362   2.061
 6411SOL    HW220133   0.680   2.310   1.993
 6412SOL     OW20134   3.541   0.888   0.392
 6412SOL    HW120135   3.634   0.857   0.411
 6412SOL    HW220136   3.538   0.931   0.302
 6413SOL     OW20137   4.566   6.354   3.172
 6413SOL    HW120138   4.640   6.419   3.155
 6413SOL    HW220139   4.576   6.314   3.263
 6414SOL     OW20140   1.525   0.280   0.300
 6414SOL    HW120141   1.568   0.360   0.341
 6414SOL    HW220142   1.506   0.212   0.371
 6415SOL     OW20143   0.275   2.451   3.626
 6415SOL    HW120144   0.348   2.479   3.564
 6415SOL    HW220145   0.190   2.441   3.575
 6416SOL     OW20146   2.884   6.821   0.156
 6416SOL    HW120147   2.822   6.839   0.080
 6416SOL    HW220148   2.936   6.737   0.138
 6417SOL     OW20149   3.835   1.980   0.668
 6417SOL    HW120150   3.742   2.002   0.640
 6417SOL    HW220151   3.833   1.900   0.729
 6418SOL     OW20152   3.955   4.787   0.384
 6418SOL    HW120153   4.004   4.702   0.403
 6418SOL    HW220154   3.992   4.828   0.300
 6419SOL     OW20155   1.400   6.459   6.423
 6419SOL    HW120156   1.373   6.497   6.512
 6419SOL    HW220157   1.331   6.483   6.355
 6420SOL     OW20158   2.322   4.241   4.555
 6420SOL    HW120159   2.384   4.261   4.631
 6420SOL    HW220160   2.365   4.272   4.470
 6421SOL     OW20161   4.169   0.054   1.890
 6421SOL    HW120162   4.201   0.009   1.973
 6421SOL    HW220163   4.074   0.029   1.872
 6422SOL     OW20164   5.810   1.841   4.380
 6422SOL    HW120165   5.752   1.885   4.312
 6422SOL    HW220166   5.879   1.785   4.333
 6423SOL     OW20167   2.237   4.469   4.171
 6423SOL    HW120168   2.223   4.383   4.121
 6423SOL    HW220169   2.152   4.495   4.218
 6424SOL     OW20170   6.187   4.406   5.547
 6424SOL    HW120171   6.228   4.395   5.456
 6424SOL    HW220172   6.219   4.332   5.606
 6425SOL     OW20173   6.696   5.480   3.839
 6425SOL    HW120174   6.640   5.487   3.922
 6425SOL    HW220175   6.744   5.566   3.823
 6426SOL     OW20176   4.663   4.412   5.228
 6426SOL    HW120177   4.760   4.435   5.215
 6426SOL    HW220178   4.652   4.313   5.222
 6427SOL     OW20179   3.945   3.264   3.337
 6427SOL    HW120180   3.951   3.193   3.407
 6427SOL    HW220181   3.849   3.288   3.322
 6428SOL     OW20182   5.354   3.405   0.483
 6428SOL    HW120183   5.367   3.315   0.441
 6428SOL    HW220184   5.370   3.398   0.582
 6429SOL     OW20185   2.212   1.432   5.528
 6429SOL    HW120186   2.285   1.500   5.513
 6429SOL    HW220187   2.195   1.424   5.627
 6430SOL     OW20188   6.765   6.998   5.065
 6430SOL    HW120189   6.833   6.942   5.113
 6430SOL    HW220190   6.812   0.041   5.007
 6431SOL     OW20191   3.722   4.750   1.667
 6431SOL    HW120192   3.735   4.842   1.702
 6431SOL    HW220193   3.660   4.700   1.727
 6432SOL     OW20194   4.624   4.730   6.018
 6432SOL    HW120195   4.686   4.685   6.082
 6432SOL    HW220196   4.650   4.707   5.924
 6433SOL     OW20197   3.323   5.047   6.858
 6433SOL    HW120198   3.239   5.024   6.908
 6433SOL    HW220199   3.299   5.082   6.767
 6434SOL     OW20200   4.156   5.372   6.072
 6434SOL    HW120201   4.242   5.386   6.120
 6434SOL    HW220202   4.121   5.280   6.093
 6435SOL     OW20203   4.977   1.868   1.083
 6435SOL    HW120204   4.950   1.777   1.051
 6435SOL    HW220205   5.026   1.859   1.170
 6436SOL     OW20206   6.643   3.748   4.090
 6436SOL    HW120207   6.643   3.684   4.167
 6436SOL    HW220208   6.723   3.806   4.095
 6437SOL     OW20209   0.949   1.984   5.443
 6437SOL    HW120210   1.006   1.907   5.415
 6437SOL    HW220211   0.861   1.980   5.394
 6438SOL     OW20212   0.321   4.995   0.527
 6438SOL    HW120213   0.323   4.999   0.627
 6438SOL    HW220214   0.388   5.060   0.490
 6439SOL     OW20215   5.937   6.961   3.179
 6439SOL    HW120216   5.843   6.978   3.208
 6439SOL    HW220217   5.999   6.985   3.254
 6440SOL     OW20218   2.889   2.029   6.838
 6440SOL    HW120219   2.873   1.930   6.839
 6440SOL    HW220220   2.854   2.069   6.923
 6441SOL     OW20221   0.840   1.731   2.841
 6441SOL    HW120222   0.841   1.757   2.745
 6441SOL    HW220223   0.854   1.813   2.898
 6442SOL     OW20224   2.802   2.524   5.343
 6442SOL    HW120225   2.751   2.444   5.374
 6442SOL    HW220226   2.764   2.606   5.386
 6443SOL     OW20227   4.932   2.861   0.151
 6443SOL    HW120228   4.873   2.782   0.165
 6443SOL    HW220229   4.965   2.894   0.239
 6444SOL     OW20230   6.239   3.071   4.990
 6444SOL    HW120231   6.313   3.120   5.036
 6444SOL    HW220232   6.189   3.015   5.056
 6445SOL     OW20233   3.585   2.908   2.950
 6445SOL    HW120234   3.520   2.883   3.022
 6445SOL    HW220235   3.677   2.914   2.989
 6446SOL     OW20236   2.333   1.058   6.492
 6446SOL    HW120237   2.292   0.971   6.520
 6446SOL    HW220238   2.431   1.056   6.512
 6447SOL     OW20239   6.554   3.155   1.549
 6447SOL    HW120240   6.533   3.201   1.636
 6447SOL    HW220241   6.595   3.066   1.568
 6448SOL     OW20242   3.417   5.322   1.265
 6448SOL    HW120243   3.342   5.258   1.276
 6448SOL    HW220244   3.398   5.405   1.318
 6449SOL     OW20245   2.324   5.601   1.501
 6449SOL    HW120246   2.361   5.516   1.539
 6449SOL    HW220247   2.372   5.624   1.417
 6450SOL     OW20248   0.811   4.253   1.154
 6450SOL    HW120249   0.814   4.156   1.129
 6450SOL    HW220250   0.820   4.309   1.071
 6451SOL     OW20251   4.207   2.459   1.456
 6451SOL    HW120252   4.205   2.399   1.376
 6451SOL    HW220253   4.188   2.553   1.427
 6452SOL     OW20254   4.745   2.255   3.383
 6452SOL    HW120255   4.779   2.184   3.445
 6452SOL    HW220256   4.714   2.212   3.298
 6453SOL     OW20257   2.607   1.063   1.240
 6453SOL    HW120258   2.605   1.051   1.339
 6453SOL    HW220259   2.556   1.145   1.215
 6454SOL     OW20260   5.440   2.376   3.847
 6454SOL    HW120261   5.474   2.349   3.757
 6454SOL    HW220262   5.401   2.468   3.842
 6455SOL     OW20263   6.748   3.711   3.541
 6455SOL    HW120264   6.841   3.737   3.514
 6455SOL    HW220265   6.746   3.692   3.639
 6456SOL     OW20266   6.048   1.341   2.566
 6456SOL    HW120267   5.971   1.404   2.580
 6456SOL    HW220268   6.130   1.379   2.609
 6457SOL     OW20269   3.657   0.059   1.933
 6457SOL    HW120270   3.657   6.999   1.988
 6457SOL    HW220271   3.595   0.126   1.972
 6458SOL     OW20272   7.007   5.298   3.560
 6458SOL    HW120273   0.004   5.372   3.495
 6458SOL    HW220274   6.950   5.230   3.515
 6459SOL     OW20275   6.685   3.856   2.500
 6459SOL    HW120276   6.649   3.821   2.587
 6459SOL    HW220277   6.769   3.808   2.477
 6460SOL     OW20278   0.917   5.614   6.070
 6460SOL    HW120279   0.941   5.621   6.167
 6460SOL    HW220280   0.987   5.659   6.015
 6461SOL     OW20281   1.742   5.884   1.401
 6461SOL    HW120282   1.710   5.814   1.337
 6461SOL    HW220283   1.791   5.841   1.476
 6462SOL     OW20284   1.737   3.880   5.439
 6462SOL    HW120285   1.660   3.929   5.480
 6462SOL    HW220286   1.779   3.937   5.368
 6463SOL     OW20287   4.630   2.106   1.598
 6463SOL    HW120288   4.594   2.040   1.532
 6463SOL    HW220289   4.561   2.175   1.617
 6464SOL     OW20290   0.874   4.423   4.204
 6464SOL    HW120291   0.957   4.369   4.192
 6464SOL    HW220292   0.813   4.379   4.270
 6465SOL     OW20293   4.071   1.133   3.287
 6465SOL    HW120294   4.017   1.196   3.232
 6465SOL    HW220295   4.050   1.147   3.384
 6466SOL     OW20296   0.281   3.159   0.354
 6466SOL    HW120297   0.295   3.227   0.426
 6466SOL    HW220298   0.351   3.087   0.363
 6467SOL     OW20299   2.786   3.017   0.721
 6467SOL    HW120300   2.698   3.039   0.761
 6467SOL    HW220301   2.840   2.963   0.787
 6468SOL     OW20302   2.427   1.617   0.913
 6468SOL    HW120303   2.357   1.547   0.922
 6468SOL    HW220304   2.416   1.665   0.826
 6469SOL     OW20305   3.554   1.347   2.602
 6469SOL    HW120306   3.529   1.304   2.516
 6469SOL    HW220307   3.585   1.277   2.667
 6470SOL     OW20308   6.415   1.939   0.130
 6470SOL    HW120309   6.426   2.038   0.124
 6470SOL    HW220310   6.317   1.916   0.135
 6471SOL     OW20311   0.982   6.690   6.023
 6471SOL    HW120312   1.062   6.632   6.007
 6471SOL    HW220313   0.900   6.634   6.021
 6472SOL     OW20314   6.349   6.395   2.692
 6472SOL    HW120315   6.254   6.365   2.703
 6472SOL    HW220316   6.373   6.457   2.767
 6473SOL     OW20317   2.650   1.131   3.820
 6473SOL    HW120318   2.574   1.106   3.879
 6473SOL    HW220319   2.736   1.105   3.864
 6474SOL     OW20320   3.589   5.441   5.039
 6474SOL    HW120321   3.619   5.446   5.134
 6474SOL    HW220322   3.650   5.382   4.987
 6475SOL     OW20323   6.076   5.125   2.659
 6475SOL    HW120324   5.991   5.074   2.667
 6475SOL    HW220325   6.106   5.156   2.749
 6476SOL     OW20326   3.664   1.921   6.219
 6476SOL    HW120327   3.615   2.007   6.208
 6476SOL    HW220328   3.651   1.887   6.312
 6477SOL     OW20329   6.498   5.833   1.506
 6477SOL    HW120330   6.597   5.823   1.505
 6477SOL    HW220331   6.469   5.867   1.596
 6478SOL     OW20332   3.388   5.582   1.401
 6478SOL    HW120333   3.447   5.663   1.402
 6478SOL    HW220334   3.293   5.610   1.390
 6479SOL     OW20335   3.256   6.018   3.694
 6479SOL    HW120336   3.343   5.971   3.704
 6479SOL    HW220337   3.254   6.067   3.606
 6480SOL     OW20338   3.852   2.148   6.541
 6480SOL    HW120339   3.937   2.139   6.488
 6480SOL    HW220340   3.873   2.168   6.636
 6481SOL     OW20341   3.419   2.696   1.790
 6481SOL    HW120342   3.335   2.654   1.757
 6481SOL    HW220343   3.497   2.641   1.759
 6482SOL     OW20344   5.408   4.047   5.955
 6482SOL    HW120345   5.342   4.062   5.881
 6482SOL    HW220346   5.475   4.121   5.954
 6483SOL     OW20347   0.977   6.456   5.188
 6483SOL    HW120348   0.964   6.502   5.100
 6483SOL    HW220349   1.056   6.494   5.235
 6484SOL     OW20350   2.591   0.735   4.056
 6484SOL    HW120351   2.566   0.794   4.133
 6484SOL    HW220352   2.684   0.701   4.069
 6485SOL     OW20353   2.192   6.491   4.787
 6485SOL    HW120354   2.115   6.550   4.764
 6485SOL    HW220355   2.191   6.410   4.727
 6486SOL     OW20356   1.771   5.070   3.222
 6486SOL    HW120357   1.866   5.091   3.199
 6486SOL    HW220358   1.754   4.973   3.207
 6487SOL     OW20359   5.928   4.716   3.377
 6487SOL    HW120360   5.981   4.634   3.356
 6487SOL    HW220361   5.976   4.769   3.447
 6488SOL     OW20362   4.612   5.469   4.827
 6488SOL    HW120363   4.661   5.514   4.901
 6488SOL    HW220364   4.668   5.472   4.744
 6489SOL     OW20365   4.770   2.972   5.769
 6489SOL    HW120366   4.805   2.930   5.685
 6489SOL    HW220367   4.829   2.946   5.846
 6490SOL     OW20368   1.662   2.256   0.264
 6490SOL    HW120369   1.688   2.315   0.187
 6490SOL    HW220370   1.688   2.300   0.350
 6491SOL     OW20371   2.744   0.130   1.716
 6491SOL    HW120372   2.654   0.171   1.706
 6491SOL    HW220373   2.794   0.139   1.630
 6492SOL     OW20374   3.542   3.495   5.061
 6492SOL    HW120375   3.535   3.431   4.984
 6492SOL    HW220376   3.590   3.578   5.030
 6493SOL     OW20377   0.762   4.084   5.297
 6493SOL    HW120378   0.751   4.003   5.239
 6493SOL    HW220379   0.831   4.065   5.367
 6494SOL     OW20380   6.042   0.577   1.458
 6494SOL    HW120381   6.003   0.659   1.418
 6494SOL    HW220382   6.065   0.511   1.386
 6495SOL     OW20383   5.876   0.392   3.700
 6495SOL    HW120384   5.777   0.401   3.699
 6495SOL    HW220385   5.911   0.422   3.789
 6496SOL     OW20386   3.543   1.581   1.251
 6496SOL    HW120387   3.464   1.578   1.312
 6496SOL    HW220388   3.586   1.491   1.247
 6497SOL     OW20389   0.280   1.295   0.519
 6497SOL    HW120390   0.378   1.310   0.510
 6497SOL    HW220391   0.236   1.312   0.430
 6498SOL     OW20392   0.708   4.331   4.405
 6498SOL    HW120393   0.767   4.282   4.470
 6498SOL    HW220394   0.626   4.276   4.386
 6499SOL     OW20395   5.154   3.708   3.159
 6499SOL    HW120396   5.060   3.706   3.124
 6499SOL    HW220397   5.205   3.782   3.113
 6500SOL     OW20398   1.337   3.926   3.127
 6500SOL    HW120399   1.334   3.845   3.068
 6500SOL    HW220400   1.244   3.954   3.150
 6501SOL     OW20401   6.131   2.147   1.381
 6501SOL    HW120402   6.167   2.063   1.421
 6501SOL    HW220403   6.032   2.141   1.373
 6502SOL     OW20404   6.630   3.651   1.849
 6502SOL    HW120405   6.637   3.556   1.819
 6502SOL    HW220406   6.601   3.709   1.773
 6503SOL     OW20407   6.646   3.160   5.550
 6503SOL    HW120408   6.635   3.080   5.492
 6503SOL    HW220409   6.711   3.139   5.624
 6504SOL     OW20410   4.526   5.860   6.508
 6504SOL    HW120411   4.541   5.870   6.409
 6504SOL    HW220412   4.434   5.823   6.523
 6505SOL     OW20413   0.064   5.674   0.684
 6505SOL    HW120414   0.062   5.722   0.771
 6505SOL    HW220415   7.014   5.708   0.625
 6506SOL     OW20416   6.921   3.883   2.275
 6506SOL    HW120417   6.828   3.849   2.265
 6506SOL    HW220418   6.986   3.807   2.272
 6507SOL     OW20419   3.517   4.374   6.658
 6507SOL    HW120420   3.566   4.419   6.583
 6507SOL    HW220421   3.581   4.358   6.734
 6508SOL     OW20422   0.858   0.201   2.789
 6508SOL    HW120423   0.853   0.141   2.709
 6508SOL    HW220424   0.861   0.145   2.872
 6509SOL     OW20425   2.972   1.708   6.089
 6509SOL    HW120426   3.052   1.652   6.113
 6509SOL    HW220427   2.930   1.672   6.006
 6510SOL     OW20428   3.672   5.906   5.788
 6510SOL    HW120429   3.573   5.923   5.793
 6510SOL    HW220430   3.693   5.819   5.831
 6511SOL     OW20431   3.024   1.298   0.700
 6511SOL    HW120432   2.999   1.260   0.789
 6511SOL    HW220433   3.088   1.237   0.654
 6512SOL     OW20434   3.949   1.738   0.333
 6512SOL    HW120435   3.899   1.707   0.252
 6512SOL    HW220436   4.045   1.753   0.309
 6513SOL     OW20437   2.231   4.911   3.241
 6513SOL    HW120438   2.193   5.003   3.230
 6513SOL    HW220439   2.331   4.916   3.238
 6514SOL     OW20440   5.190   6.982   5.921
 6514SOL    HW120441   5.253   0.031   5.890
 6514SOL    HW220442   5.220   6.948   6.010
 6515SOL     OW20443   1.994   5.252   2.184
 6515SOL    HW120444   1.930   5.197   2.130
 6515SOL    HW220445   1.947   5.285   2.266
 6516SOL     OW20446   6.828   4.230   1.114
 6516SOL    HW120447   6.808   4.149   1.169
 6516SOL    HW220448   6.823   4.311   1.172
 6517SOL     OW20449   6.902   3.067   0.896
 6517SOL    HW120450   6.955   3.051   0.979
 6517SOL    HW220451   6.875   3.164   0.892
 6518SOL     OW20452   1.241   1.832   2.852
 6518SOL    HW120453   1.263   1.751   2.798
 6518SOL    HW220454   1.199   1.804   2.939
 6519SOL     OW20455   1.281   0.971   3.065
 6519SOL    HW120456   1.274   1.033   2.987
 6519SOL    HW220457   1.252   1.019   3.148
 6520SOL     OW20458   0.450   5.146   6.725
 6520SOL    HW120459   0.509   5.103   6.656
 6520SOL    HW220460   0.504   5.167   6.807
 6521SOL     OW20461   0.909   4.238   3.936
 6521SOL    HW120462   0.924   4.243   3.837
 6521SOL    HW220463   0.914   4.331   3.974
 6522SOL     OW20464   2.523   3.307   5.307
 6522SOL    HW120465   2.508   3.221   5.258
 6522SOL    HW220466   2.601   3.298   5.368
 6523SOL     OW20467   5.706   6.967   0.425
 6523SOL    HW120468   5.785   6.924   0.468
 6523SOL    HW220469   5.660   6.901   0.366
 6524SOL     OW20470   2.376   2.873   1.357
 6524SOL    HW120471   2.297   2.927   1.387
 6524SOL    HW220472   2.348   2.779   1.341
 6525SOL     OW20473   1.054   4.541   3.233
 6525SOL    HW120474   1.095   4.465   3.283
 6525SOL    HW220475   1.053   4.520   3.135
 6526SOL     OW20476   0.838   6.416   6.688
 6526SOL    HW120477   0.828   6.367   6.601
 6526SOL    HW220478   0.789   6.503   6.683
 6527SOL     OW20479   0.246   1.957   0.107
 6527SOL    HW120480   0.204   2.025   0.047
 6527SOL    HW220481   0.178   1.925   0.174
 6528SOL     OW20482   5.002   0.290   6.599
 6528SOL    HW120483   4.910   0.284   6.559
 6528SOL    HW220484   5.024   0.203   6.644
 6529SOL     OW20485   6.804   0.853   2.407
 6529SOL    HW120486   6.725   0.859   2.468
 6529SOL    HW220487   6.880   0.905   2.445
 6530SOL     OW20488   1.098   3.366   2.645
 6530SOL    HW120489   1.146   3.280   2.665
 6530SOL    HW220490   1.139   3.409   2.565
 6531SOL     OW20491   3.774   4.165   4.958
 6531SOL    HW120492   3.807   4.258   4.945
 6531SOL    HW220493   3.839   4.100   4.918
 6532SOL     OW20494   0.994   0.711   0.808
 6532SOL    HW120495   0.975   0.623   0.852
 6532SOL    HW220496   1.088   0.738   0.827
 6533SOL     OW20497   4.662   3.464   0.560
 6533SOL    HW120498   4.757   3.481   0.533
 6533SOL    HW220499   4.656   3.374   0.603
 6534SOL     OW20500   6.592   4.347   3.049
 6534SOL    HW120501   6.596   4.311   2.956
 6534SOL    HW220502   6.678   4.392   3.071
 6535SOL     OW20503   5.832   2.954   5.315
 6535SOL    HW120504   5.915   2.950   5.371
 6535SOL    HW220505   5.811   2.862   5.282
 6536SOL     OW20506   0.531   4.111   5.752
 6536SOL    HW120507   0.509   4.063   5.667
 6536SOL    HW220508   0.562   4.203   5.731
 6537SOL     OW20509   6.088   5.425   4.420
 6537SOL    HW120510   6.179   5.398   4.388
 6537SOL    HW220511   6.053   5.355   4.483
 6538SOL     OW20512   1.987   3.299   5.899
 6538SOL    HW120513   1.910   3.284   5.837
 6538SOL    HW220514   2.072   3.304   5.847
 6539SOL     OW20515   5.553   1.055   5.649
 6539SOL    HW120516   5.637   1.007   5.623
 6539SOL    HW220517   5.525   1.025   5.740
 6540SOL     OW20518   6.178   2.666   5.738
 6540SOL    HW120519   6.212   2.687   5.829
 6540SOL    HW220520   6.090   2.619   5.745
 6541SOL     OW20521   6.299   0.776   4.595
 6541SOL    HW120522   6.263   0.686   4.570
 6541SOL    HW220523   6.329   0.775   4.690
 6542SOL     OW20524   1.467   3.839   3.355
 6542SOL    HW120525   1.549   3.785   3.338
 6542SOL    HW220526   1.436   3.881   3.270
 6543SOL     OW20527   3.898   1.838   4.899
 6543SOL    HW120528   3.921   1.935   4.900
 6543SOL    HW220529   3.835   1.819   4.824
 6544SOL     OW20530   1.180   6.436   1.698
 6544SOL    HW120531   1.193   6.437   1.599
 6544SOL    HW220532   1.239   6.366   1.738
 6545SOL     OW20533   4.340   6.848   0.172
 6545SOL    HW120534   4.335   6.750   0.194
 6545SOL    HW220535   4.389   6.895   0.246
 6546SOL     OW20536   4.534   3.367   6.470
 6546SOL    HW120537   4.489   3.399   6.553
 6546SOL    HW220538   4.605   3.300   6.494
 6547SOL     OW20539   6.667   5.335   6.627
 6547SOL    HW120540   6.698   5.403   6.693
 6547SOL    HW220541   6.745   5.305   6.571
 6548SOL     OW20542   0.534   1.386   5.318
 6548SOL    HW120543   0.520   1.484   5.327
 6548SOL    HW220544   0.611   1.369   5.256
 6549SOL     OW20545   4.706   0.511   1.852
 6549SOL    HW120546   4.776   0.528   1.922
 6549SOL    HW220547   4.690   0.595   1.799
 6550SOL     OW20548   6.240   0.102   3.737
 6550SOL    HW120549   6.265   0.057   3.822
 6550SOL    HW220550   6.244   0.036   3.661
 6551SOL     OW20551   3.087   4.097   0.226
 6551SOL    HW120552   3.137   4.063   0.147
 6551SOL    HW220553   3.097   4.033   0.302
 6552SOL     OW20554   2.126   6.145   0.312
 6552SOL    HW120555   2.171   6.100   0.390
 6552SOL    HW220556   2.136   6.088   0.231
 6553SOL     OW20557   0.381   1.338   4.145
 6553SOL    HW120558   0.400   1.241   4.163
 6553SOL    HW220559   0.333   1.378   4.224
 6554SOL     OW20560   2.407   1.206   4.464
 6554SOL    HW120561   2.446   1.167   4.548
 6554SOL    HW220562   2.467   1.278   4.430
 6555SOL     OW20563   6.630   3.962   3.448
 6555SOL    HW120564   6.677   3.875   3.466
 6555SOL    HW220565   6.693   4.037   3.468
 6556SOL     OW20566   4.922   2.870   3.057
 6556SOL    HW120567   4.967   2.783   3.034
 6556SOL    HW220568   4.839   2.851   3.108
 6557SOL     OW20569   2.049   0.824   1.570
 6557SOL    HW120570   2.105   0.900   1.536
 6557SOL    HW220571   1.976   0.860   1.628
 6558SOL     OW20572   5.164   5.447   0.090
 6558SOL    HW120573   5.238   5.457   0.023
 6558SOL    HW220574   5.204   5.443   0.182
 6559SOL     OW20575   6.993   2.252   6.338
 6559SOL    HW120576   0.034   2.192   6.288
 6559SOL    HW220577   6.991   2.342   6.293
 6560SOL     OW20578   5.700   5.060   0.473
 6560SOL    HW120579   5.697   5.129   0.545
 6560SOL    HW220580   5.631   5.080   0.404
 6561SOL     OW20581   3.893   4.316   0.222
 6561SOL    HW120582   3.951   4.297   0.301
 6561SOL    HW220583   3.938   4.283   0.139
 6562SOL     OW20584   5.243   3.223   1.284
 6562SOL    HW120585   5.342   3.211   1.278
 6562SOL    HW220586   5.198   3.135   1.270
 6563SOL     OW20587   5.416   5.704   5.239
 6563SOL    HW120588   5.350   5.696   5.164
 6563SOL    HW220589   5.368   5.706   5.326
 6564SOL     OW20590   6.437   3.800   2.880
 6564SOL    HW120591   6.520   3.763   2.838
 6564SOL    HW220592   6.449   3.801   2.980
 6565SOL     OW20593   5.556   0.538   3.104
 6565SOL    HW120594   5.622   0.606   3.070
 6565SOL    HW220595   5.606   0.464   3.148
 6566SOL     OW20596   4.907   6.020   2.614
 6566SOL    HW120597   4.979   5.950   2.618
 6566SOL    HW220598   4.913   6.078   2.695
 6567SOL     OW20599   4.364   0.802   1.186
 6567SOL    HW120600   4.436   0.826   1.121
 6567SOL    HW220601   4.276   0.838   1.154
 6568SOL     OW20602   4.423   1.469   1.045
 6568SOL    HW120603   4.406   1.516   0.959
 6568SOL    HW220604   4.456   1.534   1.114
 6569SOL     OW20605   6.900   4.219   5.638
 6569SOL    HW120606   6.931   4.186   5.728
 6569SOL    HW220607   6.835   4.294   5.651
 6570SOL     OW20608   4.056   6.510   1.969
 6570SOL    HW120609   4.003   6.500   2.053
 6570SOL    HW220610   4.120   6.587   1.978
 6571SOL     OW20611   3.292   5.951   2.578
 6571SOL    HW120612   3.363   5.974   2.511
 6571SOL    HW220613   3.220   5.897   2.533
 6572SOL     OW20614   1.112   5.478   3.998
 6572SOL    HW120615   1.181   5.478   3.925
 6572SOL    HW220616   1.027   5.517   3.963
 6573SOL     OW20617   1.343   1.360   4.058
 6573SOL    HW120618   1.277   1.380   4.130
 6573SOL    HW220619   1.408   1.436   4.049
 6574SOL     OW20620   1.788   6.131   2.200
 6574SOL    HW120621   1.862   6.173   2.252
 6574SOL    HW220622   1.709   6.117   2.259
 6575SOL     OW20623   6.793   1.305   2.987
 6575SOL    HW120624   6.882   1.265   2.965
 6575SOL    HW220625   6.783   1.310   3.086
 6576SOL     OW20626   4.462   6.070   1.179
 6576SOL    HW120627   4.486   6.111   1.266
 6576SOL    HW220628   4.511   6.117   1.105
 6577SOL     OW20629   2.721   0.704   3.728
 6577SOL    HW120630   2.797   0.758   3.762
 6577SOL    HW220631   2.635   0.746   3.755
 6578SOL     OW20632   1.462   5.005   1.949
 6578SOL    HW120633   1.549   5.050   1.968
 6578SOL    HW220634   1.419   5.048   1.869
 6579SOL     OW20635   6.219   0.908   3.983
 6579SOL    HW120636   6.238   1.005   4.000
 6579SOL    HW220637   6.248   0.854   4.062
 6580SOL     OW20638   1.820   1.400   6.914
 6580SOL    HW120639   1.840   1.469   6.845
 6580SOL    HW220640   1.730   1.359   6.894
 6581SOL     OW20641   0.778   2.168   0.292
 6581SOL    HW120642   0.791   2.264   0.318
 6581SOL    HW220643   0.684   2.141   0.309
 6582SOL     OW20644   6.849   1.461   3.545
 6582SOL    HW120645   6.932   1.515   3.529
 6582SOL    HW220646   6.785   1.475   3.469
 6583SOL     OW20647   3.855   5.744   6.182
 6583SOL    HW120648   3.811   5.787   6.261
 6583SOL    HW220649   3.926   5.681   6.215
 6584SOL     OW20650   3.533   3.028   0.368
 6584SOL    HW120651   3.606   3.013   0.435
 6584SOL    HW220652   3.444   3.023   0.415
 6585SOL     OW20653   6.123   6.542   0.560
 6585SOL    HW120654   6.094   6.446   0.565
 6585SOL    HW220655   6.096   6.590   0.643
 6586SOL     OW20656   6.343   2.068   6.916
 6586SOL    HW120657   6.318   1.971   6.919
 6586SOL    HW220658   6.329   2.103   6.823
 6587SOL     OW20659   1.442   4.816   5.455
 6587SOL    HW120660   1.427   4.889   5.388
 6587SOL    HW220661   1.424   4.728   5.411
 6588SOL     OW20662   6.485   3.413   0.435
 6588SOL    HW120663   6.511   3.507   0.455
 6588SOL    HW220664   6.549   3.350   0.479
 6589SOL     OW20665   0.269   0.546   2.097
 6589SOL    HW120666   0.243   0.488   2.175
 6589SOL    HW220667   0.187   0.591   2.062
 6590SOL     OW20668   1.544   0.014   4.163
 6590SOL    HW120669   1.519   0.036   4.069
 6590SOL    HW220670   1.639   7.005   4.165
 6591SOL     OW20671   5.795   4.181   4.222
 6591SOL    HW120672   5.719   4.125   4.188
 6591SOL    HW220673   5.762   4.273   4.244
 6592SOL     OW20674   6.071   6.932   2.683
 6592SOL    HW120675   6.013   6.936   2.765
 6592SOL    HW220676   6.140   6.860   2.695
 6593SOL     OW20677   2.875   2.077   1.935
 6593SOL    HW120678   2.874   2.173   1.964
 6593SOL    HW220679   2.826   2.069   1.848
 6594SOL     OW20680   4.655   1.191   6.449
 6594SOL    HW120681   4.687   1.114   6.395
 6594SOL    HW220682   4.701   1.275   6.420
 6595SOL     OW20683   1.389   2.705   5.738
 6595SOL    HW120684   1.335   2.781   5.702
 6595SOL    HW220685   1.443   2.665   5.664
 6596SOL     OW20686   5.944   6.396   2.593
 6596SOL    HW120687   5.936   6.439   2.502
 6596SOL    HW220688   5.907   6.458   2.662
 6597SOL     OW20689   1.615   5.157   2.250
 6597SOL    HW120690   1.554   5.090   2.290
 6597SOL    HW220691   1.678   5.191   2.321
 6598SOL     OW20692   2.151   4.970   4.518
 6598SOL    HW120693   2.193   4.994   4.605
 6598SOL    HW220694   2.204   5.010   4.443
 6599SOL     OW20695   6.032   5.204   6.548
 6599SOL    HW120696   5.958   5.225   6.612
 6599SOL    HW220697   6.115   5.182   6.599
 6600SOL     OW20698   4.847   0.122   5.513
 6600SOL    HW120699   4.784   0.179   5.567
 6600SOL    HW220700   4.869   0.169   5.427
 6601SOL     OW20701   1.240   2.007   1.625
 6601SOL    HW120702   1.282   2.080   1.572
 6601SOL    HW220703   1.309   1.961   1.681
 6602SOL     OW20704   1.815   6.703   1.656
 6602SOL    HW120705   1.828   6.626   1.719
 6602SOL    HW220706   1.731   6.752   1.679
 6603SOL     OW20707   0.194   3.697   2.687
 6603SOL    HW120708   0.127   3.747   2.631
 6603SOL    HW220709   0.260   3.651   2.626
 6604SOL     OW20710   2.396   6.272   2.686
 6604SOL    HW120711   2.419   6.208   2.613
 6604SOL    HW220712   2.345   6.349   2.647
 6605SOL     OW20713   0.101   5.528   1.137
 6605SOL    HW120714   0.145   5.456   1.084
 6605SOL    HW220715   0.155   5.612   1.131
 6606SOL     OW20716   1.822   4.018   3.321
 6606SOL    HW120717   1.818   3.946   3.391
 6606SOL    HW220718   1.769   3.990   3.241
 6607SOL     OW20719   5.945   4.037   3.546
 6607SOL    HW120720   5.848   4.035   3.570
 6607SOL    HW220721   6.001   4.024   3.628
 6608SOL     OW20722   1.302   6.084   6.198
 6608SOL    HW120723   1.342   6.042   6.117
 6608SOL    HW220724   1.373   6.133   6.249
 6609SOL     OW20725   4.531   1.815   6.223
 6609SOL    HW120726   4.569   1.745   6.283
 6609SOL    HW220727   4.534   1.783   6.128
 6610SOL     OW20728   2.627   5.404   1.119
 6610SOL    HW120729   2.653   5.439   1.209
 6610SOL    HW220730   2.709   5.379   1.068
 6611SOL     OW20731   4.456   1.649   4.125
 6611SOL    HW120732   4.428   1.565   4.171
 6611SOL    HW220733   4.422   1.649   4.031
 6612SOL     OW20734   0.242   1.112   6.386
 6612SOL    HW120735   0.153   1.113   6.341
 6612SOL    HW220736   0.308   1.161   6.331
 6613SOL     OW20737   4.733   6.656   0.066
 6613SOL    HW120738   4.702   6.569   0.105
 6613SOL    HW220739   4.657   6.701   0.021
 6614SOL     OW20740   4.335   5.264   0.924
 6614SOL    HW120741   4.432   5.286   0.926
 6614SOL    HW220742   4.312   5.220   0.837
 6615SOL     OW20743   3.256   4.312   6.681
 6615SOL    HW120744   3.252   4.217   6.710
 6615SOL    HW220745   3.352   4.338   6.666
 6616SOL     OW20746   4.325   1.079   5.456
 6616SOL    HW120747   4.235   1.066   5.414
 6616SOL    HW220748   4.375   0.993   5.453
 6617SOL     OW20749   4.024   0.172   4.078
 6617SOL    HW120750   4.036   0.211   4.169
 6617SOL    HW220751   3.975   0.085   4.085
 6618SOL     OW20752   6.709   2.067   2.745
 6618SOL    HW120753   6.656   1.993   2.787
 6618SOL    HW220754   6.660   2.102   2.665
 6619SOL     OW20755   4.995   6.181   3.840
 6619SOL    HW120756   4.949   6.170   3.928
 6619SOL    HW220757   4.931   6.215   3.772
 6620SOL     OW20758   0.507   3.621   3.252
 6620SOL    HW120759   0.598   3.581   3.266
 6620SOL    HW220760   0.466   3.581   3.170
 6621SOL     OW20761   3.913   3.285   4.732
 6621SOL    HW120762   3.888   3.379   4.753
 6621SOL    HW220763   3.933   3.277   4.634
 6622SOL     OW20764   0.769   5.502   0.575
 6622SOL    HW120765   0.688   5.446   0.594
 6622SOL    HW220766   0.740   5.594   0.547
 6623SOL     OW20767   3.602   3.857   5.753
 6623SOL    HW120768   3.523   3.797   5.745
 6623SOL    HW220769   3.654   3.854   5.667
 6624SOL     OW20770   1.552   2.090   3.825
 6624SOL    HW120771   1.481   2.035   3.782
 6624SOL    HW220772   1.572   2.170   3.768
 6625SOL     OW20773   6.167   3.260   6.103
 6625SOL    HW120774   6.148   3.240   6.199
 6625SOL    HW220775   6.083   3.253   6.050
 6626SOL     OW20776   2.033   6.351   4.984
 6626SOL    HW120777   1.993   6.414   5.050
 6626SOL    HW220778   2.105   6.398   4.933
 6627SOL     OW20779   1.700   5.741   4.271
 6627SOL    HW120780   1.775   5.708   4.215
 6627SOL    HW220781   1.659   5.665   4.321
 6628SOL     OW20782   4.084   6.050   4.367
 6628SOL    HW120783   4.105   6.107   4.287
 6628SOL    HW220784   4.118   6.095   4.450
 6629SOL     OW20785   5.275   5.436   6.504
 6629SOL    HW120786   5.330   5.366   6.548
 6629SOL    HW220787   5.269   5.516   6.563
 6630SOL     OW20788   2.318   1.233   1.629
 6630SOL    HW120789   2.237   1.185   1.596
 6630SOL    HW220790   2.329   1.216   1.727
 6631SOL     OW20791   2.084   4.518   6.164
 6631SOL    HW120792   2.173   4.560   6.178
 6631SOL    HW220793   2.095   4.419   6.151
 6632SOL     OW20794   1.120   1.318   1.142
 6632SOL    HW120795   1.100   1.414   1.164
 6632SOL    HW220796   1.172   1.277   1.216
 6633SOL     OW20797   3.701   5.703   5.968
 6633SOL    HW120798   3.769   5.707   6.041
 6633SOL    HW220799   3.609   5.702   6.007
 6634SOL     OW20800   4.477   2.097   4.228
 6634SOL    HW120801   4.546   2.037   4.188
 6634SOL    HW220802   4.386   2.065   4.202
 6635SOL     OW20803   5.280   4.907   3.746
 6635SOL    HW120804   5.214   4.926   3.673
 6635SOL    HW220805   5.341   4.985   3.756
 6636SOL     OW20806   3.800   0.205   0.297
 6636SOL    HW120807   3.705   0.233   0.306
 6636SOL    HW220808   3.859   0.285   0.289
 6637SOL     OW20809   1.641   1.291   1.316
 6637SOL    HW120810   1.731   1.283   1.360
 6637SOL    HW220811   1.586   1.210   1.336
 6638SOL     OW20812   3.079   3.267   3.613
 6638SOL    HW120813   3.141   3.334   3.573
 6638SOL    HW220814   3.130   3.185   3.639
 6639SOL     OW20815   4.821   3.079   1.412
 6639SOL    HW120816   4.766   3.051   1.334
 6639SOL    HW220817   4.850   3.174   1.401
 6640SOL     OW20818   1.102   2.675   4.762
 6640SOL    HW120819   1.060   2.761   4.792
 6640SOL    HW220820   1.046   2.598   4.793
 6641SOL     OW20821   4.772   2.151   0.753
 6641SOL    HW120822   4.863   2.153   0.795
 6641SOL    HW220823   4.711   2.213   0.802
 6642SOL     OW20824   1.298   6.024   0.766
 6642SOL    HW120825   1.245   5.944   0.794
 6642SOL    HW220826   1.293   6.093   0.838
 6643SOL     OW20827   4.135   6.262   6.957
 6643SOL    HW120828   4.098   6.181   6.913
 6643SOL    HW220829   4.161   6.329   6.888
 6644SOL     OW20830   2.082   6.663   3.318
 6644SOL    HW120831   2.070   6.679   3.417
 6644SOL    HW220832   2.106   6.750   3.274
 6645SOL     OW20833   5.819   2.575   0.499
 6645SOL    HW120834   5.893   2.616   0.552
 6645SOL    HW220835   5.731   2.600   0.539
 6646SOL     OW20836   4.791   6.714   6.159
 6646SOL    HW120837   4.797   6.622   6.119
 6646SOL    HW220838   4.883   6.745   6.184
 6647SOL     OW20839   4.594   4.828   1.033
 6647SOL    HW120840   4.532   4.795   0.961
 6647SOL    HW220841   4.553   4.810   1.123
 6648SOL     OW20842   2.826   6.128   5.781
 6648SOL    HW120843   2.908   6.075   5.804
 6648SOL    HW220844   2.760   6.068   5.734
 6649SOL     OW20845   5.682   2.804   6.809
 6649SOL    HW120846   5.606   2.778   6.750
 6649SOL    HW220847   5.722   2.890   6.777
 6650SOL     OW20848   2.532   1.834   5.355
 6650SOL    HW120849   2.433   1.852   5.358
 6650SOL    HW220850   2.566   1.858   5.264
 6651SOL     OW20851   6.827   1.580   6.452
 6651SOL    HW120852   6.853   1.628   6.536
 6651SOL    HW220853   6.738   1.612   6.421
 6652SOL     OW20854   0.035   4.220   0.473
 6652SOL    HW120855   0.092   4.289   0.428
 6652SOL    HW220856   0.089   4.173   0.543
 6653SOL     OW20857   5.422   4.476   0.341
 6653SOL    HW120858   5.376   4.435   0.261
 6653SOL    HW220859   5.456   4.404   0.401
 6654SOL     OW20860   6.952   4.254   2.913
 6654SOL    HW120861   6.961   4.335   2.969
 6654SOL    HW220862   0.009   4.195   2.924
 6655SOL     OW20863   6.437   5.125   2.341
 6655SOL    HW120864   6.387   5.156   2.260
 6655SOL    HW220865   6.480   5.037   2.322
 6656SOL     OW20866   4.046   1.499   2.603
 6656SOL    HW120867   4.003   1.580   2.562
 6656SOL    HW220868   4.091   1.525   2.689
 6657SOL     OW20869   5.614   2.049   3.508
 6657SOL    HW120870   5.573   2.129   3.550
 6657SOL    HW220871   5.595   2.048   3.410
 6658SOL     OW20872   6.256   5.986   5.400
 6658SOL    HW120873   6.220   5.916   5.338
 6658SOL    HW220874   6.195   5.997   5.478
 6659SOL     OW20875   1.207   4.994   2.344
 6659SOL    HW120876   1.275   5.039   2.401
 6659SOL    HW220877   1.233   5.003   2.248
 6660SOL     OW20878   6.555   6.339   3.262
 6660SOL    HW120879   6.553   6.240   3.248
 6660SOL    HW220880   6.649   6.372   3.257
 6661SOL     OW20881   3.849   6.190   4.254
 6661SOL    HW120882   3.898   6.232   4.331
 6661SOL    HW220883   3.764   6.149   4.288
 6662SOL     OW20884   3.461   7.021   2.873
 6662SOL    HW120885   3.429   0.075   2.929
 6662SOL    HW220886   3.504   0.033   2.790
 6663SOL     OW20887   0.892   4.294   5.777
 6663SOL    HW120888   0.882   4.207   5.825
 6663SOL    HW220889   0.975   4.291   5.720
 6664SOL     OW20890   2.707   0.605   1.357
 6664SOL    HW120891   2.711   0.663   1.276
 6664SOL    HW220892   2.639   0.534   1.345
 6665SOL     OW20893   1.934   0.484   6.030
 6665SOL    HW120894   1.999   0.436   5.971
 6665SOL    HW220895   1.982   0.556   6.080
 6666SOL     OW20896   4.288   6.445   5.536
 6666SOL    HW120897   4.269   6.356   5.579
 6666SOL    HW220898   4.386   6.461   5.533
 6667SOL     OW20899   0.212   6.305   6.511
 6667SOL    HW120900   0.272   6.309   6.431
 6667SOL    HW220901   0.185   6.210   6.528
 6668SOL     OW20902   6.989   5.541   0.145
 6668SOL    HW120903   6.915   5.489   0.189
 6668SOL    HW220904   0.047   5.483   0.134
 6669SOL     OW20905   1.592   1.154   2.990
 6669SOL    HW120906   1.684   1.118   2.978
 6669SOL    HW220907   1.525   1.083   2.972
 6670SOL     OW20908   4.015   2.851   0.785
 6670SOL    HW120909   3.951   2.894   0.848
 6670SOL    HW220910   3.974   2.769   0.746
 6671SOL     OW20911   4.233   6.001   0.672
 6671SOL    HW120912   4.255   5.916   0.719
 6671SOL    HW220913   4.137   6.024   0.687
 6672SOL     OW20914   1.507   2.606   1.065
 6672SOL    HW120915   1.566   2.596   1.146
 6672SOL    HW220916   1.543   2.549   0.991
 6673SOL     OW20917   5.357   3.600   3.729
 6673SOL    HW120918   5.286   3.550   3.679
 6673SOL    HW220919   5.318   3.639   3.812
 6674SOL     OW20920   0.008   2.550   0.196
 6674SOL    HW120921   0.046   2.561   0.288
 6674SOL    HW220922   6.956   2.615   0.182
 6675SOL     OW20923   5.297   1.983   0.139
 6675SOL    HW120924   5.294   2.028   0.050
 6675SOL    HW220925   5.391   1.983   0.173
 6676SOL     OW20926   1.663   3.597   3.594
 6676SOL    HW120927   1.579   3.647   3.616
 6676SOL    HW220928   1.643   3.524   3.529
 6677SOL     OW20929   0.268   1.553   0.595
 6677SOL    HW120930   0.202   1.580   0.524
 6677SOL    HW220931   0.271   1.453   0.600
 6678SOL     OW20932   2.080   4.803   0.159
 6678SOL    HW120933   2.046   4.770   0.072
 6678SOL    HW220934   2.008   4.797   0.228
 6679SOL     OW20935   1.842   1.134   3.997
 6679SOL    HW120936   1.883   1.172   3.914
 6679SOL    HW220937   1.751   1.174   4.009
 6680SOL     OW20938   5.959   6.717   1.162
 6680SOL    HW120939   6.026   6.764   1.104
 6680SOL    HW220940   5.870   6.763   1.153
 6681SOL     OW20941   3.320   6.174   1.432
 6681SOL    HW120942   3.307   6.088   1.382
 6681SOL    HW220943   3.234   6.201   1.474
 6682SOL     OW20944   3.136   5.197   6.182
 6682SOL    HW120945   3.187   5.143   6.115
 6682SOL    HW220946   3.070   5.139   6.229
 6683SOL     OW20947   6.359   3.926   6.353
 6683SOL    HW120948   6.403   3.874   6.427
 6683SOL    HW220949   6.303   3.864   6.298
 6684SOL     OW20950   2.711   6.405   1.228
 6684SOL    HW120951   2.807   6.428   1.244
 6684SOL    HW220952   2.702   6.307   1.211
 6685SOL     OW20953   4.876   3.363   6.690
 6685SOL    HW120954   4.879   3.353   6.590
 6685SOL    HW220955   4.967   3.345   6.727
 6686SOL     OW20956   5.491   5.137   3.906
 6686SOL    HW120957   5.587   5.161   3.923
 6686SOL    HW220958   5.444   5.123   3.993
 6687SOL     OW20959   6.497   1.911   1.585
 6687SOL    HW120960   6.566   1.914   1.513
 6687SOL    HW220961   6.530   1.857   1.662
 6688SOL     OW20962   3.767   5.629   0.377
 6688SOL    HW120963   3.861   5.640   0.345
 6688SOL    HW220964   3.750   5.691   0.454
 6689SOL     OW20965   2.113   4.764   5.962
 6689SOL    HW120966   2.120   4.842   5.900
 6689SOL    HW220967   2.134   4.680   5.913
 6690SOL     OW20968   1.071   0.215   6.322
 6690SOL    HW120969   1.127   0.135   6.344
 6690SOL    HW220970   1.125   0.298   6.337
 6691SOL     OW20971   2.596   2.304   2.654
 6691SOL    HW120972   2.669   2.317   2.586
 6691SOL    HW220973   2.628   2.242   2.725
 6692SOL     OW20974   4.578   5.245   1.179
 6692SOL    HW120975   4.652   5.197   1.226
 6692SOL    HW220976   4.596   5.244   1.080
 6693SOL     OW20977   4.438   1.800   4.507
 6693SOL    HW120978   4.434   1.761   4.415
 6693SOL    HW220979   4.469   1.729   4.571
 6694SOL     OW20980   3.295   4.984   0.971
 6694SOL    HW120981   3.287   5.019   0.877
 6694SOL    HW220982   3.388   4.952   0.987
 6695SOL     OW20983   2.739   2.043   6.399
 6695SOL    HW120984   2.688   2.042   6.313
 6695SOL    HW220985   2.816   1.980   6.393
 6696SOL     OW20986   3.894   3.988   4.589
 6696SOL    HW120987   3.796   3.971   4.602
 6696SOL    HW220988   3.914   3.991   4.491
 6697SOL     OW20989   4.630   2.599   2.302
 6697SOL    HW120990   4.665   2.641   2.219
 6697SOL    HW220991   4.538   2.563   2.285
 6698SOL     OW20992   3.424   4.218   1.318
 6698SOL    HW120993   3.344   4.197   1.374
 6698SOL    HW220994   3.398   4.284   1.247
 6699SOL     OW20995   1.575   4.507   5.495
 6699SOL    HW120996   1.627   4.579   5.541
 6699SOL    HW220997   1.581   4.422   5.547
 6700SOL     OW20998   5.571   0.073   0.108
 6700SOL    HW120999   5.657   0.022   0.103
 6700SOL    HW221000   5.590   0.171   0.104
 6701SOL     OW21001   5.933   0.517   1.147
 6701SOL    HW121002   6.031   0.511   1.168
 6701SOL    HW221003   5.903   0.431   1.106
 6702SOL     OW21004   2.848   2.839   0.944
 6702SOL    HW121005   2.821   2.835   1.040
 6702SOL    HW221006   2.791   2.776   0.891
 6703SOL     OW21007   0.462   1.360   6.885
 6703SOL    HW121008   0.494   1.266   6.894
 6703SOL    HW221009   0.511   1.419   6.949
 6704SOL     OW21010   3.262   1.094   5.018
 6704SOL    HW121011   3.178   1.067   5.065
 6704SOL    HW221012   3.279   1.030   4.943
 6705SOL     OW21013   6.313   3.881   2.352
 6705SOL    HW121014   6.350   3.788   2.342
 6705SOL    HW221015   6.220   3.883   2.317
 6706SOL     OW21016   0.127   6.995   1.893
 6706SOL    HW121017   0.130   0.071   1.905
 6706SOL    HW221018   0.034   6.962   1.907
 6707SOL     OW21019   5.787   0.537   1.960
 6707SOL    HW121020   5.854   0.467   1.936
 6707SOL    HW221021   5.778   0.543   2.059
 6708SOL     OW21022   0.662   4.052   1.657
 6708SOL    HW121023   0.634   4.007   1.572
 6708SOL    HW221024   0.592   4.118   1.685
 6709SOL     OW21025   2.040   5.185   2.690
 6709SOL    HW121026   2.030   5.123   2.768
 6709SOL    HW221027   2.089   5.139   2.617
 6710SOL     OW21028   4.189   1.357   1.196
 6710SOL    HW121029   4.239   1.434   1.156
 6710SOL    HW221030   4.250   1.277   1.201
 6711SOL     OW21031   3.724   6.150   6.137
 6711SOL    HW121032   3.657   6.077   6.150
 6711SOL    HW221033   3.808   6.111   6.098
 6712SOL     OW21034   6.247   3.768   1.160
 6712SOL    HW121035   6.218   3.672   1.156
 6712SOL    HW221036   6.167   3.826   1.179
 6713SOL     OW21037   1.254   6.301   4.748
 6713SOL    HW121038   1.236   6.204   4.762
 6713SOL    HW221039   1.219   6.330   4.659
 6714SOL     OW21040   5.286   1.077   0.633
 6714SOL    HW121041   5.265   1.158   0.578
 6714SOL    HW221042   5.261   1.094   0.728
 6715SOL     OW21043   1.047   1.209   0.351
 6715SOL    HW121044   1.016   1.120   0.385
 6715SOL    HW221045   1.006   1.227   0.262
 6716SOL     OW21046   0.007   5.370   2.920
 6716SOL    HW121047   6.991   5.343   3.008
 6716SOL    HW221048   0.095   5.414   2.934
 6717SOL     OW21049   4.001   2.401   5.950
 6717SOL    HW121050   4.088   2.435   5.915
 6717SOL    HW221051   3.933   2.474   5.947
 6718SOL     OW21052   3.524   7.008   1.671
 6718SOL    HW121053   3.550   6.961   1.587
 6718SOL    HW221054   3.607   0.022   1.715
 6719SOL     OW21055   1.705   1.079   0.032
 6719SOL    HW121056   1.667   1.152   6.997
 6719SOL    HW221057   1.631   1.022   0.068
 6720SOL     OW21058   1.654   0.370   6.270
 6720SOL    HW121059   1.639   0.299   6.339
 6720SOL    HW221060   1.741   0.353   6.224
 6721SOL     OW21061   0.895   1.743   0.626
 6721SOL    HW121062   0.807   1.757   0.670
 6721SOL    HW221063   0.882   1.733   0.527
 6722SOL     OW21064   6.481   3.440   0.756
 6722SOL    HW121065   6.401   3.431   0.697
 6722SOL    HW221066   6.475   3.372   0.829
 6723SOL     OW21067   1.671   2.188   6.833
 6723SOL    HW121068   1.718   2.158   6.916
 6723SOL    HW221069   1.608   2.263   6.855
 6724SOL     OW21070   1.844   3.654   5.969
 6724SOL    HW121071   1.818   3.724   6.035
 6724SOL    HW221072   1.774   3.583   5.966
 6725SOL     OW21073   5.478   2.893   3.364
 6725SOL    HW121074   5.416   2.868   3.290
 6725SOL    HW221075   5.446   2.852   3.450
 6726SOL     OW21076   6.934   0.968   5.462
 6726SOL    HW121077   6.847   0.921   5.479
 6726SOL    HW221078   6.969   0.941   5.372
 6727SOL     OW21079   1.197   4.830   5.604
 6727SOL    HW121080   1.287   4.857   5.569
 6727SOL    HW221081   1.141   4.795   5.529
 6728SOL     OW21082   4.141   2.022   3.641
 6728SOL    HW121083   4.132   1.942   3.581
 6728SOL    HW221084   4.054   2.072   3.642
 6729SOL     OW21085   5.079   1.295   1.335
 6729SOL    HW121086   5.012   1.231   1.372
 6729SOL    HW221087   5.167   1.281   1.380
 6730SOL     OW21088   0.915   1.436   1.452
 6730SOL    HW121089   1.002   1.474   1.485
 6730SOL    HW221090   0.853   1.423   1.528
 6731SOL     OW21091   3.257   6.409   6.814
 6731SOL    HW121092   3.231   6.472   6.742
 6731SOL    HW221093   3.226   6.316   6.792
 6732SOL     OW21094   6.097   5.251   4.619
 6732SOL    HW121095   6.067   5.236   4.713
 6732SOL    HW221096   6.176   5.312   4.618
 6733SOL     OW21097   4.056   5.127   6.167
 6733SOL    HW121098   4.124   5.139   6.240
 6733SOL    HW221099   4.082   5.049   6.110
 6734SOL     OW21100   5.820   1.303   4.875
 6734SOL    HW121101   5.801   1.366   4.950
 6734SOL    HW221102   5.785   1.212   4.898
 6735SOL     OW21103   6.292   3.058   3.540
 6735SOL    HW121104   6.286   3.133   3.474
 6735SOL    HW221105   6.269   2.972   3.494
 6736SOL     OW21106   3.359   4.089   0.575
 6736SOL    HW121107   3.452   4.116   0.600
 6736SOL    HW221108   3.319   4.157   0.514
 6737SOL     OW21109   0.534   3.410   1.041
 6737SOL    HW121110   0.590   3.489   1.066
 6737SOL    HW221111   0.512   3.357   1.123
 6738SOL     OW21112   1.962   6.120   2.933
 6738SOL    HW121113   2.016   6.201   2.952
 6738SOL    HW221114   1.866   6.138   2.956
 6739SOL     OW21115   6.846   6.721   4.727
 6739SOL    HW121116   6.846   6.812   4.684
 6739SOL    HW221117   6.856   6.651   4.656
 6740SOL     OW21118   0.143   6.761   4.272
 6740SOL    HW121119   0.157   6.792   4.178
 6740SOL    HW221120   0.093   6.674   4.271
 6741SOL     OW21121   4.761   1.970   5.871
 6741SOL    HW121122   4.857   1.989   5.852
 6741SOL    HW221123   4.737   2.006   5.961
 6742SOL     OW21124   5.720   4.521   3.843
 6742SOL    HW121125   5.672   4.440   3.878
 6742SOL    HW221126   5.660   4.601   3.850
 6743SOL     OW21127   4.214   3.850   1.349
 6743SOL    HW121128   4.126   3.873   1.390
 6743SOL    HW221129   4.228   3.905   1.266
 6744SOL     OW21130   0.166   5.473   6.012
 6744SOL    HW121131   0.100   5.527   5.960
 6744SOL    HW221132   0.125   5.386   6.039
 6745SOL     OW21133   6.902   6.379   3.918
 6745SOL    HW121134   6.936   6.285   3.928
 6745SOL    HW221135   6.809   6.384   3.955
 6746SOL     OW21136   1.790   1.253   2.535
 6746SOL    HW121137   1.743   1.282   2.618
 6746SOL    HW221138   1.781   1.154   2.524
 6747SOL     OW21139   1.389   6.579   6.668
 6747SOL    HW121140   1.440   6.659   6.699
 6747SOL    HW221141   1.321   6.554   6.737
 6748SOL     OW21142   2.368   1.628   4.524
 6748SOL    HW121143   2.320   1.626   4.436
 6748SOL    HW221144   2.455   1.677   4.513
 6749SOL     OW21145   3.811   4.829   1.005
 6749SOL    HW121146   3.905   4.821   1.038
 6749SOL    HW221147   3.784   4.743   0.962
 6750SOL     OW21148   3.308   1.575   4.452
 6750SOL    HW121149   3.315   1.480   4.420
 6750SOL    HW221150   3.386   1.628   4.418
 6751SOL     OW21151   4.218   6.703   3.883
 6751SOL    HW121152   4.289   6.773   3.888
 6751SOL    HW221153   4.202   6.679   3.787
 6752SOL     OW21154   1.992   6.241   2.662
 6752SOL    HW121155   1.965   6.191   2.744
 6752SOL    HW221156   1.982   6.339   2.678
 6753SOL     OW21157   3.783   3.021   5.423
 6753SOL    HW121158   3.797   3.053   5.329
 6753SOL    HW221159   3.693   3.050   5.456
 6754SOL     OW21160   6.111   1.321   1.462
 6754SOL    HW121161   6.052   1.385   1.412
 6754SOL    HW221162   6.207   1.347   1.450
 6755SOL     OW21163   2.488   5.272   6.138
 6755SOL    HW121164   2.537   5.322   6.066
 6755SOL    HW221165   2.540   5.278   6.224
 6756SOL     OW21166   2.611   2.347   5.448
 6756SOL    HW121167   2.690   2.324   5.504
 6756SOL    HW221168   2.558   2.420   5.493
 6757SOL     OW21169   3.825   0.898   0.522
 6757SOL    HW121170   3.827   0.984   0.572
 6757SOL    HW221171   3.855   0.824   0.582
 6758SOL     OW21172   5.963   2.605   2.112
 6758SOL    HW121173   6.061   2.596   2.129
 6758SOL    HW221174   5.946   2.684   2.053
 6759SOL     OW21175   0.768   3.325   3.087
 6759SOL    HW121176   0.709   3.355   3.161
 6759SOL    HW221177   0.863   3.326   3.117
 6760SOL     OW21178   5.293   2.801   3.198
 6760SOL    HW121179   5.214   2.858   3.223
 6760SOL    HW221180   5.295   2.789   3.099
 6761SOL     OW21181   5.038   1.943   4.660
 6761SOL    HW121182   5.091   1.933   4.744
 6761SOL    HW221183   4.942   1.921   4.678
 6762SOL     OW21184   0.076   5.312   4.034
 6762SOL    HW121185   0.029   5.329   3.947
 6762SOL    HW221186   0.165   5.358   4.033
 6763SOL     OW21187   4.890   5.153   4.589
 6763SOL    HW121188   4.990   5.163   4.594
 6763SOL    HW221189   4.849   5.240   4.560
 6764SOL     OW21190   1.198   5.624   1.781
 6764SOL    HW121191   1.152   5.598   1.866
 6764SOL    HW221192   1.289   5.659   1.801
 6765SOL     OW21193   6.346   4.514   2.668
 6765SOL    HW121194   6.285   4.436   2.653
 6765SOL    HW221195   6.291   4.595   2.689
 6766SOL     OW21196   5.162   6.933   0.636
 6766SOL    HW121197   5.157   6.850   0.691
 6766SOL    HW221198   5.101   6.926   0.558
 6767SOL     OW21199   3.111   1.378   0.319
 6767SOL    HW121200   3.020   1.408   0.288
 6767SOL    HW221201   3.128   1.415   0.410
 6768SOL     OW21202   1.939   0.731   0.927
 6768SOL    HW121203   1.920   0.798   0.999
 6768SOL    HW221204   1.886   0.754   0.846
 6769SOL     OW21205   3.917   2.595   1.255
 6769SOL    HW121206   3.872   2.652   1.185
 6769SOL    HW221207   3.924   2.501   1.221
 6770SOL     OW21208   6.601   0.055   1.848
 6770SOL    HW121209   6.610   0.155   1.847
 6770SOL    HW221210   6.554   0.027   1.932
 6771SOL     OW21211   4.062   2.168   2.862
 6771SOL    HW121212   4.064   2.190   2.764
 6771SOL    HW221213   3.969   2.141   2.888
 6772SOL     OW21214   2.734   1.587   2.636
 6772SOL    HW121215   2.716   1.564   2.731
 6772SOL    HW221216   2.754   1.685   2.629
 6773SOL     OW21217   6.750   4.004   1.578
 6773SOL    HW121218   6.830   3.977   1.632
 6773SOL    HW221219   6.692   4.066   1.632
 6774SOL     OW21220   0.573   2.814   6.234
 6774SOL    HW121221   0.630   2.822   6.316
 6774SOL    HW221222   0.477   2.800   6.261
 6775SOL     OW21223   2.564   4.514   0.899
 6775SOL    HW121224   2.465   4.498   0.897
 6775SOL    HW221225   2.588   4.566   0.980
 6776SOL     OW21226   5.674   5.033   7.015
 6776SOL    HW121227   5.652   5.106   6.950
 6776SOL    HW221228   5.701   4.951   6.965
 6777SOL     OW21229   4.574   4.992   6.015
 6777SOL    HW121230   4.574   4.893   6.029
 6777SOL    HW221231   4.668   5.022   5.999
 6778SOL     OW21232   0.689   4.399   2.771
 6778SOL    HW121233   0.668   4.304   2.746
 6778SOL    HW221234   0.663   4.414   2.867
 6779SOL     OW21235   0.186   4.407   0.342
 6779SOL    HW121236   0.107   4.462   0.313
 6779SOL    HW221237   0.260   4.417   0.276
 6780SOL     OW21238   0.227   2.541   2.988
 6780SOL    HW121239   0.147   2.549   2.928
 6780SOL    HW221240   0.302   2.496   2.938
 6781SOL     OW21241   5.406   6.501   5.835
 6781SOL    HW121242   5.374   6.594   5.816
 6781SOL    HW221243   5.369   6.439   5.765
 6782SOL     OW21244   7.020   0.963   2.517
 6782SOL    HW121245   7.022   0.930   2.612
 6782SOL    HW221246   0.045   1.050   2.511
 6783SOL     OW21247   0.066   6.333   6.254
 6783SOL    HW121248   0.040   6.333   6.157
 6783SOL    HW221249   0.101   6.243   6.279
 6784SOL     OW21250   3.901   4.291   6.646
 6784SOL    HW121251   3.989   4.334   6.666
 6784SOL    HW221252   3.912   4.192   6.642
 6785SOL     OW21253   6.311   5.599   1.639
 6785SOL    HW121254   6.359   5.560   1.560
 6785SOL    HW221255   6.242   5.663   1.607
 6786SOL     OW21256   1.515   2.424   6.836
 6786SOL    HW121257   1.444   2.405   6.903
 6786SOL    HW221258   1.571   2.501   6.868
 6787SOL     OW21259   1.467   3.917   1.260
 6787SOL    HW121260   1.367   3.910   1.262
 6787SOL    HW221261   1.503   3.909   1.353
 6788SOL     OW21262   2.803   3.961   1.676
 6788SOL    HW121263   2.880   3.926   1.729
 6788SOL    HW221264   2.735   3.889   1.663
 6789SOL     OW21265   0.800   6.788   1.941
 6789SOL    HW121266   0.796   6.825   1.849
 6789SOL    HW221267   0.878   6.828   1.990
 6790SOL     OW21268   1.865   2.802   0.291
 6790SOL    HW121269   1.860   2.808   0.391
 6790SOL    HW221270   1.959   2.782   0.264
 6791SOL     OW21271   3.945   2.902   6.689
 6791SOL    HW121272   3.974   2.952   6.608
 6791SOL    HW221273   4.008   2.827   6.707
 6792SOL     OW21274   6.297   6.188   6.594
 6792SOL    HW121275   6.325   6.208   6.500
 6792SOL    HW221276   6.377   6.160   6.647
 6793SOL     OW21277   1.524   2.019   0.386
 6793SOL    HW121278   1.476   1.963   0.318
 6793SOL    HW221279   1.617   2.036   0.356
 6794SOL     OW21280   4.990   0.805   4.585
 6794SOL    HW121281   4.923   0.752   4.637
 6794SOL    HW221282   5.008   0.891   4.632
 6795SOL     OW21283   2.936   5.900   0.642
 6795SOL    HW121284   2.916   5.989   0.601
 6795SOL    HW221285   2.871   5.832   0.608
 6796SOL     OW21286   5.346   1.259   2.725
 6796SOL    HW121287   5.362   1.175   2.777
 6796SOL    HW221288   5.385   1.337   2.774
 6797SOL     OW21289   5.599   4.135   2.155
 6797SOL    HW121290   5.667   4.123   2.227
 6797SOL    HW221291   5.510   4.101   2.187
 6798SOL     OW21292   5.558   5.491   2.714
 6798SOL    HW121293   5.486   5.534   2.659
 6798SOL    HW221294   5.523   5.406   2.754
 6799SOL     OW21295   4.545   5.831   0.383
 6799SOL    HW121296   4.604   5.912   0.378
 6799SOL    HW221297   4.591   5.754   0.339
 6800SOL     OW21298   1.716   4.593   0.535
 6800SOL    HW121299   1.681   4.674   0.488
 6800SOL    HW221300   1.663   4.577   0.618
 6801SOL     OW21301   1.726   2.606   2.372
 6801SOL    HW121302   1.728   2.633   2.276
 6801SOL    HW221303   1.749   2.684   2.430
 6802SOL     OW21304   2.411   5.930   0.862
 6802SOL    HW121305   2.340   5.996   0.886
 6802SOL    HW221306   2.445   5.951   0.770
 6803SOL     OW21307   5.158   1.884   5.978
 6803SOL    HW121308   5.107   1.935   5.908
 6803SOL    HW221309   5.235   1.837   5.935
 6804SOL     OW21310   1.477   5.558   3.429
 6804SOL    HW121311   1.425   5.505   3.496
 6804SOL    HW221312   1.554   5.602   3.475
 6805SOL     OW21313   6.020   0.041   4.749
 6805SOL    HW121314   6.052   7.022   4.664
 6805SOL    HW221315   5.923   0.063   4.741
 6806SOL     OW21316   4.793   1.293   4.589
 6806SOL    HW121317   4.786   1.326   4.683
 6806SOL    HW221318   4.786   1.193   4.589
 6807SOL     OW21319   2.742   2.914   0.365
 6807SOL    HW121320   2.696   2.907   0.277
 6807SOL    HW221321   2.683   2.876   0.436
 6808SOL     OW21322   0.339   2.462   4.925
 6808SOL    HW121323   0.340   2.491   4.829
 6808SOL    HW221324   0.247   2.477   4.962
 6809SOL     OW21325   1.717   4.579   6.957
 6809SOL    HW121326   1.730   4.672   6.922
 6809SOL    HW221327   1.634   4.576   7.013
 6810SOL     OW21328   0.483   1.050   2.581
 6810SOL    HW121329   0.529   0.992   2.514
 6810SOL    HW221330   0.503   1.146   2.560
 6811SOL     OW21331   6.431   4.628   0.952
 6811SOL    HW121332   6.343   4.586   0.975
 6811SOL    HW221333   6.504   4.581   1.003
 6812SOL     OW21334   3.889   3.933   3.161
 6812SOL    HW121335   3.858   4.008   3.220
 6812SOL    HW221336   3.982   3.950   3.131
 6813SOL     OW21337   4.506   2.383   1.338
 6813SOL    HW121338   4.573   2.377   1.412
 6813SOL    HW221339   4.507   2.298   1.285
 6814SOL     OW21340   2.678   3.523   0.963
 6814SOL    HW121341   2.707   3.441   0.914
 6814SOL    HW221342   2.740   3.541   1.039
 6815SOL     OW21343   2.888   0.064   1.933
 6815SOL    HW121344   2.940   7.002   1.921
 6815SOL    HW221345   2.834   0.082   1.851
 6816SOL     OW21346   6.548   5.254   0.021
 6816SOL    HW121347   6.474   5.298   0.073
 6816SOL    HW221348   6.636   5.284   0.057
 6817SOL     OW21349   6.601   1.613   5.502
 6817SOL    HW121350   6.530   1.651   5.561
 6817SOL    HW221351   6.626   1.681   5.433
 6818SOL     OW21352   3.515   6.536   2.246
 6818SOL    HW121353   3.496   6.442   2.217
 6818SOL    HW221354   3.502   6.543   2.345
 6819SOL     OW21355   3.099   0.430   3.575
 6819SOL    HW121356   3.070   0.486   3.653
 6819SOL    HW221357   3.196   0.407   3.584
 6820SOL     OW21358   0.819   4.344   3.513
 6820SOL    HW121359   0.746   4.295   3.559
 6820SOL    HW221360   0.794   4.357   3.416
 6821SOL     OW21361   2.475   2.421   4.973
 6821SOL    HW121362   2.422   2.403   5.056
 6821SOL    HW221363   2.471   2.518   4.951
 6822SOL     OW21364   5.464   1.562   5.747
 6822SOL    HW121365   5.490   1.636   5.685
 6822SOL    HW221366   5.412   1.599   5.824
 6823SOL     OW21367   3.402   3.218   3.634
 6823SOL    HW121368   3.323   3.157   3.639
 6823SOL    HW221369   3.393   3.277   3.554
 6824SOL     OW21370   0.341   4.022   6.358
 6824SOL    HW121371   0.391   3.956   6.302
 6824SOL    HW221372   0.344   4.112   6.315
 6825SOL     OW21373   5.415   6.905   2.116
 6825SOL    HW121374   5.469   6.821   2.122
 6825SOL    HW221375   5.381   6.917   2.023
 6826SOL     OW21376   2.130   3.176   2.660
 6826SOL    HW121377   2.182   3.090   2.656
 6826SOL    HW221378   2.115   3.210   2.568
 6827SOL     OW21379   4.805   5.705   6.867
 6827SOL    HW121380   4.707   5.715   6.848
 6827SOL    HW221381   4.843   5.792   6.897
 6828SOL     OW21382   1.509   2.248   1.232
 6828SOL    HW121383   1.588   2.264   1.173
 6828SOL    HW221384   1.429   2.225   1.176
 6829SOL     OW21385   5.201   6.356   3.872
 6829SOL    HW121386   5.292   6.319   3.892
 6829SOL    HW221387   5.139   6.280   3.849
 6830SOL     OW21388   5.371   1.755   3.133
 6830SOL    HW121389   5.429   1.699   3.192
 6830SOL    HW221390   5.384   1.728   3.038
 6831SOL     OW21391   0.757   0.967   5.966
 6831SOL    HW121392   0.663   0.982   5.995
 6831SOL    HW221393   0.763   0.975   5.867
 6832SOL     OW21394   3.064   4.850   2.030
 6832SOL    HW121395   2.974   4.893   2.022
 6832SOL    HW221396   3.075   4.813   2.122
 6833SOL     OW21397   3.767   4.712   6.441
 6833SOL    HW121398   3.853   4.759   6.419
 6833SOL    HW221399   3.728   4.673   6.358
 6834SOL     OW21400   4.267   6.704   2.019
 6834SOL    HW121401   4.362   6.673   2.018
 6834SOL    HW221402   4.259   6.790   1.970
 6835SOL     OW21403   4.257   0.174   4.707
 6835SOL    HW121404   4.204   0.089   4.708
 6835SOL    HW221405   4.352   0.154   4.685
 6836SOL     OW21406   2.866   6.535   0.585
 6836SOL    HW121407   2.877   6.492   0.675
 6836SOL    HW221408   2.832   6.628   0.596
 6837SOL     OW21409   1.899   3.642   1.882
 6837SOL    HW121410   1.860   3.716   1.827
 6837SOL    HW221411   1.962   3.588   1.825
 6838SOL     OW21412   2.689   1.194   0.325
 6838SOL    HW121413   2.646   1.105   0.313
 6838SOL    HW221414   2.692   1.241   0.237
 6839SOL     OW21415   4.240   1.112   0.964
 6839SOL    HW121416   4.272   1.083   0.874
 6839SOL    HW221417   4.319   1.121   1.026
 6840SOL     OW21418   2.597   1.286   6.104
 6840SOL    HW121419   2.527   1.237   6.156
 6840SOL    HW221420   2.600   1.382   6.135
 6841SOL     OW21421   6.422   3.051   6.347
 6841SOL    HW121422   6.395   2.965   6.304
 6841SOL    HW221423   6.498   3.035   6.409
 6842SOL     OW21424   2.060   5.502   1.482
 6842SOL    HW121425   2.032   5.438   1.553
 6842SOL    HW221426   2.159   5.516   1.486
 6843SOL     OW21427   5.346   6.652   6.753
 6843SOL    HW121428   5.333   6.696   6.664
 6843SOL    HW221429   5.443   6.655   6.778
 6844SOL     OW21430   4.957   0.606   3.811
 6844SOL    HW121431   4.909   0.693   3.797
 6844SOL    HW221432   4.930   0.567   3.899
 6845SOL     OW21433   4.870   2.537   3.147
 6845SOL    HW121434   4.855   2.486   3.062
 6845SOL    HW221435   4.787   2.586   3.173
 6846SOL     OW21436   2.840   4.047   0.379
 6846SOL    HW121437   2.811   3.956   0.350
 6846SOL    HW221438   2.905   4.084   0.313
 6847SOL     OW21439   5.918   3.704   4.090
 6847SOL    HW121440   5.864   3.763   4.150
 6847SOL    HW221441   5.859   3.634   4.051
 6848SOL     OW21442   4.942   4.342   3.750
 6848SOL    HW121443   4.879   4.265   3.740
 6848SOL    HW221444   4.997   4.351   3.666
 6849SOL     OW21445   4.098   3.577   6.241
 6849SOL    HW121446   4.097   3.496   6.183
 6849SOL    HW221447   4.004   3.605   6.260
 6850SOL     OW21448   4.319   2.173   3.354
 6850SOL    HW121449   4.262   2.190   3.274
 6850SOL    HW221450   4.325   2.074   3.371
 6851SOL     OW21451   1.622   2.819   3.152
 6851SOL    HW121452   1.699   2.867   3.112
 6851SOL    HW221453   1.623   2.830   3.251
 6852SOL     OW21454   2.903   5.419   0.289
 6852SOL    HW121455   2.978   5.453   0.345
 6852SOL    HW221456   2.816   5.436   0.336
 6853SOL     OW21457   4.967   3.253   6.433
 6853SOL    HW121458   4.960   3.277   6.336
 6853SOL    HW221459   4.914   3.170   6.450
 6854SOL     OW21460   5.308   6.374   6.087
 6854SOL    HW121461   5.387   6.333   6.133
 6854SOL    HW221462   5.339   6.440   6.019
 6855SOL     OW21463   3.768   4.868   3.442
 6855SOL    HW121464   3.863   4.845   3.461
 6855SOL    HW221465   3.720   4.884   3.528
 6856SOL     OW21466   1.046   2.319   6.710
 6856SOL    HW121467   1.032   2.257   6.633
 6856SOL    HW221468   1.076   2.266   6.790
 6857SOL     OW21469   1.072   3.673   6.195
 6857SOL    HW121470   1.164   3.638   6.173
 6857SOL    HW221471   1.014   3.664   6.114
 6858SOL     OW21472   3.143   4.274   1.711
 6858SOL    HW121473   3.078   4.341   1.747
 6858SOL    HW221474   3.218   4.322   1.665
 6859SOL     OW21475   1.301   1.360   2.407
 6859SOL    HW121476   1.360   1.385   2.330
 6859SOL    HW221477   1.245   1.438   2.433
 6860SOL     OW21478   0.152   6.375   2.142
 6860SOL    HW121479   0.181   6.332   2.057
 6860SOL    HW221480   0.124   6.470   2.123
 6861SOL     OW21481   5.133   2.896   5.213
 6861SOL    HW121482   5.044   2.941   5.218
 6861SOL    HW221483   5.123   2.799   5.236
 6862SOL     OW21484   0.271   4.790   5.877
 6862SOL    HW121485   0.298   4.697   5.853
 6862SOL    HW221486   0.299   4.811   5.970
 6863SOL     OW21487   6.989   6.621   5.274
 6863SOL    HW121488   7.014   6.589   5.366
 6863SOL    HW221489   0.030   6.581   5.207
 6864SOL     OW21490   1.846   3.680   5.298
 6864SOL    HW121491   1.798   3.740   5.362
 6864SOL    HW221492   1.932   3.649   5.340
 6865SOL     OW21493   1.714   0.257   4.626
 6865SOL    HW121494   1.689   0.277   4.721
 6865SOL    HW221495   1.674   0.328   4.566
 6866SOL     OW21496   0.055   4.537   1.731
 6866SOL    HW121497   6.993   4.587   1.744
 6866SOL    HW221498   0.057   4.458   1.793
 6867SOL     OW21499   2.177   3.186   0.783
 6867SOL    HW121500   2.262   3.143   0.754
 6867SOL    HW221501   2.146   3.146   0.869
 6868SOL     OW21502   2.081   5.232   4.766
 6868SOL    HW121503   2.178   5.249   4.784
 6868SOL    HW221504   2.065   5.231   4.668
 6869SOL     OW21505   3.757   6.916   5.898
 6869SOL    HW121506   3.732   6.978   5.973
 6869SOL    HW221507   3.742   6.822   5.927
 6870SOL     OW21508   0.336   2.790   0.191
 6870SOL    HW121509   0.242   2.824   0.190
 6870SOL    HW221510   0.383   2.819   0.107
 6871SOL     OW21511   6.849   3.622   2.469
 6871SOL    HW121512   6.908   3.544   2.489
 6871SOL    HW221513   6.798   3.604   2.385
 6872SOL     OW21514   1.686   2.927   1.582
 6872SOL    HW121515   1.685   3.024   1.559
 6872SOL    HW221516   1.634   2.876   1.513
 6873SOL     OW21517   1.029   4.002   4.554
 6873SOL    HW121518   1.011   3.938   4.629
 6873SOL    HW221519   1.126   4.027   4.555
 6874SOL     OW21520   5.773   5.658   2.609
 6874SOL    HW121521   5.690   5.616   2.646
 6874SOL    HW221522   5.847   5.590   2.610
 6875SOL     OW21523   1.319   2.944   1.315
 6875SOL    HW121524   1.231   2.982   1.344
 6875SOL    HW221525   1.377   3.017   1.278
 6876SOL     OW21526   4.409   5.557   3.455
 6876SOL    HW121527   4.387   5.619   3.530
 6876SOL    HW221528   4.369   5.467   3.473
 6877SOL     OW21529   1.975   3.905   2.006
 6877SOL    HW121530   1.912   3.849   1.952
 6877SOL    HW221531   1.955   4.002   1.992
 6878SOL     OW21532   2.178   0.953   3.859
 6878SOL    HW121533   2.136   1.016   3.793
 6878SOL    HW221534   2.109   0.889   3.892
 6879SOL     OW21535   2.304   2.315   0.880
 6879SOL    HW121536   2.351   2.243   0.931
 6879SOL    HW221537   2.207   2.294   0.873
 6880SOL     OW21538   1.650   5.525   6.578
 6880SOL    HW121539   1.626   5.581   6.658
 6880SOL    HW221540   1.653   5.583   6.497
 6881SOL     OW21541   1.424   3.308   0.287
 6881SOL    HW121542   1.363   3.334   0.361
 6881SOL    HW221543   1.518   3.334   0.311
 6882SOL     OW21544   2.902   6.506   0.313
 6882SOL    HW121545   2.853   6.423   0.287
 6882SOL    HW221546   2.921   6.505   0.411
 6883SOL     OW21547   4.762   0.277   6.501
 6883SOL    HW121548   4.688   0.303   6.563
 6883SOL    HW221549   4.752   0.326   6.414
 6884SOL     OW21550   2.147   3.614   3.155
 6884SOL    HW121551   2.153   3.612   3.055
 6884SOL    HW221552   2.173   3.525   3.192
 6885SOL     OW21553   5.548   5.650   3.552
 6885SOL    HW121554   5.575   5.564   3.596
 6885SOL    HW221555   5.504   5.709   3.620
 6886SOL     OW21556   5.048   1.203   5.850
 6886SOL    HW121557   4.996   1.288   5.847
 6886SOL    HW221558   5.082   1.182   5.758
 6887SOL     OW21559   5.103   6.044   6.393
 6887SOL    HW121560   5.154   6.120   6.432
 6887SOL    HW221561   5.012   6.075   6.366
 6888SOL     OW21562   5.664   4.798   6.310
 6888SOL    HW121563   5.577   4.833   6.275
 6888SOL    HW221564   5.737   4.863   6.288
 6889SOL     OW21565   0.982   2.738   6.505
 6889SOL    HW121566   0.911   2.781   6.560
 6889SOL    HW221567   1.023   2.662   6.555
 6890SOL     OW21568   3.741   5.200   2.664
 6890SOL    HW121569   3.686   5.277   2.696
 6890SOL    HW221570   3.736   5.194   2.564
 6891SOL     OW21571   2.370   2.545   1.044
 6891SOL    HW121572   2.462   2.558   1.082
 6891SOL    HW221573   2.373   2.473   0.974
 6892SOL     OW21574   3.759   1.032   3.764
 6892SOL    HW121575   3.794   0.958   3.706
 6892SOL    HW221576   3.721   1.104   3.706
 6893SOL     OW21577   6.480   2.715   6.903
 6893SOL    HW121578   6.561   2.674   6.946
 6893SOL    HW221579   6.398   2.680   6.947
 6894SOL     OW21580   5.462   4.706   0.927
 6894SOL    HW121581   5.417   4.769   0.864
 6894SOL    HW221582   5.535   4.754   0.975
 6895SOL     OW21583   1.409   6.306   1.812
 6895SOL    HW121584   1.497   6.318   1.765
 6895SOL    HW221585   1.409   6.358   1.897
 6896SOL     OW21586   4.151   2.090   4.555
 6896SOL    HW121587   4.224   2.066   4.619
 6896SOL    HW221588   4.153   2.188   4.537
 6897SOL     OW21589   5.219   3.886   5.004
 6897SOL    HW121590   5.292   3.841   4.954
 6897SOL    HW221591   5.153   3.818   5.036
 6898SOL     OW21592   2.564   1.845   1.864
 6898SOL    HW121593   2.654   1.826   1.903
 6898SOL    HW221594   2.554   1.944   1.850
 6899SOL     OW21595   6.355   5.615   2.961
 6899SOL    HW121596   6.335   5.702   2.916
 6899SOL    HW221597   6.383   5.632   3.055
 6900SOL     OW21598   6.265   4.564   5.948
 6900SOL    HW121599   6.198   4.612   5.892
 6900SOL    HW221600   6.251   4.465   5.938
 6901SOL     OW21601   4.657   5.209   6.593
 6901SOL    HW121602   4.684   5.194   6.498
 6901SOL    HW221603   4.629   5.122   6.634
 6902SOL     OW21604   0.448   5.872   6.214
 6902SOL    HW121605   0.488   5.874   6.122
 6902SOL    HW221606   0.455   5.780   6.251
 6903SOL     OW21607   2.639   4.925   4.934
 6903SOL    HW121608   2.734   4.933   4.965
 6903SOL    HW221609   2.621   4.832   4.903
 6904SOL     OW21610   0.094   6.246   4.403
 6904SOL    HW121611   0.037   6.258   4.484
 6904SOL    HW221612   0.036   6.232   4.323
 6905SOL     OW21613   5.277   5.380   6.225
 6905SOL    HW121614   5.208   5.421   6.166
 6905SOL    HW221615   5.265   5.413   6.319
 6906SOL     OW21616   3.979   1.179   3.538
 6906SOL    HW121617   3.881   1.197   3.524
 6906SOL    HW221618   4.016   1.242   3.606
 6907SOL     OW21619   6.220   1.671   1.220
 6907SOL    HW121620   6.166   1.744   1.178
 6907SOL    HW221621   6.229   1.595   1.156
 6908SOL     OW21622   2.324   4.530   6.736
 6908SOL    HW121623   2.232   4.498   6.755
 6908SOL    HW221624   2.390   4.457   6.756
 6909SOL     OW21625   5.539   4.808   1.292
 6909SOL    HW121626   5.554   4.826   1.389
 6909SOL    HW221627   5.547   4.710   1.275
 6910SOL     OW21628   1.511   2.503   3.485
 6910SOL    HW121629   1.525   2.421   3.430
 6910SOL    HW221630   1.600   2.539   3.514
 6911SOL     OW21631   2.959   0.121   5.996
 6911SOL    HW121632   2.989   0.051   6.060
 6911SOL    HW221633   2.862   0.142   6.011
 6912SOL     OW21634   2.125   3.881   6.697
 6912SOL    HW121635   2.138   3.979   6.687
 6912SOL    HW221636   2.212   3.839   6.724
 6913SOL     OW21637   4.684   5.868   5.691
 6913SOL    HW121638   4.708   5.907   5.602
 6913SOL    HW221639   4.585   5.852   5.695
 6914SOL     OW21640   6.546   3.341   2.167
 6914SOL    HW121641   6.579   3.432   2.193
 6914SOL    HW221642   6.467   3.350   2.108
 6915SOL     OW21643   1.451   3.087   2.363
 6915SOL    HW121644   1.502   3.083   2.277
 6915SOL    HW221645   1.469   3.003   2.415
 6916SOL     OW21646   4.369   6.487   6.535
 6916SOL    HW121647   4.383   6.420   6.462
 6916SOL    HW221648   4.381   6.579   6.497
 6917SOL     OW21649   5.641   5.620   1.497
 6917SOL    HW121650   5.660   5.718   1.489
 6917SOL    HW221651   5.722   5.573   1.533
 6918SOL     OW21652   1.409   2.976   2.037
 6918SOL    HW121653   1.492   3.021   2.069
 6918SOL    HW221654   1.431   2.918   1.959
 6919SOL     OW21655   6.567   6.584   3.100
 6919SOL    HW121656   6.618   6.508   3.059
 6919SOL    HW221657   6.486   6.549   3.146
 6920SOL     OW21658   4.741   0.615   5.433
 6920SOL    HW121659   4.831   0.589   5.398
 6920SOL    HW221660   4.743   0.618   5.533
 6921SOL     OW21661   3.349   0.392   4.645
 6921SOL    HW121662   3.327   0.300   4.675
 6921SOL    HW221663   3.448   0.399   4.628
 6922SOL     OW21664   1.109   6.237   5.403
 6922SOL    HW121665   1.082   6.318   5.455
 6922SOL    HW221666   1.037   6.169   5.406
 6923SOL     OW21667   6.149   6.881   1.943
 6923SOL    HW121668   6.200   6.796   1.938
 6923SOL    HW221669   6.208   6.957   1.914
 6924SOL     OW21670   3.633   6.544   0.409
 6924SOL    HW121671   3.640   6.642   0.425
 6924SOL    HW221672   3.603   6.528   0.314
 6925SOL     OW21673   5.477   6.173   6.439
 6925SOL    HW121674   5.446   6.128   6.355
 6925SOL    HW221675   5.564   6.133   6.469
 6926SOL     OW21676   3.097   2.087   0.841
 6926SOL    HW121677   3.099   2.035   0.926
 6926SOL    HW221678   3.189   2.121   0.821
 6927SOL     OW21679   4.067   1.134   0.220
 6927SOL    HW121680   4.092   1.224   0.183
 6927SOL    HW221681   3.984   1.143   0.276
 6928SOL     OW21682   4.462   4.639   0.839
 6928SOL    HW121683   4.445   4.727   0.796
 6928SOL    HW221684   4.377   4.604   0.879
 6929SOL     OW21685   5.398   5.833   1.130
 6929SOL    HW121686   5.451   5.911   1.161
 6929SOL    HW221687   5.332   5.863   1.061
 6930SOL     OW21688   0.296   0.761   0.453
 6930SOL    HW121689   0.333   0.849   0.482
 6930SOL    HW221690   0.358   0.719   0.387
 6931SOL     OW21691   2.692   2.556   1.418
 6931SOL    HW121692   2.629   2.495   1.467
 6931SOL    HW221693   2.734   2.618   1.484
 6932SOL     OW21694   4.342   5.615   0.340
 6932SOL    HW121695   4.427   5.589   0.295
 6932SOL    HW221696   4.339   5.715   0.350
 6933SOL     OW21697   3.082   5.441   6.302
 6933SOL    HW121698   3.090   5.358   6.247
 6933SOL    HW221699   3.029   5.509   6.252
 6934SOL     OW21700   4.709   4.188   6.034
 6934SOL    HW121701   4.793   4.215   6.083
 6934SOL    HW221702   4.630   4.200   6.095
 6935SOL     OW21703   5.568   5.359   1.657
 6935SOL    HW121704   5.530   5.433   1.713
 6935SOL    HW221705   5.586   5.393   1.565
 6936SOL     OW21706   0.933   1.810   4.839
 6936SOL    HW121707   0.889   1.882   4.893
 6936SOL    HW221708   0.873   1.782   4.764
 6937SOL     OW21709   5.179   5.715   0.444
 6937SOL    HW121710   5.080   5.724   0.455
 6937SOL    HW221711   5.202   5.622   0.414
 6938SOL     OW21712   0.291   0.315   4.567
 6938SOL    HW121713   0.316   0.219   4.562
 6938SOL    HW221714   0.313   0.351   4.658
 6939SOL     OW21715   6.586   4.633   3.117
 6939SOL    HW121716   6.543   4.618   3.028
 6939SOL    HW221717   6.531   4.589   3.188
 6940SOL     OW21718   4.382   6.829   0.561
 6940SOL    HW121719   4.315   6.871   0.623
 6940SOL    HW221720   4.425   6.900   0.506
 6941SOL     OW21721   3.355   3.321   2.593
 6941SOL    HW121722   3.334   3.414   2.623
 6941SOL    HW221723   3.300   3.299   2.512
 6942SOL     OW21724   6.371   6.820   1.432
 6942SOL    HW121725   6.370   6.905   1.485
 6942SOL    HW221726   6.341   6.744   1.491
 6943SOL     OW21727   3.938   4.878   6.289
 6943SOL    HW121728   3.890   4.829   6.216
 6943SOL    HW221729   3.982   4.960   6.250
 6944SOL     OW21730   1.200   3.686   5.895
 6944SOL    HW121731   1.123   3.666   5.835
 6944SOL    HW221732   1.216   3.785   5.896
 6945SOL     OW21733   5.459   3.069   0.947
 6945SOL    HW121734   5.479   3.163   0.973
 6945SOL    HW221735   5.376   3.067   0.891
 6946SOL     OW21736   4.534   5.728   2.604
 6946SOL    HW121737   4.535   5.738   2.704
 6946SOL    HW221738   4.450   5.684   2.576
 6947SOL     OW21739   5.380   5.400   5.517
 6947SOL    HW121740   5.385   5.412   5.616
 6947SOL    HW221741   5.336   5.312   5.496
 6948SOL     OW21742   0.478   5.404   0.157
 6948SOL    HW121743   0.568   5.381   0.120
 6948SOL    HW221744   0.465   5.503   0.154
 6949SOL     OW21745   2.726   2.385   3.846
 6949SOL    HW121746   2.765   2.430   3.765
 6949SOL    HW221747   2.671   2.450   3.897
 6950SOL     OW21748   0.658   6.661   5.024
 6950SOL    HW121749   0.640   6.589   5.092
 6950SOL    HW221750   0.621   6.748   5.057
 6951SOL     OW21751   6.843   4.999   6.695
 6951SOL    HW121752   6.889   4.970   6.610
 6951SOL    HW221753   6.884   4.952   6.773
 6952SOL     OW21754   3.410   4.914   2.997
 6952SOL    HW121755   3.330   4.854   2.989
 6952SOL    HW221756   3.410   4.980   2.922
 6953SOL     OW21757   5.203   0.828   0.959
 6953SOL    HW121758   5.294   0.864   0.978
 6953SOL    HW221759   5.207   0.728   0.954
 6954SOL     OW21760   6.549   3.685   0.562
 6954SOL    HW121761   6.492   3.709   0.484
 6954SOL    HW221762   6.642   3.667   0.531
 6955SOL     OW21763   5.369   6.274   2.443
 6955SOL    HW121764   5.322   6.352   2.404
 6955SOL    HW221765   5.302   6.210   2.482
 6956SOL     OW21766   5.131   5.534   2.187
 6956SOL    HW121767   5.074   5.503   2.111
 6956SOL    HW221768   5.130   5.465   2.260
 6957SOL     OW21769   5.329   5.130   6.404
 6957SOL    HW121770   5.402   5.187   6.366
 6957SOL    HW221771   5.244   5.147   6.356
 6958SOL     OW21772   3.701   2.887   3.326
 6958SOL    HW121773   3.736   2.958   3.387
 6958SOL    HW221774   3.754   2.888   3.241
 6959SOL     OW21775   1.093   4.044   3.161
 6959SOL    HW121776   1.064   4.063   3.255
 6959SOL    HW221777   1.033   4.091   3.097
 6960SOL     OW21778   2.668   4.625   0.121
 6960SOL    HW121779   2.692   4.564   0.196
 6960SOL    HW221780   2.658   4.718   0.155
 6961SOL     OW21781   4.774   2.142   5.559
 6961SOL    HW121782   4.797   2.056   5.603
 6961SOL    HW221783   4.675   2.154   5.557
 6962SOL     OW21784   3.004   6.916   6.167
 6962SOL    HW121785   2.962   6.972   6.239
 6962SOL    HW221786   3.018   6.823   6.203
 6963SOL     OW21787   5.436   6.472   0.968
 6963SOL    HW121788   5.426   6.402   1.038
 6963SOL    HW221789   5.518   6.455   0.914
 6964SOL     OW21790   1.892   0.251   6.222
 6964SOL    HW121791   1.947   0.169   6.208
 6964SOL    HW221792   1.914   0.318   6.151
 6965SOL     OW21793   0.547   1.999   6.828
 6965SOL    HW121794   0.640   1.972   6.801
 6965SOL    HW221795   0.510   1.933   6.893
 6966SOL     OW21796   0.824   0.774   1.699
 6966SOL    HW121797   0.779   0.791   1.787
 6966SOL    HW221798   0.889   0.847   1.680
 6967SOL     OW21799   4.268   1.638   6.040
 6967SOL    HW121800   4.323   1.634   5.957
 6967SOL    HW221801   4.174   1.663   6.016
 6968SOL     OW21802   3.780   6.556   2.848
 6968SOL    HW121803   3.723   6.617   2.793
 6968SOL    HW221804   3.875   6.588   2.845
 6969SOL     OW21805   2.285   1.889   1.812
 6969SOL    HW121806   2.351   1.961   1.792
 6969SOL    HW221807   2.323   1.826   1.879
 6970SOL     OW21808   3.614   4.503   5.905
 6970SOL    HW121809   3.576   4.595   5.911
 6970SOL    HW221810   3.605   4.468   5.812
 6971SOL     OW21811   6.770   4.375   0.404
 6971SOL    HW121812   6.791   4.350   0.499
 6971SOL    HW221813   6.838   4.441   0.371
 6972SOL     OW21814   4.996   3.741   2.529
 6972SOL    HW121815   4.928   3.763   2.459
 6972SOL    HW221816   5.073   3.694   2.487
 6973SOL     OW21817   1.134   2.717   3.015
 6973SOL    HW121818   1.052   2.717   3.072
 6973SOL    HW221819   1.154   2.623   2.987
 6974SOL     OW21820   3.535   3.849   2.771
 6974SOL    HW121821   3.595   3.888   2.840
 6974SOL    HW221822   3.476   3.779   2.813
 6975SOL     OW21823   3.231   5.963   4.720
 6975SOL    HW121824   3.322   5.922   4.716
 6975SOL    HW221825   3.191   5.965   4.628
 6976SOL     OW21826   5.143   4.382   5.886
 6976SOL    HW121827   5.113   4.297   5.842
 6976SOL    HW221828   5.200   4.360   5.965
 6977SOL     OW21829   4.155   4.679   1.624
 6977SOL    HW121830   4.194   4.652   1.712
 6977SOL    HW221831   4.069   4.629   1.609
 6978SOL     OW21832   5.362   3.598   1.908
 6978SOL    HW121833   5.348   3.503   1.936
 6978SOL    HW221834   5.443   3.634   1.954
 6979SOL     OW21835   0.972   3.941   1.284
 6979SOL    HW121836   1.069   3.929   1.263
 6979SOL    HW221837   0.921   3.955   1.199
 6980SOL     OW21838   1.324   6.545   3.495
 6980SOL    HW121839   1.305   6.637   3.460
 6980SOL    HW221840   1.349   6.486   3.419
 6981SOL     OW21841   3.440   3.421   6.509
 6981SOL    HW121842   3.496   3.478   6.570
 6981SOL    HW221843   3.347   3.458   6.504
 6982SOL     OW21844   1.167   1.260   3.859
 6982SOL    HW121845   1.215   1.292   3.940
 6982SOL    HW221846   1.116   1.176   3.881
 6983SOL     OW21847   5.111   0.408   4.044
 6983SOL    HW121848   5.172   0.351   4.099
 6983SOL    HW221849   5.090   0.360   3.958
 6984SOL     OW21850   0.574   2.670   3.167
 6984SOL    HW121851   0.608   2.629   3.082
 6984SOL    HW221852   0.485   2.713   3.150
 6985SOL     OW21853   6.087   3.465   0.006
 6985SOL    HW121854   6.118   3.548   0.053
 6985SOL    HW221855   6.143   3.387   0.034
 6986SOL     OW21856   3.791   5.173   5.403
 6986SOL    HW121857   3.725   5.139   5.471
 6986SOL    HW221858   3.789   5.273   5.402
 6987SOL     OW21859   0.559   1.811   6.529
 6987SOL    HW121860   0.577   1.714   6.509
 6987SOL    HW221861   0.504   1.818   6.612
 6988SOL     OW21862   3.162   1.178   6.316
 6988SOL    HW121863   3.142   1.268   6.355
 6988SOL    HW221864   3.089   1.152   6.252
 6989SOL     OW21865   0.003   4.869   2.776
 6989SOL    HW121866   6.991   4.900   2.865
 6989SOL    HW221867   0.093   4.910   2.760
 6990SOL     OW21868   3.326   2.906   1.375
 6990SOL    HW121869   3.417   2.871   1.400
 6990SOL    HW221870   3.257   2.838   1.400
 6991SOL     OW21871   5.575   3.826   2.384
 6991SOL    HW121872   5.500   3.889   2.365
 6991SOL    HW221873   5.586   3.815   2.482
 6992SOL     OW21874   1.101   6.917   6.832
 6992SOL    HW121875   1.007   6.948   6.845
 6992SOL    HW221876   1.131   6.866   6.913
 6993SOL     OW21877   4.974   0.853   1.445
 6993SOL    HW121878   5.016   0.810   1.365
 6993SOL    HW221879   5.014   0.816   1.528
 6994SOL     OW21880   2.187   6.863   4.262
 6994SOL    HW121881   2.254   6.799   4.300
 6994SOL    HW221882   2.109   6.812   4.226
 6995SOL     OW21883   0.330   3.421   0.858
 6995SOL    HW121884   0.404   3.378   0.910
 6995SOL    HW221885   0.244   3.372   0.875
 6996SOL     OW21886   1.499   1.543   6.953
 6996SOL    HW121887   1.549   1.580   6.874
 6996SOL    HW221888   1.520   1.446   6.963
 6997SOL     OW21889   6.536   5.277   5.207
 6997SOL    HW121890   6.457   5.287   5.268
 6997SOL    HW221891   6.609   5.228   5.255
 6998SOL     OW21892   7.004   1.266   0.907
 6998SOL    HW121893   6.967   1.225   0.824
 6998SOL    HW221894   0.011   1.194   0.970
 6999SOL     OW21895   1.212   3.137   0.191
 6999SOL    HW121896   1.263   3.197   0.252
 6999SOL    HW221897   1.276   3.091   0.129
 7000SOL     OW21898   6.726   0.348   2.660
 7000SOL    HW121899   6.638   0.357   2.706
 7000SOL    HW221900   6.792   0.412   2.700
 7001SOL     OW21901   1.049   1.612   4.467
 7001SOL    HW121902   1.098   1.687   4.423
 7001SOL    HW221903   1.059   1.620   4.566
 7002SOL     OW21904   0.150   5.977   3.204
 7002SOL    HW121905   0.224   5.911   3.193
 7002SOL    HW221906   0.107   5.995   3.116
 7003SOL     OW21907   5.954   4.314   1.070
 7003SOL    HW121908   5.897   4.328   0.989
 7003SOL    HW221909   6.011   4.233   1.057
 7004SOL     OW21910   1.706   5.540   0.514
 7004SOL    HW121911   1.747   5.552   0.424
 7004SOL    HW221912   1.722   5.446   0.545
 7005SOL     OW21913   1.460   0.090   6.915
 7005SOL    HW121914   1.379   0.080   6.973
 7005SOL    HW221915   1.444   0.049   6.826
 7006SOL     OW21916   0.307   7.017   4.038
 7006SOL    HW121917   0.242   6.941   4.031
 7006SOL    HW221918   0.319   0.036   3.948
 7007SOL     OW21919   3.935   0.545   5.580
 7007SOL    HW121920   3.838   0.526   5.569
 7007SOL    HW221921   3.948   0.636   5.619
 7008SOL     OW21922   6.152   4.347   3.615
 7008SOL    HW121923   6.202   4.423   3.656
 7008SOL    HW221924   6.053   4.361   3.627
 7009SOL     OW21925   4.532   5.847   1.849
 7009SOL    HW121926   4.613   5.813   1.801
 7009SOL    HW221927   4.546   5.943   1.872
 7010SOL     OW21928   5.106   4.148   1.900
 7010SOL    HW121929   5.159   4.118   1.980
 7010SOL    HW221930   5.123   4.086   1.824
 7011SOL     OW21931   3.508   6.426   6.907
 7011SOL    HW121932   3.426   6.448   6.854
 7011SOL    HW221933   3.497   6.337   6.950
 7012SOL     OW21934   0.382   1.765   0.687
 7012SOL    HW121935   0.344   1.685   0.641
 7012SOL    HW221936   0.416   1.830   0.618
 7013SOL     OW21937   2.726   1.556   6.805
 7013SOL    HW121938   2.705   1.619   6.730
 7013SOL    HW221939   2.691   1.593   6.891
 7014SOL     OW21940   6.564   3.602   1.503
 7014SOL    HW121941   6.491   3.555   1.454
 7014SOL    HW221942   6.621   3.535   1.551
 7015SOL     OW21943   4.818   5.259   0.969
 7015SOL    HW121944   4.906   5.305   0.962
 7015SOL    HW221945   4.832   5.160   0.964
 7016SOL     OW21946   3.219   5.087   0.701
 7016SOL    HW121947   3.176   5.174   0.678
 7016SOL    HW221948   3.152   5.013   0.692
 7017SOL     OW21949   4.677   5.368   4.018
 7017SOL    HW121950   4.588   5.322   4.020
 7017SOL    HW221951   4.726   5.349   4.103
 7018SOL     OW21952   4.805   3.081   4.155
 7018SOL    HW121953   4.892   3.033   4.146
 7018SOL    HW221954   4.815   3.154   4.223
 7019SOL     OW21955   4.971   4.510   1.794
 7019SOL    HW121956   4.953   4.580   1.724
 7019SOL    HW221957   4.887   4.491   1.845
 7020SOL     OW21958   0.575   3.192   6.920
 7020SOL    HW121959   0.545   3.259   6.988
 7020SOL    HW221960   0.495   3.145   6.883
 7021SOL     OW21961   1.321   2.325   4.978
 7021SOL    HW121962   1.387   2.266   5.026
 7021SOL    HW221963   1.294   2.282   4.892
 7022SOL     OW21964   3.995   1.160   1.087
 7022SOL    HW121965   4.077   1.141   1.032
 7022SOL    HW221966   3.999   1.252   1.124
 7023SOL     OW21967   0.851   2.213   1.535
 7023SOL    HW121968   0.824   2.306   1.509
 7023SOL    HW221969   0.950   2.204   1.528
 7024SOL     OW21970   3.801   3.683   3.924
 7024SOL    HW121971   3.900   3.682   3.906
 7024SOL    HW221972   3.762   3.593   3.906
 7025SOL     OW21973   3.459   0.126   0.310
 7025SOL    HW121974   3.388   0.158   0.247
 7025SOL    HW221975   3.500   0.042   0.274
 7026SOL     OW21976   3.539   1.998   1.344
 7026SOL    HW121977   3.499   1.979   1.254
 7026SOL    HW221978   3.563   2.095   1.350
 7027SOL     OW21979   1.943   5.747   1.522
 7027SOL    HW121980   1.973   5.652   1.517
 7027SOL    HW221981   2.020   5.805   1.547
 7028SOL     OW21982   3.373   0.358   3.622
 7028SOL    HW121983   3.449   0.423   3.634
 7028SOL    HW221984   3.372   0.293   3.697
 7029SOL     OW21985   3.258   3.092   5.249
 7029SOL    HW121986   3.302   3.159   5.307
 7029SOL    HW221987   3.263   3.002   5.292
 7030SOL     OW21988   6.852   1.691   4.616
 7030SOL    HW121989   6.798   1.772   4.635
 7030SOL    HW221990   6.815   1.613   4.667
 7031SOL     OW21991   4.536   6.601   0.617
 7031SOL    HW121992   4.564   6.547   0.537
 7031SOL    HW221993   4.518   6.695   0.588
 7032SOL     OW21994   3.866   0.000   4.540
 7032SOL    HW121995   3.963   7.018   4.563
 7032SOL    HW221996   3.816   0.045   4.615
 7033SOL     OW21997   1.432   2.444   5.517
 7033SOL    HW121998   1.432   2.390   5.601
 7033SOL    HW221999   1.477   2.531   5.534
 7034SOL     OW22000   6.148   1.479   2.953
 7034SOL    HW122001   6.204   1.462   3.034
 7034SOL    HW222002   6.075   1.411   2.949
 7035SOL     OW22003   2.201   0.758   0.836
 7035SOL    HW122004   2.261   0.776   0.914
 7035SOL    HW222005   2.107   0.777   0.861
 7036SOL     OW22006   0.064   1.298   2.204
 7036SOL    HW122007   0.160   1.275   2.220
 7036SOL    HW222008   0.038   1.270   2.111
 7037SOL     OW22009   0.628   0.686   6.146
 7037SOL    HW122010   0.668   0.679   6.055
 7037SOL    HW222011   0.596   0.596   6.176
 7038SOL     OW22012   1.608   3.028   6.435
 7038SOL    HW122013   1.615   2.931   6.459
 7038SOL    HW222014   1.563   3.077   6.509
 7039SOL     OW22015   0.049   5.995   2.943
 7039SOL    HW122016   7.022   5.913   2.917
 7039SOL    HW222017   0.130   6.006   2.885
 7040SOL     OW22018   4.534   2.273   5.334
 7040SOL    HW122019   4.562   2.179   5.350
 7040SOL    HW222020   4.614   2.333   5.341
 7041SOL     OW22021   1.451   0.364   3.967
 7041SOL    HW122022   1.373   0.301   3.969
 7041SOL    HW222023   1.417   0.459   3.966
 7042SOL     OW22024   4.654   6.194   5.244
 7042SOL    HW122025   4.674   6.291   5.231
 7042SOL    HW222026   4.603   6.159   5.165
 7043SOL     OW22027   2.256   4.660   2.954
 7043SOL    HW122028   2.330   4.709   2.906
 7043SOL    HW222029   2.296   4.586   3.009
 7044SOL     OW22030   5.458   6.387   4.091
 7044SOL    HW122031   5.385   6.423   4.148
 7044SOL    HW222032   5.477   6.451   4.017
 7045SOL     OW22033   6.364   5.396   2.753
 7045SOL    HW122034   6.379   5.455   2.831
 7045SOL    HW222035   6.304   5.320   2.779
 7046SOL     OW22036   3.075   2.071   4.398
 7046SOL    HW122037   3.102   2.014   4.476
 7046SOL    HW222038   3.028   2.152   4.432
 7047SOL     OW22039   0.869   6.798   0.335
 7047SOL    HW122040   0.882   6.777   0.432
 7047SOL    HW222041   0.909   6.887   0.315
 7048SOL     OW22042   6.914   5.395   4.956
 7048SOL    HW122043   6.885   5.301   4.939
 7048SOL    HW222044   7.006   5.395   4.994
 7049SOL     OW22045   3.765   0.910   2.202
 7049SOL    HW122046   3.863   0.896   2.208
 7049SOL    HW222047   3.738   0.919   2.106
 7050SOL     OW22048   4.084   4.027   0.694
 7050SOL    HW122049   4.035   3.940   0.693
 7050SOL    HW222050   4.182   4.011   0.684
 7051SOL     OW22051   0.465   7.018   1.120
 7051SOL    HW122052   0.468   0.088   1.084
 7051SOL    HW222053   0.544   7.002   1.179
 7052SOL     OW22054   5.557   0.047   2.284
 7052SOL    HW122055   5.598   0.108   2.216
 7052SOL    HW222056   5.501   7.001   2.238
 7053SOL     OW22057   1.739   2.833   3.685
 7053SOL    HW122058   1.829   2.873   3.702
 7053SOL    HW222059   1.748   2.734   3.672
 7054SOL     OW22060   6.819   0.187   0.863
 7054SOL    HW122061   6.913   0.153   0.863
 7054SOL    HW222062   6.820   0.287   0.851
 7055SOL     OW22063   2.435   0.985   0.077
 7055SOL    HW122064   2.394   0.897   0.105
 7055SOL    HW222065   2.369   1.058   0.091
 7056SOL     OW22066   0.416   5.605   1.500
 7056SOL    HW122067   0.368   5.529   1.545
 7056SOL    HW222068   0.514   5.586   1.497
 7057SOL     OW22069   3.065   5.047   5.056
 7057SOL    HW122070   3.018   5.102   4.987
 7057SOL    HW222071   3.130   5.105   5.106
 7058SOL     OW22072   5.053   2.609   5.996
 7058SOL    HW122073   4.976   2.581   5.939
 7058SOL    HW222074   5.034   2.586   6.091
 7059SOL     OW22075   1.864   0.799   4.976
 7059SOL    HW122076   1.948   0.824   4.929
 7059SOL    HW222077   1.804   0.878   4.982
 7060SOL     OW22078   3.349   0.513   2.232
 7060SOL    HW122079   3.357   0.505   2.331
 7060SOL    HW222080   3.262   0.556   2.209
 7061SOL     OW22081   0.874   2.453   3.045
 7061SOL    HW122082   0.874   2.548   3.077
 7061SOL    HW222083   0.935   2.399   3.103
 7062SOL     OW22084   4.069   1.862   3.192
 7062SOL    HW122085   4.107   1.871   3.100
 7062SOL    HW222086   3.989   1.802   3.190
 7063SOL     OW22087   0.615   1.000   1.840
 7063SOL    HW122088   0.706   1.042   1.834
 7063SOL    HW222089   0.621   0.916   1.895
 7064SOL     OW22090   4.723   1.969   5.107
 7064SOL    HW122091   4.624   1.964   5.121
 7064SOL    HW222092   4.763   1.879   5.120
 7065SOL     OW22093   3.667   4.397   5.600
 7065SOL    HW122094   3.754   4.367   5.639
 7065SOL    HW222095   3.663   4.369   5.504
 7066SOL     OW22096   3.800   0.756   0.288
 7066SOL    HW122097   3.794   0.815   0.208
 7066SOL    HW222098   3.823   0.811   0.368
 7067SOL     OW22099   1.993   3.380   6.971
 7067SOL    HW122100   1.954   3.470   6.957
 7067SOL    HW222101   1.954   3.315   6.905
 7068SOL     OW22102   4.987   4.168   4.277
 7068SOL    HW122103   4.923   4.104   4.236
 7068SOL    HW222104   5.019   4.233   4.208
 7069SOL     OW22105   5.825   0.069   6.544
 7069SOL    HW122106   5.795   0.027   6.458
 7069SOL    HW222107   5.759   0.048   6.616
 7070SOL     OW22108   0.161   6.536   5.039
 7070SOL    HW122109   0.180   6.439   5.052
 7070SOL    HW222110   0.083   6.548   4.979
 7071SOL     OW22111   5.283   5.864   6.517
 7071SOL    HW122112   5.368   5.847   6.468
 7071SOL    HW222113   5.236   5.942   6.477
 7072SOL     OW22114   0.425   3.447   6.752
 7072SOL    HW122115   0.421   3.370   6.690
 7072SOL    HW222116   0.334   3.485   6.765
 7073SOL     OW22117   5.609   1.438   3.068
 7073SOL    HW122118   5.655   1.349   3.074
 7073SOL    HW222119   5.602   1.478   3.159
 7074SOL     OW22120   5.725   4.066   3.044
 7074SOL    HW122121   5.800   4.018   2.999
 7074SOL    HW222122   5.712   4.155   3.001
 7075SOL     OW22123   3.083   5.340   4.171
 7075SOL    HW122124   3.108   5.370   4.079
 7075SOL    HW222125   2.985   5.349   4.183
 7076SOL     OW22126   5.687   3.287   2.658
 7076SOL    HW122127   5.607   3.346   2.660
 7076SOL    HW222128   5.734   3.296   2.570
 7077SOL     OW22129   2.958   5.206   1.466
 7077SOL    HW122130   2.891   5.138   1.436
 7077SOL    HW222131   2.949   5.220   1.564
 7078SOL     OW22132   5.405   0.001   0.597
 7078SOL    HW122133   5.309   0.003   0.623
 7078SOL    HW222134   5.415   0.032   0.502
 7079SOL     OW22135   1.387   0.030   4.553
 7079SOL    HW122136   1.468   0.061   4.602
 7079SOL    HW222137   1.393   0.060   4.458
 7080SOL     OW22138   3.908   1.742   5.174
 7080SOL    HW122139   4.001   1.756   5.207
 7080SOL    HW222140   3.902   1.767   5.078
 7081SOL     OW22141   2.037   1.271   6.790
 7081SOL    HW122142   2.072   1.210   6.862
 7081SOL    HW222143   1.951   1.312   6.820
 7082SOL     OW22144   6.610   4.411   2.701
 7082SOL    HW122145   6.636   4.403   2.605
 7082SOL    HW222146   6.511   4.422   2.707
 7083SOL     OW22147   0.129   3.092   2.380
 7083SOL    HW122148   0.102   3.086   2.476
 7083SOL    HW222149   0.048   3.104   2.323
 7084SOL     OW22150   0.791   5.864   0.127
 7084SOL    HW122151   0.871   5.806   0.112
 7084SOL    HW222152   0.809   5.925   0.204
 7085SOL     OW22153   0.684   3.175   2.422
 7085SOL    HW122154   0.745   3.108   2.464
 7085SOL    HW222155   0.729   3.264   2.417
 7086SOL     OW22156   5.785   1.047   4.918
 7086SOL    HW122157   5.872   1.013   4.951
 7086SOL    HW222158   5.750   0.987   4.846
 7087SOL     OW22159   5.682   3.083   3.274
 7087SOL    HW122160   5.766   3.055   3.228
 7087SOL    HW222161   5.620   3.006   3.281
 7088SOL     OW22162   5.929   1.609   4.947
 7088SOL    HW122163   5.901   1.523   4.989
 7088SOL    HW222164   5.934   1.597   4.848
 7089SOL     OW22165   3.168   5.645   1.670
 7089SOL    HW122166   3.070   5.639   1.651
 7089SOL    HW222167   3.210   5.556   1.653
 7090SOL     OW22168   4.111   2.199   1.366
 7090SOL    HW122169   4.051   2.122   1.344
 7090SOL    HW222170   4.183   2.169   1.428
 7091SOL     OW22171   0.309   6.797   6.494
 7091SOL    HW122172   0.251   6.717   6.510
 7091SOL    HW222173   0.255   6.869   6.451
 7092SOL     OW22174   4.530   2.157   6.856
 7092SOL    HW122175   4.460   2.152   6.785
 7092SOL    HW222176   4.608   2.101   6.830
 7093SOL     OW22177   3.335   4.277   0.848
 7093SOL    HW122178   3.259   4.329   0.810
 7093SOL    HW222179   3.300   4.192   0.889
 7094SOL     OW22180   2.873   7.001   5.285
 7094SOL    HW122181   2.867   0.071   5.247
 7094SOL    HW222182   2.787   6.977   5.329
 7095SOL     OW22183   2.531   4.423   5.298
 7095SOL    HW122184   2.611   4.365   5.316
 7095SOL    HW222185   2.560   4.506   5.251
 7096SOL     OW22186   7.007   1.048   1.051
 7096SOL    HW122187   6.918   1.040   1.005
 7096SOL    HW222188   0.030   0.959   1.050
 7097SOL     OW22189   4.707   0.748   1.604
 7097SOL    HW122190   4.807   0.750   1.605
 7097SOL    HW222191   4.671   0.838   1.628
 7098SOL     OW22192   0.776   6.779   4.566
 7098SOL    HW122193   0.700   6.793   4.502
 7098SOL    HW222194   0.759   6.697   4.620
 7099SOL     OW22195   2.871   2.230   3.987
 7099SOL    HW122196   2.809   2.283   3.929
 7099SOL    HW222197   2.848   2.245   4.083
 7100SOL     OW22198   6.386   3.893   0.966
 7100SOL    HW122199   6.326   3.844   1.030
 7100SOL    HW222200   6.369   3.991   0.973
 7101SOL     OW22201   2.092   6.412   5.433
 7101SOL    HW122202   2.106   6.386   5.528
 7101SOL    HW222203   2.140   6.348   5.373
 7102SOL     OW22204   5.906   0.757   1.338
 7102SOL    HW122205   5.915   0.692   1.263
 7102SOL    HW222206   5.809   0.777   1.353
 7103SOL     OW22207   4.710   4.109   3.130
 7103SOL    HW122208   4.774   4.048   3.083
 7103SOL    HW222209   4.674   4.062   3.211
 7104SOL     OW22210   4.916   3.259   3.268
 7104SOL    HW122211   5.006   3.301   3.257
 7104SOL    HW222212   4.903   3.190   3.197
 7105SOL     OW22213   2.917   3.792   3.907
 7105SOL    HW122214   2.834   3.847   3.919
 7105SOL    HW222215   2.951   3.804   3.813
 7106SOL     OW22216   2.571   3.226   1.335
 7106SOL    HW122217   2.482   3.271   1.340
 7106SOL    HW222218   2.587   3.173   1.418
 7107SOL     OW22219   3.991   0.724   6.552
 7107SOL    HW122220   3.966   0.691   6.643
 7107SOL    HW222221   4.076   0.777   6.558
 7108SOL     OW22222   3.415   0.245   2.498
 7108SOL    HW122223   3.481   0.213   2.566
 7108SOL    HW222224   3.403   0.344   2.508
 7109SOL     OW22225   2.292   0.036   5.659
 7109SOL    HW122226   2.385   0.035   5.697
 7109SOL    HW222227   2.295   0.062   5.562
 7110SOL     OW22228   3.519   6.260   4.743
 7110SOL    HW122229   3.586   6.189   4.764
 7110SOL    HW222230   3.459   6.229   4.669
 7111SOL     OW22231   6.903   0.860   4.389
 7111SOL    HW122232   6.948   0.887   4.304
 7111SOL    HW222233   6.804   0.872   4.380
 7112SOL     OW22234   1.918   5.140   4.179
 7112SOL    HW122235   1.937   5.103   4.270
 7112SOL    HW222236   1.913   5.239   4.183
 7113SOL     OW22237   3.233   5.190   5.193
 7113SOL    HW122238   3.253   5.287   5.202
 7113SOL    HW222239   3.319   5.139   5.188
 7114SOL     OW22240   4.886   5.037   0.274
 7114SOL    HW122241   4.810   5.008   0.331
 7114SOL    HW222242   4.903   4.969   0.203
 7115SOL     OW22243   6.240   4.335   0.271
 7115SOL    HW122244   6.310   4.398   0.236
 7115SOL    HW222245   6.283   4.247   0.293
 7116SOL     OW22246   6.607   3.552   4.307
 7116SOL    HW122247   6.595   3.456   4.333
 7116SOL    HW222248   6.530   3.606   4.342
 7117SOL     OW22249   6.277   0.150   3.165
 7117SOL    HW122250   6.208   0.106   3.223
 7117SOL    HW222251   6.241   0.236   3.128
 7118SOL     OW22252   4.216   4.508   5.329
 7118SOL    HW122253   4.271   4.475   5.252
 7118SOL    HW222254   4.251   4.596   5.360
 7119SOL     OW22255   3.908   6.668   4.398
 7119SOL    HW122256   3.973   6.679   4.474
 7119SOL    HW222257   3.850   6.588   4.417
 7120SOL     OW22258   4.593   0.834   0.581
 7120SOL    HW122259   4.619   0.744   0.617
 7120SOL    HW222260   4.609   0.904   0.651
 7121SOL     OW22261   1.450   6.296   3.037
 7121SOL    HW122262   1.485   6.389   3.025
 7121SOL    HW222263   1.397   6.291   3.121
 7122SOL     OW22264   2.320   0.716   5.880
 7122SOL    HW122265   2.263   0.658   5.822
 7122SOL    HW222266   2.416   0.687   5.873
 7123SOL     OW22267   5.193   4.982   6.008
 7123SOL    HW122268   5.189   4.912   6.080
 7123SOL    HW222269   5.163   4.942   5.921
 7124SOL     OW22270   1.520   2.405   1.610
 7124SOL    HW122271   1.554   2.409   1.704
 7124SOL    HW222272   1.436   2.459   1.603
 7125SOL     OW22273   1.596   6.633   0.873
 7125SOL    HW122274   1.635   6.718   0.835
 7125SOL    HW222275   1.545   6.654   0.956
 7126SOL     OW22276   4.100   5.510   1.397
 7126SOL    HW122277   4.003   5.500   1.375
 7126SOL    HW222278   4.154   5.484   1.317
 7127SOL     OW22279   2.820   6.638   5.305
 7127SOL    HW122280   2.788   6.706   5.239
 7127SOL    HW222281   2.880   6.683   5.372
 7128SOL     OW22282   3.974   4.024   6.408
 7128SOL    HW122283   4.000   3.981   6.322
 7128SOL    HW222284   3.981   4.123   6.399
 7129SOL     OW22285   0.686   0.159   0.304
 7129SOL    HW122286   0.738   0.219   0.366
 7129SOL    HW222287   0.654   0.079   0.354
 7130SOL     OW22288   3.421   6.688   4.474
 7130SOL    HW122289   3.486   6.764   4.477
 7130SOL    HW222290   3.450   6.623   4.404
 7131SOL     OW22291   3.938   0.776   2.506
 7131SOL    HW122292   3.953   0.774   2.407
 7131SOL    HW222293   4.018   0.817   2.551
 7132SOL     OW22294   5.437   4.253   0.502
 7132SOL    HW122295   5.368   4.187   0.474
 7132SOL    HW222296   5.516   4.206   0.540
 7133SOL     OW22297   3.626   5.549   3.228
 7133SOL    HW122298   3.616   5.624   3.163
 7133SOL    HW222299   3.592   5.465   3.187
 7134SOL     OW22300   5.652   4.856   1.038
 7134SOL    HW122301   5.635   4.942   0.990
 7134SOL    HW222302   5.619   4.863   1.132
 7135SOL     OW22303   1.960   3.006   1.426
 7135SOL    HW122304   2.038   2.973   1.480
 7135SOL    HW222305   1.920   3.086   1.472
 7136SOL     OW22306   2.130   1.597   2.031
 7136SOL    HW122307   2.171   1.532   1.966
 7136SOL    HW222308   2.198   1.666   2.056
 7137SOL     OW22309   2.784   2.033   1.661
 7137SOL    HW122310   2.808   2.120   1.619
 7137SOL    HW222311   2.837   1.960   1.619
 7138SOL     OW22312   1.289   2.761   0.927
 7138SOL    HW122313   1.345   2.696   0.977
 7138SOL    HW222314   1.347   2.832   0.887
 7139SOL     OW22315   6.112   5.903   1.362
 7139SOL    HW122316   6.142   5.811   1.336
 7139SOL    HW222317   6.018   5.900   1.394
 7140SOL     OW22318   6.660   2.956   0.581
 7140SOL    HW122319   6.603   2.907   0.646
 7140SOL    HW222320   6.753   2.918   0.582
 7141SOL     OW22321   3.680   0.512   1.038
 7141SOL    HW122322   3.690   0.574   0.960
 7141SOL    HW222323   3.632   0.559   1.112
 7142SOL     OW22324   2.876   0.232   5.129
 7142SOL    HW122325   2.877   0.332   5.132
 7142SOL    HW222326   2.962   0.198   5.091
 7143SOL     OW22327   2.638   4.641   6.894
 7143SOL    HW122328   2.637   4.621   6.992
 7143SOL    HW222329   2.547   4.672   6.865
 7144SOL     OW22330   6.548   0.342   5.385
 7144SOL    HW122331   6.558   0.260   5.328
 7144SOL    HW222332   6.494   0.320   5.466
 7145SOL     OW22333   5.039   2.303   6.401
 7145SOL    HW122334   5.134   2.285   6.426
 7145SOL    HW222335   4.982   2.300   6.483
 7146SOL     OW22336   1.682   1.862   5.308
 7146SOL    HW122337   1.691   1.950   5.357
 7146SOL    HW222338   1.763   1.846   5.253
 7147SOL     OW22339   6.039   5.726   1.873
 7147SOL    HW122340   6.088   5.640   1.879
 7147SOL    HW222341   6.016   5.759   1.965
 7148SOL     OW22342   6.725   6.677   0.751
 7148SOL    HW122343   6.796   6.698   0.817
 7148SOL    HW222344   6.639   6.718   0.780
 7149SOL     OW22345   6.413   4.661   4.718
 7149SOL    HW122346   6.328   4.670   4.770
 7149SOL    HW222347   6.441   4.565   4.715
 7150SOL     OW22348   3.883   3.490   6.773
 7150SOL    HW122349   3.913   3.448   6.858
 7150SOL    HW222350   3.946   3.466   6.699
 7151SOL     OW22351   3.752   0.993   1.036
 7151SOL    HW122352   3.845   1.030   1.038
 7151SOL    HW222353   3.687   1.067   1.020
 7152SOL     OW22354   6.669   1.353   6.567
 7152SOL    HW122355   6.712   1.425   6.513
 7152SOL    HW222356   6.716   1.266   6.551
 7153SOL     OW22357   4.106   6.185   0.962
 7153SOL    HW122358   4.114   6.152   1.056
 7153SOL    HW222359   4.049   6.266   0.960
 7154SOL     OW22360   4.354   1.733   1.607
 7154SOL    HW122361   4.327   1.640   1.582
 7154SOL    HW222362   4.307   1.760   1.691
 7155SOL     OW22363   2.899   1.273   2.303
 7155SOL    HW122364   2.955   1.257   2.222
 7155SOL    HW222365   2.958   1.274   2.384
 7156SOL     OW22366   6.026   3.949   6.985
 7156SOL    HW122367   6.104   3.889   6.972
 7156SOL    HW222368   5.968   3.948   6.903
 7157SOL     OW22369   6.059   4.854   6.558
 7157SOL    HW122370   6.094   4.797   6.484
 7157SOL    HW222371   6.129   4.865   6.629
 7158SOL     OW22372   4.897   6.635   4.223
 7158SOL    HW122373   4.946   6.582   4.154
 7158SOL    HW222374   4.959   6.704   4.261
 7159SOL     OW22375   0.790   6.043   3.281
 7159SOL    HW122376   0.697   6.077   3.267
 7159SOL    HW222377   0.813   5.978   3.209
 7160SOL     OW22378   6.457   0.120   3.555
 7160SOL    HW122379   6.474   0.117   3.457
 7160SOL    HW222380   6.410   0.205   3.579
 7161SOL     OW22381   4.112   3.303   3.657
 7161SOL    HW122382   4.028   3.248   3.650
 7161SOL    HW222383   4.137   3.313   3.753
 7162SOL     OW22384   0.414   5.829   2.188
 7162SOL    HW122385   0.337   5.800   2.131
 7162SOL    HW222386   0.389   5.820   2.284
 7163SOL     OW22387   0.705   1.429   2.082
 7163SOL    HW122388   0.785   1.443   2.025
 7163SOL    HW222389   0.630   1.486   2.049
 7164SOL     OW22390   2.015   1.325   6.507
 7164SOL    HW122391   2.058   1.308   6.596
 7164SOL    HW222392   2.024   1.244   6.449
 7165SOL     OW22393   5.856   1.037   0.574
 7165SOL    HW122394   5.918   1.059   0.649
 7165SOL    HW222395   5.815   1.122   0.539
 7166SOL     OW22396   6.180   6.373   5.800
 7166SOL    HW122397   6.254   6.424   5.843
 7166SOL    HW222398   6.126   6.326   5.869
 7167SOL     OW22399   5.707   2.150   4.858
 7167SOL    HW122400   5.743   2.117   4.946
 7167SOL    HW222401   5.640   2.222   4.874
 7168SOL     OW22402   2.854   0.969   2.153
 7168SOL    HW122403   2.858   0.901   2.080
 7168SOL    HW222404   2.938   1.024   2.152
 7169SOL     OW22405   1.323   4.109   6.487
 7169SOL    HW122406   1.395   4.158   6.438
 7169SOL    HW222407   1.360   4.023   6.522
 7170SOL     OW22408   3.946   1.354   1.321
 7170SOL    HW122409   3.908   1.440   1.287
 7170SOL    HW222410   4.043   1.349   1.299
 7171SOL     OW22411   6.785   4.327   0.713
 7171SOL    HW122412   6.851   4.387   0.758
 7171SOL    HW222413   6.692   4.359   0.734
 7172SOL     OW22414   1.566   1.190   4.082
 7172SOL    HW122415   1.481   1.241   4.097
 7172SOL    HW222416   1.629   1.208   4.157
 7173SOL     OW22417   5.038   5.714   6.096
 7173SOL    HW122418   5.021   5.736   6.191
 7173SOL    HW222419   5.069   5.619   6.089
 7174SOL     OW22420   6.313   4.691   1.552
 7174SOL    HW122421   6.222   4.665   1.584
 7174SOL    HW222422   6.311   4.704   1.453
 7175SOL     OW22423   5.423   3.621   6.344
 7175SOL    HW122424   5.392   3.713   6.323
 7175SOL    HW222425   5.461   3.578   6.262
 7176SOL     OW22426   0.713   0.642   5.895
 7176SOL    HW122427   0.777   0.712   5.862
 7176SOL    HW222428   0.753   0.551   5.882
 7177SOL     OW22429   1.594   5.244   3.643
 7177SOL    HW122430   1.523   5.233   3.713
 7177SOL    HW222431   1.559   5.215   3.554
 7178SOL     OW22432   1.738   0.884   5.578
 7178SOL    HW122433   1.818   0.904   5.635
 7178SOL    HW222434   1.764   0.820   5.506
 7179SOL     OW22435   3.222   5.846   6.185
 7179SOL    HW122436   3.225   5.867   6.282
 7179SOL    HW222437   3.183   5.923   6.135
 7180SOL     OW22438   1.142   4.099   1.043
 7180SOL    HW122439   1.226   4.129   0.998
 7180SOL    HW222440   1.122   4.158   1.121
 7181SOL     OW22441   2.623   1.599   6.134
 7181SOL    HW122442   2.653   1.613   6.229
 7181SOL    HW222443   2.569   1.678   6.105
 7182SOL     OW22444   1.613   2.018   4.707
 7182SOL    HW122445   1.654   1.970   4.784
 7182SOL    HW222446   1.571   2.103   4.740
 7183SOL     OW22447   0.413   6.563   1.871
 7183SOL    HW122448   0.353   6.483   1.867
 7183SOL    HW222449   0.364   6.639   1.914
 7184SOL     OW22450   6.286   0.382   3.897
 7184SOL    HW122451   6.285   0.342   3.988
 7184SOL    HW222452   6.252   0.316   3.831
 7185SOL     OW22453   4.487   0.873   4.391
 7185SOL    HW122454   4.497   0.862   4.490
 7185SOL    HW222455   4.541   0.804   4.343
 7186SOL     OW22456   0.600   0.077   6.831
 7186SOL    HW122457   0.570   0.170   6.810
 7186SOL    HW222458   0.558   0.047   6.917
 7187SOL     OW22459   3.305   3.127   4.124
 7187SOL    HW122460   3.300   3.047   4.184
 7187SOL    HW222461   3.305   3.210   4.180
 7188SOL     OW22462   3.695   4.057   6.529
 7188SOL    HW122463   3.670   4.144   6.570
 7188SOL    HW222464   3.766   4.072   6.460
 7189SOL     OW22465   6.295   2.770   5.957
 7189SOL    HW122466   6.277   2.860   5.917
 7189SOL    HW222467   6.304   2.780   6.056
 7190SOL     OW22468   5.681   5.747   1.193
 7190SOL    HW122469   5.687   5.651   1.220
 7190SOL    HW222470   5.588   5.767   1.160
 7191SOL     OW22471   0.297   4.605   3.612
 7191SOL    HW122472   0.293   4.648   3.702
 7191SOL    HW222473   0.273   4.673   3.541
 7192SOL     OW22474   1.693   4.830   6.857
 7192SOL    HW122475   1.752   4.837   6.777
 7192SOL    HW222476   1.727   4.891   6.929
 7193SOL     OW22477   2.401   2.472   2.743
 7193SOL    HW122478   2.334   2.419   2.794
 7193SOL    HW222479   2.464   2.411   2.696
 7194SOL     OW22480   2.814   2.844   5.773
 7194SOL    HW122481   2.892   2.905   5.765
 7194SOL    HW222482   2.789   2.834   5.869
 7195SOL     OW22483   0.127   3.746   5.775
 7195SOL    HW122484   0.050   3.687   5.748
 7195SOL    HW222485   0.205   3.728   5.715
 7196SOL     OW22486   3.288   3.871   2.085
 7196SOL    HW122487   3.300   3.866   1.986
 7196SOL    HW222488   3.306   3.965   2.116
 7197SOL     OW22489   2.241   3.802   5.870
 7197SOL    HW122490   2.334   3.785   5.837
 7197SOL    HW222491   2.217   3.898   5.855
 7198SOL     OW22492   0.118   0.686   1.822
 7198SOL    HW122493   0.158   0.755   1.762
 7198SOL    HW222494   0.147   0.595   1.792
 7199SOL     OW22495   0.764   1.348   2.336
 7199SOL    HW122496   0.739   1.369   2.241
 7199SOL    HW222497   0.806   1.429   2.378
 7200SOL     OW22498   1.178   2.411   0.885
 7200SOL    HW122499   1.146   2.350   0.812
 7200SOL    HW222500   1.263   2.455   0.856
 7201SOL     OW22501   5.746   5.258   3.884
 7201SOL    HW122502   5.824   5.197   3.896
 7201SOL    HW222503   5.750   5.332   3.951
 7202SOL     OW22504   5.300   0.233   5.684
 7202SOL    HW122505   5.346   0.145   5.697
 7202SOL    HW222506   5.366   0.301   5.652
 7203SOL     OW22507   0.501   1.470   1.656
 7203SOL    HW122508   0.402   1.472   1.673
 7203SOL    HW222509   0.526   1.548   1.599
 7204SOL     OW22510   6.717   6.747   1.157
 7204SOL    HW122511   6.699   6.844   1.141
 7204SOL    HW222512   6.644   6.709   1.214
 7205SOL     OW22513   2.503   2.228   4.754
 7205SOL    HW122514   2.442   2.255   4.679
 7205SOL    HW222515   2.489   2.291   4.831
 7206SOL     OW22516   1.793   3.085   0.912
 7206SOL    HW122517   1.744   3.057   0.829
 7206SOL    HW222518   1.739   3.062   0.993
 7207SOL     OW22519   1.904   1.375   4.487
 7207SOL    HW122520   1.961   1.356   4.407
 7207SOL    HW222521   1.947   1.444   4.544
 7208SOL     OW22522   2.872   0.378   4.406
 7208SOL    HW122523   2.970   0.376   4.424
 7208SOL    HW222524   2.824   0.415   4.486
 7209SOL     OW22525   2.742   1.946   2.591
 7209SOL    HW122526   2.760   2.028   2.537
 7209SOL    HW222527   2.644   1.940   2.609
 7210SOL     OW22528   2.882   1.032   3.093
 7210SOL    HW122529   2.907   0.963   3.025
 7210SOL    HW222530   2.792   1.010   3.130
 7211SOL     OW22531   3.189   5.446   4.850
 7211SOL    HW122532   3.160   5.350   4.853
 7211SOL    HW222533   3.112   5.505   4.870
 7212SOL     OW22534   6.175   4.604   6.208
 7212SOL    HW122535   6.208   4.599   6.114
 7212SOL    HW222536   6.220   4.679   6.256
 7213SOL     OW22537   4.351   1.663   0.569
 7213SOL    HW122538   4.272   1.717   0.594
 7213SOL    HW222539   4.421   1.670   0.640
 7214SOL     OW22540   0.083   1.147   6.613
 7214SOL    HW122541   0.147   1.149   6.536
 7214SOL    HW222542   0.040   1.236   6.623
 7215SOL     OW22543   6.895   2.543   2.548
 7215SOL    HW122544   6.990   2.514   2.532
 7215SOL    HW222545   6.881   2.634   2.508
 7216SOL     OW22546   3.351   6.160   3.022
 7216SOL    HW122547   3.269   6.179   3.076
 7216SOL    HW222548   3.432   6.191   3.072
 7217SOL     OW22549   1.395   4.117   3.417
 7217SOL    HW122550   1.471   4.053   3.405
 7217SOL    HW222551   1.406   4.167   3.503
 7218SOL     OW22552   6.213   3.978   4.369
 7218SOL    HW122553   6.284   4.025   4.421
 7218SOL    HW222554   6.179   3.900   4.422
 7219SOL     OW22555   3.759   5.976   2.198
 7219SOL    HW122556   3.858   5.980   2.199
 7219SOL    HW222557   3.727   5.940   2.110
 7220SOL     OW22558   6.116   4.980   4.446
 7220SOL    HW122559   6.163   5.056   4.492
 7220SOL    HW222560   6.065   5.015   4.368
 7221SOL     OW22561   3.453   5.515   4.795
 7221SOL    HW122562   3.355   5.504   4.809
 7221SOL    HW222563   3.500   5.515   4.883
 7222SOL     OW22564   6.937   6.938   4.218
 7222SOL    HW122565   6.946   7.019   4.160
 7222SOL    HW222566   7.009   6.938   4.287
 7223SOL     OW22567   0.969   2.492   1.020
 7223SOL    HW122568   0.881   2.444   1.014
 7223SOL    HW222569   1.039   2.439   0.973
 7224SOL     OW22570   3.843   2.088   3.339
 7224SOL    HW122571   3.782   2.147   3.287
 7224SOL    HW222572   3.846   1.997   3.297
 7225SOL     OW22573   1.577   0.194   0.982
 7225SOL    HW122574   1.542   0.104   1.009
 7225SOL    HW222575   1.677   0.192   0.982
 7226SOL     OW22576   6.163   6.288   0.437
 7226SOL    HW122577   6.085   6.227   0.447
 7226SOL    HW222578   6.188   6.295   0.341
 7227SOL     OW22579   2.785   1.126   1.756
 7227SOL    HW122580   2.724   1.051   1.781
 7227SOL    HW222581   2.879   1.092   1.751
 7228SOL     OW22582   0.417   3.636   2.109
 7228SOL    HW122583   0.510   3.608   2.134
 7228SOL    HW222584   0.354   3.610   2.182
 7229SOL     OW22585   0.026   0.356   4.979
 7229SOL    HW122586   0.060   0.263   4.992
 7229SOL    HW222587   0.053   0.412   5.057
 7230SOL     OW22588   1.872   5.003   3.956
 7230SOL    HW122589   1.946   4.963   3.903
 7230SOL    HW222590   1.909   5.045   4.039
 7231SOL     OW22591   4.611   1.647   6.401
 7231SOL    HW122592   4.552   1.582   6.449
 7231SOL    HW222593   4.638   1.720   6.464
 7232SOL     OW22594   6.120   6.654   3.240
 7232SOL    HW122595   6.099   6.702   3.326
 7232SOL    HW222596   6.205   6.602   3.251
 7233SOL     OW22597   6.808   1.471   5.073
 7233SOL    HW122598   6.782   1.557   5.117
 7233SOL    HW222599   6.838   1.406   5.143
 7234SOL     OW22600   5.048   3.964   2.736
 7234SOL    HW122601   5.115   3.993   2.805
 7234SOL    HW222602   5.083   3.884   2.688
 7235SOL     OW22603   0.122   6.210   1.505
 7235SOL    HW122604   0.037   6.206   1.452
 7235SOL    HW222605   0.113   6.155   1.588
 7236SOL     OW22606   2.723   2.402   3.320
 7236SOL    HW122607   2.777   2.378   3.240
 7236SOL    HW222608   2.665   2.481   3.299
 7237SOL     OW22609   5.027   0.530   0.230
 7237SOL    HW122610   5.027   0.475   0.146
 7237SOL    HW222611   4.970   0.611   0.216
 7238SOL     OW22612   4.649   3.526   0.170
 7238SOL    HW122613   4.726   3.463   0.177
 7238SOL    HW222614   4.564   3.479   0.192
 7239SOL     OW22615   0.950   3.668   2.405
 7239SOL    HW122616   0.937   3.652   2.503
 7239SOL    HW222617   0.931   3.764   2.383
 7240SOL     OW22618   6.661   1.801   6.153
 7240SOL    HW122619   6.650   1.809   6.054
 7240SOL    HW222620   6.743   1.850   6.182
 7241SOL     OW22621   2.699   1.647   2.120
 7241SOL    HW122622   2.647   1.694   2.191
 7241SOL    HW222623   2.742   1.565   2.159
 7242SOL     OW22624   6.775   4.998   4.465
 7242SOL    HW122625   6.795   5.082   4.413
 7242SOL    HW222626   6.856   4.973   4.519
 7243SOL     OW22627   6.132   4.116   6.329
 7243SOL    HW122628   6.063   4.074   6.388
 7243SOL    HW222629   6.219   4.069   6.342
 7244SOL     OW22630   0.160   6.594   6.571
 7244SOL    HW122631   0.060   6.596   6.575
 7244SOL    HW222632   0.191   6.500   6.557
 7245SOL     OW22633   1.752   2.739   6.690
 7245SOL    HW122634   1.691   2.719   6.767
 7245SOL    HW222635   1.698   2.748   6.606
 7246SOL     OW22636   3.154   0.225   4.009
 7246SOL    HW122637   3.126   0.209   4.104
 7246SOL    HW222638   3.232   0.167   3.988
 7247SOL     OW22639   2.386   2.643   5.315
 7247SOL    HW122640   2.441   2.614   5.394
 7247SOL    HW222641   2.347   2.733   5.333
 7248SOL     OW22642   3.641   1.071   4.402
 7248SOL    HW122643   3.602   0.978   4.399
 7248SOL    HW222644   3.723   1.071   4.458
 7249SOL     OW22645   3.753   5.298   1.789
 7249SOL    HW122646   3.707   5.322   1.874
 7249SOL    HW222647   3.742   5.200   1.772
 7250SOL     OW22648   5.286   5.660   5.484
 7250SOL    HW122649   5.313   5.564   5.472
 7250SOL    HW222650   5.206   5.665   5.543
 7251SOL     OW22651   0.472   6.129   5.512
 7251SOL    HW122652   0.539   6.077   5.564
 7251SOL    HW222653   0.390   6.074   5.499
 7252SOL     OW22654   2.930   3.790   2.415
 7252SOL    HW122655   2.893   3.830   2.498
 7252SOL    HW222656   2.896   3.697   2.405
 7253SOL     OW22657   1.263   5.888   5.435
 7253SOL    HW122658   1.280   5.906   5.338
 7253SOL    HW222659   1.338   5.925   5.490
 7254SOL     OW22660   5.354   4.216   3.981
 7254SOL    HW122661   5.402   4.141   4.025
 7254SOL    HW222662   5.268   4.183   3.943
 7255SOL     OW22663   4.711   3.166   6.485
 7255SOL    HW122664   4.713   3.127   6.577
 7255SOL    HW222665   4.666   3.102   6.423
 7256SOL     OW22666   3.448   6.542   6.291
 7256SOL    HW122667   3.504   6.601   6.232
 7256SOL    HW222668   3.495   6.527   6.378
 7257SOL     OW22669   0.490   1.168   4.841
 7257SOL    HW122670   0.450   1.144   4.929
 7257SOL    HW222671   0.590   1.160   4.846
 7258SOL     OW22672   5.970   1.900   2.596
 7258SOL    HW122673   5.975   1.875   2.693
 7258SOL    HW222674   5.892   1.853   2.554
 7259SOL     OW22675   0.754   3.733   3.466
 7259SOL    HW122676   0.772   3.732   3.367
 7259SOL    HW222677   0.728   3.641   3.496
 7260SOL     OW22678   5.428   2.932   0.481
 7260SOL    HW122679   5.511   2.938   0.425
 7260SOL    HW222680   5.375   2.852   0.453
 7261SOL     OW22681   0.173   3.833   0.343
 7261SOL    HW122682   0.175   3.880   0.431
 7261SOL    HW222683   0.178   3.734   0.358
 7262SOL     OW22684   5.988   2.187   5.942
 7262SOL    HW122685   6.036   2.274   5.927
 7262SOL    HW222686   5.985   2.135   5.857
 7263SOL     OW22687   0.332   5.817   0.359
 7263SOL    HW122688   0.396   5.894   0.358
 7263SOL    HW222689   0.240   5.849   0.380
 7264SOL     OW22690   5.495   1.092   0.309
 7264SOL    HW122691   5.527   0.998   0.293
 7264SOL    HW222692   5.505   1.145   0.224
 7265SOL     OW22693   4.476   5.854   5.386
 7265SOL    HW122694   4.557   5.892   5.430
 7265SOL    HW222695   4.397   5.912   5.407
 7266SOL     OW22696   6.769   0.695   3.999
 7266SOL    HW122697   6.740   0.747   3.919
 7266SOL    HW222698   6.858   0.727   4.029
 7267SOL     OW22699   6.642   5.476   5.067
 7267SOL    HW122700   6.579   5.402   5.091
 7267SOL    HW222701   6.736   5.441   5.066
 7268SOL     OW22702   6.350   6.188   4.480
 7268SOL    HW122703   6.368   6.164   4.575
 7268SOL    HW222704   6.436   6.187   4.428
 7269SOL     OW22705   2.186   5.140   5.600
 7269SOL    HW122706   2.179   5.146   5.500
 7269SOL    HW222707   2.120   5.074   5.634
 7270SOL     OW22708   0.681   1.269   4.035
 7270SOL    HW122709   0.732   1.204   4.091
 7270SOL    HW222710   0.605   1.306   4.087
 7271SOL     OW22711   0.288   4.590   4.070
 7271SOL    HW122712   0.255   4.656   4.001
 7271SOL    HW222713   0.229   4.593   4.150
 7272SOL     OW22714   6.265   5.539   2.268
 7272SOL    HW122715   6.346   5.567   2.215
 7272SOL    HW222716   6.291   5.528   2.364
 7273SOL     OW22717   6.344   3.198   5.846
 7273SOL    HW122718   6.347   3.297   5.836
 7273SOL    HW222719   6.377   3.173   5.937
 7274SOL     OW22720   0.338   4.392   0.103
 7274SOL    HW122721   0.403   4.356   0.036
 7274SOL    HW222722   0.260   4.432   0.056
 7275SOL     OW22723   6.433   0.454   3.208
 7275SOL    HW122724   6.515   0.469   3.153
 7275SOL    HW222725   6.417   0.356   3.218
 7276SOL     OW22726   4.914   6.511   3.716
 7276SOL    HW122727   4.846   6.492   3.786
 7276SOL    HW222728   4.964   6.594   3.739
 7277SOL     OW22729   4.206   0.647   5.734
 7277SOL    HW122730   4.228   0.576   5.802
 7277SOL    HW222731   4.228   0.614   5.643
 7278SOL     OW22732   3.025   3.821   2.118
 7278SOL    HW122733   3.011   3.836   2.216
 7278SOL    HW222734   3.122   3.834   2.096
 7279SOL     OW22735   3.818   6.184   0.335
 7279SOL    HW122736   3.830   6.220   0.242
 7279SOL    HW222737   3.900   6.206   0.389
 7280SOL     OW22738   4.415   6.509   5.267
 7280SOL    HW122739   4.353   6.432   5.284
 7280SOL    HW222740   4.424   6.523   5.169
 7281SOL     OW22741   4.018   2.161   6.331
 7281SOL    HW122742   4.030   2.156   6.232
 7281SOL    HW222743   4.078   2.232   6.368
 7282SOL     OW22744   5.818   5.448   1.741
 7282SOL    HW122745   5.823   5.490   1.832
 7282SOL    HW222746   5.728   5.405   1.729
 7283SOL     OW22747   2.817   0.861   2.658
 7283SOL    HW122748   2.866   0.775   2.649
 7283SOL    HW222749   2.848   0.925   2.588
 7284SOL     OW22750   6.882   3.842   5.299
 7284SOL    HW122751   6.933   3.888   5.372
 7284SOL    HW222752   6.914   3.875   5.210
 7285SOL     OW22753   4.761   5.412   1.977
 7285SOL    HW122754   4.731   5.317   1.972
 7285SOL    HW222755   4.781   5.436   2.072
 7286SOL     OW22756   2.630   2.667   1.056
 7286SOL    HW122757   2.706   2.605   1.077
 7286SOL    HW222758   2.642   2.753   1.106
 7287SOL     OW22759   6.124   1.087   6.500
 7287SOL    HW122760   6.213   1.089   6.454
 7287SOL    HW222761   6.137   1.102   6.598
 7288SOL     OW22762   3.987   0.358   6.238
 7288SOL    HW122763   3.899   0.313   6.221
 7288SOL    HW222764   4.058   0.289   6.244
 7289SOL     OW22765   5.943   1.494   3.412
 7289SOL    HW122766   5.890   1.578   3.402
 7289SOL    HW222767   5.882   1.420   3.442
 7290SOL     OW22768   2.705   5.268   5.427
 7290SOL    HW122769   2.702   5.232   5.333
 7290SOL    HW222770   2.614   5.259   5.468
 7291SOL     OW22771   2.076   0.219   1.553
 7291SOL    HW122772   2.162   0.168   1.553
 7291SOL    HW222773   2.039   0.221   1.646
 7292SOL     OW22774   3.300   6.579   3.495
 7292SOL    HW122775   3.240   6.502   3.474
 7292SOL    HW222776   3.270   6.622   3.580
 7293SOL     OW22777   2.035   1.567   5.048
 7293SOL    HW122778   2.029   1.496   4.977
 7293SOL    HW222779   2.019   1.525   5.138
 7294SOL     OW22780   3.004   5.340   6.938
 7294SOL    HW122781   2.956   5.266   6.985
 7294SOL    HW222782   2.973   5.343   6.842
 7295SOL     OW22783   0.963   1.955   0.298
 7295SOL    HW122784   1.053   1.993   0.275
 7295SOL    HW222785   0.892   2.023   0.280
 7296SOL     OW22786   2.794   4.798   1.259
 7296SOL    HW122787   2.867   4.795   1.327
 7296SOL    HW222788   2.822   4.855   1.181
 7297SOL     OW22789   4.036   6.267   0.461
 7297SOL    HW122790   4.134   6.278   0.446
 7297SOL    HW222791   4.013   6.294   0.555
 7298SOL     OW22792   5.453   4.044   4.190
 7298SOL    HW122793   5.371   4.007   4.233
 7298SOL    HW222794   5.476   4.131   4.234
 7299SOL     OW22795   6.818   2.293   0.485
 7299SOL    HW122796   6.762   2.371   0.514
 7299SOL    HW222797   6.909   2.301   0.525
 7300SOL     OW22798   5.126   5.900   0.752
 7300SOL    HW122799   5.091   5.824   0.699
 7300SOL    HW222800   5.131   5.874   0.849
 7301SOL     OW22801   6.946   0.262   5.691
 7301SOL    HW122802   6.994   0.240   5.776
 7301SOL    HW222803   6.973   0.197   5.620
 7302SOL     OW22804   0.162   1.410   0.255
 7302SOL    HW122805   0.076   1.458   0.266
 7302SOL    HW222806   0.159   1.354   0.173
 7303SOL     OW22807   3.925   0.217   6.825
 7303SOL    HW122808   4.007   0.271   6.806
 7303SOL    HW222809   3.922   0.194   6.922
 7304SOL     OW22810   4.254   3.899   6.448
 7304SOL    HW122811   4.243   3.938   6.357
 7304SOL    HW222812   4.316   3.956   6.502
 7305SOL     OW22813   5.180   2.344   0.521
 7305SOL    HW122814   5.194   2.436   0.557
 7305SOL    HW222815   5.113   2.296   0.578
 7306SOL     OW22816   5.182   3.770   1.830
 7306SOL    HW122817   5.256   3.721   1.876
 7306SOL    HW222818   5.139   3.834   1.894
 7307SOL     OW22819   2.779   6.606   1.735
 7307SOL    HW122820   2.762   6.619   1.638
 7307SOL    HW222821   2.715   6.539   1.772
 7308SOL     OW22822   6.600   3.356   4.932
 7308SOL    HW122823   6.506   3.380   4.957
 7308SOL    HW222824   6.611   3.361   4.833
 7309SOL     OW22825   4.759   5.919   0.747
 7309SOL    HW122826   4.777   6.009   0.708
 7309SOL    HW222827   4.670   5.886   0.716
 7310SOL     OW22828   2.065   5.123   0.864
 7310SOL    HW122829   2.152   5.079   0.887
 7310SOL    HW222830   2.019   5.153   0.948
 7311SOL     OW22831   2.893   1.783   1.972
 7311SOL    HW122832   2.891   1.881   1.993
 7311SOL    HW222833   2.849   1.732   2.046
 7312SOL     OW22834   6.723   2.033   5.538
 7312SOL    HW122835   6.639   2.043   5.486
 7312SOL    HW222836   6.788   2.104   5.511
 7313SOL     OW22837   4.378   2.767   6.283
 7313SOL    HW122838   4.401   2.685   6.335
 7313SOL    HW222839   4.442   2.776   6.207
 7314SOL     OW22840   6.331   3.318   5.102
 7314SOL    HW122841   6.359   3.385   5.171
 7314SOL    HW222842   6.234   3.329   5.083
 7315SOL     OW22843   5.897   0.178   4.006
 7315SOL    HW122844   5.934   0.271   3.997
 7315SOL    HW222845   5.808   0.173   3.961
 7316SOL     OW22846   3.656   3.325   5.262
 7316SOL    HW122847   3.608   3.368   5.185
 7316SOL    HW222848   3.712   3.249   5.228
 7317SOL     OW22849   4.272   0.533   2.281
 7317SOL    HW122850   4.209   0.561   2.208
 7317SOL    HW222851   4.261   0.594   2.359
 7318SOL     OW22852   1.129   1.564   1.561
 7318SOL    HW122853   1.192   1.619   1.506
 7318SOL    HW222854   1.117   1.606   1.650
 7319SOL     OW22855   6.462   4.473   6.925
 7319SOL    HW122856   6.374   4.490   6.970
 7319SOL    HW222857   6.534   4.521   6.975
 7320SOL     OW22858   6.693   3.582   2.223
 7320SOL    HW122859   6.673   3.680   2.213
 7320SOL    HW222860   6.759   3.554   2.153
 7321SOL     OW22861   2.451   1.223   4.989
 7321SOL    HW122862   2.533   1.212   5.046
 7321SOL    HW222863   2.371   1.235   5.048
 7322SOL     OW22864   1.571   3.308   2.947
 7322SOL    HW122865   1.588   3.396   2.903
 7322SOL    HW222866   1.499   3.260   2.898
 7323SOL     OW22867   1.631   1.941   3.205
 7323SOL    HW122868   1.640   1.872   3.133
 7323SOL    HW222869   1.535   1.954   3.228
 7324SOL     OW22870   5.589   0.138   3.025
 7324SOL    HW122871   5.671   0.187   3.055
 7324SOL    HW222872   5.528   0.125   3.103
 7325SOL     OW22873   4.280   6.889   6.126
 7325SOL    HW122874   4.292   6.860   6.221
 7325SOL    HW222875   4.369   6.890   6.080
 7326SOL     OW22876   2.667   6.024   5.206
 7326SOL    HW122877   2.639   6.013   5.111
 7326SOL    HW222878   2.767   6.020   5.212
 7327SOL     OW22879   0.623   3.091   5.549
 7327SOL    HW122880   0.554   3.130   5.489
 7327SOL    HW222881   0.678   3.165   5.590
 7328SOL     OW22882   3.367   0.601   0.155
 7328SOL    HW122883   3.309   0.529   0.193
 7328SOL    HW222884   3.314   0.686   0.148
 7329SOL     OW22885   4.407   3.615   0.908
 7329SOL    HW122886   4.394   3.554   0.987
 7329SOL    HW222887   4.432   3.706   0.940
 7330SOL     OW22888   3.277   1.716   0.201
 7330SOL    HW122889   3.285   1.637   0.142
 7330SOL    HW222890   3.245   1.687   0.292
 7331SOL     OW22891   4.931   1.203   1.776
 7331SOL    HW122892   4.843   1.239   1.808
 7331SOL    HW222893   4.989   1.182   1.854
 7332SOL     OW22894   2.639   6.022   0.279
 7332SOL    HW122895   2.577   6.037   0.202
 7332SOL    HW222896   2.688   5.936   0.267
 7333SOL     OW22897   0.632   4.394   3.855
 7333SOL    HW122898   0.560   4.392   3.786
 7333SOL    HW222899   0.659   4.301   3.878
 7334SOL     OW22900   4.171   5.893   5.760
 7334SOL    HW122901   4.129   5.945   5.834
 7334SOL    HW222902   4.101   5.836   5.716
 7335SOL     OW22903   1.602   2.609   2.834
 7335SOL    HW122904   1.529   2.648   2.890
 7335SOL    HW222905   1.670   2.680   2.814
 7336SOL     OW22906   1.441   6.321   3.976
 7336SOL    HW122907   1.452   6.223   3.955
 7336SOL    HW222908   1.529   6.359   4.002
 7337SOL     OW22909   1.472   2.809   2.441
 7337SOL    HW122910   1.461   2.780   2.346
 7337SOL    HW222911   1.403   2.764   2.498
 7338SOL     OW22912   6.629   2.549   1.295
 7338SOL    HW122913   6.549   2.511   1.342
 7338SOL    HW222914   6.706   2.554   1.359
 7339SOL     OW22915   6.319   6.193   4.075
 7339SOL    HW122916   6.315   6.210   4.173
 7339SOL    HW222917   6.393   6.127   4.056
 7340SOL     OW22918   2.196   0.442   0.151
 7340SOL    HW122919   2.151   0.517   0.102
 7340SOL    HW222920   2.128   0.392   0.204
 7341SOL     OW22921   6.336   1.861   0.503
 7341SOL    HW122922   6.329   1.953   0.465
 7341SOL    HW222923   6.271   1.852   0.579
 7342SOL     OW22924   6.482   0.071   2.371
 7342SOL    HW122925   6.568   0.085   2.420
 7342SOL    HW222926   6.432   7.018   2.413
 7343SOL     OW22927   4.585   2.382   0.177
 7343SOL    HW122928   4.602   2.457   0.112
 7343SOL    HW222929   4.665   2.370   0.235
 7344SOL     OW22930   1.447   6.684   6.012
 7344SOL    HW122931   1.540   6.703   6.044
 7344SOL    HW222932   1.381   6.723   6.076
 7345SOL     OW22933   3.582   3.198   5.515
 7345SOL    HW122934   3.488   3.167   5.501
 7345SOL    HW222935   3.608   3.260   5.442
 7346SOL     OW22936   3.487   6.182   2.744
 7346SOL    HW122937   3.417   6.193   2.673
 7346SOL    HW222938   3.507   6.270   2.786
 7347SOL     OW22939   6.811   2.193   0.203
 7347SOL    HW122940   6.839   2.098   0.188
 7347SOL    HW222941   6.853   2.227   0.288
 7348SOL     OW22942   1.731   4.285   3.425
 7348SOL    HW122943   1.815   4.273   3.373
 7348SOL    HW222944   1.733   4.227   3.506
 7349SOL     OW22945   3.937   0.292   1.120
 7349SOL    HW122946   3.890   0.379   1.104
 7349SOL    HW222947   4.029   0.296   1.080
 7350SOL     OW22948   2.637   0.572   5.083
 7350SOL    HW122949   2.606   0.658   5.124
 7350SOL    HW222950   2.737   0.571   5.079
 7351SOL     OW22951   4.765   4.997   3.812
 7351SOL    HW122952   4.784   5.026   3.718
 7351SOL    HW222953   4.670   4.969   3.820
 7352SOL     OW22954   0.566   2.270   3.373
 7352SOL    HW122955   0.509   2.189   3.386
 7352SOL    HW222956   0.515   2.352   3.396
 7353SOL     OW22957   5.967   0.223   7.015
 7353SOL    HW122958   5.894   0.284   0.025
 7353SOL    HW222959   6.027   0.274   6.954
 7354SOL     OW22960   1.576   1.125   3.308
 7354SOL    HW122961   1.604   1.069   3.386
 7354SOL    HW222962   1.552   1.066   3.231
 7355SOL     OW22963   6.912   1.959   6.614
 7355SOL    HW122964   6.845   1.909   6.669
 7355SOL    HW222965   7.003   1.920   6.629
 7356SOL     OW22966   3.733   3.591   5.851
 7356SOL    HW122967   3.689   3.553   5.770
 7356SOL    HW222968   3.802   3.658   5.822
 7357SOL     OW22969   4.864   5.626   1.370
 7357SOL    HW122970   4.888   5.663   1.280
 7357SOL    HW222971   4.818   5.696   1.424
 7358SOL     OW22972   6.243   2.692   2.086
 7358SOL    HW122973   6.255   2.693   1.987
 7358SOL    HW222974   6.332   2.687   2.131
 7359SOL     OW22975   4.274   0.780   6.266
 7359SOL    HW122976   4.286   0.847   6.193
 7359SOL    HW222977   4.357   0.775   6.322
 7360SOL     OW22978   2.721   3.505   5.670
 7360SOL    HW122979   2.812   3.517   5.708
 7360SOL    HW222980   2.672   3.593   5.673
 7361SOL     OW22981   4.879   0.145   2.245
 7361SOL    HW122982   4.834   0.055   2.235
 7361SOL    HW222983   4.976   0.131   2.266
 7362SOL     OW22984   4.237   5.559   5.893
 7362SOL    HW122985   4.214   5.477   5.946
 7362SOL    HW222986   4.154   5.600   5.857
 7363SOL     OW22987   4.326   1.011   1.428
 7363SOL    HW122988   4.228   0.993   1.425
 7363SOL    HW222989   4.375   0.926   1.443
 7364SOL     OW22990   4.188   6.994   1.586
 7364SOL    HW122991   4.165   0.011   1.675
 7364SOL    HW222992   4.236   6.907   1.600
 7365SOL     OW22993   6.100   4.713   2.559
 7365SOL    HW122994   6.068   4.794   2.511
 7365SOL    HW222995   6.080   4.722   2.657
 7366SOL     OW22996   2.565   0.873   4.333
 7366SOL    HW122997   2.545   0.877   4.431
 7366SOL    HW222998   2.512   0.943   4.286
 7367SOL     OW22999   4.759   1.854   6.531
 7367SOL    HW123000   4.843   1.907   6.545
 7367SOL    HW223001   4.698   1.867   6.608
 7368SOL     OW23002   3.739   3.405   2.631
 7368SOL    HW123003   3.823   3.371   2.673
 7368SOL    HW223004   3.680   3.328   2.605
 7369SOL     OW23005   4.409   2.774   0.215
 7369SOL    HW123006   4.319   2.735   0.232
 7369SOL    HW223007   4.462   2.712   0.157
 7370SOL     OW23008   2.562   1.812   4.962
 7370SOL    HW123009   2.567   1.717   4.995
 7370SOL    HW223010   2.618   1.870   5.021
 7371SOL     OW23011   4.000   0.067   3.536
 7371SOL    HW123012   3.998   7.002   3.488
 7371SOL    HW223013   3.958   0.137   3.479
 7372SOL     OW23014   3.869   0.481   4.701
 7372SOL    HW123015   3.862   0.544   4.624
 7372SOL    HW223016   3.777   0.464   4.738
 7373SOL     OW23017   4.549   2.116   4.879
 7373SOL    HW123018   4.648   2.101   4.885
 7373SOL    HW223019   4.527   2.208   4.912
 7374SOL     OW23020   1.120   1.643   4.718
 7374SOL    HW123021   1.209   1.623   4.757
 7374SOL    HW223022   1.067   1.699   4.782
 7375SOL     OW23023   2.168   3.061   2.284
 7375SOL    HW123024   2.104   3.044   2.209
 7375SOL    HW223025   2.170   3.158   2.305
 7376SOL     OW23026   0.682   3.282   0.851
 7376SOL    HW123027   0.621   3.341   0.903
 7376SOL    HW223028   0.760   3.256   0.908
 7377SOL     OW23029   3.116   5.311   0.539
 7377SOL    HW123030   3.182   5.284   0.469
 7377SOL    HW223031   3.114   5.411   0.546
 7378SOL     OW23032   1.808   6.325   4.214
 7378SOL    HW123033   1.882   6.383   4.248
 7378SOL    HW223034   1.747   6.380   4.156
 7379SOL     OW23035   3.953   0.647   1.444
 7379SOL    HW123036   3.868   0.697   1.425
 7379SOL    HW223037   3.931   0.556   1.480
 7380SOL     OW23038   5.947   4.179   3.249
 7380SOL    HW123039   5.892   4.166   3.166
 7380SOL    HW223040   5.891   4.222   3.320
 7381SOL     OW23041   4.127   1.416   0.135
 7381SOL    HW123042   4.221   1.442   0.156
 7381SOL    HW223043   4.064   1.478   0.182
 7382SOL     OW23044   0.274   1.800   6.199
 7382SOL    HW123045   0.373   1.810   6.212
 7382SOL    HW223046   0.246   1.852   6.118
 7383SOL     OW23047   1.485   0.049   1.760
 7383SOL    HW123048   1.527   6.981   1.753
 7383SOL    HW223049   1.544   0.117   1.719
 7384SOL     OW23050   1.019   6.705   0.987
 7384SOL    HW123051   1.072   6.666   0.912
 7384SOL    HW223052   1.034   6.804   0.990
 7385SOL     OW23053   3.934   5.337   2.991
 7385SOL    HW123054   3.903   5.412   2.933
 7385SOL    HW223055   3.979   5.268   2.934
 7386SOL     OW23056   6.204   3.387   0.692
 7386SOL    HW123057   6.112   3.422   0.678
 7386SOL    HW223058   6.201   3.311   0.758
 7387SOL     OW23059   6.464   4.576   5.549
 7387SOL    HW123060   6.380   4.523   5.542
 7387SOL    HW223061   6.443   4.667   5.586
 7388SOL     OW23062   1.625   6.449   2.387
 7388SOL    HW123063   1.613   6.356   2.352
 7388SOL    HW223064   1.639   6.512   2.310
 7389SOL     OW23065   6.792   3.421   0.504
 7389SOL    HW123066   6.785   3.462   0.596
 7389SOL    HW223067   6.731   3.342   0.498
 7390SOL     OW23068   2.131   1.545   3.199
 7390SOL    HW123069   2.037   1.545   3.233
 7390SOL    HW223070   2.155   1.453   3.168
 7391SOL     OW23071   4.074   3.220   2.557
 7391SOL    HW123072   4.150   3.230   2.493
 7391SOL    HW223073   4.015   3.144   2.527
 7392SOL     OW23074   4.003   5.399   6.630
 7392SOL    HW123075   4.066   5.371   6.703
 7392SOL    HW223076   3.975   5.319   6.578
 7393SOL     OW23077   6.393   4.755   4.168
 7393SOL    HW123078   6.447   4.839   4.155
 7393SOL    HW223079   6.346   4.759   4.256
 7394SOL     OW23080   2.234   2.639   5.856
 7394SOL    HW123081   2.197   2.550   5.883
 7394SOL    HW223082   2.191   2.711   5.911
 7395SOL     OW23083   2.572   4.132   1.068
 7395SOL    HW123084   2.634   4.061   1.101
 7395SOL    HW223085   2.555   4.118   0.970
 7396SOL     OW23086   2.928   5.320   1.706
 7396SOL    HW123087   2.878   5.235   1.722
 7396SOL    HW223088   3.014   5.318   1.757
 7397SOL     OW23089   5.490   3.739   4.171
 7397SOL    HW123090   5.496   3.754   4.269
 7397SOL    HW223091   5.462   3.824   4.126
 7398SOL     OW23092   2.095   4.441   3.393
 7398SOL    HW123093   2.042   4.377   3.338
 7398SOL    HW223094   2.148   4.500   3.333
 7399SOL     OW23095   5.511   2.359   4.860
 7399SOL    HW123096   5.489   2.405   4.946
 7399SOL    HW223097   5.492   2.421   4.783
 7400SOL     OW23098   5.460   2.442   5.226
 7400SOL    HW123099   5.451   2.535   5.192
 7400SOL    HW223100   5.418   2.435   5.317
 7401SOL     OW23101   1.540   3.206   3.515
 7401SOL    HW123102   1.455   3.170   3.477
 7401SOL    HW223103   1.586   3.262   3.447
 7402SOL     OW23104   2.729   5.655   4.835
 7402SOL    HW123105   2.641   5.655   4.882
 7402SOL    HW223106   2.721   5.710   4.751
 7403SOL     OW23107   1.059   2.538   3.864
 7403SOL    HW123108   1.112   2.556   3.947
 7403SOL    HW223109   0.978   2.596   3.863
 7404SOL     OW23110   2.974   3.708   1.397
 7404SOL    HW123111   3.014   3.619   1.377
 7404SOL    HW223112   3.015   3.745   1.481
 7405SOL     OW23113   2.952   5.749   5.200
 7405SOL    HW123114   2.871   5.699   5.231
 7405SOL    HW223115   2.929   5.846   5.189
 7406SOL     OW23116   0.737   0.681   4.835
 7406SOL    HW123117   0.697   0.772   4.820
 7406SOL    HW223118   0.668   0.620   4.871
 7407SOL     OW23119   0.594   5.808   6.979
 7407SOL    HW123120   0.648   5.748   6.921
 7407SOL    HW223121   0.648   5.834   0.037
 7408SOL     OW23122   3.516   4.225   5.340
 7408SOL    HW123123   3.435   4.229   5.281
 7408SOL    HW223124   3.509   4.146   5.401
 7409SOL     OW23125   6.340   4.154   0.814
 7409SOL    HW123126   6.414   4.190   0.870
 7409SOL    HW223127   6.347   4.190   0.721
 7410SOL     OW23128   7.003   0.083   1.302
 7410SOL    HW123129   0.065   0.034   1.282
 7410SOL    HW223130   6.992   0.159   1.238
 7411SOL     OW23131   0.806   1.920   5.911
 7411SOL    HW123132   0.709   1.913   5.890
 7411SOL    HW223133   0.823   2.002   5.966
 7412SOL     OW23134   3.954   7.003   0.074
 7412SOL    HW123135   3.950   6.993   0.174
 7412SOL    HW223136   4.050   7.002   0.045
 7413SOL     OW23137   4.069   5.672   3.535
 7413SOL    HW123138   4.099   5.591   3.586
 7413SOL    HW223139   4.045   5.645   3.442
 7414SOL     OW23140   2.196   2.150   4.443
 7414SOL    HW123141   2.123   2.087   4.469
 7414SOL    HW223142   2.235   2.121   4.355
 7415SOL     OW23143   3.761   6.733   6.769
 7415SOL    HW123144   3.706   6.681   6.703
 7415SOL    HW223145   3.711   6.814   6.797
 7416SOL     OW23146   0.895   1.910   2.612
 7416SOL    HW123147   0.898   1.891   2.514
 7416SOL    HW223148   0.843   1.994   2.628
 7417SOL     OW23149   0.915   1.999   3.896
 7417SOL    HW123150   0.917   1.926   3.964
 7417SOL    HW223151   0.820   2.029   3.882
 7418SOL     OW23152   1.586   3.709   6.434
 7418SOL    HW123153   1.662   3.684   6.494
 7418SOL    HW223154   1.551   3.626   6.389
 7419SOL     OW23155   6.405   4.251   3.755
 7419SOL    HW123156   6.417   4.160   3.793
 7419SOL    HW223157   6.312   4.260   3.720
 7420SOL     OW23158   6.818   6.906   2.087
 7420SOL    HW123159   6.828   6.931   1.990
 7420SOL    HW223160   6.905   6.869   2.120
 7421SOL     OW23161   4.699   3.702   1.773
 7421SOL    HW123162   4.770   3.742   1.716
 7421SOL    HW223163   4.623   3.673   1.716
 7422SOL     OW23164   5.920   2.855   1.921
 7422SOL    HW123165   5.841   2.904   1.957
 7422SOL    HW223166   5.941   2.888   1.828
 7423SOL     OW23167   5.672   2.178   5.457
 7423SOL    HW123168   5.770   2.160   5.457
 7423SOL    HW223169   5.656   2.276   5.472
 7424SOL     OW23170   6.844   0.860   4.999
 7424SOL    HW123171   6.789   0.867   4.916
 7424SOL    HW223172   6.938   0.835   4.976
 7425SOL     OW23173   5.587   6.820   0.682
 7425SOL    HW123174   5.541   6.890   0.627
 7425SOL    HW223175   5.683   6.845   0.693
 7426SOL     OW23176   3.707   2.828   5.812
 7426SOL    HW123177   3.685   2.923   5.795
 7426SOL    HW223178   3.733   2.783   5.727
 7427SOL     OW23179   3.666   1.276   3.663
 7427SOL    HW123180   3.630   1.328   3.740
 7427SOL    HW223181   3.683   1.338   3.586
 7428SOL     OW23182   4.463   6.818   5.629
 7428SOL    HW123183   4.451   6.810   5.728
 7428SOL    HW223184   4.525   6.746   5.598
 7429SOL     OW23185   1.458   0.009   2.657
 7429SOL    HW123186   1.524   6.961   2.685
 7429SOL    HW223187   1.506   0.095   2.641
 7430SOL     OW23188   6.902   5.030   2.974
 7430SOL    HW123189   6.829   4.986   3.026
 7430SOL    HW223190   6.956   5.088   3.035
 7431SOL     OW23191   2.114   2.397   4.809
 7431SOL    HW123192   2.019   2.426   4.801
 7431SOL    HW223193   2.174   2.477   4.813
 7432SOL     OW23194   1.990   0.090   3.681
 7432SOL    HW123195   2.045   0.145   3.744
 7432SOL    HW223196   1.979   0.139   3.595
 7433SOL     OW23197   2.877   6.729   6.480
 7433SOL    HW123198   2.799   6.783   6.448
 7433SOL    HW223199   2.884   6.645   6.427
 7434SOL     OW23200   4.211   6.181   5.624
 7434SOL    HW123201   4.209   6.184   5.724
 7434SOL    HW223202   4.253   6.096   5.594
 7435SOL     OW23203   4.640   6.304   2.723
 7435SOL    HW123204   4.621   6.395   2.688
 7435SOL    HW223205   4.709   6.309   2.795
 7436SOL     OW23206   4.959   3.600   6.388
 7436SOL    HW123207   4.867   3.629   6.415
 7436SOL    HW223208   5.026   3.652   6.440
 7437SOL     OW23209   4.184   6.098   1.205
 7437SOL    HW123210   4.274   6.109   1.161
 7437SOL    HW223211   4.194   6.105   1.304
 7438SOL     OW23212   2.614   0.953   0.409
 7438SOL    HW123213   2.637   0.873   0.354
 7438SOL    HW223214   2.664   0.949   0.496
 7439SOL     OW23215   1.450   4.648   6.084
 7439SOL    HW123216   1.419   4.571   6.029
 7439SOL    HW223217   1.384   4.723   6.077
 7440SOL     OW23218   5.006   2.833   3.809
 7440SOL    HW123219   5.076   2.873   3.752
 7440SOL    HW223220   4.980   2.743   3.773
 7441SOL     OW23221   6.064   6.088   2.011
 7441SOL    HW123222   6.067   6.186   1.989
 7441SOL    HW223223   6.153   6.047   1.993
 7442SOL     OW23224   5.504   0.049   5.733
 7442SOL    HW123225   5.514   0.111   5.811
 7442SOL    HW223226   5.587   0.051   5.678
 7443SOL     OW23227   0.064   6.618   2.098
 7443SOL    HW123228   0.065   6.713   2.130
 7443SOL    HW223229   0.022   6.614   2.007
 7444SOL     OW23230   0.857   0.059   6.269
 7444SOL    HW123231   0.936   0.113   6.300
 7444SOL    HW223232   0.776   0.087   6.320
 7445SOL     OW23233   4.331   6.073   2.194
 7445SOL    HW123234   4.319   6.126   2.278
 7445SOL    HW223235   4.297   5.980   2.208
 7446SOL     OW23236   5.278   3.517   6.944
 7446SOL    HW123237   5.198   3.571   6.970
 7446SOL    HW223238   5.358   3.551   6.993
 7447SOL     OW23239   0.450   4.471   1.074
 7447SOL    HW123240   0.490   4.381   1.094
 7447SOL    HW223241   0.365   4.482   1.127
 7448SOL     OW23242   4.635   5.296   6.148
 7448SOL    HW123243   4.577   5.300   6.067
 7448SOL    HW223244   4.728   5.270   6.122
 7449SOL     OW23245   0.432   4.304   6.866
 7449SOL    HW123246   0.354   4.357   6.830
 7449SOL    HW223247   0.510   4.315   6.805
 7450SOL     OW23248   5.527   1.751   5.564
 7450SOL    HW123249   5.588   1.737   5.486
 7450SOL    HW223250   5.435   1.773   5.530
 7451SOL     OW23251   5.567   5.151   2.428
 7451SOL    HW123252   5.605   5.243   2.420
 7451SOL    HW223253   5.604   5.094   2.355
 7452SOL     OW23254   5.132   6.127   5.167
 7452SOL    HW123255   5.210   6.100   5.224
 7452SOL    HW223256   5.128   6.226   5.162
 7453SOL     OW23257   4.163   5.543   6.464
 7453SOL    HW123258   4.115   5.508   6.544
 7453SOL    HW223259   4.103   5.536   6.383
 7454SOL     OW23260   3.605   2.366   0.578
 7454SOL    HW123261   3.664   2.404   0.507
 7454SOL    HW223262   3.648   2.377   0.667
 7455SOL     OW23263   6.468   2.708   2.491
 7455SOL    HW123264   6.369   2.702   2.482
 7455SOL    HW223265   6.504   2.622   2.528
 7456SOL     OW23266   2.992   1.954   5.639
 7456SOL    HW123267   2.994   1.886   5.712
 7456SOL    HW223268   2.937   1.918   5.563
 7457SOL     OW23269   3.088   0.064   3.012
 7457SOL    HW123270   3.045   7.002   3.043
 7457SOL    HW223271   3.038   0.099   2.933
 7458SOL     OW23272   0.988   6.515   5.559
 7458SOL    HW123273   0.889   6.506   5.555
 7458SOL    HW223274   1.012   6.596   5.613
 7459SOL     OW23275   6.151   1.129   2.900
 7459SOL    HW123276   6.194   1.101   2.986
 7459SOL    HW223277   6.070   1.184   2.920
 7460SOL     OW23278   0.904   0.101   1.018
 7460SOL    HW123279   0.903   0.109   0.918
 7460SOL    HW223280   0.971   0.031   1.045
 7461SOL     OW23281   0.795   5.746   5.815
 7461SOL    HW123282   0.840   5.726   5.902
 7461SOL    HW223283   0.849   5.709   5.740
 7462SOL     OW23284   1.219   5.268   1.415
 7462SOL    HW123285   1.291   5.287   1.481
 7462SOL    HW223286   1.163   5.191   1.447
 7463SOL     OW23287   4.392   4.630   6.921
 7463SOL    HW123288   4.311   4.641   6.864
 7463SOL    HW223289   4.412   4.533   6.934
 7464SOL     OW23290   6.589   5.744   5.244
 7464SOL    HW123291   6.498   5.780   5.227
 7464SOL    HW223292   6.595   5.650   5.210
 7465SOL     OW23293   2.592   5.271   0.128
 7465SOL    HW123294   2.647   5.351   0.152
 7465SOL    HW223295   2.545   5.289   0.041
 7466SOL     OW23296   6.968   6.497   4.215
 7466SOL    HW123297   6.921   6.409   4.214
 7466SOL    HW223298   7.020   6.508   4.131
 7467SOL     OW23299   0.351   3.402   6.027
 7467SOL    HW123300   0.407   3.383   6.107
 7467SOL    HW223301   0.259   3.367   6.041
 7468SOL     OW23302   5.948   3.132   5.796
 7468SOL    HW123303   5.993   3.201   5.739
 7468SOL    HW223304   5.883   3.081   5.740
 7469SOL     OW23305   6.687   2.557   0.540
 7469SOL    HW123306   6.765   2.612   0.569
 7469SOL    HW223307   6.605   2.588   0.588
 7470SOL     OW23308   5.600   3.450   3.731
 7470SOL    HW123309   5.530   3.521   3.724
 7470SOL    HW223310   5.691   3.492   3.724
 7471SOL     OW23311   5.884   5.339   6.725
 7471SOL    HW123312   5.850   5.357   6.817
 7471SOL    HW223313   5.807   5.321   6.664
 7472SOL     OW23314   6.379   6.197   5.282
 7472SOL    HW123315   6.314   6.252   5.230
 7472SOL    HW223316   6.330   6.129   5.336
 7473SOL     OW23317   4.422   6.852   3.930
 7473SOL    HW123318   4.474   6.910   3.992
 7473SOL    HW223319   4.381   6.909   3.858
 7474SOL     OW23320   6.229   1.907   6.038
 7474SOL    HW123321   6.289   1.977   6.000
 7474SOL    HW223322   6.170   1.947   6.108
 7475SOL     OW23323   4.600   2.576   1.169
 7475SOL    HW123324   4.544   2.584   1.087
 7475SOL    HW223325   4.551   2.520   1.237
 7476SOL     OW23326   2.250   1.326   3.072
 7476SOL    HW123327   2.340   1.367   3.088
 7476SOL    HW223328   2.255   1.227   3.084
 7477SOL     OW23329   0.941   4.078   5.501
 7477SOL    HW123330   0.923   4.060   5.598
 7477SOL    HW223331   0.983   4.168   5.491
 7478SOL     OW23332   0.142   1.828   5.138
 7478SOL    HW123333   0.159   1.926   5.127
 7478SOL    HW223334   0.230   1.779   5.137
 7479SOL     OW23335   6.277   3.019   6.637
 7479SOL    HW123336   6.345   3.087   6.607
 7479SOL    HW223337   6.323   2.932   6.654
 7480SOL     OW23338   3.724   4.839   2.260
 7480SOL    HW123339   3.685   4.815   2.171
 7480SOL    HW223340   3.663   4.903   2.307
 7481SOL     OW23341   6.789   3.987   6.729
 7481SOL    HW123342   6.853   3.912   6.746
 7481SOL    HW223343   6.839   4.068   6.699
 7482SOL     OW23344   4.053   2.164   2.318
 7482SOL    HW123345   4.007   2.151   2.231
 7482SOL    HW223346   4.146   2.127   2.313
 7483SOL     OW23347   4.446   2.484   5.710
 7483SOL    HW123348   4.494   2.408   5.755
 7483SOL    HW223349   4.391   2.449   5.635
 7484SOL     OW23350   3.080   6.917   4.576
 7484SOL    HW123351   2.994   6.878   4.610
 7484SOL    HW223352   3.102   7.000   4.628
 7485SOL     OW23353   2.657   0.008   4.054
 7485SOL    HW123354   2.724   6.970   4.098
 7485SOL    HW223355   2.703   0.059   3.981
 7486SOL     OW23356   1.777   6.590   0.347
 7486SOL    HW123357   1.823   6.570   0.261
 7486SOL    HW223358   1.679   6.595   0.332
 7487SOL     OW23359   4.149   6.673   3.613
 7487SOL    HW123360   4.081   6.602   3.629
 7487SOL    HW223361   4.181   6.667   3.518
 7488SOL     OW23362   0.880   5.619   3.842
 7488SOL    HW123363   0.911   5.679   3.916
 7488SOL    HW223364   0.799   5.659   3.799
 7489SOL     OW23365   6.106   3.713   6.697
 7489SOL    HW123366   6.154   3.750   6.777
 7489SOL    HW223367   6.170   3.657   6.643
 7490SOL     OW23368   1.199   2.278   2.699
 7490SOL    HW123369   1.299   2.272   2.699
 7490SOL    HW223370   1.160   2.186   2.690
 7491SOL     OW23371   4.359   3.056   0.058
 7491SOL    HW123372   4.450   3.058   0.098
 7491SOL    HW223373   4.320   3.148   0.059
 7492SOL     OW23374   1.363   0.570   4.476
 7492SOL    HW123375   1.361   0.663   4.441
 7492SOL    HW223376   1.274   0.547   4.517
 7493SOL     OW23377   6.010   4.009   5.313
 7493SOL    HW123378   6.083   3.979   5.375
 7493SOL    HW223379   5.926   3.960   5.334
 7494SOL     OW23380   5.855   1.515   2.638
 7494SOL    HW123381   5.772   1.529   2.584
 7494SOL    HW223382   5.841   1.439   2.702
 7495SOL     OW23383   2.115   3.795   4.593
 7495SOL    HW123384   2.116   3.854   4.674
 7495SOL    HW223385   2.147   3.704   4.619
 7496SOL     OW23386   5.766   4.056   2.675
 7496SOL    HW123387   5.796   3.967   2.641
 7496SOL    HW223388   5.788   4.064   2.772
 7497SOL     OW23389   0.664   6.616   0.627
 7497SOL    HW123390   0.612   6.695   0.659
 7497SOL    HW223391   0.634   6.591   0.535
 7498SOL     OW23392   3.319   0.200   2.985
 7498SOL    HW123393   3.243   0.135   2.987
 7498SOL    HW223394   3.316   0.257   3.068
 7499SOL     OW23395   3.631   2.125   3.755
 7499SOL    HW123396   3.645   2.088   3.847
 7499SOL    HW223397   3.534   2.136   3.738
 7500SOL     OW23398   4.427   6.887   3.441
 7500SOL    HW123399   4.376   6.808   3.477
 7500SOL    HW223400   4.376   6.971   3.458
 7501SOL     OW23401   5.864   2.334   4.546
 7501SOL    HW123402   5.778   2.292   4.515
 7501SOL    HW223403   5.846   2.428   4.575
 7502SOL     OW23404   3.736   0.267   4.241
 7502SOL    HW123405   3.829   0.253   4.277
 7502SOL    HW223406   3.738   0.337   4.170
 7503SOL     OW23407   1.993   6.275   1.463
 7503SOL    HW123408   2.033   6.289   1.372
 7503SOL    HW223409   2.020   6.351   1.522
 7504SOL     OW23410   6.657   6.674   3.436
 7504SOL    HW123411   6.659   6.609   3.512
 7504SOL    HW223412   6.689   6.763   3.467
 7505SOL     OW23413   0.614   6.889   5.153
 7505SOL    HW123414   0.527   6.937   5.162
 7505SOL    HW223415   0.683   6.951   5.115
 7506SOL     OW23416   2.491   1.408   3.214
 7506SOL    HW123417   2.464   1.337   3.278
 7506SOL    HW223418   2.566   1.462   3.252
 7507SOL     OW23419   6.326   3.657   4.611
 7507SOL    HW123420   6.341   3.666   4.709
 7507SOL    HW223421   6.342   3.563   4.583
 7508SOL     OW23422   1.892   6.107   0.031
 7508SOL    HW123423   1.883   6.012   0.060
 7508SOL    HW223424   1.824   6.163   0.079
 7509SOL     OW23425   4.952   3.957   0.314
 7509SOL    HW123426   4.870   4.013   0.328
 7509SOL    HW223427   5.025   3.988   0.374
 7510SOL     OW23428   3.291   4.105   3.639
 7510SOL    HW123429   3.237   4.079   3.718
 7510SOL    HW223430   3.378   4.145   3.669
 7511SOL     OW23431   3.480   5.699   3.011
 7511SOL    HW123432   3.474   5.760   2.932
 7511SOL    HW223433   3.427   5.737   3.086
 7512SOL     OW23434   3.245   6.312   6.241
 7512SOL    HW123435   3.166   6.371   6.230
 7512SOL    HW223436   3.327   6.368   6.253
 7513SOL     OW23437   1.677   1.822   3.566
 7513SOL    HW123438   1.744   1.801   3.636
 7513SOL    HW223439   1.718   1.883   3.497
 7514SOL     OW23440   2.243   3.997   3.019
 7514SOL    HW123441   2.161   3.958   2.976
 7514SOL    HW223442   2.278   3.933   3.088
 7515SOL     OW23443   0.037   4.056   4.587
 7515SOL    HW123444   0.040   4.135   4.648
 7515SOL    HW223445   0.068   3.974   4.636
 7516SOL     OW23446   1.107   5.060   5.462
 7516SOL    HW123447   1.108   5.149   5.506
 7516SOL    HW223448   1.098   4.988   5.532
 7517SOL     OW23449   0.265   2.255   6.733
 7517SOL    HW123450   0.246   2.170   6.683
 7517SOL    HW223451   0.361   2.256   6.762
 7518SOL     OW23452   4.749   2.832   3.935
 7518SOL    HW123453   4.743   2.858   4.031
 7518SOL    HW223454   4.839   2.857   3.899
 7519SOL     OW23455   3.704   6.820   5.149
 7519SOL    HW123456   3.611   6.847   5.124
 7519SOL    HW223457   3.762   6.901   5.155
 7520SOL     OW23458   1.972   2.082   1.881
 7520SOL    HW123459   1.985   2.181   1.889
 7520SOL    HW223460   1.880   2.063   1.845
 7521SOL     OW23461   4.427   1.075   4.820
 7521SOL    HW123462   4.333   1.109   4.821
 7521SOL    HW223463   4.490   1.152   4.833
 7522SOL     OW23464   1.577   6.543   3.095
 7522SOL    HW123465   1.511   6.614   3.121
 7522SOL    HW223466   1.657   6.548   3.155
 7523SOL     OW23467   5.591   1.686   6.364
 7523SOL    HW123468   5.662   1.616   6.378
 7523SOL    HW223469   5.596   1.753   6.438
 7524SOL     OW23470   0.348   2.528   4.672
 7524SOL    HW123471   0.284   2.463   4.630
 7524SOL    HW223472   0.416   2.556   4.605
 7525SOL     OW23473   4.593   6.173   6.045
 7525SOL    HW123474   4.600   6.178   6.144
 7525SOL    HW223475   4.660   6.108   6.009
 7526SOL     OW23476   2.088   3.492   1.731
 7526SOL    HW123477   2.134   3.476   1.644
 7526SOL    HW223478   2.155   3.495   1.804
 7527SOL     OW23479   3.944   5.480   3.788
 7527SOL    HW123480   4.044   5.480   3.783
 7527SOL    HW223481   3.908   5.404   3.734
 7528SOL     OW23482   6.707   2.958   6.347
 7528SOL    HW123483   6.671   2.943   6.439
 7528SOL    HW223484   6.691   2.877   6.291
 7529SOL     OW23485   6.087   2.335   4.034
 7529SOL    HW123486   6.020   2.298   4.098
 7529SOL    HW223487   6.040   2.364   3.950
 7530SOL     OW23488   6.746   1.808   2.124
 7530SOL    HW123489   6.818   1.747   2.091
 7530SOL    HW223490   6.657   1.764   2.110
 7531SOL     OW23491   4.509   2.051   3.639
 7531SOL    HW123492   4.488   1.977   3.703
 7531SOL    HW223493   4.440   2.054   3.568
 7532SOL     OW23494   4.396   5.601   6.783
 7532SOL    HW123495   4.466   5.538   6.750
 7532SOL    HW223496   4.311   5.551   6.800
 7533SOL     OW23497   4.597   3.406   1.551
 7533SOL    HW123498   4.590   3.397   1.452
 7533SOL    HW223499   4.643   3.326   1.589
 7534SOL     OW23500   4.816   0.091   4.026
 7534SOL    HW123501   4.772   0.020   3.971
 7534SOL    HW223502   4.750   0.163   4.046
 7535SOL     OW23503   0.811   5.576   4.301
 7535SOL    HW123504   0.735   5.626   4.344
 7535SOL    HW223505   0.858   5.637   4.237
 7536SOL     OW23506   5.012   5.644   3.992
 7536SOL    HW123507   4.982   5.599   4.076
 7536SOL    HW223508   5.072   5.583   3.941
 7537SOL     OW23509   2.958   5.925   2.885
 7537SOL    HW123510   3.044   5.910   2.836
 7537SOL    HW223511   2.970   5.998   2.953
 7538SOL     OW23512   0.812   3.732   1.349
 7538SOL    HW123513   0.890   3.793   1.351
 7538SOL    HW223514   0.797   3.700   1.255
 7539SOL     OW23515   0.434   5.676   3.522
 7539SOL    HW123516   0.348   5.719   3.551
 7539SOL    HW223517   0.413   5.589   3.476
 7540SOL     OW23518   5.615   5.131   4.277
 7540SOL    HW123519   5.614   5.032   4.290
 7540SOL    HW223520   5.521   5.165   4.275
 7541SOL     OW23521   0.872   3.832   6.790
 7541SOL    HW123522   0.826   3.802   6.706
 7541SOL    HW223523   0.844   3.774   6.866
 7542SOL     OW23524   6.029   5.221   6.269
 7542SOL    HW123525   5.953   5.278   6.238
 7542SOL    HW223526   6.033   5.222   6.369
 7543SOL     OW23527   2.769   1.030   5.567
 7543SOL    HW123528   2.710   0.954   5.594
 7543SOL    HW223529   2.855   1.025   5.618
 7544SOL     OW23530   0.099   3.084   3.546
 7544SOL    HW123531   0.151   3.065   3.629
 7544SOL    HW223532   0.143   3.160   3.497
 7545SOL     OW23533   0.708   5.314   0.055
 7545SOL    HW123534   0.720   5.269   0.143
 7545SOL    HW223535   0.730   5.250   7.004
 7546SOL     OW23536   2.986   2.988   1.743
 7546SOL    HW123537   3.053   3.037   1.686
 7546SOL    HW223538   3.035   2.939   1.815
 7547SOL     OW23539   4.529   0.281   1.724
 7547SOL    HW123540   4.596   0.235   1.781
 7547SOL    HW223541   4.441   0.283   1.771
 7548SOL     OW23542   4.610   2.394   6.401
 7548SOL    HW123543   4.669   2.402   6.481
 7548SOL    HW223544   4.554   2.312   6.409
 7549SOL     OW23545   4.403   2.599   5.252
 7549SOL    HW123546   4.402   2.604   5.352
 7549SOL    HW223547   4.320   2.554   5.220
 7550SOL     OW23548   1.619   4.021   3.876
 7550SOL    HW123549   1.710   3.988   3.900
 7550SOL    HW223550   1.601   4.107   3.924
 7551SOL     OW23551   5.908   2.061   5.391
 7551SOL    HW123552   5.894   2.035   5.486
 7551SOL    HW223553   5.995   2.110   5.382
 7552SOL     OW23554   2.570   6.000   4.956
 7552SOL    HW123555   2.581   6.083   4.901
 7552SOL    HW223556   2.571   5.920   4.896
 7553SOL     OW23557   5.400   6.057   6.203
 7553SOL    HW123558   5.448   5.983   6.156
 7553SOL    HW223559   5.346   6.108   6.137
 7554SOL     OW23560   4.974   1.034   0.371
 7554SOL    HW123561   5.072   1.048   0.382
 7554SOL    HW223562   4.952   0.938   0.389
 7555SOL     OW23563   3.586   5.366   6.003
 7555SOL    HW123564   3.499   5.410   6.025
 7555SOL    HW223565   3.606   5.376   5.906
 7556SOL     OW23566   0.328   0.258   0.776
 7556SOL    HW123567   0.300   0.343   0.730
 7556SOL    HW223568   0.265   0.239   0.851
 7557SOL     OW23569   4.810   0.318   0.642
 7557SOL    HW123570   4.726   0.281   0.680
 7557SOL    HW223571   4.888   0.284   0.695
 7558SOL     OW23572   1.758   2.395   4.057
 7558SOL    HW123573   1.708   2.444   3.986
 7558SOL    HW223574   1.734   2.434   4.146
 7559SOL     OW23575   4.221   2.298   4.787
 7559SOL    HW123576   4.310   2.287   4.741
 7559SOL    HW223577   4.237   2.331   4.881
 7560SOL     OW23578   6.915   0.396   6.281
 7560SOL    HW123579   6.984   0.464   6.259
 7560SOL    HW223580   6.824   0.435   6.266
 7561SOL     OW23581   5.565   2.197   5.191
 7561SOL    HW123582   5.577   2.176   5.287
 7561SOL    HW223583   5.526   2.289   5.182
 7562SOL     OW23584   1.610   4.978   4.136
 7562SOL    HW123585   1.531   4.976   4.074
 7562SOL    HW223586   1.682   5.035   4.096
 7563SOL     OW23587   3.651   6.003   2.429
 7563SOL    HW123588   3.715   6.008   2.352
 7563SOL    HW223589   3.701   6.010   2.515
 7564SOL     OW23590   4.691   1.224   4.197
 7564SOL    HW123591   4.760   1.151   4.200
 7564SOL    HW223592   4.691   1.273   4.284
 7565SOL     OW23593   5.499   3.395   6.560
 7565SOL    HW123594   5.448   3.394   6.646
 7565SOL    HW223595   5.504   3.489   6.526
 7566SOL     OW23596   4.034   4.165   1.565
 7566SOL    HW123597   3.982   4.237   1.612
 7566SOL    HW223598   4.087   4.113   1.632
 7567SOL     OW23599   0.347   0.420   4.834
 7567SOL    HW123600   0.305   0.364   4.906
 7567SOL    HW223601   0.411   0.485   4.875
 7568SOL     OW23602   5.674   5.456   1.177
 7568SOL    HW123603   5.700   5.451   1.080
 7568SOL    HW223604   5.681   5.365   1.218
 7569SOL     OW23605   4.136   3.805   6.842
 7569SOL    HW123606   4.216   3.844   6.887
 7569SOL    HW223607   4.075   3.879   6.813
 7570SOL     OW23608   6.667   2.983   3.466
 7570SOL    HW123609   6.614   3.055   3.421
 7570SOL    HW223610   6.746   3.024   3.513
 7571SOL     OW23611   4.761   2.832   2.685
 7571SOL    HW123612   4.777   2.927   2.659
 7571SOL    HW223613   4.729   2.828   2.780
 7572SOL     OW23614   5.103   6.041   2.342
 7572SOL    HW123615   5.054   5.954   2.337
 7572SOL    HW223616   5.044   6.114   2.306
 7573SOL     OW23617   5.550   6.696   6.049
 7573SOL    HW123618   5.462   6.684   6.002
 7573SOL    HW223619   5.605   6.613   6.037
 7574SOL     OW23620   6.880   1.396   4.227
 7574SOL    HW123621   6.960   1.345   4.257
 7574SOL    HW223622   6.882   1.405   4.128
 7575SOL     OW23623   6.933   6.234   1.369
 7575SOL    HW123624   6.835   6.217   1.365
 7575SOL    HW223625   6.951   6.329   1.341
 7576SOL     OW23626   5.472   3.167   0.606
 7576SOL    HW123627   5.554   3.220   0.582
 7576SOL    HW223628   5.468   3.085   0.549
 7577SOL     OW23629   0.931   0.059   0.483
 7577SOL    HW123630   0.888   0.149   0.486
 7577SOL    HW223631   0.899   0.005   0.561
 7578SOL     OW23632   6.803   5.790   3.499
 7578SOL    HW123633   6.798   5.815   3.596
 7578SOL    HW223634   6.855   5.860   3.450
 7579SOL     OW23635   6.594   1.102   0.519
 7579SOL    HW123636   6.514   1.123   0.463
 7579SOL    HW223637   6.594   1.006   0.543
 7580SOL     OW23638   2.337   4.891   3.768
 7580SOL    HW123639   2.363   4.910   3.673
 7580SOL    HW223640   2.320   4.793   3.779
 7581SOL     OW23641   0.174   1.051   1.992
 7581SOL    HW123642   0.201   0.967   2.039
 7581SOL    HW223643   0.256   1.101   1.963
 7582SOL     OW23644   3.536   1.689   4.357
 7582SOL    HW123645   3.580   1.629   4.423
 7582SOL    HW223646   3.587   1.776   4.353
 7583SOL     OW23647   4.860   3.404   3.482
 7583SOL    HW123648   4.863   3.348   3.399
 7583SOL    HW223649   4.829   3.496   3.459
 7584SOL     OW23650   0.668   0.774   3.241
 7584SOL    HW123651   0.634   0.682   3.259
 7584SOL    HW223652   0.665   0.792   3.143
 7585SOL     OW23653   0.611   2.361   6.533
 7585SOL    HW123654   0.592   2.386   6.628
 7585SOL    HW223655   0.646   2.441   6.484
 7586SOL     OW23656   1.197   1.305   2.794
 7586SOL    HW123657   1.187   1.325   2.891
 7586SOL    HW223658   1.250   1.221   2.782
 7587SOL     OW23659   3.298   1.503   0.634
 7587SOL    HW123660   3.353   1.419   0.637
 7587SOL    HW223661   3.257   1.518   0.724
 7588SOL     OW23662   1.680   2.637   4.553
 7588SOL    HW123663   1.651   2.715   4.610
 7588SOL    HW223664   1.694   2.668   4.459
 7589SOL     OW23665   7.014   1.077   3.177
 7589SOL    HW123666   0.069   1.117   3.130
 7589SOL    HW223667   0.022   1.001   3.235
 7590SOL     OW23668   0.084   1.678   0.033
 7590SOL    HW123669   0.144   1.608   7.018
 7590SOL    HW223670   0.058   1.654   0.126
 7591SOL     OW23671   4.122   3.122   5.852
 7591SOL    HW123672   4.129   3.159   5.759
 7591SOL    HW223673   4.032   3.080   5.864
 7592SOL     OW23674   6.886   6.258   4.995
 7592SOL    HW123675   6.858   6.218   4.908
 7592SOL    HW223676   6.921   6.187   5.055
 7593SOL     OW23677   0.213   1.578   5.752
 7593SOL    HW123678   0.260   1.490   5.755
 7593SOL    HW223679   0.187   1.598   5.658
 7594SOL     OW23680   0.533   4.194   1.095
 7594SOL    HW123681   0.632   4.203   1.107
 7594SOL    HW223682   0.513   4.185   0.997
 7595SOL     OW23683   6.513   2.596   5.896
 7595SOL    HW123684   6.437   2.650   5.933
 7595SOL    HW223685   6.503   2.501   5.926
 7596SOL     OW23686   2.747   1.074   5.007
 7596SOL    HW123687   2.672   1.008   5.002
 7596SOL    HW223688   2.819   1.048   4.942
 7597SOL     OW23689   1.558   4.485   2.053
 7597SOL    HW123690   1.498   4.565   2.062
 7597SOL    HW223691   1.603   4.467   2.140
 7598SOL     OW23692   5.814   0.803   3.403
 7598SOL    HW123693   5.861   0.740   3.466
 7598SOL    HW223694   5.732   0.759   3.367
 7599SOL     OW23695   3.776   2.945   0.907
 7599SOL    HW123696   3.716   2.884   0.959
 7599SOL    HW223697   3.805   3.021   0.965
 7600SOL     OW23698   1.228   1.124   4.473
 7600SOL    HW123699   1.302   1.139   4.539
 7600SOL    HW223700   1.264   1.074   4.394
 7601SOL     OW23701   3.856   5.913   1.905
 7601SOL    HW123702   3.948   5.953   1.904
 7601SOL    HW223703   3.806   5.943   1.823
 7602SOL     OW23704   0.598   1.651   0.835
 7602SOL    HW123705   0.605   1.719   0.908
 7602SOL    HW223706   0.523   1.677   0.773
 7603SOL     OW23707   2.311   0.393   5.448
 7603SOL    HW123708   2.386   0.355   5.502
 7603SOL    HW223709   2.304   0.345   5.361
 7604SOL     OW23710   1.034   2.240   5.013
 7604SOL    HW123711   1.123   2.285   5.010
 7604SOL    HW223712   0.971   2.294   5.069
 7605SOL     OW23713   2.549   0.043   6.908
 7605SOL    HW123714   2.545   0.139   6.880
 7605SOL    HW223715   2.628   0.029   6.967
 7606SOL     OW23716   6.519   1.734   3.648
 7606SOL    HW123717   6.476   1.806   3.594
 7606SOL    HW223718   6.589   1.689   3.593
 7607SOL     OW23719   2.807   5.586   6.037
 7607SOL    HW123720   2.900   5.618   6.054
 7607SOL    HW223721   2.804   5.486   6.047
 7608SOL     OW23722   6.057   2.961   6.261
 7608SOL    HW123723   6.099   3.046   6.293
 7608SOL    HW223724   5.977   2.939   6.317
 7609SOL     OW23725   0.574   2.010   4.881
 7609SOL    HW123726   0.536   2.102   4.895
 7609SOL    HW223727   0.673   2.015   4.883
 7610SOL     OW23728   3.099   4.728   5.585
 7610SOL    HW123729   3.075   4.810   5.533
 7610SOL    HW223730   3.176   4.682   5.542
 7611SOL     OW23731   4.563   3.263   1.301
 7611SOL    HW123732   4.616   3.200   1.245
 7611SOL    HW223733   4.468   3.231   1.308
 7612SOL     OW23734   3.035   1.247   3.109
 7612SOL    HW123735   3.130   1.226   3.087
 7612SOL    HW223736   2.978   1.166   3.095
 7613SOL     OW23737   1.132   1.549   2.471
 7613SOL    HW123738   1.163   1.635   2.513
 7613SOL    HW223739   1.084   1.569   2.385
 7614SOL     OW23740   5.157   3.561   0.409
 7614SOL    HW123741   5.148   3.555   0.309
 7614SOL    HW223742   5.226   3.496   0.440
 7615SOL     OW23743   5.406   3.145   4.588
 7615SOL    HW123744   5.380   3.058   4.546
 7615SOL    HW223745   5.483   3.185   4.538
 7616SOL     OW23746   6.764   6.914   3.589
 7616SOL    HW123747   6.698   6.988   3.574
 7616SOL    HW223748   6.807   6.926   3.678
 7617SOL     OW23749   5.384   5.437   3.422
 7617SOL    HW123750   5.448   5.495   3.372
 7617SOL    HW223751   5.427   5.405   3.506
 7618SOL     OW23752   3.036   3.040   0.505
 7618SOL    HW123753   2.975   3.017   0.581
 7618SOL    HW223754   2.983   3.087   0.434
 7619SOL     OW23755   0.606   2.196   4.268
 7619SOL    HW123756   0.603   2.220   4.171
 7619SOL    HW223757   0.667   2.259   4.316
 7620SOL     OW23758   3.956   3.887   1.445
 7620SOL    HW123759   3.880   3.883   1.380
 7620SOL    HW223760   3.972   3.983   1.470
 7621SOL     OW23761   0.480   5.834   0.915
 7621SOL    HW123762   0.432   5.828   0.828
 7621SOL    HW223763   0.544   5.911   0.913
 7622SOL     OW23764   3.615   4.538   0.635
 7622SOL    HW123765   3.662   4.591   0.565
 7622SOL    HW223766   3.518   4.529   0.610
 7623SOL     OW23767   4.827   4.847   1.316
 7623SOL    HW123768   4.802   4.944   1.322
 7623SOL    HW223769   4.776   4.795   1.384
 7624SOL     OW23770   0.481   2.608   1.932
 7624SOL    HW123771   0.466   2.543   1.858
 7624SOL    HW223772   0.541   2.682   1.901
 7625SOL     OW23773   5.129   1.967   0.468
 7625SOL    HW123774   5.126   1.964   0.567
 7625SOL    HW223775   5.224   1.961   0.436
 7626SOL     OW23776   5.526   0.450   5.149
 7626SOL    HW123777   5.485   0.496   5.070
 7626SOL    HW223778   5.617   0.418   5.125
 7627SOL     OW23779   3.135   1.959   6.569
 7627SOL    HW123780   3.182   1.994   6.488
 7627SOL    HW223781   3.187   1.981   6.651
 7628SOL     OW23782   3.375   3.348   0.749
 7628SOL    HW123783   3.398   3.424   0.810
 7628SOL    HW223784   3.289   3.369   0.702
 7629SOL     OW23785   5.919   3.412   4.144
 7629SOL    HW123786   6.016   3.434   4.150
 7629SOL    HW223787   5.885   3.435   4.053
 7630SOL     OW23788   1.589   0.015   5.486
 7630SOL    HW123789   1.526   0.034   5.561
 7630SOL    HW223790   1.543   0.034   5.399
 7631SOL     OW23791   1.942   6.870   5.313
 7631SOL    HW123792   1.911   6.954   5.358
 7631SOL    HW223793   1.974   6.893   5.221
 7632SOL     OW23794   4.643   5.583   0.797
 7632SOL    HW123795   4.685   5.527   0.725
 7632SOL    HW223796   4.632   5.676   0.765
 7633SOL     OW23797   6.031   1.290   0.955
 7633SOL    HW123798   5.935   1.317   0.949
 7633SOL    HW223799   6.049   1.216   0.890
 7634SOL     OW23800   0.845   1.702   0.367
 7634SOL    HW123801   0.898   1.652   0.299
 7634SOL    HW223802   0.824   1.793   0.331
 7635SOL     OW23803   2.774   4.983   6.195
 7635SOL    HW123804   2.687   4.936   6.179
 7635SOL    HW223805   2.806   5.022   6.109
 7636SOL     OW23806   0.899   3.778   4.756
 7636SOL    HW123807   0.902   3.701   4.692
 7636SOL    HW223808   0.913   3.744   4.849
 7637SOL     OW23809   0.487   6.221   3.897
 7637SOL    HW123810   0.578   6.203   3.859
 7637SOL    HW223811   0.495   6.245   3.993
 7638SOL     OW23812   0.868   5.165   1.690
 7638SOL    HW123813   0.795   5.210   1.638
 7638SOL    HW223814   0.940   5.135   1.627
 7639SOL     OW23815   1.337   1.145   0.080
 7639SOL    HW123816   1.285   1.059   0.082
 7639SOL    HW223817   1.409   1.142   0.149
 7640SOL     OW23818   3.352   1.013   6.344
 7640SOL    HW123819   3.282   1.083   6.329
 7640SOL    HW223820   3.349   0.946   6.270
 7641SOL     OW23821   0.129   4.074   2.879
 7641SOL    HW123822   0.178   4.016   2.944
 7641SOL    HW223823   0.056   4.022   2.836
 7642SOL     OW23824   6.276   1.017   3.607
 7642SOL    HW123825   6.284   0.944   3.674
 7642SOL    HW223826   6.270   1.106   3.653
 7643SOL     OW23827   5.140   2.446   3.222
 7643SOL    HW123828   5.130   2.458   3.321
 7643SOL    HW223829   5.066   2.494   3.175
 7644SOL     OW23830   5.084   3.653   1.345
 7644SOL    HW123831   4.991   3.664   1.311
 7644SOL    HW223832   5.083   3.658   1.445
 7645SOL     OW23833   2.729   3.503   6.123
 7645SOL    HW123834   2.663   3.504   6.048
 7645SOL    HW223835   2.799   3.434   6.106
 7646SOL     OW23836   0.153   2.381   3.215
 7646SOL    HW123837   0.227   2.314   3.208
 7646SOL    HW223838   0.160   2.447   3.140
 7647SOL     OW23839   6.981   3.128   5.030
 7647SOL    HW123840   6.883   3.140   5.050
 7647SOL    HW223841   0.012   3.162   5.107
 7648SOL     OW23842   2.469   1.967   2.615
 7648SOL    HW123843   2.388   1.909   2.621
 7648SOL    HW223844   2.444   2.055   2.574
 7649SOL     OW23845   5.857   1.045   5.237
 7649SOL    HW123846   5.834   1.140   5.258
 7649SOL    HW223847   5.778   0.987   5.254
 7650SOL     OW23848   4.208   1.843   1.198
 7650SOL    HW123849   4.302   1.875   1.188
 7650SOL    HW223850   4.208   1.754   1.244
 7651SOL     OW23851   2.247   5.137   5.339
 7651SOL    HW123852   2.229   5.040   5.325
 7651SOL    HW223853   2.253   5.182   5.250
 7652SOL     OW23854   5.777   1.829   4.030
 7652SOL    HW123855   5.790   1.739   3.988
 7652SOL    HW223856   5.724   1.887   3.969
 7653SOL     OW23857   0.379   1.761   6.722
 7653SOL    HW123858   0.376   1.669   6.683
 7653SOL    HW223859   0.368   1.756   6.821
 7654SOL     OW23860   5.975   2.919   5.991
 7654SOL    HW123861   5.970   3.002   5.935
 7654SOL    HW223862   5.991   2.944   6.087
 7655SOL     OW23863   3.314   0.582   3.315
 7655SOL    HW123864   3.361   0.658   3.268
 7655SOL    HW223865   3.356   0.569   3.405
 7656SOL     OW23866   6.617   3.276   6.925
 7656SOL    HW123867   6.627   3.375   6.912
 7656SOL    HW223868   6.607   3.257   0.000
 7657SOL     OW23869   1.287   4.064   4.540
 7657SOL    HW123870   1.250   4.158   4.535
 7657SOL    HW223871   1.382   4.064   4.511
 7658SOL     OW23872   2.685   1.156   0.789
 7658SOL    HW123873   2.781   1.135   0.804
 7658SOL    HW223874   2.652   1.217   0.862
 7659SOL     OW23875   4.389   3.735   5.437
 7659SOL    HW123876   4.470   3.793   5.426
 7659SOL    HW223877   4.360   3.737   5.533
 7660SOL     OW23878   7.010   4.960   4.622
 7660SOL    HW123879   0.004   4.861   4.617
 7660SOL    HW223880   0.029   5.004   4.542
 7661SOL     OW23881   4.997   3.013   6.115
 7661SOL    HW123882   4.901   2.986   6.106
 7661SOL    HW223883   5.048   2.983   6.035
 7662SOL     OW23884   1.111   1.952   2.381
 7662SOL    HW123885   1.162   1.911   2.456
 7662SOL    HW223886   1.023   1.906   2.371
 7663SOL     OW23887   6.315   5.325   5.357
 7663SOL    HW123888   6.234   5.273   5.383
 7663SOL    HW223889   6.302   5.421   5.381
 7664SOL     OW23890   3.542   1.831   2.703
 7664SOL    HW123891   3.574   1.761   2.638
 7664SOL    HW223892   3.443   1.840   2.696
 7665SOL     OW23893   4.001   1.568   4.567
 7665SOL    HW123894   4.036   1.662   4.576
 7665SOL    HW223895   4.076   1.503   4.584
 7666SOL     OW23896   5.825   5.278   4.196
 7666SOL    HW123897   5.799   5.369   4.229
 7666SOL    HW223898   5.750   5.214   4.212
 7667SOL     OW23899   5.340   6.200   2.118
 7667SOL    HW123900   5.405   6.265   2.080
 7667SOL    HW223901   5.390   6.129   2.169
 7668SOL     OW23902   2.019   5.229   1.587
 7668SOL    HW123903   2.074   5.168   1.529
 7668SOL    HW223904   2.014   5.191   1.679
 7669SOL     OW23905   2.761   6.603   5.688
 7669SOL    HW123906   2.678   6.659   5.692
 7669SOL    HW223907   2.832   6.652   5.637
 7670SOL     OW23908   7.010   6.748   0.479
 7670SOL    HW123909   6.995   6.841   0.514
 7670SOL    HW223910   0.038   6.753   0.393
 7671SOL     OW23911   4.818   0.682   1.079
 7671SOL    HW123912   4.767   0.673   1.165
 7671SOL    HW223913   4.910   0.717   1.098
 7672SOL     OW23914   5.412   5.133   3.184
 7672SOL    HW123915   5.405   5.108   3.281
 7672SOL    HW223916   5.487   5.198   3.173
 7673SOL     OW23917   0.665   5.662   3.718
 7673SOL    HW123918   0.681   5.755   3.685
 7673SOL    HW223919   0.569   5.638   3.707
 7674SOL     OW23920   4.221   6.408   4.403
 7674SOL    HW123921   4.224   6.505   4.428
 7674SOL    HW223922   4.281   6.356   4.465
 7675SOL     OW23923   3.726   6.967   2.446
 7675SOL    HW123924   3.701   6.984   2.351
 7675SOL    HW223925   3.817   7.006   2.464
 7676SOL     OW23926   2.989   3.047   5.803
 7676SOL    HW123927   2.982   3.132   5.855
 7676SOL    HW223928   3.027   2.975   5.861
 7677SOL     OW23929   5.797   4.725   1.654
 7677SOL    HW123930   5.746   4.810   1.639
 7677SOL    HW223931   5.733   4.652   1.678
 7678SOL     OW23932   1.208   1.385   5.605
 7678SOL    HW123933   1.210   1.450   5.680
 7678SOL    HW223934   1.114   1.355   5.588
 7679SOL     OW23935   1.653   5.291   5.434
 7679SOL    HW123936   1.690   5.204   5.468
 7679SOL    HW223937   1.673   5.299   5.337
 7680SOL     OW23938   1.830   0.733   5.356
 7680SOL    HW123939   1.907   0.684   5.316
 7680SOL    HW223940   1.785   0.787   5.285
 7681SOL     OW23941   2.778   3.256   6.557
 7681SOL    HW123942   2.774   3.354   6.575
 7681SOL    HW223943   2.855   3.237   6.497
 7682SOL     OW23944   3.193   1.643   2.919
 7682SOL    HW123945   3.128   1.569   2.940
 7682SOL    HW223946   3.202   1.702   3.000
 7683SOL     OW23947   0.997   1.158   4.593
 7683SOL    HW123948   1.079   1.153   4.535
 7683SOL    HW223949   1.014   1.220   4.669
 7684SOL     OW23950   3.842   2.292   1.435
 7684SOL    HW123951   3.791   2.232   1.497
 7684SOL    HW223952   3.939   2.271   1.441
 7685SOL     OW23953   2.924   0.990   0.169
 7685SOL    HW123954   2.842   0.990   0.111
 7685SOL    HW223955   2.898   1.018   0.262
 7686SOL     OW23956   5.629   0.754   4.300
 7686SOL    HW123957   5.622   0.833   4.239
 7686SOL    HW223958   5.654   0.673   4.247
 7687SOL     OW23959   5.388   5.261   4.787
 7687SOL    HW123960   5.445   5.200   4.732
 7687SOL    HW223961   5.422   5.262   4.881
 7688SOL     OW23962   0.617   4.934   6.404
 7688SOL    HW123963   0.639   4.968   6.496
 7688SOL    HW223964   0.701   4.905   6.358
 7689SOL     OW23965   4.863   0.433   1.618
 7689SOL    HW123966   4.816   0.480   1.693
 7689SOL    HW223967   4.860   0.334   1.633
 7690SOL     OW23968   6.462   5.689   0.933
 7690SOL    HW123969   6.519   5.609   0.919
 7690SOL    HW223970   6.437   5.697   1.030
 7691SOL     OW23971   4.549   4.767   3.169
 7691SOL    HW123972   4.640   4.772   3.128
 7691SOL    HW223973   4.483   4.733   3.102
 7692SOL     OW23974   1.836   6.648   2.508
 7692SOL    HW123975   1.897   6.600   2.571
 7692SOL    HW223976   1.755   6.592   2.492
 7693SOL     OW23977   2.646   2.023   1.248
 7693SOL    HW123978   2.743   2.030   1.225
 7693SOL    HW223979   2.635   2.022   1.348
 7694SOL     OW23980   6.038   1.843   4.922
 7694SOL    HW123981   5.964   1.910   4.929
 7694SOL    HW223982   6.001   1.751   4.929
 7695SOL     OW23983   5.963   0.439   2.641
 7695SOL    HW123984   5.986   0.473   2.550
 7695SOL    HW223985   6.041   0.452   2.702
 7696SOL     OW23986   0.343   2.887   6.440
 7696SOL    HW123987   0.262   2.913   6.492
 7696SOL    HW223988   0.384   2.805   6.480
 7697SOL     OW23989   4.370   0.093   2.832
 7697SOL    HW123990   4.284   0.043   2.817
 7697SOL    HW223991   4.439   0.060   2.768
 7698SOL     OW23992   5.968   1.641   6.828
 7698SOL    HW123993   5.987   1.589   6.744
 7698SOL    HW223994   5.948   1.577   6.902
 7699SOL     OW23995   3.404   5.308   5.460
 7699SOL    HW123996   3.457   5.339   5.540
 7699SOL    HW223997   3.324   5.367   5.449
 7700SOL     OW23998   5.163   4.953   2.432
 7700SOL    HW123999   5.209   4.885   2.376
 7700SOL    HW224000   5.064   4.941   2.425
 7701SOL     OW24001   0.086   2.642   6.145
 7701SOL    HW124002   0.040   2.620   6.231
 7701SOL    HW224003   0.126   2.734   6.151
 7702SOL     OW24004   4.739   0.198   4.875
 7702SOL    HW124005   4.742   0.236   4.967
 7702SOL    HW224006   4.774   0.105   4.876
 7703SOL     OW24007   6.563   6.405   4.740
 7703SOL    HW124008   6.555   6.456   4.826
 7703SOL    HW224009   6.563   6.469   4.663
 7704SOL     OW24010   6.418   1.401   4.284
 7704SOL    HW124011   6.417   1.501   4.282
 7704SOL    HW224012   6.325   1.367   4.278
 7705SOL     OW24013   2.448   5.349   0.477
 7705SOL    HW124014   2.364   5.392   0.446
 7705SOL    HW224015   2.442   5.331   0.575
 7706SOL     OW24016   3.659   3.114   2.315
 7706SOL    HW124017   3.709   3.199   2.298
 7706SOL    HW224018   3.607   3.123   2.400
 7707SOL     OW24019   6.771   5.483   6.824
 7707SOL    HW124020   6.805   5.574   6.846
 7707SOL    HW224021   6.841   5.415   6.845
 7708SOL     OW24022   2.393   6.931   4.811
 7708SOL    HW124023   2.315   6.984   4.777
 7708SOL    HW224024   2.447   6.899   4.733
 7709SOL     OW24025   0.217   5.017   1.485
 7709SOL    HW124026   0.264   4.967   1.558
 7709SOL    HW224027   0.125   5.043   1.516
 7710SOL     OW24028   1.138   3.803   0.767
 7710SOL    HW124029   1.165   3.716   0.809
 7710SOL    HW224030   1.217   3.847   0.727
 7711SOL     OW24031   0.005   5.081   5.225
 7711SOL    HW124032   0.049   5.067   5.136
 7711SOL    HW224033   0.012   4.998   5.280
 7712SOL     OW24034   6.464   4.725   5.848
 7712SOL    HW124035   6.548   4.679   5.822
 7712SOL    HW224036   6.400   4.660   5.889
 7713SOL     OW24037   2.219   5.052   0.375
 7713SOL    HW124038   2.220   4.957   0.344
 7713SOL    HW224039   2.125   5.082   0.388
 7714SOL     OW24040   6.772   0.832   4.686
 7714SOL    HW124041   6.706   0.849   4.613
 7714SOL    HW224042   6.748   0.748   4.735
 7715SOL     OW24043   2.552   2.807   5.736
 7715SOL    HW124044   2.652   2.817   5.730
 7715SOL    HW224045   2.527   2.765   5.823
 7716SOL     OW24046   1.290   5.648   5.528
 7716SOL    HW124047   1.272   5.741   5.498
 7716SOL    HW224048   1.252   5.583   5.462
 7717SOL     OW24049   1.592   1.828   6.835
 7717SOL    HW124050   1.622   1.792   6.923
 7717SOL    HW224051   1.512   1.886   6.848
 7718SOL     OW24052   1.358   4.222   2.452
 7718SOL    HW124053   1.267   4.212   2.494
 7718SOL    HW224054   1.385   4.318   2.454
 7719SOL     OW24055   1.325   3.857   5.022
 7719SOL    HW124056   1.282   3.874   4.933
 7719SOL    HW224057   1.423   3.876   5.016
 7720SOL     OW24058   5.579   1.713   6.892
 7720SOL    HW124059   5.616   1.663   6.813
 7720SOL    HW224060   5.637   1.792   6.910
 7721SOL     OW24061   0.619   0.742   2.427
 7721SOL    HW124062   0.654   0.828   2.388
 7721SOL    HW224063   0.562   0.696   2.359
 7722SOL     OW24064   2.391   5.776   3.392
 7722SOL    HW124065   2.418   5.871   3.376
 7722SOL    HW224066   2.292   5.768   3.386
 7723SOL     OW24067   5.062   4.268   0.296
 7723SOL    HW124068   5.059   4.307   0.388
 7723SOL    HW224069   5.108   4.180   0.298
 7724SOL     OW24070   2.215   4.282   1.751
 7724SOL    HW124071   2.180   4.192   1.777
 7724SOL    HW224072   2.184   4.351   1.817
 7725SOL     OW24073   5.759   3.053   3.588
 7725SOL    HW124074   5.676   3.100   3.617
 7725SOL    HW224075   5.740   3.000   3.506
 7726SOL     OW24076   0.173   2.939   6.145
 7726SOL    HW124077   0.212   2.955   6.235
 7726SOL    HW224078   0.109   3.013   6.123
 7727SOL     OW24079   5.382   2.285   2.320
 7727SOL    HW124080   5.381   2.376   2.279
 7727SOL    HW224081   5.455   2.281   2.389
 7728SOL     OW24082   2.098   3.389   4.686
 7728SOL    HW124083   2.005   3.415   4.660
 7728SOL    HW224084   2.111   3.404   4.784
 7729SOL     OW24085   6.249   1.935   3.876
 7729SOL    HW124086   6.156   1.970   3.889
 7729SOL    HW224087   6.272   1.936   3.779
 7730SOL     OW24088   6.517   4.026   5.103
 7730SOL    HW124089   6.437   4.079   5.129
 7730SOL    HW224090   6.562   3.991   5.185
 7731SOL     OW24091   6.020   0.138   0.321
 7731SOL    HW124092   5.922   0.157   0.328
 7731SOL    HW224093   6.034   0.063   0.257
 7732SOL     OW24094   4.513   0.011   6.598
 7732SOL    HW124095   4.448   0.068   6.548
 7732SOL    HW224096   4.605   0.025   6.560
 7733SOL     OW24097   6.743   5.909   2.546
 7733SOL    HW124098   6.790   5.832   2.589
 7733SOL    HW224099   6.803   5.951   2.477
 7734SOL     OW24100   3.381   3.900   5.227
 7734SOL    HW124101   3.481   3.896   5.231
 7734SOL    HW224102   3.351   3.906   5.132
 7735SOL     OW24103   0.196   6.003   0.812
 7735SOL    HW124104   0.143   6.069   0.758
 7735SOL    HW224105   0.243   6.051   0.886
 7736SOL     OW24106   3.118   3.334   0.646
 7736SOL    HW124107   3.083   3.426   0.663
 7736SOL    HW224108   3.145   3.326   0.550
 7737SOL     OW24109   3.912   4.605   1.540
 7737SOL    HW124110   3.840   4.644   1.598
 7737SOL    HW224111   3.904   4.505   1.539
 7738SOL     OW24112   2.689   6.385   6.763
 7738SOL    HW124113   2.682   6.476   6.722
 7738SOL    HW224114   2.783   6.352   6.755
 7739SOL     OW24115   1.334   2.165   0.551
 7739SOL    HW124116   1.313   2.079   0.598
 7739SOL    HW224117   1.398   2.148   0.477
 7740SOL     OW24118   1.707   0.942   4.601
 7740SOL    HW124119   1.684   1.034   4.632
 7740SOL    HW224120   1.652   0.919   4.520
 7741SOL     OW24121   1.622   4.128   6.369
 7741SOL    HW124122   1.589   4.043   6.329
 7741SOL    HW224123   1.702   4.161   6.319
 7742SOL     OW24124   4.147   1.614   3.934
 7742SOL    HW124125   4.074   1.565   3.981
 7742SOL    HW224126   4.106   1.678   3.868
 7743SOL     OW24127   4.887   1.409   5.820
 7743SOL    HW124128   4.842   1.404   5.731
 7743SOL    HW224129   4.897   1.505   5.847
 7744SOL     OW24130   0.232   6.140   3.782
 7744SOL    HW124131   0.274   6.068   3.728
 7744SOL    HW224132   0.292   6.165   3.858
 7745SOL     OW24133   1.997   6.844   0.719
 7745SOL    HW124134   1.998   6.835   0.620
 7745SOL    HW224135   2.080   6.890   0.750
 7746SOL     OW24136   1.100   6.161   1.074
 7746SOL    HW124137   1.182   6.201   1.034
 7746SOL    HW224138   1.024   6.226   1.069
 7747SOL     OW24139   1.022   6.368   0.701
 7747SOL    HW124140   0.926   6.371   0.728
 7747SOL    HW224141   1.074   6.319   0.771
 7748SOL     OW24142   4.144   2.793   5.642
 7748SOL    HW124143   4.175   2.888   5.638
 7748SOL    HW224144   4.148   2.753   5.551
 7749SOL     OW24145   3.506   3.594   4.429
 7749SOL    HW124146   3.419   3.566   4.469
 7749SOL    HW224147   3.570   3.516   4.431
 7750SOL     OW24148   5.664   4.533   5.496
 7750SOL    HW124149   5.604   4.496   5.425
 7750SOL    HW224150   5.654   4.480   5.580
 7751SOL     OW24151   6.970   1.040   5.174
 7751SOL    HW124152   6.973   1.109   5.102
 7751SOL    HW224153   6.903   0.969   5.150
 7752SOL     OW24154   5.893   5.554   5.193
 7752SOL    HW124155   5.794   5.556   5.182
 7752SOL    HW224156   5.937   5.611   5.123
 7753SOL     OW24157   1.893   0.535   4.446
 7753SOL    HW124158   1.901   0.521   4.544
 7753SOL    HW224159   1.796   0.533   4.420
 7754SOL     OW24160   5.865   0.243   1.047
 7754SOL    HW124161   5.946   0.190   1.069
 7754SOL    HW224162   5.796   0.184   1.005
 7755SOL     OW24163   0.384   5.759   5.652
 7755SOL    HW124164   0.381   5.779   5.750
 7755SOL    HW224165   0.454   5.815   5.609
 7756SOL     OW24166   3.395   5.329   2.171
 7756SOL    HW124167   3.349   5.251   2.214
 7756SOL    HW224168   3.451   5.376   2.240
 7757SOL     OW24169   4.771   6.434   5.633
 7757SOL    HW124170   4.833   6.506   5.602
 7757SOL    HW224171   4.722   6.465   5.714
 7758SOL     OW24172   2.480   2.264   5.907
 7758SOL    HW124173   2.566   2.213   5.902
 7758SOL    HW224174   2.464   2.295   6.000
 7759SOL     OW24175   2.138   0.605   4.394
 7759SOL    HW124176   2.048   0.573   4.424
 7759SOL    HW224177   2.207   0.576   4.460
 7760SOL     OW24178   5.121   3.169   2.397
 7760SOL    HW124179   5.041   3.114   2.375
 7760SOL    HW224180   5.182   3.118   2.457
 7761SOL     OW24181   3.091   6.997   6.960
 7761SOL    HW124182   3.022   6.971   0.004
 7761SOL    HW224183   3.061   6.972   6.868
 7762SOL     OW24184   4.057   1.794   6.966
 7762SOL    HW124185   3.993   1.833   6.900
 7762SOL    HW224186   4.112   1.723   6.923
 7763SOL     OW24187   2.165   1.987   0.640
 7763SOL    HW124188   2.137   2.030   0.726
 7763SOL    HW224189   2.231   2.047   0.593
 7764SOL     OW24190   3.574   2.867   2.231
 7764SOL    HW124191   3.589   2.965   2.243
 7764SOL    HW224192   3.660   2.825   2.200
 7765SOL     OW24193   6.596   2.611   2.880
 7765SOL    HW124194   6.664   2.618   2.952
 7765SOL    HW224195   6.611   2.684   2.812
 7766SOL     OW24196   5.858   1.869   6.884
 7766SOL    HW124197   5.849   1.870   6.983
 7766SOL    HW224198   5.920   1.796   6.857
 7767SOL     OW24199   4.363   6.028   3.999
 7767SOL    HW124200   4.367   5.994   4.093
 7767SOL    HW224201   4.283   6.087   3.988
 7768SOL     OW24202   4.004   4.898   2.253
 7768SOL    HW124203   3.921   4.846   2.271
 7768SOL    HW224204   3.982   4.996   2.250
 7769SOL     OW24205   5.129   2.361   0.855
 7769SOL    HW124206   5.095   2.270   0.878
 7769SOL    HW224207   5.052   2.424   0.846
 7770SOL     OW24208   3.153   4.986   1.650
 7770SOL    HW124209   3.067   4.965   1.696
 7770SOL    HW224210   3.213   4.906   1.655
 7771SOL     OW24211   3.092   2.197   5.727
 7771SOL    HW124212   3.018   2.158   5.673
 7771SOL    HW224213   3.146   2.123   5.768
 7772SOL     OW24214   4.683   0.591   4.024
 7772SOL    HW124215   4.635   0.676   4.044
 7772SOL    HW224216   4.684   0.575   3.925
 7773SOL     OW24217   4.385   3.805   5.718
 7773SOL    HW124218   4.475   3.842   5.697
 7773SOL    HW224219   4.393   3.707   5.740
 7774SOL     OW24220   5.329   1.674   5.950
 7774SOL    HW124221   5.277   1.602   5.996
 7774SOL    HW224222   5.379   1.728   6.018
 7775SOL     OW24223   3.347   6.799   2.040
 7775SOL    HW124224   3.294   6.855   1.977
 7775SOL    HW224225   3.445   6.811   2.022
 7776SOL     OW24226   3.534   3.543   6.233
 7776SOL    HW124227   3.522   3.455   6.280
 7776SOL    HW224228   3.514   3.617   6.298
 7777SOL     OW24229   2.750   0.517   6.864
 7777SOL    HW124230   2.763   0.612   6.836
 7777SOL    HW224231   2.786   0.456   6.794
 7778SOL     OW24232   5.287   0.347   6.844
 7778SOL    HW124233   5.349   0.377   6.917
 7778SOL    HW224234   5.315   0.387   6.757
 7779SOL     OW24235   3.605   2.696   0.587
 7779SOL    HW124236   3.542   2.766   0.621
 7779SOL    HW224237   3.553   2.614   0.563
 7780SOL     OW24238   1.579   6.198   4.780
 7780SOL    HW124239   1.551   6.270   4.843
 7780SOL    HW224240   1.581   6.234   4.687
 7781SOL     OW24241   1.427   3.775   5.257
 7781SOL    HW124242   1.517   3.749   5.222
 7781SOL    HW224243   1.370   3.808   5.182
 7782SOL     OW24244   2.519   4.383   6.093
 7782SOL    HW124245   2.485   4.324   6.166
 7782SOL    HW224246   2.607   4.422   6.119
 7783SOL     OW24247   2.436   5.799   0.116
 7783SOL    HW124248   2.509   5.732   0.105
 7783SOL    HW224249   2.416   5.843   0.029
 7784SOL     OW24250   0.806   3.026   6.890
 7784SOL    HW124251   0.806   2.984   6.980
 7784SOL    HW224252   0.736   3.096   6.885
 7785SOL     OW24253   2.450   6.481   4.412
 7785SOL    HW124254   2.464   6.461   4.315
 7785SOL    HW224255   2.352   6.490   4.430
 7786SOL     OW24256   3.090   4.705   5.252
 7786SOL    HW124257   3.066   4.798   5.279
 7786SOL    HW224258   3.009   4.647   5.257
 7787SOL     OW24259   2.307   2.911   5.347
 7787SOL    HW124260   2.226   2.969   5.359
 7787SOL    HW224261   2.375   2.960   5.294
 7788SOL     OW24262   0.714   1.630   1.393
 7788SOL    HW124263   0.773   1.549   1.382
 7788SOL    HW224264   0.756   1.693   1.458
 7789SOL     OW24265   2.705   0.806   1.165
 7789SOL    HW124266   2.650   0.875   1.211
 7789SOL    HW224267   2.681   0.803   1.068
 7790SOL     OW24268   5.806   3.220   2.917
 7790SOL    HW124269   5.890   3.165   2.915
 7790SOL    HW224270   5.777   3.241   2.824
 7791SOL     OW24271   2.467   4.987   4.456
 7791SOL    HW124272   2.565   4.967   4.451
 7791SOL    HW224273   2.430   4.951   4.542
 7792SOL     OW24274   2.752   5.849   6.161
 7792SOL    HW124275   2.665   5.844   6.211
 7792SOL    HW224276   2.785   5.756   6.144
 7793SOL     OW24277   1.216   0.943   6.135
 7793SOL    HW124278   1.118   0.931   6.125
 7793SOL    HW224279   1.245   0.910   6.225
 7794SOL     OW24280   5.259   5.589   4.435
 7794SOL    HW124281   5.239   5.550   4.345
 7794SOL    HW224282   5.284   5.515   4.498
 7795SOL     OW24283   2.137   4.040   5.768
 7795SOL    HW124284   2.154   4.118   5.829
 7795SOL    HW224285   2.153   4.069   5.674
 7796SOL     OW24286   3.736   4.119   3.288
 7796SOL    HW124287   3.646   4.089   3.317
 7796SOL    HW224288   3.760   4.204   3.336
 7797SOL     OW24289   0.094   6.737   3.039
 7797SOL    HW124290   0.015   6.678   3.053
 7797SOL    HW224291   0.072   6.829   3.071
 7798SOL     OW24292   3.301   5.834   0.957
 7798SOL    HW124293   3.293   5.908   0.890
 7798SOL    HW224294   3.344   5.869   1.040
 7799SOL     OW24295   0.206   5.333   0.957
 7799SOL    HW124296   0.158   5.319   0.871
 7799SOL    HW224297   0.199   5.251   1.014
 7800SOL     OW24298   0.363   5.201   1.846
 7800SOL    HW124299   0.405   5.208   1.756
 7800SOL    HW224300   0.379   5.110   1.884
 7801SOL     OW24301   2.358   1.788   7.015
 7801SOL    HW124302   2.284   1.737   6.970
 7801SOL    HW224303   2.390   1.861   6.955
 7802SOL     OW24304   5.203   2.449   1.732
 7802SOL    HW124305   5.180   2.432   1.828
 7802SOL    HW224306   5.275   2.519   1.727
 7803SOL     OW24307   4.122   4.295   5.882
 7803SOL    HW124308   4.111   4.196   5.886
 7803SOL    HW224309   4.117   4.332   5.975
 7804SOL     OW24310   5.311   1.879   5.493
 7804SOL    HW124311   5.220   1.838   5.484
 7804SOL    HW224312   5.349   1.898   5.402
 7805SOL     OW24313   5.192   2.455   2.010
 7805SOL    HW124314   5.195   2.356   2.002
 7805SOL    HW224315   5.275   2.488   2.055
 7806SOL     OW24316   5.610   2.964   6.061
 7806SOL    HW124317   5.675   3.010   6.123
 7806SOL    HW224318   5.633   2.867   6.056
 7807SOL     OW24319   6.942   3.740   6.080
 7807SOL    HW124320   6.999   3.820   6.064
 7807SOL    HW224321   6.881   3.756   6.157
 7808SOL     OW24322   0.851   0.944   4.526
 7808SOL    HW124323   0.876   1.041   4.537
 7808SOL    HW224324   0.838   0.925   4.428
 7809SOL     OW24325   2.343   5.316   4.749
 7809SOL    HW124326   2.390   5.404   4.740
 7809SOL    HW224327   2.410   5.245   4.773
 7810SOL     OW24328   2.888   0.793   5.197
 7810SOL    HW124329   2.932   0.761   5.280
 7810SOL    HW224330   2.796   0.825   5.218
 7811SOL     OW24331   5.220   4.739   3.385
 7811SOL    HW124332   5.176   4.787   3.461
 7811SOL    HW224333   5.248   4.648   3.415
 7812SOL     OW24334   2.111   1.388   4.310
 7812SOL    HW124335   2.204   1.426   4.312
 7812SOL    HW224336   2.108   1.313   4.244
 7813SOL     OW24337   6.416   2.771   6.641
 7813SOL    HW124338   6.333   2.742   6.593
 7813SOL    HW224339   6.423   2.721   6.728
 7814SOL     OW24340   6.851   3.144   3.552
 7814SOL    HW124341   6.860   3.218   3.619
 7814SOL    HW224342   6.941   3.104   3.536
 7815SOL     OW24343   6.265   1.448   6.316
 7815SOL    HW124344   6.303   1.448   6.409
 7815SOL    HW224345   6.293   1.531   6.268
 7816SOL     OW24346   0.585   3.668   5.808
 7816SOL    HW124347   0.632   3.756   5.818
 7816SOL    HW224348   0.510   3.663   5.874
 7817SOL     OW24349   5.416   4.229   4.398
 7817SOL    HW124350   5.479   4.185   4.462
 7817SOL    HW224351   5.391   4.320   4.432
 7818SOL     OW24352   6.094   6.382   1.884
 7818SOL    HW124353   6.019   6.437   1.920
 7818SOL    HW224354   6.107   6.403   1.787
 7819SOL     OW24355   6.929   2.524   1.391
 7819SOL    HW124356   6.911   2.469   1.472
 7819SOL    HW224357   7.021   2.504   1.357
 7820SOL     OW24358   1.655   1.652   6.422
 7820SOL    HW124359   1.660   1.751   6.408
 7820SOL    HW224360   1.639   1.607   6.335
 7821SOL     OW24361   3.624   5.412   1.099
 7821SOL    HW124362   3.570   5.405   1.183
 7821SOL    HW224363   3.566   5.390   1.021
 7822SOL     OW24364   1.094   5.671   5.186
 7822SOL    HW124365   1.179   5.716   5.158
 7822SOL    HW224366   1.016   5.723   5.152
 7823SOL     OW24367   2.059   4.103   5.097
 7823SOL    HW124368   2.152   4.082   5.068
 7823SOL    HW224369   2.061   4.170   5.171
 7824SOL     OW24370   0.583   2.821   5.504
 7824SOL    HW124371   0.581   2.921   5.507
 7824SOL    HW224372   0.646   2.787   5.573
 7825SOL     OW24373   2.613   1.736   6.617
 7825SOL    HW124374   2.622   1.834   6.632
 7825SOL    HW224375   2.528   1.703   6.658
 7826SOL     OW24376   6.933   2.431   6.744
 7826SOL    HW124377   7.022   2.443   6.702
 7826SOL    HW224378   6.887   2.351   6.705
 7827SOL     OW24379   6.868   6.177   3.271
 7827SOL    HW124380   6.924   6.178   3.188
 7827SOL    HW224381   6.865   6.269   3.310
 7828SOL     OW24382   0.138   4.108   6.535
 7828SOL    HW124383   0.168   4.093   6.630
 7828SOL    HW224384   0.207   4.071   6.473
 7829SOL     OW24385   3.184   2.631   1.397
 7829SOL    HW124386   3.277   2.609   1.367
 7829SOL    HW224387   3.118   2.596   1.331
 7830SOL     OW24388   2.722   4.894   4.432
 7830SOL    HW124389   2.775   4.950   4.368
 7830SOL    HW224390   2.694   4.809   4.387
 7831SOL     OW24391   2.075   2.113   0.883
 7831SOL    HW124392   2.087   2.113   0.982
 7831SOL    HW224393   1.989   2.158   0.860
 7832SOL     OW24394   5.584   0.341   4.871
 7832SOL    HW124395   5.488   0.369   4.880
 7832SOL    HW224396   5.588   0.244   4.847
 7833SOL     OW24397   2.111   0.598   4.123
 7833SOL    HW124398   2.201   0.556   4.109
 7833SOL    HW224399   2.098   0.618   4.220
 7834SOL     OW24400   6.198   2.688   4.899
 7834SOL    HW124401   6.162   2.663   4.989
 7834SOL    HW224402   6.291   2.724   4.908
 7835SOL     OW24403   4.466   1.931   5.112
 7835SOL    HW124404   4.438   2.021   5.078
 7835SOL    HW224405   4.456   1.864   5.039
 7836SOL     OW24406   3.777   4.247   5.233
 7836SOL    HW124407   3.777   4.211   5.140
 7836SOL    HW224408   3.686   4.235   5.273
 7837SOL     OW24409   5.988   6.412   6.564
 7837SOL    HW124410   5.974   6.352   6.642
 7837SOL    HW224411   6.070   6.467   6.578
 7838SOL     OW24412   5.305   5.442   0.925
 7838SOL    HW124413   5.376   5.465   0.858
 7838SOL    HW224414   5.332   5.475   1.015
 7839SOL     OW24415   5.884   3.975   4.564
 7839SOL    HW124416   5.913   3.907   4.497
 7839SOL    HW224417   5.905   3.943   4.656
 7840SOL     OW24418   2.035   3.419   3.358
 7840SOL    HW124419   2.083   3.331   3.359
 7840SOL    HW224420   2.019   3.448   3.263
 7841SOL     OW24421   4.911   2.281   5.877
 7841SOL    HW124422   4.898   2.293   5.975
 7841SOL    HW224423   4.835   2.323   5.827
 7842SOL     OW24424   2.023   1.376   2.412
 7842SOL    HW124425   2.083   1.309   2.457
 7842SOL    HW224426   1.928   1.356   2.436
 7843SOL     OW24427   0.248   6.637   3.228
 7843SOL    HW124428   0.319   6.704   3.250
 7843SOL    HW224429   0.187   6.675   3.159
 7844SOL     OW24430   3.683   0.640   2.464
 7844SOL    HW124431   3.616   0.713   2.477
 7844SOL    HW224432   3.776   0.678   2.466
 7845SOL     OW24433   5.976   2.054   1.743
 7845SOL    HW124434   6.069   2.025   1.762
 7845SOL    HW224435   5.922   2.050   1.827
 7846SOL     OW24436   0.773   2.660   0.137
 7846SOL    HW124437   0.835   2.656   0.215
 7846SOL    HW224438   0.752   2.567   0.106
 7847SOL     OW24439   5.368   2.585   4.329
 7847SOL    HW124440   5.323   2.576   4.240
 7847SOL    HW224441   5.372   2.495   4.373
 7848SOL     OW24442   2.803   4.987   0.797
 7848SOL    HW124443   2.742   4.912   0.773
 7848SOL    HW224444   2.812   4.993   0.896
 7849SOL     OW24445   4.641   3.925   5.956
 7849SOL    HW124446   4.708   3.998   5.970
 7849SOL    HW224447   4.609   3.890   6.045
 7850SOL     OW24448   6.658   1.600   3.384
 7850SOL    HW124449   6.704   1.629   3.300
 7850SOL    HW224450   6.584   1.537   3.363
 7851SOL     OW24451   0.848   4.441   1.964
 7851SOL    HW124452   0.802   4.353   1.960
 7851SOL    HW224453   0.902   4.447   2.048
 7852SOL     OW24454   2.044   2.202   0.378
 7852SOL    HW124455   2.041   2.174   0.282
 7852SOL    HW224456   2.131   2.174   0.419
 7853SOL     OW24457   3.971   2.857   1.559
 7853SOL    HW124458   3.915   2.893   1.633
 7853SOL    HW224459   4.068   2.869   1.581
 7854SOL     OW24460   5.002   2.039   5.773
 7854SOL    HW124461   4.961   2.126   5.802
 7854SOL    HW224462   5.095   2.056   5.739
 7855SOL     OW24463   5.358   6.912   4.416
 7855SOL    HW124464   5.423   6.849   4.375
 7855SOL    HW224465   5.388   7.006   4.401
 7856SOL     OW24466   1.832   5.958   4.805
 7856SOL    HW124467   1.864   5.889   4.740
 7856SOL    HW224468   1.775   6.025   4.758
 7857SOL     OW24469   5.249   4.091   0.334
 7857SOL    HW124470   5.321   4.083   0.265
 7857SOL    HW224471   5.236   4.003   0.378
 7858SOL     OW24472   0.878   5.386   5.958
 7858SOL    HW124473   0.867   5.365   5.861
 7858SOL    HW224474   0.867   5.485   5.972
 7859SOL     OW24475   5.061   2.566   6.786
 7859SOL    HW124476   5.033   2.471   6.774
 7859SOL    HW224477   4.980   2.624   6.796
 7860SOL     OW24478   2.761   0.970   4.610
 7860SOL    HW124479   2.681   0.976   4.669
 7860SOL    HW224480   2.751   1.034   4.534
 7861SOL     OW24481   2.607   6.645   1.124
 7861SOL    HW124482   2.634   6.549   1.125
 7861SOL    HW224483   2.630   6.688   1.212
 7862SOL     OW24484   2.805   6.428   0.859
 7862SOL    HW124485   2.711   6.395   0.847
 7862SOL    HW224486   2.865   6.349   0.877
 7863SOL     OW24487   6.771   3.952   3.854
 7863SOL    HW124488   6.757   3.856   3.830
 7863SOL    HW224489   6.856   3.985   3.812
 7864SOL     OW24490   2.625   6.459   5.389
 7864SOL    HW124491   2.685   6.538   5.382
 7864SOL    HW224492   2.678   6.375   5.376
 7865SOL     OW24493   6.327   5.795   3.833
 7865SOL    HW124494   6.410   5.772   3.782
 7865SOL    HW224495   6.296   5.886   3.807
 7866SOL     OW24496   1.094   0.584   6.256
 7866SOL    HW124497   1.191   0.583   6.281
 7866SOL    HW224498   1.079   0.523   6.178
 7867SOL     OW24499   5.641   7.009   3.674
 7867SOL    HW124500   5.697   0.069   3.667
 7867SOL    HW224501   5.701   6.928   3.669
 7868SOL     OW24502   3.655   6.483   1.151
 7868SOL    HW124503   3.639   6.497   1.249
 7868SOL    HW224504   3.711   6.558   1.116
 7869SOL     OW24505   5.004   3.920   6.000
 7869SOL    HW124506   4.975   3.843   5.943
 7869SOL    HW224507   5.064   3.888   6.072
 7870SOL     OW24508   5.002   5.886   5.206
 7870SOL    HW124509   5.051   5.967   5.236
 7870SOL    HW224510   4.961   5.840   5.285
 7871SOL     OW24511   5.169   1.711   1.564
 7871SOL    HW124512   5.094   1.658   1.602
 7871SOL    HW224513   5.222   1.752   1.638
 7872SOL     OW24514   1.935   6.497   2.724
 7872SOL    HW124515   1.864   6.500   2.795
 7872SOL    HW224516   2.007   6.562   2.747
 7873SOL     OW24517   6.424   1.193   0.329
 7873SOL    HW124518   6.388   1.176   0.237
 7873SOL    HW224519   6.372   1.265   0.373
 7874SOL     OW24520   5.409   2.664   0.850
 7874SOL    HW124521   5.410   2.569   0.882
 7874SOL    HW224522   5.458   2.722   0.915
 7875SOL     OW24523   4.467   4.179   6.179
 7875SOL    HW124524   4.434   4.084   6.182
 7875SOL    HW224525   4.431   4.225   6.098
 7876SOL     OW24526   0.563   0.297   2.336
 7876SOL    HW124527   0.633   0.316   2.404
 7876SOL    HW224528   0.605   0.250   2.258
 7877SOL     OW24529   6.659   1.608   3.090
 7877SOL    HW124530   6.752   1.631   3.060
 7877SOL    HW224531   6.617   1.547   3.023
 7878SOL     OW24532   4.606   4.778   3.434
 7878SOL    HW124533   4.582   4.745   3.343
 7878SOL    HW224534   4.576   4.873   3.445
 7879SOL     OW24535   2.400   4.496   3.139
 7879SOL    HW124536   2.353   4.551   3.207
 7879SOL    HW224537   2.373   4.400   3.149
 7880SOL     OW24538   1.431   4.122   1.831
 7880SOL    HW124539   1.359   4.138   1.764
 7880SOL    HW224540   1.483   4.206   1.846
 7881SOL     OW24541   4.954   3.851   3.904
 7881SOL    HW124542   4.882   3.896   3.957
 7881SOL    HW224543   4.971   3.760   3.942
 7882SOL     OW24544   1.900   3.318   1.703
 7882SOL    HW124545   1.951   3.396   1.739
 7882SOL    HW224546   1.945   3.233   1.732
 7883SOL     OW24547   0.911   1.078   5.239
 7883SOL    HW124548   0.938   0.982   5.239
 7883SOL    HW224549   0.961   1.127   5.168
 7884SOL     OW24550   0.420   2.931   4.781
 7884SOL    HW124551   0.335   2.981   4.761
 7884SOL    HW224552   0.448   2.880   4.699
 7885SOL     OW24553   5.909   5.700   0.077
 7885SOL    HW124554   5.885   5.709   7.003
 7885SOL    HW224555   5.976   5.627   0.088
 7886SOL     OW24556   4.588   5.571   0.194
 7886SOL    HW124557   4.583   5.515   0.112
 7886SOL    HW224558   4.645   5.652   0.176
 7887SOL     OW24559   4.849   2.199   0.055
 7887SOL    HW124560   4.750   2.191   0.066
 7887SOL    HW224561   4.884   2.268   0.118
 7888SOL     OW24562   4.545   0.834   4.047
 7888SOL    HW124563   4.490   0.808   3.968
 7888SOL    HW224564   4.485   0.873   4.118
 7889SOL     OW24565   6.993   6.512   2.369
 7889SOL    HW124566   7.004   6.521   2.270
 7889SOL    HW224567   0.045   6.457   2.406
 7890SOL     OW24568   1.741   3.755   2.264
 7890SOL    HW124569   1.799   3.697   2.320
 7890SOL    HW224570   1.722   3.711   2.177
 7891SOL     OW24571   2.261   4.680   2.231
 7891SOL    HW124572   2.335   4.621   2.262
 7891SOL    HW224573   2.273   4.701   2.134
 7892SOL     OW24574   2.162   2.385   5.921
 7892SOL    HW124575   2.164   2.371   6.020
 7892SOL    HW224576   2.178   2.298   5.875
 7893SOL     OW24577   6.232   6.479   1.040
 7893SOL    HW124578   6.246   6.547   1.112
 7893SOL    HW224579   6.296   6.404   1.053
 7894SOL     OW24580   2.663   6.754   1.956
 7894SOL    HW124581   2.565   6.734   1.951
 7894SOL    HW224582   2.708   6.725   1.871
 7895SOL     OW24583   6.779   1.204   4.714
 7895SOL    HW124584   6.822   1.223   4.626
 7895SOL    HW224585   6.686   1.171   4.699
 7896SOL     OW24586   4.998   3.640   5.479
 7896SOL    HW124587   4.985   3.653   5.578
 7896SOL    HW224588   4.945   3.560   5.449
 7897SOL     OW24589   2.601   2.973   6.799
 7897SOL    HW124590   2.634   2.995   6.891
 7897SOL    HW224591   2.501   2.973   6.799
 7898SOL     OW24592   4.251   2.293   3.619
 7898SOL    HW124593   4.215   2.206   3.652
 7898SOL    HW224594   4.287   2.281   3.526
 7899SOL     OW24595   5.287   2.045   2.675
 7899SOL    HW124596   5.220   2.020   2.745
 7899SOL    HW224597   5.340   2.124   2.708
 7900SOL     OW24598   1.965   6.025   1.286
 7900SOL    HW124599   2.022   6.065   1.357
 7900SOL    HW224600   1.888   5.978   1.328
 7901SOL     OW24601   6.599   6.292   6.409
 7901SOL    HW124602   6.515   6.337   6.378
 7901SOL    HW224603   6.659   6.360   6.450
 7902SOL     OW24604   4.448   3.903   0.258
 7902SOL    HW124605   4.448   3.803   0.258
 7902SOL    HW224606   4.528   3.937   0.208
 7903SOL     OW24607   6.114   1.874   0.134
 7903SOL    HW124608   6.114   1.814   0.214
 7903SOL    HW224609   6.147   1.823   0.055
 7904SOL     OW24610   6.937   1.343   2.403
 7904SOL    HW124611   6.980   1.290   2.476
 7904SOL    HW224612   7.001   1.355   2.327
 7905SOL     OW24613   4.049   0.848   1.121
 7905SOL    HW124614   4.054   0.844   1.221
 7905SOL    HW224615   3.999   0.930   1.093
 7906SOL     OW24616   5.714   6.153   6.771
 7906SOL    HW124617   5.712   6.148   6.671
 7906SOL    HW224618   5.808   6.161   6.803
 7907SOL     OW24619   0.063   3.010   2.695
 7907SOL    HW124620   0.134   2.942   2.715
 7907SOL    HW224621   7.003   2.987   2.746
 7908SOL     OW24622   6.519   2.167   3.992
 7908SOL    HW124623   6.428   2.200   4.020
 7908SOL    HW224624   6.512   2.128   3.900
 7909SOL     OW24625   4.638   4.481   4.662
 7909SOL    HW124626   4.641   4.434   4.751
 7909SOL    HW224627   4.579   4.562   4.669
 7910SOL     OW24628   5.294   3.374   5.568
 7910SOL    HW124629   5.214   3.377   5.628
 7910SOL    HW224630   5.283   3.300   5.502
 7911SOL     OW24631   6.252   4.525   0.048
 7911SOL    HW124632   6.191   4.446   0.044
 7911SOL    HW224633   6.212   4.594   0.108
 7912SOL     OW24634   6.097   4.885   6.104
 7912SOL    HW124635   6.185   4.851   6.138
 7912SOL    HW224636   6.111   4.930   6.016
 7913SOL     OW24637   0.067   5.607   6.591
 7913SOL    HW124638   0.095   5.520   6.632
 7913SOL    HW224639   6.990   5.613   6.588
 7914SOL     OW24640   5.976   3.869   1.122
 7914SOL    HW124641   5.969   3.889   1.024
 7914SOL    HW224642   5.884   3.855   1.159
 7915SOL     OW24643   3.808   1.751   3.267
 7915SOL    HW124644   3.735   1.762   3.199
 7915SOL    HW224645   3.770   1.767   3.359
 7916SOL     OW24646   5.519   3.927   5.346
 7916SOL    HW124647   5.428   3.909   5.308
 7916SOL    HW224648   5.567   3.841   5.361
 7917SOL     OW24649   3.442   3.835   4.338
 7917SOL    HW124650   3.483   3.745   4.351
 7917SOL    HW224651   3.409   3.843   4.244
 7918SOL     OW24652   5.757   1.812   2.445
 7918SOL    HW124653   5.749   1.758   2.361
 7918SOL    HW224654   5.668   1.818   2.490
 7919SOL     OW24655   5.499   5.079   1.735
 7919SOL    HW124656   5.407   5.063   1.701
 7919SOL    HW224657   5.519   5.177   1.733
 7920SOL     OW24658   0.587   4.952   1.272
 7920SOL    HW124659   0.489   4.955   1.255
 7920SOL    HW224660   0.630   4.889   1.207
 7921SOL     OW24661   2.140   0.227   1.161
 7921SOL    HW124662   2.139   0.138   1.206
 7921SOL    HW224663   2.059   0.236   1.103
 7922SOL     OW24664   0.956   5.695   6.649
 7922SOL    HW124665   1.008   5.780   6.652
 7922SOL    HW224666   0.887   5.700   6.576
 7923SOL     OW24667   1.353   1.391   3.693
 7923SOL    HW124668   1.441   1.411   3.737
 7923SOL    HW224669   1.296   1.337   3.755
 7924SOL     OW24670   2.936   6.976   4.124
 7924SOL    HW124671   2.966   7.013   4.212
 7924SOL    HW224672   2.948   6.877   4.123
 7925SOL     OW24673   6.083   1.521   5.835
 7925SOL    HW124674   6.165   1.489   5.883
 7925SOL    HW224675   6.003   1.473   5.870
 7926SOL     OW24676   4.033   0.304   2.142
 7926SOL    HW124677   4.030   0.349   2.053
 7926SOL    HW224678   3.953   0.245   2.152
 7927SOL     OW24679   4.789   5.394   4.506
 7927SOL    HW124680   4.704   5.343   4.516
 7927SOL    HW224681   4.777   5.488   4.540
 7928SOL     OW24682   1.677   5.495   1.975
 7928SOL    HW124683   1.744   5.545   1.921
 7928SOL    HW224684   1.595   5.552   1.987
 7929SOL     OW24685   3.854   3.727   4.270
 7929SOL    HW124686   3.832   3.687   4.182
 7929SOL    HW224687   3.897   3.658   4.329
 7930SOL     OW24688   5.106   5.512   3.625
 7930SOL    HW124689   5.129   5.448   3.698
 7930SOL    HW224690   5.035   5.472   3.567
 7931SOL     OW24691   2.629   1.778   0.511
 7931SOL    HW124692   2.703   1.788   0.577
 7931SOL    HW224693   2.547   1.745   0.558
 7932SOL     OW24694   2.174   0.393   0.509
 7932SOL    HW124695   2.110   0.343   0.450
 7932SOL    HW224696   2.213   0.331   0.577
 7933SOL     OW24697   0.890   0.829   6.784
 7933SOL    HW124698   0.811   0.864   6.732
 7933SOL    HW224699   0.974   0.849   6.734
 7934SOL     OW24700   2.598   3.795   6.533
 7934SOL    HW124701   2.515   3.780   6.587
 7934SOL    HW224702   2.677   3.759   6.584
 7935SOL     OW24703   4.469   6.574   1.804
 7935SOL    HW124704   4.536   6.559   1.732
 7935SOL    HW224705   4.512   6.560   1.893
 7936SOL     OW24706   4.233   5.701   2.985
 7936SOL    HW124707   4.249   5.796   2.959
 7936SOL    HW224708   4.211   5.696   3.082
 7937SOL     OW24709   6.434   6.432   5.897
 7937SOL    HW124710   6.506   6.420   5.965
 7937SOL    HW224711   6.457   6.510   5.838
 7938SOL     OW24712   4.565   5.274   4.628
 7938SOL    HW124713   4.550   5.351   4.689
 7938SOL    HW224714   4.574   5.190   4.682
 7939SOL     OW24715   1.491   0.775   5.680
 7939SOL    HW124716   1.448   0.800   5.766
 7939SOL    HW224717   1.574   0.829   5.667
 7940SOL     OW24718   2.093   5.849   1.125
 7940SOL    HW124719   2.047   5.902   1.196
 7940SOL    HW224720   2.042   5.856   1.039
 7941SOL     OW24721   0.109   0.679   0.847
 7941SOL    HW124722   0.134   0.583   0.864
 7941SOL    HW224723   0.086   0.723   0.933
 7942SOL     OW24724   6.964   0.312   1.658
 7942SOL    HW124725   7.010   0.345   1.576
 7942SOL    HW224726   6.874   0.356   1.666
 7943SOL     OW24727   5.165   1.512   1.220
 7943SOL    HW124728   5.141   1.594   1.272
 7943SOL    HW224729   5.133   1.431   1.269
 7944SOL     OW24730   0.815   4.547   1.330
 7944SOL    HW124731   0.856   4.610   1.396
 7944SOL    HW224732   0.757   4.482   1.378
 7945SOL     OW24733   5.551   6.699   2.784
 7945SOL    HW124734   5.607   6.698   2.701
 7945SOL    HW224735   5.455   6.687   2.760
 7946SOL     OW24736   1.801   2.187   6.016
 7946SOL    HW124737   1.707   2.175   6.048
 7946SOL    HW224738   1.814   2.280   5.983
 7947SOL     OW24739   4.060   3.264   6.389
 7947SOL    HW124740   4.068   3.270   6.289
 7947SOL    HW224741   3.981   3.317   6.419
 7948SOL     OW24742   0.252   6.634   0.621
 7948SOL    HW124743   0.284   6.604   0.531
 7948SOL    HW224744   0.167   6.685   0.610
 7949SOL     OW24745   5.278   4.649   3.663
 7949SOL    HW124746   5.247   4.588   3.736
 7949SOL    HW224747   5.284   4.743   3.698
 7950SOL     OW24748   3.905   5.238   4.103
 7950SOL    HW124749   3.812   5.274   4.096
 7950SOL    HW224750   3.921   5.174   4.028
 7951SOL     OW24751   3.594   3.556   1.000
 7951SOL    HW124752   3.593   3.457   0.985
 7951SOL    HW224753   3.667   3.597   0.944
 7952SOL     OW24754   5.760   3.195   1.209
 7952SOL    HW124755   5.812   3.242   1.280
 7952SOL    HW224756   5.822   3.158   1.141
 7953SOL     OW24757   2.194   2.479   3.147
 7953SOL    HW124758   2.189   2.428   3.061
 7953SOL    HW224759   2.136   2.561   3.141
 7954SOL     OW24760   4.180   5.200   4.805
 7954SOL    HW124761   4.171   5.152   4.718
 7954SOL    HW224762   4.103   5.264   4.816
 7955SOL     OW24763   0.913   6.297   6.424
 7955SOL    HW124764   1.009   6.281   6.444
 7955SOL    HW224765   0.879   6.223   6.365
 7956SOL     OW24766   6.141   6.606   4.319
 7956SOL    HW124767   6.224   6.643   4.276
 7956SOL    HW224768   6.088   6.556   4.251
 7957SOL     OW24769   1.306   1.706   1.361
 7957SOL    HW124770   1.300   1.664   1.270
 7957SOL    HW224771   1.388   1.763   1.366
 7958SOL     OW24772   2.701   4.742   2.830
 7958SOL    HW124773   2.655   4.672   2.885
 7958SOL    HW224774   2.711   4.826   2.884
 7959SOL     OW24775   6.286   4.946   0.767
 7959SOL    HW124776   6.251   4.852   0.769
 7959SOL    HW224777   6.351   4.955   0.692
 7960SOL     OW24778   2.498   1.808   1.527
 7960SOL    HW124779   2.479   1.710   1.529
 7960SOL    HW224780   2.537   1.837   1.614
 7961SOL     OW24781   1.883   5.853   6.417
 7961SOL    HW124782   1.852   5.945   6.443
 7961SOL    HW224783   1.972   5.836   6.458
 7962SOL     OW24784   1.295   1.159   2.030
 7962SOL    HW124785   1.212   1.105   2.039
 7962SOL    HW224786   1.280   1.250   2.068
 7963SOL     OW24787   0.711   0.739   5.509
 7963SOL    HW124788   0.803   0.701   5.513
 7963SOL    HW224789   0.646   0.667   5.483
 7964SOL     OW24790   6.039   5.389   4.021
 7964SOL    HW124791   5.993   5.355   4.104
 7964SOL    HW224792   6.065   5.311   3.964
 7965SOL     OW24793   5.448   2.460   0.313
 7965SOL    HW124794   5.481   2.469   0.219
 7965SOL    HW224795   5.375   2.392   0.316
 7966SOL     OW24796   6.748   4.553   3.895
 7966SOL    HW124797   6.694   4.470   3.908
 7966SOL    HW224798   6.702   4.630   3.940
 7967SOL     OW24799   3.056   6.540   2.154
 7967SOL    HW124800   2.991   6.614   2.138
 7967SOL    HW224801   3.009   6.462   2.196
 7968SOL     OW24802   2.100   1.931   2.806
 7968SOL    HW124803   2.146   1.950   2.719
 7968SOL    HW224804   2.140   1.988   2.878
 7969SOL     OW24805   3.309   1.751   3.615
 7969SOL    HW124806   3.367   1.815   3.564
 7969SOL    HW224807   3.349   1.736   3.705
 7970SOL     OW24808   0.654   4.447   3.032
 7970SOL    HW124809   0.681   4.408   3.121
 7970SOL    HW224810   0.641   4.545   3.041
 7971SOL     OW24811   3.374   0.817   1.332
 7971SOL    HW124812   3.303   0.814   1.262
 7971SOL    HW224813   3.464   0.820   1.288
 7972SOL     OW24814   0.315   4.565   1.630
 7972SOL    HW124815   0.363   4.644   1.667
 7972SOL    HW224816   0.221   4.563   1.666
 7973SOL     OW24817   4.833   3.112   3.497
 7973SOL    HW124818   4.850   3.141   3.403
 7973SOL    HW224819   4.837   3.191   3.557
 7974SOL     OW24820   5.187   0.214   4.230
 7974SOL    HW124821   5.155   0.120   4.220
 7974SOL    HW224822   5.151   0.253   4.315
 7975SOL     OW24823   3.278   1.368   4.083
 7975SOL    HW124824   3.317   1.452   4.045
 7975SOL    HW224825   3.235   1.315   4.010
 7976SOL     OW24826   0.909   5.702   5.565
 7976SOL    HW124827   0.972   5.634   5.529
 7976SOL    HW224828   0.946   5.794   5.550
 7977SOL     OW24829   5.503   6.281   1.635
 7977SOL    HW124830   5.600   6.261   1.618
 7977SOL    HW224831   5.462   6.319   1.552
 7978SOL     OW24832   4.697   3.793   5.709
 7978SOL    HW124833   4.722   3.861   5.640
 7978SOL    HW224834   4.704   3.834   5.800
 7979SOL     OW24835   2.910   0.112   4.362
 7979SOL    HW124836   2.875   0.195   4.406
 7979SOL    HW224837   3.000   0.090   4.400
 7980SOL     OW24838   3.519   6.121   0.305
 7980SOL    HW124839   3.614   6.099   0.327
 7980SOL    HW224840   3.459   6.054   0.348
 7981SOL     OW24841   0.925   4.946   2.402
 7981SOL    HW124842   0.901   4.889   2.323
 7981SOL    HW224843   1.021   4.972   2.396
 7982SOL     OW24844   6.377   2.051   0.750
 7982SOL    HW124845   6.381   1.990   0.671
 7982SOL    HW224846   6.435   2.016   0.823
 7983SOL     OW24847   5.152   2.178   2.435
 7983SOL    HW124848   5.222   2.224   2.381
 7983SOL    HW224849   5.195   2.116   2.500
 7984SOL     OW24850   0.453   1.971   1.809
 7984SOL    HW124851   0.405   1.919   1.738
 7984SOL    HW224852   0.422   1.941   1.899
 7985SOL     OW24853   0.547   1.344   2.510
 7985SOL    HW124854   0.602   1.351   2.428
 7985SOL    HW224855   0.600   1.376   2.589
 7986SOL     OW24856   4.321   1.021   6.465
 7986SOL    HW124857   4.304   1.089   6.535
 7986SOL    HW224858   4.285   1.054   6.377
 7987SOL     OW24859   0.752   2.775   5.202
 7987SOL    HW124860   0.788   2.843   5.138
 7987SOL    HW224861   0.676   2.814   5.253
 7988SOL     OW24862   2.602   1.767   4.423
 7988SOL    HW124863   2.660   1.841   4.456
 7988SOL    HW224864   2.585   1.778   4.325
 7989SOL     OW24865   3.320   2.329   5.641
 7989SOL    HW124866   3.311   2.305   5.545
 7989SOL    HW224867   3.247   2.286   5.694
 7990SOL     OW24868   1.396   2.626   4.615
 7990SOL    HW124869   1.342   2.705   4.644
 7990SOL    HW224870   1.493   2.649   4.617
 7991SOL     OW24871   0.655   2.729   5.978
 7991SOL    HW124872   0.573   2.715   5.922
 7991SOL    HW224873   0.628   2.731   6.074
 7992SOL     OW24874   2.324   0.147   0.941
 7992SOL    HW124875   2.412   0.128   0.983
 7992SOL    HW224876   2.269   0.203   1.002
 7993SOL     OW24877   1.891   6.405   6.959
 7993SOL    HW124878   1.810   6.433   6.908
 7993SOL    HW224879   1.972   6.446   6.918
 7994SOL     OW24880   5.301   1.149   3.915
 7994SOL    HW124881   5.340   1.148   3.823
 7994SOL    HW224882   5.332   1.231   3.963
 7995SOL     OW24883   2.773   5.076   3.981
 7995SOL    HW124884   2.775   4.981   4.010
 7995SOL    HW224885   2.678   5.105   3.967
 7996SOL     OW24886   3.776   0.032   5.312
 7996SOL    HW124887   3.757   7.014   5.402
 7996SOL    HW224888   3.871   0.015   5.288
 7997SOL     OW24889   5.743   2.756   0.946
 7997SOL    HW124890   5.762   2.801   1.034
 7997SOL    HW224891   5.683   2.814   0.891
 7998SOL     OW24892   5.860   4.594   0.054
 7998SOL    HW124893   5.770   4.557   0.031
 7998SOL    HW224894   5.859   4.629   0.148
 7999SOL     OW24895   1.417   0.092   5.712
 7999SOL    HW124896   1.385   0.054   5.799
 7999SOL    HW224897   1.338   0.124   5.659
 8000SOL     OW24898   6.262   6.806   5.652
 8000SOL    HW124899   6.217   6.847   5.732
 8000SOL    HW224900   6.285   6.878   5.586
 8001SOL     OW24901   1.978   6.869   1.521
 8001SOL    HW124902   1.910   6.828   1.582
 8001SOL    HW224903   2.056   6.901   1.575
 8002SOL     OW24904   5.971   2.568   4.849
 8002SOL    HW124905   6.057   2.611   4.877
 8002SOL    HW224906   5.982   2.469   4.846
 8003SOL     OW24907   3.188   4.893   3.292
 8003SOL    HW124908   3.154   4.987   3.304
 8003SOL    HW224909   3.288   4.895   3.286
 8004SOL     OW24910   2.173   3.652   2.886
 8004SOL    HW124911   2.173   3.707   2.803
 8004SOL    HW224912   2.162   3.556   2.863
 8005SOL     OW24913   2.992   0.969   1.414
 8005SOL    HW124914   3.059   1.028   1.460
 8005SOL    HW224915   2.990   0.880   1.459
 8006SOL     OW24916   3.213   5.989   0.703
 8006SOL    HW124917   3.280   6.025   0.638
 8006SOL    HW224918   3.149   5.928   0.655
 8007SOL     OW24919   0.220   0.388   4.320
 8007SOL    HW124920   0.237   0.373   4.417
 8007SOL    HW224921   0.144   0.453   4.309
 8008SOL     OW24922   6.059   6.550   0.287
 8008SOL    HW124923   6.121   6.493   0.233
 8008SOL    HW224924   6.087   6.547   0.383
 8009SOL     OW24925   0.111   6.821   3.996
 8009SOL    HW124926   0.100   6.722   3.987
 8009SOL    HW224927   0.062   6.867   3.922
 8010SOL     OW24928   1.967   2.490   0.394
 8010SOL    HW124929   2.025   2.557   0.347
 8010SOL    HW224930   1.996   2.398   0.370
 8011SOL     OW24931   3.292   2.239   1.351
 8011SOL    HW124932   3.216   2.303   1.360
 8011SOL    HW224933   3.326   2.240   1.257
 8012SOL     OW24934   2.612   6.440   1.880
 8012SOL    HW124935   2.613   6.457   1.978
 8012SOL    HW224936   2.592   6.344   1.862
 8013SOL     OW24937   5.792   4.662   4.582
 8013SOL    HW124938   5.778   4.662   4.483
 8013SOL    HW224939   5.861   4.594   4.606
 8014SOL     OW24940   2.340   6.888   6.958
 8014SOL    HW124941   2.290   6.891   0.022
 8014SOL    HW224942   2.379   6.978   6.940
 8015SOL     OW24943   2.407   2.730   0.328
 8015SOL    HW124944   2.460   2.768   0.251
 8015SOL    HW224945   2.457   2.653   0.368
 8016SOL     OW24946   4.288   6.410   6.777
 8016SOL    HW124947   4.369   6.413   6.835
 8016SOL    HW224948   4.308   6.452   6.689
 8017SOL     OW24949   6.029   4.176   4.701
 8017SOL    HW124950   6.113   4.129   4.728
 8017SOL    HW224951   5.975   4.116   4.641
 8018SOL     OW24952   4.874   1.737   5.172
 8018SOL    HW124953   4.958   1.714   5.222
 8018SOL    HW224954   4.795   1.725   5.233
 8019SOL     OW24955   2.038   5.808   0.551
 8019SOL    HW124956   1.939   5.799   0.542
 8019SOL    HW224957   2.082   5.722   0.527
 8020SOL     OW24958   4.762   5.263   0.059
 8020SOL    HW124959   4.840   5.307   0.104
 8020SOL    HW224960   4.732   5.185   0.113
 8021SOL     OW24961   0.798   0.923   0.890
 8021SOL    HW124962   0.873   0.858   0.881
 8021SOL    HW224963   0.818   0.988   0.963
 8022SOL     OW24964   4.359   6.518   3.427
 8022SOL    HW124965   4.280   6.461   3.407
 8022SOL    HW224966   4.443   6.464   3.418
 8023SOL     OW24967   5.981   5.634   2.850
 8023SOL    HW124968   6.025   5.674   2.931
 8023SOL    HW224969   5.937   5.707   2.798
 8024SOL     OW24970   4.895   4.948   5.319
 8024SOL    HW124971   4.983   4.933   5.363
 8024SOL    HW224972   4.902   4.925   5.222
 8025SOL     OW24973   3.856   5.654   6.674
 8025SOL    HW124974   3.881   5.685   6.766
 8025SOL    HW224975   3.923   5.588   6.642
 8026SOL     OW24976   1.282   3.376   0.006
 8026SOL    HW124977   1.294   3.316   0.085
 8026SOL    HW224978   1.284   3.321   6.945
 8027SOL     OW24979   4.902   1.679   4.898
 8027SOL    HW124980   4.997   1.654   4.883
 8027SOL    HW224981   4.890   1.712   4.992
 8028SOL     OW24982   4.625   4.926   6.657
 8028SOL    HW124983   4.553   4.860   6.636
 8028SOL    HW224984   4.714   4.880   6.658
 8029SOL     OW24985   4.029   4.282   0.462
 8029SOL    HW124986   4.058   4.190   0.487
 8029SOL    HW224987   3.942   4.303   0.507
 8030SOL     OW24988   5.623   3.979   6.312
 8030SOL    HW124989   5.619   3.956   6.215
 8030SOL    HW224990   5.703   3.936   6.353
 8031SOL     OW24991   3.639   5.411   1.568
 8031SOL    HW124992   3.559   5.352   1.553
 8031SOL    HW224993   3.665   5.407   1.665
 8032SOL     OW24994   5.464   4.138   5.575
 8032SOL    HW124995   5.395   4.151   5.504
 8032SOL    HW224996   5.528   4.066   5.546
 8033SOL     OW24997   5.879   2.351   0.129
 8033SOL    HW124998   5.962   2.369   0.182
 8033SOL    HW224999   5.902   2.342   0.033
 8034SOL     OW25000   5.461   6.873   4.675
 8034SOL    HW125001   5.463   6.774   4.668
 8034SOL    HW225002   5.421   6.912   4.592
 8035SOL     OW25003   5.623   6.607   6.850
 8035SOL    HW125004   5.697   6.628   6.786
 8035SOL    HW225005   5.632   6.513   6.881
 8036SOL     OW25006   1.933   4.332   1.802
 8036SOL    HW125007   1.951   4.247   1.852
 8036SOL    HW225008   1.943   4.315   1.704
 8037SOL     OW25009   1.705   2.999   1.148
 8037SOL    HW125010   1.759   2.921   1.179
 8037SOL    HW225011   1.707   3.071   1.217
 8038SOL     OW25012   0.425   2.062   3.821
 8038SOL    HW125013   0.358   2.022   3.884
 8038SOL    HW225014   0.415   2.020   3.731
 8039SOL     OW25015   2.274   6.940   3.409
 8039SOL    HW125016   2.266   6.918   3.312
 8039SOL    HW225017   2.289   0.016   3.419
 8040SOL     OW25018   0.265   5.740   1.102
 8040SOL    HW125019   0.343   5.770   1.046
 8040SOL    HW225020   0.290   5.746   1.199
 8041SOL     OW25021   4.379   1.267   0.454
 8041SOL    HW125022   4.300   1.207   0.466
 8041SOL    HW225023   4.458   1.213   0.426
 8042SOL     OW25024   3.308   2.877   2.277
 8042SOL    HW125025   3.406   2.860   2.261
 8042SOL    HW225026   3.256   2.845   2.198
 8043SOL     OW25027   2.398   0.149   1.749
 8043SOL    HW125028   2.458   0.103   1.815
 8043SOL    HW225029   2.346   0.221   1.795
 8044SOL     OW25030   3.308   3.873   1.050
 8044SOL    HW125031   3.252   3.954   1.069
 8044SOL    HW225032   3.296   3.845   0.954
 8045SOL     OW25033   5.492   2.556   3.254
 8045SOL    HW125034   5.544   2.598   3.328
 8045SOL    HW225035   5.406   2.605   3.241
 8046SOL     OW25036   6.289   4.815   5.529
 8046SOL    HW125037   6.312   4.821   5.431
 8046SOL    HW225038   6.290   4.907   5.569
 8047SOL     OW25039   3.606   5.814   4.321
 8047SOL    HW125040   3.564   5.740   4.375
 8047SOL    HW225041   3.704   5.817   4.341
 8048SOL     OW25042   6.410   6.885   5.310
 8048SOL    HW125043   6.370   6.941   5.383
 8048SOL    HW225044   6.391   6.927   5.221
 8049SOL     OW25045   1.440   6.374   1.090
 8049SOL    HW125046   1.530   6.332   1.080
 8049SOL    HW225047   1.450   6.467   1.125
 8050SOL     OW25048   1.828   3.675   1.223
 8050SOL    HW125049   1.886   3.621   1.161
 8050SOL    HW225050   1.883   3.746   1.267
 8051SOL     OW25051   4.735   0.851   3.409
 8051SOL    HW125052   4.745   0.846   3.309
 8051SOL    HW225053   4.767   0.941   3.441
 8052SOL     OW25054   2.971   1.457   2.931
 8052SOL    HW125055   2.966   1.393   3.007
 8052SOL    HW225056   2.962   1.408   2.845
 8053SOL     OW25057   4.129   3.702   2.974
 8053SOL    HW125058   4.223   3.730   2.993
 8053SOL    HW225059   4.107   3.621   3.028
 8054SOL     OW25060   4.693   6.687   4.469
 8054SOL    HW125061   4.751   6.606   4.471
 8054SOL    HW225062   4.619   6.674   4.403
 8055SOL     OW25063   1.560   6.928   6.158
 8055SOL    HW125064   1.599   7.009   6.115
 8055SOL    HW225065   1.630   6.856   6.162
 8056SOL     OW25066   4.233   1.567   2.817
 8056SOL    HW125067   4.300   1.571   2.742
 8056SOL    HW225068   4.253   1.639   2.883
 8057SOL     OW25069   3.406   6.927   3.312
 8057SOL    HW125070   3.411   6.961   3.406
 8057SOL    HW225071   3.358   6.994   3.255
 8058SOL     OW25072   3.082   1.137   2.143
 8058SOL    HW125073   3.115   1.190   2.066
 8058SOL    HW225074   3.130   1.164   2.226
 8059SOL     OW25075   3.179   1.796   4.359
 8059SOL    HW125076   3.197   1.704   4.393
 8059SOL    HW225077   3.102   1.836   4.410
 8060SOL     OW25078   0.013   0.887   4.770
 8060SOL    HW125079   6.939   0.879   4.746
 8060SOL    HW225080   0.069   0.853   4.694
 8061SOL     OW25081   6.681   5.790   3.048
 8061SOL    HW125082   6.701   5.882   3.014
 8061SOL    HW225083   6.673   5.727   2.971
 8062SOL     OW25084   1.411   4.231   3.686
 8062SOL    HW125085   1.334   4.259   3.744
 8062SOL    HW225086   1.494   4.225   3.741
 8063SOL     OW25087   3.060   2.927   6.715
 8063SOL    HW125088   3.087   3.016   6.751
 8063SOL    HW225089   2.989   2.938   6.646
 8064SOL     OW25090   0.047   3.382   0.408
 8064SOL    HW125091   6.986   3.413   0.453
 8064SOL    HW225092   0.125   3.391   0.470
 8065SOL     OW25093   4.879   6.952   4.886
 8065SOL    HW125094   4.875   6.853   4.902
 8065SOL    HW225095   4.973   6.980   4.869
 8066SOL     OW25096   1.654   1.084   1.626
 8066SOL    HW125097   1.752   1.101   1.629
 8066SOL    HW225098   1.615   1.096   1.717
 8067SOL     OW25099   5.053   2.702   1.685
 8067SOL    HW125100   5.096   2.613   1.670
 8067SOL    HW225101   5.050   2.722   1.783
 8068SOL     OW25102   1.220   4.134   5.028
 8068SOL    HW125103   1.200   4.171   4.937
 8068SOL    HW225104   1.154   4.062   5.050
 8069SOL     OW25105   1.415   6.475   2.040
 8069SOL    HW125106   1.325   6.465   2.082
 8069SOL    HW225107   1.475   6.527   2.102
 8070SOL     OW25108   3.977   6.508   1.330
 8070SOL    HW125109   3.967   6.547   1.239
 8070SOL    HW225110   3.907   6.439   1.344
 8071SOL     OW25111   3.714   0.077   6.090
 8071SOL    HW125112   3.693   0.046   6.183
 8071SOL    HW225113   3.662   0.160   6.070
 8072SOL     OW25114   5.009   1.433   0.620
 8072SOL    HW125115   5.008   1.429   0.720
 8072SOL    HW225116   5.102   1.415   0.588
 8073SOL     OW25117   4.232   6.632   5.756
 8073SOL    HW125118   4.263   6.584   5.674
 8073SOL    HW225119   4.309   6.645   5.818
 8074SOL     OW25120   3.666   3.650   0.079
 8074SOL    HW125121   3.681   3.597   0.163
 8074SOL    HW225122   3.604   3.726   0.098
 8075SOL     OW25123   6.819   1.432   2.724
 8075SOL    HW125124   6.802   1.392   2.634
 8075SOL    HW225125   6.851   1.360   2.787
 8076SOL     OW25126   5.616   2.715   5.434
 8076SOL    HW125127   5.526   2.759   5.426
 8076SOL    HW225128   5.663   2.721   5.346
 8077SOL     OW25129   1.122   0.291   1.122
 8077SOL    HW125130   1.072   0.369   1.159
 8077SOL    HW225131   1.060   0.214   1.108
 8078SOL     OW25132   6.406   2.395   1.094
 8078SOL    HW125133   6.452   2.459   1.033
 8078SOL    HW225134   6.394   2.436   1.184
 8079SOL     OW25135   6.570   1.867   2.478
 8079SOL    HW125136   6.658   1.837   2.513
 8079SOL    HW225137   6.537   1.800   2.411
 8080SOL     OW25138   3.459   4.556   0.315
 8080SOL    HW125139   3.378   4.502   0.338
 8080SOL    HW225140   3.445   4.601   0.226
 8081SOL     OW25141   6.133   0.644   4.971
 8081SOL    HW125142   6.105   0.548   4.974
 8081SOL    HW225143   6.095   0.693   5.050
 8082SOL     OW25144   0.008   2.705   3.489
 8082SOL    HW125145   0.010   2.605   3.491
 8082SOL    HW225146   6.945   2.736   3.448
 8083SOL     OW25147   4.427   2.497   3.571
 8083SOL    HW125148   4.367   2.576   3.578
 8083SOL    HW225149   4.378   2.415   3.602
 8084SOL     OW25150   6.511   6.473   1.573
 8084SOL    HW125151   6.466   6.430   1.651
 8084SOL    HW225152   6.591   6.524   1.605
 8085SOL     OW25153   5.738   0.628   0.984
 8085SOL    HW125154   5.716   0.703   1.046
 8085SOL    HW225155   5.831   0.595   1.004
 8086SOL     OW25156   3.718   0.814   5.278
 8086SOL    HW125157   3.768   0.799   5.193
 8086SOL    HW225158   3.766   0.881   5.335
 8087SOL     OW25159   2.850   2.295   1.627
 8087SOL    HW125160   2.768   2.351   1.633
 8087SOL    HW225161   2.882   2.273   1.720
 8088SOL     OW25162   4.618   1.183   2.488
 8088SOL    HW125163   4.540   1.185   2.551
 8088SOL    HW225164   4.637   1.088   2.462
 8089SOL     OW25165   6.113   2.848   0.266
 8089SOL    HW125166   6.183   2.850   0.194
 8089SOL    HW225167   6.035   2.793   0.236
 8090SOL     OW25168   4.944   1.901   5.545
 8090SOL    HW125169   4.935   1.983   5.488
 8090SOL    HW225170   4.966   1.928   5.639
 8091SOL     OW25171   2.709   4.997   5.741
 8091SOL    HW125172   2.648   4.935   5.791
 8091SOL    HW225173   2.741   4.951   5.658
 8092SOL     OW25174   1.535   1.794   4.885
 8092SOL    HW125175   1.592   1.727   4.837
 8092SOL    HW225176   1.466   1.746   4.939
 8093SOL     OW25177   5.406   5.525   1.145
 8093SOL    HW125178   5.478   5.483   1.200
 8093SOL    HW225179   5.422   5.624   1.138
 8094SOL     OW25180   1.246   3.991   5.935
 8094SOL    HW125181   1.262   4.026   6.027
 8094SOL    HW225182   1.323   4.014   5.876
 8095SOL     OW25183   5.590   3.449   4.310
 8095SOL    HW125184   5.587   3.548   4.324
 8095SOL    HW225185   5.542   3.426   4.225
 8096SOL     OW25186   3.518   6.329   1.707
 8096SOL    HW125187   3.502   6.267   1.784
 8096SOL    HW225188   3.440   6.392   1.699
 8097SOL     OW25189   5.130   0.935   4.012
 8097SOL    HW125190   5.187   1.017   4.009
 8097SOL    HW225191   5.091   0.925   4.104
 8098SOL     OW25192   3.206   6.697   3.947
 8098SOL    HW125193   3.227   6.720   3.852
 8098SOL    HW225194   3.244   6.768   4.007
 8099SOL     OW25195   4.042   0.015   5.353
 8099SOL    HW125196   4.113   6.979   5.391
 8099SOL    HW225197   3.998   0.066   5.427
 8100SOL     OW25198   0.360   6.476   0.859
 8100SOL    HW125199   0.413   6.393   0.843
 8100SOL    HW225200   0.342   6.521   0.772
 8101SOL     OW25201   1.716   6.440   3.789
 8101SOL    HW125202   1.808   6.400   3.786
 8101SOL    HW225203   1.655   6.390   3.728
 8102SOL     OW25204   6.573   5.910   5.921
 8102SOL    HW125205   6.473   5.912   5.920
 8102SOL    HW225206   6.606   5.943   6.010
 8103SOL     OW25207   3.321   1.469   2.681
 8103SOL    HW125208   3.417   1.460   2.657
 8103SOL    HW225209   3.296   1.566   2.682
 8104SOL     OW25210   2.658   6.840   6.391
 8104SOL    HW125211   2.574   6.788   6.375
 8104SOL    HW225212   2.651   6.929   6.345
 8105SOL     OW25213   2.449   2.278   3.594
 8105SOL    HW125214   2.351   2.299   3.594
 8105SOL    HW225215   2.467   2.204   3.659
 8106SOL     OW25216   1.240   4.092   3.972
 8106SOL    HW125217   1.270   3.999   3.951
 8106SOL    HW225218   1.214   4.138   3.887
 8107SOL     OW25219   1.826   6.411   6.042
 8107SOL    HW125220   1.785   6.335   5.992
 8107SOL    HW225221   1.873   6.472   5.978
 8108SOL     OW25222   0.966   3.207   4.024
 8108SOL    HW125223   1.046   3.265   4.008
 8108SOL    HW225224   0.979   3.155   4.108
 8109SOL     OW25225   1.414   4.963   4.857
 8109SOL    HW125226   1.438   5.051   4.817
 8109SOL    HW225227   1.390   4.898   4.785
 8110SOL     OW25228   2.279   5.557   0.341
 8110SOL    HW125229   2.199   5.585   0.288
 8110SOL    HW225230   2.340   5.635   0.355
 8111SOL     OW25231   2.517   5.145   4.856
 8111SOL    HW125232   2.573   5.227   4.866
 8111SOL    HW225233   2.573   5.064   4.874
 8112SOL     OW25234   2.216   0.967   4.951
 8112SOL    HW125235   2.170   0.944   5.036
 8112SOL    HW225236   2.212   1.066   4.936
 8113SOL     OW25237   3.725   2.593   5.972
 8113SOL    HW125238   3.658   2.620   6.040
 8113SOL    HW225239   3.754   2.673   5.920
 8114SOL     OW25240   2.024   3.099   2.048
 8114SOL    HW125241   2.034   3.197   2.031
 8114SOL    HW225242   1.952   3.063   1.989
 8115SOL     OW25243   3.372   1.690   0.970
 8115SOL    HW125244   3.358   1.602   0.924
 8115SOL    HW225245   3.321   1.691   1.056
 8116SOL     OW25246   5.830   0.490   5.215
 8116SOL    HW125247   5.919   0.512   5.174
 8116SOL    HW225248   5.844   0.428   5.292
 8117SOL     OW25249   1.744   2.113   5.393
 8117SOL    HW125250   1.726   2.110   5.491
 8117SOL    HW225251   1.705   2.197   5.355
 8118SOL     OW25252   0.525   3.644   5.274
 8118SOL    HW125253   0.526   3.550   5.238
 8118SOL    HW225254   0.620   3.673   5.291
 8119SOL     OW25255   0.623   6.265   2.604
 8119SOL    HW125256   0.616   6.256   2.505
 8119SOL    HW225257   0.574   6.190   2.648
 8120SOL     OW25258   4.634   4.030   1.529
 8120SOL    HW125259   4.550   3.980   1.549
 8120SOL    HW225260   4.635   4.117   1.579
 8121SOL     OW25261   6.167   0.686   2.607
 8121SOL    HW125262   6.143   0.782   2.621
 8121SOL    HW225263   6.110   0.647   2.535
 8122SOL     OW25264   6.457   6.426   2.184
 8122SOL    HW125265   6.508   6.414   2.269
 8122SOL    HW225266   6.428   6.337   2.149
 8123SOL     OW25267   1.654   6.436   6.837
 8123SOL    HW125268   1.621   6.346   6.810
 8123SOL    HW225269   1.606   6.467   6.919
 8124SOL     OW25270   1.190   6.207   2.199
 8124SOL    HW125271   1.277   6.185   2.154
 8124SOL    HW225272   1.171   6.305   2.188
 8125SOL     OW25273   5.860   5.367   3.001
 8125SOL    HW125274   5.815   5.453   2.978
 8125SOL    HW225275   5.957   5.383   3.019
 8126SOL     OW25276   5.504   4.540   2.782
 8126SOL    HW125277   5.408   4.513   2.797
 8126SOL    HW225278   5.553   4.463   2.740
 8127SOL     OW25279   2.124   5.049   7.005
 8127SOL    HW125280   2.143   4.958   0.019
 8127SOL    HW225281   2.171   5.060   6.917
 8128SOL     OW25282   3.929   2.505   5.354
 8128SOL    HW125283   3.877   2.589   5.338
 8128SOL    HW225284   4.019   2.513   5.311
 8129SOL     OW25285   5.250   0.251   6.470
 8129SOL    HW125286   5.166   0.273   6.519
 8129SOL    HW225287   5.275   0.329   6.412
 8130SOL     OW25288   1.664   5.811   0.067
 8130SOL    HW125289   1.717   5.857   0.138
 8130SOL    HW225290   1.589   5.760   0.108
 8131SOL     OW25291   2.673   0.934   0.658
 8131SOL    HW125292   2.598   0.869   0.670
 8131SOL    HW225293   2.656   1.015   0.714
 8132SOL     OW25294   6.366   5.144   3.890
 8132SOL    HW125295   6.424   5.214   3.932
 8132SOL    HW225296   6.270   5.164   3.908
 8133SOL     OW25297   2.219   5.452   2.290
 8133SOL    HW125298   2.162   5.396   2.230
 8133SOL    HW225299   2.164   5.525   2.330
 8134SOL     OW25300   2.478   2.665   3.686
 8134SOL    HW125301   2.536   2.587   3.663
 8134SOL    HW225302   2.530   2.729   3.743
 8135SOL     OW25303   4.023   5.472   1.956
 8135SOL    HW125304   4.086   5.547   1.941
 8135SOL    HW225305   3.949   5.502   2.016
 8136SOL     OW25306   4.334   5.825   2.292
 8136SOL    HW125307   4.289   5.788   2.374
 8136SOL    HW225308   4.429   5.795   2.290
 8137SOL     OW25309   2.242   4.293   4.890
 8137SOL    HW125310   2.170   4.325   4.952
 8137SOL    HW225311   2.297   4.224   4.938
 8138SOL     OW25312   4.959   1.110   3.006
 8138SOL    HW125313   5.003   1.055   2.935
 8138SOL    HW225314   4.920   1.192   2.966
 8139SOL     OW25315   1.377   1.940   3.701
 8139SOL    HW125316   1.422   1.868   3.648
 8139SOL    HW225317   1.299   1.975   3.649
 8140SOL     OW25318   4.583   1.006   0.791
 8140SOL    HW125319   4.589   1.072   0.866
 8140SOL    HW225320   4.488   0.988   0.769
 8141SOL     OW25321   5.036   1.070   5.228
 8141SOL    HW125322   5.063   1.148   5.285
 8141SOL    HW225323   4.942   1.044   5.250
 8142SOL     OW25324   2.055   5.708   0.244
 8142SOL    HW125325   1.966   5.691   0.201
 8142SOL    HW225326   2.059   5.803   0.276
 8143SOL     OW25327   5.595   4.662   0.692
 8143SOL    HW125328   5.535   4.705   0.625
 8143SOL    HW225329   5.542   4.643   0.775
 8144SOL     OW25330   6.731   4.650   6.171
 8144SOL    HW125331   6.657   4.584   6.182
 8144SOL    HW225332   6.693   4.738   6.143
 8145SOL     OW25333   4.908   5.526   0.042
 8145SOL    HW125334   4.865   5.594   7.005
 8145SOL    HW225335   5.006   5.520   0.021
 8146SOL     OW25336   6.019   0.416   4.743
 8146SOL    HW125337   6.096   0.386   4.688
 8146SOL    HW225338   6.042   0.411   4.840
 8147SOL     OW25339   1.677   0.943   6.000
 8147SOL    HW125340   1.583   0.908   5.992
 8147SOL    HW225341   1.693   0.977   6.092
 8148SOL     OW25342   4.051   4.910   0.144
 8148SOL    HW125343   4.071   4.995   0.096
 8148SOL    HW225344   4.019   4.841   0.079
 8149SOL     OW25345   0.990   5.865   4.773
 8149SOL    HW125346   0.909   5.839   4.826
 8149SOL    HW225347   1.029   5.784   4.729
 8150SOL     OW25348   0.780   2.879   0.652
 8150SOL    HW125349   0.737   2.790   0.641
 8150SOL    HW225350   0.711   2.950   0.652
 8151SOL     OW25351   6.417   4.904   3.333
 8151SOL    HW125352   6.452   4.811   3.321
 8151SOL    HW225353   6.402   4.922   3.430
 8152SOL     OW25354   4.505   1.686   3.214
 8152SOL    HW125355   4.526   1.594   3.180
 8152SOL    HW225356   4.590   1.730   3.244
 8153SOL     OW25357   0.112   2.029   3.644
 8153SOL    HW125358   0.122   2.082   3.728
 8153SOL    HW225359   0.123   1.932   3.665
 8154SOL     OW25360   1.928   1.205   3.739
 8154SOL    HW125361   2.017   1.251   3.740
 8154SOL    HW225362   1.936   1.120   3.686
 8155SOL     OW25363   1.340   5.346   2.458
 8155SOL    HW125364   1.416   5.410   2.467
 8155SOL    HW225365   1.370   5.255   2.488
 8156SOL     OW25366   6.365   5.435   1.368
 8156SOL    HW125367   6.383   5.356   1.426
 8156SOL    HW225368   6.446   5.454   1.312
 8157SOL     OW25369   6.853   2.857   5.972
 8157SOL    HW125370   6.889   2.781   5.917
 8157SOL    HW225371   6.839   2.936   5.913
 8158SOL     OW25372   5.251   5.006   6.637
 8158SOL    HW125373   5.285   5.033   6.547
 8158SOL    HW225374   5.151   5.016   6.640
 8159SOL     OW25375   3.097   6.049   5.402
 8159SOL    HW125376   3.168   6.050   5.331
 8159SOL    HW225377   3.140   6.031   5.491
 8160SOL     OW25378   5.172   1.206   3.639
 8160SOL    HW125379   5.087   1.253   3.617
 8160SOL    HW225380   5.155   1.139   3.711
 8161SOL     OW25381   5.755   2.849   1.204
 8161SOL    HW125382   5.838   2.872   1.256
 8161SOL    HW225383   5.676   2.893   1.247
 8162SOL     OW25384   0.025   4.917   6.216
 8162SOL    HW125385   7.001   4.931   6.303
 8162SOL    HW225386   6.985   4.935   6.141
 8163SOL     OW25387   4.730   4.662   4.918
 8163SOL    HW125388   4.753   4.748   4.964
 8163SOL    HW225389   4.806   4.633   4.860
 8164SOL     OW25390   5.236   1.053   0.349
 8164SOL    HW125391   5.250   0.956   0.368
 8164SOL    HW225392   5.324   1.098   0.338
 8165SOL     OW25393   6.833   1.571   7.001
 8165SOL    HW125394   6.928   1.603   7.010
 8165SOL    HW225395   6.771   1.647   7.015
 8166SOL     OW25396   1.859   2.196   5.068
 8166SOL    HW125397   1.828   2.102   5.051
 8166SOL    HW225398   1.784   2.259   5.050
 8167SOL     OW25399   0.520   2.713   4.214
 8167SOL    HW125400   0.435   2.714   4.161
 8167SOL    HW225401   0.584   2.648   4.173
 8168SOL     OW25402   2.651   0.872   1.823
 8168SOL    HW125403   2.723   0.821   1.872
 8168SOL    HW225404   2.628   0.823   1.739
 8169SOL     OW25405   4.994   2.595   0.917
 8169SOL    HW125406   5.093   2.589   0.903
 8169SOL    HW225407   4.959   2.678   0.875
 8170SOL     OW25408   5.978   4.755   2.061
 8170SOL    HW125409   5.885   4.730   2.033
 8170SOL    HW225410   5.980   4.852   2.085
 8171SOL     OW25411   1.848   1.145   0.689
 8171SOL    HW125412   1.752   1.159   0.714
 8171SOL    HW225413   1.903   1.139   0.772
 8172SOL     OW25414   0.769   2.951   1.715
 8172SOL    HW125415   0.714   2.898   1.779
 8172SOL    HW225416   0.828   3.014   1.765
 8173SOL     OW25417   5.335   1.001   1.830
 8173SOL    HW125418   5.336   1.073   1.900
 8173SOL    HW225419   5.330   1.043   1.740
 8174SOL     OW25420   2.675   5.261   2.713
 8174SOL    HW125421   2.600   5.272   2.648
 8174SOL    HW225422   2.741   5.195   2.678
 8175SOL     OW25423   0.726   1.563   4.941
 8175SOL    HW125424   0.647   1.522   4.894
 8175SOL    HW225425   0.791   1.596   4.873
 8176SOL     OW25426   1.704   4.431   0.882
 8176SOL    HW125427   1.791   4.454   0.839
 8176SOL    HW225428   1.703   4.333   0.904
 8177SOL     OW25429   3.896   1.250   2.632
 8177SOL    HW125430   3.921   1.347   2.635
 8177SOL    HW225431   3.971   1.195   2.668
 8178SOL     OW25432   2.161   6.560   1.018
 8178SOL    HW125433   2.248   6.558   0.967
 8178SOL    HW225434   2.086   6.578   0.955
 8179SOL     OW25435   5.412   0.909   3.425
 8179SOL    HW125436   5.352   0.880   3.500
 8179SOL    HW225437   5.438   0.830   3.370
 8180SOL     OW25438   4.545   6.395   6.884
 8180SOL    HW125439   4.608   6.356   6.816
 8180SOL    HW225440   4.598   6.427   6.962
 8181SOL     OW25441   0.849   1.033   0.636
 8181SOL    HW125442   0.834   0.981   0.720
 8181SOL    HW225443   0.873   1.127   0.659
 8182SOL     OW25444   2.994   3.735   4.808
 8182SOL    HW125445   2.951   3.678   4.879
 8182SOL    HW225446   3.090   3.750   4.832
 8183SOL     OW25447   6.763   0.404   5.027
 8183SOL    HW125448   6.834   0.414   5.097
 8183SOL    HW225449   6.799   0.350   4.951
 8184SOL     OW25450   0.608   6.165   6.562
 8184SOL    HW125451   0.582   6.234   6.494
 8184SOL    HW225452   0.538   6.095   6.567
 8185SOL     OW25453   0.999   6.611   0.134
 8185SOL    HW125454   0.961   6.669   0.205
 8185SOL    HW225455   0.937   6.534   0.117
 8186SOL     OW25456   1.242   5.189   6.779
 8186SOL    HW125457   1.266   5.183   6.683
 8186SOL    HW225458   1.265   5.103   6.825
 8187SOL     OW25459   0.977   0.794   6.392
 8187SOL    HW125460   1.017   0.719   6.339
 8187SOL    HW225461   0.879   0.779   6.403
 8188SOL     OW25462   2.576   1.934   3.576
 8188SOL    HW125463   2.561   1.835   3.572
 8188SOL    HW225464   2.635   1.956   3.653
 8189SOL     OW25465   5.003   4.546   3.925
 8189SOL    HW125466   4.942   4.621   3.897
 8189SOL    HW225467   5.009   4.479   3.852
 8190SOL     OW25468   6.194   3.563   3.197
 8190SOL    HW125469   6.232   3.515   3.117
 8190SOL    HW225470   6.193   3.661   3.179
 8191SOL     OW25471   3.717   5.034   1.663
 8191SOL    HW125472   3.813   5.007   1.668
 8191SOL    HW225473   3.700   5.085   1.579
 8192SOL     OW25474   1.188   5.049   4.147
 8192SOL    HW125475   1.201   4.949   4.147
 8192SOL    HW225476   1.261   5.092   4.094
 8193SOL     OW25477   0.758   3.848   5.152
 8193SOL    HW125478   0.846   3.802   5.137
 8193SOL    HW225479   0.689   3.807   5.093
 8194SOL     OW25480   4.792   6.503   1.969
 8194SOL    HW125481   4.699   6.523   1.998
 8194SOL    HW225482   4.799   6.409   1.937
 8195SOL     OW25483   5.929   6.963   3.664
 8195SOL    HW125484   5.938   6.915   3.576
 8195SOL    HW225485   5.961   0.035   3.654
 8196SOL     OW25486   4.533   0.137   0.187
 8196SOL    HW125487   4.617   0.170   0.146
 8196SOL    HW225488   4.480   0.085   0.120
 8197SOL     OW25489   4.747   1.784   1.956
 8197SOL    HW125490   4.758   1.820   2.048
 8197SOL    HW225491   4.650   1.772   1.935
 8198SOL     OW25492   2.057   0.368   2.310
 8198SOL    HW125493   1.984   0.429   2.282
 8198SOL    HW225494   2.037   0.274   2.281
 8199SOL     OW25495   5.274   2.949   5.827
 8199SOL    HW125496   5.347   2.885   5.802
 8199SOL    HW225497   5.312   3.022   5.883
 8200SOL     OW25498   4.315   3.199   1.421
 8200SOL    HW125499   4.338   3.140   1.498
 8200SOL    HW225500   4.224   3.237   1.434
 8201SOL     OW25501   6.843   0.004   5.430
 8201SOL    HW125502   6.882   6.977   5.508
 8201SOL    HW225503   6.777   6.968   5.383
 8202SOL     OW25504   0.618   6.456   2.031
 8202SOL    HW125505   0.585   6.509   1.953
 8202SOL    HW225506   0.546   6.451   2.101
 8203SOL     OW25507   1.341   3.244   1.105
 8203SOL    HW125508   1.296   3.225   1.017
 8203SOL    HW225509   1.418   3.305   1.090
 8204SOL     OW25510   3.876   3.207   1.550
 8204SOL    HW125511   3.947   3.154   1.504
 8204SOL    HW225512   3.908   3.232   1.641
 8205SOL     OW25513   1.267   3.556   0.849
 8205SOL    HW125514   1.355   3.539   0.804
 8205SOL    HW225515   1.209   3.476   0.839
 8206SOL     OW25516   4.001   1.274   6.660
 8206SOL    HW125517   4.094   1.240   6.647
 8206SOL    HW225518   3.998   1.331   6.742
 8207SOL     OW25519   3.921   3.021   4.741
 8207SOL    HW125520   3.911   3.120   4.743
 8207SOL    HW225521   4.017   2.997   4.728
 8208SOL     OW25522   1.780   1.130   0.316
 8208SOL    HW125523   1.774   1.123   0.216
 8208SOL    HW225524   1.846   1.202   0.340
 8209SOL     OW25525   6.531   0.855   5.529
 8209SOL    HW125526   6.457   0.921   5.512
 8209SOL    HW225527   6.514   0.772   5.476
 8210SOL     OW25528   1.744   3.121   0.498
 8210SOL    HW125529   1.745   3.031   0.544
 8210SOL    HW225530   1.837   3.159   0.499
 8211SOL     OW25531   2.688   4.729   0.790
 8211SOL    HW125532   2.666   4.718   0.693
 8211SOL    HW225533   2.636   4.663   0.844
 8212SOL     OW25534   1.797   2.159   3.198
 8212SOL    HW125535   1.745   2.080   3.229
 8212SOL    HW225536   1.786   2.170   3.099
 8213SOL     OW25537   0.349   4.870   1.699
 8213SOL    HW125538   0.371   4.881   1.796
 8213SOL    HW225539   0.434   4.867   1.646
 8214SOL     OW25540   5.472   4.226   2.903
 8214SOL    HW125541   5.523   4.251   2.986
 8214SOL    HW225542   5.382   4.269   2.905
 8215SOL     OW25543   3.494   5.006   4.854
 8215SOL    HW125544   3.424   4.949   4.812
 8215SOL    HW225545   3.534   5.066   4.785
 8216SOL     OW25546   4.782   4.327   4.061
 8216SOL    HW125547   4.870   4.354   4.101
 8216SOL    HW225548   4.708   4.361   4.120
 8217SOL     OW25549   2.276   6.210   0.642
 8217SOL    HW125550   2.336   6.228   0.720
 8217SOL    HW225551   2.287   6.115   0.613
 8218SOL     OW25552   0.439   1.503   0.160
 8218SOL    HW125553   0.520   1.520   0.215
 8218SOL    HW225554   0.361   1.486   0.219
 8219SOL     OW25555   5.578   2.140   6.272
 8219SOL    HW125556   5.653   2.129   6.207
 8219SOL    HW225557   5.514   2.064   6.261
 8220SOL     OW25558   3.610   3.747   2.516
 8220SOL    HW125559   3.562   3.794   2.590
 8220SOL    HW225560   3.707   3.737   2.540
 8221SOL     OW25561   5.734   5.960   3.677
 8221SOL    HW125562   5.745   6.059   3.690
 8221SOL    HW225563   5.636   5.938   3.671
 8222SOL     OW25564   6.044   1.412   1.709
 8222SOL    HW125565   6.127   1.435   1.761
 8222SOL    HW225566   6.069   1.382   1.617
 8223SOL     OW25567   0.537   4.440   6.413
 8223SOL    HW125568   0.559   4.530   6.375
 8223SOL    HW225569   0.482   4.389   6.346
 8224SOL     OW25570   0.862   3.012   2.824
 8224SOL    HW125571   0.854   3.080   2.897
 8224SOL    HW225572   0.881   3.058   2.738
 8225SOL     OW25573   5.096   1.571   6.574
 8225SOL    HW125574   5.108   1.544   6.669
 8225SOL    HW225575   5.181   1.612   6.540
 8226SOL     OW25576   5.138   0.278   1.021
 8226SOL    HW125577   5.140   0.228   0.934
 8226SOL    HW225578   5.048   0.321   1.033
 8227SOL     OW25579   6.220   3.212   3.321
 8227SOL    HW125580   6.309   3.231   3.278
 8227SOL    HW225581   6.147   3.235   3.258
 8228SOL     OW25582   0.018   2.410   4.853
 8228SOL    HW125583   0.076   2.413   4.771
 8228SOL    HW225584   6.987   2.494   4.859
 8229SOL     OW25585   3.246   5.570   7.007
 8229SOL    HW125586   3.288   5.483   0.010
 8229SOL    HW225587   3.315   5.643   7.010
 8230SOL     OW25588   5.130   0.101   4.878
 8230SOL    HW125589   5.159   0.176   4.818
 8230SOL    HW225590   5.120   0.135   4.971
 8231SOL     OW25591   5.449   5.224   0.802
 8231SOL    HW125592   5.426   5.228   0.705
 8231SOL    HW225593   5.374   5.263   0.856
 8232SOL     OW25594   3.859   1.614   0.119
 8232SOL    HW125595   3.767   1.587   0.147
 8232SOL    HW225596   3.855   1.669   0.036
 8233SOL     OW25597   1.054   5.373   6.385
 8233SOL    HW125598   1.084   5.467   6.369
 8233SOL    HW225599   1.024   5.332   6.299
 8234SOL     OW25600   3.005   2.242   6.682
 8234SOL    HW125601   2.968   2.155   6.714
 8234SOL    HW225602   2.941   2.284   6.617
 8235SOL     OW25603   3.924   3.550   1.305
 8235SOL    HW125604   3.966   3.533   1.394
 8235SOL    HW225605   3.855   3.621   1.314
 8236SOL     OW25606   6.712   2.859   0.298
 8236SOL    HW125607   6.726   2.844   0.395
 8236SOL    HW225608   6.627   2.910   0.283
 8237SOL     OW25609   3.698   5.913   5.231
 8237SOL    HW125610   3.766   5.857   5.184
 8237SOL    HW225611   3.695   5.887   5.328
 8238SOL     OW25612   2.353   3.756   6.720
 8238SOL    HW125613   2.307   3.727   6.804
 8238SOL    HW225614   2.334   3.690   6.647
 8239SOL     OW25615   0.006   1.682   5.602
 8239SOL    HW125616   7.002   1.686   5.698
 8239SOL    HW225617   0.038   1.772   5.572
 8240SOL     OW25618   3.215   4.110   2.606
 8240SOL    HW125619   3.193   4.068   2.517
 8240SOL    HW225620   3.311   4.137   2.606
 8241SOL     OW25621   3.236   6.945   0.162
 8241SOL    HW125622   3.181   6.943   0.079
 8241SOL    HW225623   3.309   6.877   0.155
 8242SOL     OW25624   0.706   4.575   5.405
 8242SOL    HW125625   0.748   4.526   5.329
 8242SOL    HW225626   0.747   4.545   5.491
 8243SOL     OW25627   0.465   3.036   5.768
 8243SOL    HW125628   0.525   3.012   5.691
 8243SOL    HW225629   0.510   3.105   5.825
 8244SOL     OW25630   1.134   6.546   4.087
 8244SOL    HW125631   1.165   6.479   4.155
 8244SOL    HW225632   1.213   6.597   4.053
 8245SOL     OW25633   4.728   1.936   0.939
 8245SOL    HW125634   4.745   1.986   0.854
 8245SOL    HW225635   4.816   1.909   0.979
 8246SOL     OW25636   5.931   3.819   6.299
 8246SOL    HW125637   5.955   3.876   6.378
 8246SOL    HW225638   5.864   3.750   6.327
 8247SOL     OW25639   0.612   0.246   1.615
 8247SOL    HW125640   0.551   0.317   1.577
 8247SOL    HW225641   0.609   0.249   1.715
 8248SOL     OW25642   5.683   3.981   3.623
 8248SOL    HW125643   5.633   3.894   3.621
 8248SOL    HW225644   5.619   4.056   3.639
 8249SOL     OW25645   1.943   4.363   4.415
 8249SOL    HW125646   1.917   4.293   4.349
 8249SOL    HW225647   1.974   4.319   4.499
 8250SOL     OW25648   3.699   4.017   2.941
 8250SOL    HW125649   3.733   3.942   2.998
 8250SOL    HW225650   3.705   4.103   2.993
 8251SOL     OW25651   5.482   1.920   4.953
 8251SOL    HW125652   5.484   1.985   4.878
 8251SOL    HW225653   5.566   1.866   4.953
 8252SOL     OW25654   2.537   3.113   6.013
 8252SOL    HW125655   2.471   3.062   5.959
 8252SOL    HW225656   2.604   3.156   5.952
 8253SOL     OW25657   3.004   2.707   5.289
 8253SOL    HW125658   2.940   2.635   5.316
 8253SOL    HW225659   3.097   2.676   5.305
 8254SOL     OW25660   4.254   4.642   4.346
 8254SOL    HW125661   4.342   4.617   4.387
 8254SOL    HW225662   4.235   4.581   4.269
 8255SOL     OW25663   4.576   5.632   4.017
 8255SOL    HW125664   4.502   5.606   4.080
 8255SOL    HW225665   4.620   5.550   3.981
 8256SOL     OW25666   5.224   1.106   4.224
 8256SOL    HW125667   5.169   1.053   4.288
 8256SOL    HW225668   5.165   1.169   4.173
 8257SOL     OW25669   5.693   4.544   3.233
 8257SOL    HW125670   5.721   4.614   3.298
 8257SOL    HW225671   5.624   4.581   3.170
 8258SOL     OW25672   4.354   1.532   0.333
 8258SOL    HW125673   4.357   1.578   0.422
 8258SOL    HW225674   4.371   1.434   0.345
 8259SOL     OW25675   3.437   1.937   3.451
 8259SOL    HW125676   3.512   2.001   3.433
 8259SOL    HW225677   3.350   1.984   3.437
 8260SOL     OW25678   2.891   6.744   2.100
 8260SOL    HW125679   2.804   6.729   2.054
 8260SOL    HW225680   2.956   6.784   2.035
 8261SOL     OW25681   5.558   1.087   1.298
 8261SOL    HW125682   5.657   1.099   1.294
 8261SOL    HW225683   5.514   1.176   1.308
 8262SOL     OW25684   1.291   2.515   1.534
 8262SOL    HW125685   1.212   2.562   1.572
 8262SOL    HW225686   1.309   2.549   1.442
 8263SOL     OW25687   6.904   1.397   1.587
 8263SOL    HW125688   6.813   1.356   1.582
 8263SOL    HW225689   6.917   1.459   1.510
 8264SOL     OW25690   1.217   5.913   2.595
 8264SOL    HW125691   1.265   5.987   2.547
 8264SOL    HW225692   1.263   5.826   2.577
 8265SOL     OW25693   1.462   0.591   1.708
 8265SOL    HW125694   1.363   0.583   1.698
 8265SOL    HW225695   1.505   0.593   1.617
 8266SOL     OW25696   2.424   6.836   2.796
 8266SOL    HW125697   2.407   6.840   2.698
 8266SOL    HW225698   2.473   6.918   2.825
 8267SOL     OW25699   1.741   3.771   0.968
 8267SOL    HW125700   1.672   3.844   0.962
 8267SOL    HW225701   1.749   3.740   1.062
 8268SOL     OW25702   2.444   6.659   6.267
 8268SOL    HW125703   2.410   6.710   6.188
 8268SOL    HW225704   2.500   6.582   6.236
 8269SOL     OW25705   5.380   1.862   1.107
 8269SOL    HW125706   5.425   1.951   1.111
 8269SOL    HW225707   5.291   1.867   1.154
 8270SOL     OW25708   3.400   6.521   4.024
 8270SOL    HW125709   3.409   6.553   4.119
 8270SOL    HW225710   3.334   6.578   3.976
 8271SOL     OW25711   6.756   1.772   2.816
 8271SOL    HW125712   6.777   1.805   2.908
 8271SOL    HW225713   6.834   1.790   2.756
 8272SOL     OW25714   4.547   0.579   2.180
 8272SOL    HW125715   4.452   0.563   2.205
 8272SOL    HW225716   4.596   0.491   2.176
 8273SOL     OW25717   1.872   0.141   1.069
 8273SOL    HW125718   1.852   0.044   1.054
 8273SOL    HW225719   1.895   0.155   1.166
 8274SOL     OW25720   4.344   5.295   3.447
 8274SOL    HW125721   4.399   5.322   3.368
 8274SOL    HW225722   4.263   5.246   3.416
 8275SOL     OW25723   4.536   2.090   6.338
 8275SOL    HW125724   4.537   1.999   6.297
 8275SOL    HW225725   4.629   2.127   6.339
 8276SOL     OW25726   1.374   2.370   4.539
 8276SOL    HW125727   1.290   2.327   4.571
 8276SOL    HW225728   1.371   2.468   4.562
 8277SOL     OW25729   6.698   0.235   6.719
 8277SOL    HW125730   6.708   0.151   6.665
 8277SOL    HW225731   6.607   0.272   6.704
 8278SOL     OW25732   2.737   1.817   0.208
 8278SOL    HW125733   2.811   1.876   0.242
 8278SOL    HW225734   2.671   1.800   0.282
 8279SOL     OW25735   0.742   6.195   3.595
 8279SOL    HW125736   0.758   6.230   3.687
 8279SOL    HW225737   0.818   6.135   3.568
 8280SOL     OW25738   3.111   2.617   6.522
 8280SOL    HW125739   3.153   2.526   6.528
 8280SOL    HW225740   3.132   2.669   6.604
 8281SOL     OW25741   0.886   5.363   1.896
 8281SOL    HW125742   0.898   5.441   1.835
 8281SOL    HW225743   0.867   5.281   1.842
 8282SOL     OW25744   4.967   2.947   6.385
 8282SOL    HW125745   4.900   2.874   6.398
 8282SOL    HW225746   4.996   2.949   6.289
 8283SOL     OW25747   1.203   4.579   5.783
 8283SOL    HW125748   1.127   4.580   5.848
 8283SOL    HW225749   1.210   4.668   5.739
 8284SOL     OW25750   0.405   4.471   2.295
 8284SOL    HW125751   0.334   4.408   2.327
 8284SOL    HW225752   0.367   4.564   2.289
 8285SOL     OW25753   4.223   3.480   5.055
 8285SOL    HW125754   4.227   3.533   5.139
 8285SOL    HW225755   4.247   3.539   4.977
 8286SOL     OW25756   6.739   2.503   5.487
 8286SOL    HW125757   6.772   2.582   5.436
 8286SOL    HW225758   6.749   2.521   5.585
 8287SOL     OW25759   1.068   5.783   4.366
 8287SOL    HW125760   1.024   5.869   4.339
 8287SOL    HW225761   1.058   5.771   4.465
 8288SOL     OW25762   2.651   2.396   2.967
 8288SOL    HW125763   2.730   2.336   2.982
 8288SOL    HW225764   2.658   2.439   2.877
 8289SOL     OW25765   0.954   0.558   0.569
 8289SOL    HW125766   0.934   0.639   0.623
 8289SOL    HW225767   1.051   0.535   0.577
 8290SOL     OW25768   6.169   1.849   0.706
 8290SOL    HW125769   6.137   1.932   0.751
 8290SOL    HW225770   6.168   1.773   0.772
 8291SOL     OW25771   4.308   0.174   6.499
 8291SOL    HW125772   4.227   0.120   6.521
 8291SOL    HW225773   4.322   0.174   6.400
 8292SOL     OW25774   2.740   6.802   0.669
 8292SOL    HW125775   2.686   6.804   0.753
 8292SOL    HW225776   2.723   6.886   0.617
 8293SOL     OW25777   4.447   6.698   5.925
 8293SOL    HW125778   4.422   6.618   5.980
 8293SOL    HW225779   4.504   6.759   5.980
 8294SOL     OW25780   6.168   2.544   6.607
 8294SOL    HW125781   6.217   2.500   6.682
 8294SOL    HW225782   6.192   2.499   6.521
 8295SOL     OW25783   5.479   4.601   1.707
 8295SOL    HW125784   5.458   4.684   1.759
 8295SOL    HW225785   5.395   4.551   1.689
 8296SOL     OW25786   1.103   5.953   6.751
 8296SOL    HW125787   1.182   5.973   6.808
 8296SOL    HW225788   1.033   6.022   6.766
 8297SOL     OW25789   6.208   2.332   3.365
 8297SOL    HW125790   6.189   2.427   3.341
 8297SOL    HW225791   6.218   2.278   3.282
 8298SOL     OW25792   4.733   1.461   1.527
 8298SOL    HW125793   4.689   1.500   1.608
 8298SOL    HW225794   4.823   1.503   1.514
 8299SOL     OW25795   0.305   2.857   1.797
 8299SOL    HW125796   0.207   2.869   1.786
 8299SOL    HW225797   0.338   2.918   1.869
 8300SOL     OW25798   0.891   4.562   5.043
 8300SOL    HW125799   0.968   4.627   5.045
 8300SOL    HW225800   0.924   4.470   5.064
 8301SOL     OW25801   4.137   2.688   1.355
 8301SOL    HW125802   4.118   2.766   1.413
 8301SOL    HW225803   4.050   2.649   1.322
 8302SOL     OW25804   6.017   6.753   6.482
 8302SOL    HW125805   6.091   6.698   6.521
 8302SOL    HW225806   6.026   6.847   6.513
 8303SOL     OW25807   0.438   0.093   4.477
 8303SOL    HW125808   0.489   0.131   4.400
 8303SOL    HW225809   0.501   0.058   4.546
 8304SOL     OW25810   0.496   3.884   6.618
 8304SOL    HW125811   0.540   3.797   6.642
 8304SOL    HW225812   0.481   3.887   6.519
 8305SOL     OW25813   2.951   5.118   3.777
 8305SOL    HW125814   3.034   5.067   3.799
 8305SOL    HW225815   2.880   5.097   3.845
 8306SOL     OW25816   0.773   2.530   5.550
 8306SOL    HW125817   0.779   2.611   5.608
 8306SOL    HW225818   0.840   2.535   5.477
 8307SOL     OW25819   3.451   5.264   0.936
 8307SOL    HW125820   3.451   5.291   0.840
 8307SOL    HW225821   3.366   5.295   0.979
 8308SOL     OW25822   3.874   6.830   1.681
 8308SOL    HW125823   3.899   6.906   1.741
 8308SOL    HW225824   3.839   6.866   1.594
 8309SOL     OW25825   6.067   6.048   2.862
 8309SOL    HW125826   6.103   6.120   2.803
 8309SOL    HW225827   6.007   5.988   2.809
 8310SOL     OW25828   0.586   4.750   0.645
 8310SOL    HW125829   0.579   4.729   0.742
 8310SOL    HW225830   0.509   4.710   0.596
 8311SOL     OW25831   6.745   0.821   6.501
 8311SOL    HW125832   6.736   0.754   6.427
 8311SOL    HW225833   6.841   0.830   6.527
 8312SOL     OW25834   4.846   6.657   1.580
 8312SOL    HW125835   4.830   6.727   1.650
 8312SOL    HW225836   4.934   6.612   1.598
 8313SOL     OW25837   3.710   1.603   2.887
 8313SOL    HW125838   3.655   1.528   2.925
 8313SOL    HW225839   3.654   1.658   2.826
 8314SOL     OW25840   5.733   6.958   1.394
 8314SOL    HW125841   5.800   6.920   1.459
 8314SOL    HW225842   5.741   0.035   1.393
 8315SOL     OW25843   4.652   3.209   0.643
 8315SOL    HW125844   4.553   3.196   0.640
 8315SOL    HW225845   4.698   3.120   0.648
 8316SOL     OW25846   0.718   4.387   0.944
 8316SOL    HW125847   0.775   4.405   0.863
 8316SOL    HW225848   0.624   4.415   0.926
 8317SOL     OW25849   2.065   3.879   2.610
 8317SOL    HW125850   2.028   3.970   2.629
 8317SOL    HW225851   2.108   3.879   2.519
 8318SOL     OW25852   4.410   1.726   4.952
 8318SOL    HW125853   4.429   1.631   4.977
 8318SOL    HW225854   4.315   1.733   4.919
 8319SOL     OW25855   3.441   1.358   5.376
 8319SOL    HW125856   3.458   1.442   5.324
 8319SOL    HW225857   3.378   1.377   5.450
 8320SOL     OW25858   3.058   4.768   1.351
 8320SOL    HW125859   3.060   4.796   1.255
 8320SOL    HW225860   3.129   4.699   1.366
 8321SOL     OW25861   0.292   1.098   0.264
 8321SOL    HW125862   0.303   1.063   0.171
 8321SOL    HW225863   0.215   1.052   0.309
 8322SOL     OW25864   0.117   0.128   6.944
 8322SOL    HW125865   0.137   0.030   6.952
 8322SOL    HW225866   0.187   0.171   6.887
 8323SOL     OW25867   0.915   1.109   2.329
 8323SOL    HW125868   0.862   1.191   2.307
 8323SOL    HW225869   0.964   1.124   2.415
 8324SOL     OW25870   6.242   0.580   1.885
 8324SOL    HW125871   6.245   0.677   1.861
 8324SOL    HW225872   6.151   0.558   1.921
 8325SOL     OW25873   3.903   3.234   4.194
 8325SOL    HW125874   3.984   3.253   4.138
 8325SOL    HW225875   3.844   3.315   4.195
 8326SOL     OW25876   4.607   3.321   5.577
 8326SOL    HW125877   4.605   3.397   5.642
 8326SOL    HW225878   4.531   3.331   5.513
 8327SOL     OW25879   5.329   2.601   5.965
 8327SOL    HW125880   5.366   2.692   5.987
 8327SOL    HW225881   5.231   2.601   5.984
 8328SOL     OW25882   2.495   3.970   6.306
 8328SOL    HW125883   2.427   3.909   6.266
 8328SOL    HW225884   2.558   3.917   6.363
 8329SOL     OW25885   0.403   3.060   5.119
 8329SOL    HW125886   0.475   3.079   5.052
 8329SOL    HW225887   0.369   2.967   5.105
 8330SOL     OW25888   1.644   6.318   0.795
 8330SOL    HW125889   1.686   6.401   0.759
 8330SOL    HW225890   1.632   6.252   0.721
 8331SOL     OW25891   3.361   0.291   1.175
 8331SOL    HW125892   3.281   0.281   1.234
 8331SOL    HW225893   3.427   0.352   1.218
 8332SOL     OW25894   4.939   4.987   1.870
 8332SOL    HW125895   4.896   5.069   1.907
 8332SOL    HW225896   4.984   4.937   1.944
 8333SOL     OW25897   0.549   6.033   0.360
 8333SOL    HW125898   0.629   6.080   0.396
 8333SOL    HW225899   0.547   6.042   0.260
 8334SOL     OW25900   5.886   1.662   3.690
 8334SOL    HW125901   5.830   1.741   3.662
 8334SOL    HW225902   5.906   1.606   3.610
 8335SOL     OW25903   6.100   5.650   6.156
 8335SOL    HW125904   6.182   5.640   6.099
 8335SOL    HW225905   6.127   5.676   6.249
 8336SOL     OW25906   0.042   1.822   2.285
 8336SOL    HW125907   6.974   1.784   2.301
 8336SOL    HW225908   0.064   1.887   2.359
 8337SOL     OW25909   0.676   6.193   2.949
 8337SOL    HW125910   0.748   6.163   2.887
 8337SOL    HW225911   0.680   6.292   2.960
 8338SOL     OW25912   1.776   5.131   1.455
 8338SOL    HW125913   1.871   5.151   1.477
 8338SOL    HW225914   1.768   5.108   1.358
 8339SOL     OW25915   6.347   1.044   2.463
 8339SOL    HW125916   6.250   1.027   2.443
 8339SOL    HW225917   6.357   1.073   2.558
 8340SOL     OW25918   4.899   3.751   0.943
 8340SOL    HW125919   4.821   3.694   0.964
 8340SOL    HW225920   4.893   3.837   0.995
 8341SOL     OW25921   2.075   0.065   0.558
 8341SOL    HW125922   2.159   0.077   0.611
 8341SOL    HW225923   2.008   0.016   0.614
 8342SOL     OW25924   3.746   0.612   0.786
 8342SOL    HW125925   3.836   0.568   0.789
 8342SOL    HW225926   3.715   0.619   0.691
 8343SOL     OW25927   1.683   5.625   6.130
 8343SOL    HW125928   1.681   5.720   6.097
 8343SOL    HW225929   1.642   5.565   6.062
 8344SOL     OW25930   4.282   6.236   5.901
 8344SOL    HW125931   4.204   6.299   5.903
 8344SOL    HW225932   4.360   6.279   5.948
 8345SOL     OW25933   5.905   1.804   3.084
 8345SOL    HW125934   5.934   1.787   2.990
 8345SOL    HW225935   5.850   1.888   3.087
 8346SOL     OW25936   2.556   5.057   0.479
 8346SOL    HW125937   2.520   4.974   0.522
 8346SOL    HW225938   2.632   5.092   0.534
 8347SOL     OW25939   2.632   6.377   5.102
 8347SOL    HW125940   2.628   6.467   5.060
 8347SOL    HW225941   2.649   6.387   5.200
 8348SOL     OW25942   1.211   0.840   1.161
 8348SOL    HW125943   1.236   0.846   1.258
 8348SOL    HW225944   1.224   0.746   1.129
 8349SOL     OW25945   5.702   3.761   0.866
 8349SOL    HW125946   5.634   3.783   0.936
 8349SOL    HW225947   5.657   3.750   0.778
 8350SOL     OW25948   6.070   0.956   4.952
 8350SOL    HW125949   6.051   0.872   5.002
 8350SOL    HW225950   6.065   0.939   4.854
 8351SOL     OW25951   3.420   5.994   4.248
 8351SOL    HW125952   3.493   5.935   4.283
 8351SOL    HW225953   3.399   5.967   4.154
 8352SOL     OW25954   6.586   6.799   2.145
 8352SOL    HW125955   6.666   6.854   2.124
 8352SOL    HW225956   6.605   6.740   2.224
 8353SOL     OW25957   6.076   3.446   2.370
 8353SOL    HW125958   6.048   3.509   2.298
 8353SOL    HW225959   6.136   3.493   2.435
 8354SOL     OW25960   2.992   1.475   6.861
 8354SOL    HW125961   3.011   1.378   6.876
 8354SOL    HW225962   2.898   1.486   6.830
 8355SOL     OW25963   3.020   0.452   0.186
 8355SOL    HW125964   2.981   0.536   0.150
 8355SOL    HW225965   3.081   0.473   0.263
 8356SOL     OW25966   1.042   6.105   0.573
 8356SOL    HW125967   1.026   6.202   0.591
 8356SOL    HW225968   1.139   6.089   0.556
 8357SOL     OW25969   3.374   5.218   4.545
 8357SOL    HW125970   3.335   5.130   4.517
 8357SOL    HW225971   3.466   5.204   4.582
 8358SOL     OW25972   1.848   2.417   5.619
 8358SOL    HW125973   1.919   2.348   5.602
 8358SOL    HW225974   1.869   2.465   5.704
 8359SOL     OW25975   4.258   5.307   4.405
 8359SOL    HW125976   4.168   5.315   4.362
 8359SOL    HW225977   4.284   5.396   4.443
 8360SOL     OW25978   4.481   0.068   3.074
 8360SOL    HW125979   4.524   7.000   3.078
 8360SOL    HW225980   4.459   0.090   2.979
 8361SOL     OW25981   1.867   1.584   2.602
 8361SOL    HW125982   1.961   1.554   2.593
 8361SOL    HW225983   1.857   1.640   2.684
 8362SOL     OW25984   2.432   2.758   0.830
 8362SOL    HW125985   2.529   2.758   0.807
 8362SOL    HW225986   2.421   2.765   0.930
 8363SOL     OW25987   1.093   3.017   0.711
 8363SOL    HW125988   1.027   3.037   0.638
 8363SOL    HW225989   1.045   2.975   0.788
 8364SOL     OW25990   6.399   3.478   2.967
 8364SOL    HW125991   6.487   3.435   2.986
 8364SOL    HW225992   6.411   3.554   2.905
 8365SOL     OW25993   1.861   3.480   0.607
 8365SOL    HW125994   1.801   3.557   0.628
 8365SOL    HW225995   1.956   3.504   0.630
 8366SOL     OW25996   4.647   5.964   2.496
 8366SOL    HW125997   4.745   5.974   2.507
 8366SOL    HW225998   4.618   5.875   2.531
 8367SOL     OW25999   4.571   6.069   3.594
 8367SOL    HW126000   4.657   6.043   3.638
 8367SOL    HW226001   4.569   6.035   3.500
 8368SOL     OW26002   2.811   5.309   6.135
 8368SOL    HW126003   2.824   5.237   6.066
 8368SOL    HW226004   2.756   5.273   6.210
 8369SOL     OW26005   2.001   0.719   0.111
 8369SOL    HW126006   1.930   0.650   0.127
 8369SOL    HW226007   2.000   0.785   0.186
 8370SOL     OW26008   1.912   2.087   6.250
 8370SOL    HW126009   1.885   2.135   6.166
 8370SOL    HW226010   1.935   2.153   6.321
 8371SOL     OW26011   1.297   3.149   0.845
 8371SOL    HW126012   1.353   3.157   0.762
 8371SOL    HW226013   1.209   3.109   0.822
 8372SOL     OW26014   0.472   0.130   2.766
 8372SOL    HW126015   0.508   0.036   2.767
 8372SOL    HW226016   0.392   0.135   2.825
 8373SOL     OW26017   0.995   6.721   5.734
 8373SOL    HW126018   0.985   6.699   5.831
 8373SOL    HW226019   1.007   6.820   5.723
 8374SOL     OW26020   6.595   1.004   0.143
 8374SOL    HW126021   6.566   0.957   0.227
 8374SOL    HW226022   6.662   1.074   0.166
 8375SOL     OW26023   3.345   5.854   5.892
 8375SOL    HW126024   3.294   5.806   5.821
 8375SOL    HW226025   3.316   5.950   5.894
 8376SOL     OW26026   2.876   0.172   3.944
 8376SOL    HW126027   2.962   0.165   3.893
 8376SOL    HW226028   2.885   0.125   4.032
 8377SOL     OW26029   5.844   5.747   0.979
 8377SOL    HW126030   5.875   5.842   0.975
 8377SOL    HW226031   5.771   5.739   1.047
 8378SOL     OW26032   5.350   3.174   3.154
 8378SOL    HW126033   5.425   3.234   3.182
 8378SOL    HW226034   5.340   3.100   3.220
 8379SOL     OW26035   6.403   3.810   1.965
 8379SOL    HW126036   6.495   3.822   2.002
 8379SOL    HW226037   6.398   3.854   1.876
 8380SOL     OW26038   6.043   1.078   2.456
 8380SOL    HW126039   5.957   1.039   2.423
 8380SOL    HW226040   6.025   1.166   2.501
 8381SOL     OW26041   1.253   5.363   4.775
 8381SOL    HW126042   1.162   5.354   4.734
 8381SOL    HW226043   1.244   5.411   4.863
 8382SOL     OW26044   1.440   2.015   2.790
 8382SOL    HW126045   1.457   2.101   2.840
 8382SOL    HW226046   1.358   1.971   2.827
 8383SOL     OW26047   2.689   2.277   6.803
 8383SOL    HW126048   2.718   2.307   6.712
 8383SOL    HW226049   2.740   2.328   6.873
 8384SOL     OW26050   6.927   6.165   0.853
 8384SOL    HW126051   6.963   6.135   0.764
 8384SOL    HW226052   6.956   6.259   0.870
 8385SOL     OW26053   4.775   1.933   2.202
 8385SOL    HW126054   4.870   1.950   2.226
 8385SOL    HW226055   4.727   1.895   2.281
 8386SOL     OW26056   1.037   4.015   2.797
 8386SOL    HW126057   1.009   4.097   2.846
 8386SOL    HW226058   1.070   3.947   2.862
 8387SOL     OW26059   1.608   1.547   1.209
 8387SOL    HW126060   1.512   1.544   1.181
 8387SOL    HW226061   1.634   1.458   1.248
 8388SOL     OW26062   3.081   6.089   1.596
 8388SOL    HW126063   3.056   6.028   1.671
 8388SOL    HW226064   3.000   6.108   1.540
 8389SOL     OW26065   5.231   2.878   1.854
 8389SOL    HW126066   5.133   2.879   1.875
 8389SOL    HW226067   5.279   2.827   1.925
 8390SOL     OW26068   4.386   2.001   5.858
 8390SOL    HW126069   4.342   1.999   5.948
 8390SOL    HW226070   4.420   1.909   5.836
 8391SOL     OW26071   6.579   0.114   0.687
 8391SOL    HW126072   6.571   0.139   0.591
 8391SOL    HW226073   6.657   0.162   0.728
 8392SOL     OW26074   5.968   3.593   4.405
 8392SOL    HW126075   5.978   3.592   4.305
 8392SOL    HW226076   5.930   3.506   4.436
 8393SOL     OW26077   4.838   6.872   1.780
 8393SOL    HW126078   4.739   6.867   1.794
 8393SOL    HW226079   4.883   6.899   1.865
 8394SOL     OW26080   6.131   4.036   2.642
 8394SOL    HW126081   6.133   4.059   2.739
 8394SOL    HW226082   6.069   3.960   2.626
 8395SOL     OW26083   2.314   0.629   5.305
 8395SOL    HW126084   2.307   0.542   5.354
 8395SOL    HW226085   2.223   0.659   5.278
 8396SOL     OW26086   4.672   5.643   5.073
 8396SOL    HW126087   4.726   5.724   5.096
 8396SOL    HW226088   4.590   5.670   5.022
 8397SOL     OW26089   6.597   1.355   3.793
 8397SOL    HW126090   6.675   1.415   3.808
 8397SOL    HW226091   6.555   1.377   3.705
 8398SOL     OW26092   5.497   2.149   5.659
 8398SOL    HW126093   5.400   2.139   5.638
 8398SOL    HW226094   5.551   2.142   5.574
 8399SOL     OW26095   6.870   5.688   6.971
 8399SOL    HW126096   6.918   5.689   6.883
 8399SOL    HW226097   6.931   5.654   0.019
 8400SOL     OW26098   1.738   2.113   4.048
 8400SOL    HW126099   1.648   2.096   4.008
 8400SOL    HW226100   1.757   2.211   4.047
 8401SOL     OW26101   2.574   0.310   5.535
 8401SOL    HW126102   2.559   0.303   5.436
 8401SOL    HW226103   2.606   0.402   5.557
 8402SOL     OW26104   4.593   0.879   5.664
 8402SOL    HW126105   4.516   0.897   5.725
 8402SOL    HW226106   4.561   0.875   5.570
 8403SOL     OW26107   6.319   4.280   4.149
 8403SOL    HW126108   6.231   4.247   4.182
 8403SOL    HW226109   6.376   4.202   4.123
 8404SOL     OW26110   2.347   2.057   6.322
 8404SOL    HW126111   2.380   2.137   6.372
 8404SOL    HW226112   2.394   1.975   6.356
 8405SOL     OW26113   3.891   1.468   5.211
 8405SOL    HW126114   3.956   1.449   5.284
 8405SOL    HW226115   3.891   1.566   5.191
 8406SOL     OW26116   4.958   1.024   6.468
 8406SOL    HW126117   4.891   1.007   6.397
 8406SOL    HW226118   4.997   1.116   6.456
 8407SOL     OW26119   3.689   6.388   3.400
 8407SOL    HW126120   3.655   6.303   3.440
 8407SOL    HW226121   3.644   6.466   3.445
 8408SOL     OW26122   5.339   6.924   0.863
 8408SOL    HW126123   5.416   6.963   0.812
 8408SOL    HW226124   5.257   6.924   0.806
 8409SOL     OW26125   4.431   2.437   2.037
 8409SOL    HW126126   4.453   2.426   2.134
 8409SOL    HW226127   4.499   2.388   1.982
 8410SOL     OW26128   6.886   2.024   1.671
 8410SOL    HW126129   6.929   2.097   1.619
 8410SOL    HW226130   6.877   1.942   1.614
 8411SOL     OW26131   0.760   6.418   0.766
 8411SOL    HW126132   0.728   6.486   0.700
 8411SOL    HW226133   0.682   6.385   0.820
 8412SOL     OW26134   3.111   3.613   0.614
 8412SOL    HW126135   3.076   3.691   0.666
 8412SOL    HW226136   3.143   3.645   0.525
 8413SOL     OW26137   4.007   5.571   5.418
 8413SOL    HW126138   4.050   5.529   5.499
 8413SOL    HW226139   3.911   5.587   5.437
 8414SOL     OW26140   1.510   0.848   2.482
 8414SOL    HW126141   1.493   0.816   2.389
 8414SOL    HW226142   1.495   0.773   2.547
 8415SOL     OW26143   2.551   0.150   4.332
 8415SOL    HW126144   2.528   0.247   4.325
 8415SOL    HW226145   2.603   0.122   4.251
 8416SOL     OW26146   6.422   1.663   4.386
 8416SOL    HW126147   6.467   1.742   4.345
 8416SOL    HW226148   6.464   1.644   4.475
 8417SOL     OW26149   1.025   3.207   5.117
 8417SOL    HW126150   0.967   3.140   5.163
 8417SOL    HW226151   1.120   3.196   5.148
 8418SOL     OW26152   0.941   5.855   2.321
 8418SOL    HW126153   0.977   5.876   2.230
 8418SOL    HW226154   0.972   5.764   2.348
 8419SOL     OW26155   5.273   0.449   3.261
 8419SOL    HW126156   5.298   0.500   3.178
 8419SOL    HW226157   5.355   0.422   3.310
 8420SOL     OW26158   3.296   6.467   2.020
 8420SOL    HW126159   3.361   6.537   2.050
 8420SOL    HW226160   3.203   6.502   2.031
 8421SOL     OW26161   3.924   6.412   5.912
 8421SOL    HW126162   3.938   6.491   5.852
 8421SOL    HW226163   3.835   6.420   5.958
 8422SOL     OW26164   4.609   2.535   2.635
 8422SOL    HW126165   4.633   2.588   2.553
 8422SOL    HW226166   4.515   2.503   2.627
 8423SOL     OW26167   5.618   4.248   6.018
 8423SOL    HW126168   5.558   4.278   6.092
 8423SOL    HW226169   5.708   4.225   6.055
 8424SOL     OW26170   1.962   0.242   3.460
 8424SOL    HW126171   2.048   0.292   3.458
 8424SOL    HW226172   1.970   0.158   3.405
 8425SOL     OW26173   2.902   3.368   3.269
 8425SOL    HW126174   2.846   3.414   3.199
 8425SOL    HW226175   2.891   3.415   3.357
 8426SOL     OW26176   3.886   2.943   2.085
 8426SOL    HW126177   3.942   2.880   2.140
 8426SOL    HW226178   3.900   3.036   2.117
 8427SOL     OW26179   3.039   3.114   3.315
 8427SOL    HW126180   2.991   3.201   3.303
 8427SOL    HW226181   3.038   3.089   3.412
 8428SOL     OW26182   6.719   0.701   0.827
 8428SOL    HW126183   6.727   0.755   0.911
 8428SOL    HW226184   6.763   0.750   0.752
 8429SOL     OW26185   1.996   5.502   6.245
 8429SOL    HW126186   2.032   5.523   6.336
 8429SOL    HW226187   1.953   5.413   6.246
 8430SOL     OW26188   4.331   5.917   4.258
 8430SOL    HW126189   4.405   5.926   4.324
 8430SOL    HW226190   4.246   5.952   4.297
 8431SOL     OW26191   2.514   3.179   6.509
 8431SOL    HW126192   2.613   3.185   6.502
 8431SOL    HW226193   2.473   3.185   6.418
 8432SOL     OW26194   0.117   5.611   6.283
 8432SOL    HW126195   0.143   5.581   6.374
 8432SOL    HW226196   0.191   5.590   6.218
 8433SOL     OW26197   4.408   2.497   0.960
 8433SOL    HW126198   4.362   2.411   0.981
 8433SOL    HW226199   4.373   2.532   0.872
 8434SOL     OW26200   2.150   5.651   5.036
 8434SOL    HW126201   2.181   5.716   4.966
 8434SOL    HW226202   2.057   5.673   5.063
 8435SOL     OW26203   5.030   0.883   2.393
 8435SOL    HW126204   5.013   0.906   2.297
 8435SOL    HW226205   5.057   0.965   2.443
 8436SOL     OW26206   2.550   6.843   3.537
 8436SOL    HW126207   2.546   6.820   3.634
 8436SOL    HW226208   2.483   6.914   3.517
 8437SOL     OW26209   2.289   2.861   2.454
 8437SOL    HW126210   2.249   2.876   2.544
 8437SOL    HW226211   2.262   2.935   2.393
 8438SOL     OW26212   1.557   4.377   3.240
 8438SOL    HW126213   1.612   4.341   3.315
 8438SOL    HW226214   1.508   4.302   3.195
 8439SOL     OW26215   5.873   5.469   3.364
 8439SOL    HW126216   5.834   5.561   3.358
 8439SOL    HW226217   5.824   5.409   3.300
 8440SOL     OW26218   2.173   1.240   3.490
 8440SOL    HW126219   2.138   1.252   3.397
 8440SOL    HW226220   2.273   1.229   3.486
 8441SOL     OW26221   5.346   6.773   5.513
 8441SOL    HW126222   5.258   6.729   5.491
 8441SOL    HW226223   5.403   6.776   5.431
 8442SOL     OW26224   3.808   0.782   5.024
 8442SOL    HW126225   3.852   0.696   4.996
 8442SOL    HW226226   3.875   0.855   5.025
 8443SOL     OW26227   1.443   4.983   3.541
 8443SOL    HW126228   1.495   5.031   3.470
 8443SOL    HW226229   1.479   4.890   3.551
 8444SOL     OW26230   4.382   5.776   3.269
 8444SOL    HW126231   4.365   5.697   3.328
 8444SOL    HW226232   4.295   5.818   3.244
 8445SOL     OW26233   3.352   6.993   6.846
 8445SOL    HW126234   3.426   6.929   6.827
 8445SOL    HW226235   3.288   6.951   6.911
 8446SOL     OW26236   0.309   6.300   5.106
 8446SOL    HW126237   0.406   6.297   5.126
 8446SOL    HW226238   0.257   6.279   5.188
 8447SOL     OW26239   3.831   1.173   2.366
 8447SOL    HW126240   3.860   1.177   2.462
 8447SOL    HW226241   3.833   1.077   2.336
 8448SOL     OW26242   4.886   6.580   2.760
 8448SOL    HW126243   4.881   6.492   2.808
 8448SOL    HW226244   4.978   6.594   2.725
 8449SOL     OW26245   1.804   2.536   3.590
 8449SOL    HW126246   1.861   2.587   3.525
 8449SOL    HW226247   1.839   2.443   3.599
 8450SOL     OW26248   6.406   0.759   6.816
 8450SOL    HW126249   6.367   0.668   6.801
 8450SOL    HW226250   6.425   0.801   6.727
 8451SOL     OW26251   4.467   2.142   1.215
 8451SOL    HW126252   4.563   2.117   1.211
 8451SOL    HW226253   4.421   2.084   1.283
 8452SOL     OW26254   5.213   1.830   4.867
 8452SOL    HW126255   5.293   1.839   4.926
 8452SOL    HW226256   5.215   1.742   4.821
 8453SOL     OW26257   0.827   6.147   0.031
 8453SOL    HW126258   0.911   6.093   0.025
 8453SOL    HW226259   0.749   6.086   0.043
 8454SOL     OW26260   0.658   4.697   0.011
 8454SOL    HW126261   0.699   4.631   6.970
 8454SOL    HW226262   0.595   4.649   0.073
 8455SOL     OW26263   1.068   0.586   2.481
 8455SOL    HW126264   1.012   0.576   2.563
 8455SOL    HW226265   1.140   0.516   2.481
 8456SOL     OW26266   5.392   1.077   3.145
 8456SOL    HW126267   5.357   1.170   3.147
 8456SOL    HW226268   5.420   1.050   3.237
 8457SOL     OW26269   6.210   6.409   5.198
 8457SOL    HW126270   6.117   6.444   5.193
 8457SOL    HW226271   6.268   6.474   5.249
 8458SOL     OW26272   6.884   0.446   6.692
 8458SOL    HW126273   6.804   0.386   6.689
 8458SOL    HW226274   6.856   0.539   6.711
 8459SOL     OW26275   1.662   5.912   3.327
 8459SOL    HW126276   1.680   5.855   3.407
 8459SOL    HW226277   1.720   5.881   3.251
 8460SOL     OW26278   3.226   4.114   4.977
 8460SOL    HW126279   3.216   4.181   4.904
 8460SOL    HW226280   3.275   4.034   4.942
 8461SOL     OW26281   6.863   2.608   4.937
 8461SOL    HW126282   6.823   2.543   5.002
 8461SOL    HW226283   6.790   2.657   4.890
 8462SOL     OW26284   2.469   2.097   1.769
 8462SOL    HW126285   2.484   2.180   1.824
 8462SOL    HW226286   2.444   2.123   1.676
 8463SOL     OW26287   6.002   0.637   2.168
 8463SOL    HW126288   5.922   0.643   2.228
 8463SOL    HW226289   6.012   0.722   2.117
 8464SOL     OW26290   5.902   3.259   4.379
 8464SOL    HW126291   5.814   3.217   4.399
 8464SOL    HW226292   5.894   3.316   4.297
 8465SOL     OW26293   1.753   1.866   0.506
 8465SOL    HW126294   1.853   1.862   0.516
 8465SOL    HW226295   1.723   1.961   0.512
 8466SOL     OW26296   0.853   5.699   3.308
 8466SOL    HW126297   0.847   5.601   3.285
 8466SOL    HW226298   0.908   5.746   3.239
 8467SOL     OW26299   2.920   5.607   1.059
 8467SOL    HW126300   2.878   5.531   1.109
 8467SOL    HW226301   3.017   5.589   1.048
 8468SOL     OW26302   4.782   2.030   6.791
 8468SOL    HW126303   4.861   2.077   6.831
 8468SOL    HW226304   4.788   1.932   6.812
 8469SOL     OW26305   3.207   2.843   6.338
 8469SOL    HW126306   3.186   2.772   6.404
 8469SOL    HW226307   3.237   2.801   6.252
 8470SOL     OW26308   2.816   3.217   6.875
 8470SOL    HW126309   2.757   3.191   6.799
 8470SOL    HW226310   2.840   3.135   6.929
 8471SOL     OW26311   3.354   0.961   3.723
 8471SOL    HW126312   3.257   0.979   3.704
 8471SOL    HW226313   3.370   0.966   3.821
 8472SOL     OW26314   0.954   6.868   4.358
 8472SOL    HW126315   0.906   6.805   4.420
 8472SOL    HW226316   1.048   6.835   4.344
 8473SOL     OW26317   6.918   5.236   6.856
 8473SOL    HW126318   6.850   5.191   6.797
 8473SOL    HW226319   6.992   5.172   6.875
 8474SOL     OW26320   3.352   3.753   1.286
 8474SOL    HW126321   3.319   3.659   1.284
 8474SOL    HW226322   3.337   3.796   1.197
 8475SOL     OW26323   6.052   1.592   2.342
 8475SOL    HW126324   6.121   1.633   2.401
 8475SOL    HW226325   6.043   1.646   2.258
 8476SOL     OW26326   4.451   1.025   2.120
 8476SOL    HW126327   4.534   1.060   2.076
 8476SOL    HW226328   4.405   1.099   2.169
 8477SOL     OW26329   2.863   0.442   1.070
 8477SOL    HW126330   2.767   0.414   1.057
 8477SOL    HW226331   2.920   0.360   1.081
 8478SOL     OW26332   1.187   0.768   5.659
 8478SOL    HW126333   1.261   0.789   5.595
 8478SOL    HW226334   1.218   0.782   5.753
 8479SOL     OW26335   6.036   1.092   0.776
 8479SOL    HW126336   6.020   0.995   0.790
 8479SOL    HW226337   6.094   1.105   0.695
 8480SOL     OW26338   3.308   0.743   1.613
 8480SOL    HW126339   3.338   0.754   1.518
 8480SOL    HW226340   3.319   0.648   1.641
 8481SOL     OW26341   3.736   1.423   4.300
 8481SOL    HW126342   3.640   1.395   4.296
 8481SOL    HW226343   3.753   1.473   4.385
 8482SOL     OW26344   1.224   6.844   1.963
 8482SOL    HW126345   1.135   6.843   2.007
 8482SOL    HW226346   1.262   6.937   1.967
 8483SOL     OW26347   3.744   5.947   0.878
 8483SOL    HW126348   3.715   5.872   0.937
 8483SOL    HW226349   3.664   5.996   0.844
 8484SOL     OW26350   0.607   4.945   4.542
 8484SOL    HW126351   0.588   4.855   4.582
 8484SOL    HW226352   0.551   5.014   4.587
 8485SOL     OW26353   2.212   4.224   7.003
 8485SOL    HW126354   2.201   4.127   6.983
 8485SOL    HW226355   2.261   4.235   0.067
 8486SOL     OW26356   5.783   0.826   1.895
 8486SOL    HW126357   5.812   0.833   1.800
 8486SOL    HW226358   5.742   0.737   1.911
 8487SOL     OW26359   5.256   0.135   1.238
 8487SOL    HW126360   5.171   0.087   1.259
 8487SOL    HW226361   5.238   0.203   1.166
 8488SOL     OW26362   5.003   3.556   3.977
 8488SOL    HW126363   4.961   3.535   4.065
 8488SOL    HW226364   5.011   3.472   3.923
 8489SOL     OW26365   4.968   4.679   1.578
 8489SOL    HW126366   4.983   4.611   1.506
 8489SOL    HW226367   4.902   4.747   1.545
 8490SOL     OW26368   4.393   4.967   3.253
 8490SOL    HW126369   4.431   4.879   3.224
 8490SOL    HW226370   4.450   5.042   3.217
 8491SOL     OW26371   2.271   0.653   2.001
 8491SOL    HW126372   2.257   0.705   2.084
 8491SOL    HW226373   2.367   0.627   1.993
 8492SOL     OW26374   6.133   2.541   5.135
 8492SOL    HW126375   6.079   2.458   5.147
 8492SOL    HW226376   6.231   2.518   5.138
 8493SOL     OW26377   4.517   1.806   6.673
 8493SOL    HW126378   4.486   1.812   6.767
 8493SOL    HW226379   4.441   1.779   6.614
 8494SOL     OW26380   3.093   5.622   6.730
 8494SOL    HW126381   2.993   5.617   6.729
 8494SOL    HW226382   3.127   5.598   6.821
 8495SOL     OW26383   0.047   2.382   0.856
 8495SOL    HW126384   0.135   2.335   0.864
 8495SOL    HW226385   0.043   2.455   0.924
 8496SOL     OW26386   0.057   2.410   3.467
 8496SOL    HW126387   6.994   2.359   3.478
 8496SOL    HW226388   0.094   2.395   3.375
 8497SOL     OW26389   6.241   5.152   3.542
 8497SOL    HW126390   6.209   5.178   3.451
 8497SOL    HW226391   6.162   5.144   3.603
 8498SOL     OW26392   0.010   0.834   1.451
 8498SOL    HW126393   0.075   0.793   1.515
 8498SOL    HW226394   0.041   0.926   1.426
 8499SOL     OW26395   3.216   4.328   6.392
 8499SOL    HW126396   3.166   4.342   6.478
 8499SOL    HW226397   3.299   4.275   6.411
 8500SOL     OW26398   2.766   6.562   5.992
 8500SOL    HW126399   2.826   6.504   5.936
 8500SOL    HW226400   2.728   6.508   6.067
 8501SOL     OW26401   1.927   3.637   6.909
 8501SOL    HW126402   1.951   3.657   6.813
 8501SOL    HW226403   1.842   3.684   6.932
 8502SOL     OW26404   6.650   6.724   1.848
 8502SOL    HW126405   6.687   6.790   1.914
 8502SOL    HW226406   6.570   6.679   1.887
 8503SOL     OW26407   2.559   4.774   3.285
 8503SOL    HW126408   2.522   4.682   3.296
 8503SOL    HW226409   2.659   4.770   3.282
 8504SOL     OW26410   1.308   5.405   3.613
 8504SOL    HW126411   1.217   5.416   3.572
 8504SOL    HW226412   1.330   5.308   3.619
 8505SOL     OW26413   4.883   3.704   3.453
 8505SOL    HW126414   4.872   3.768   3.377
 8505SOL    HW226415   4.927   3.751   3.530
 8506SOL     OW26416   1.502   6.612   0.279
 8506SOL    HW126417   1.437   6.536   0.277
 8506SOL    HW226418   1.453   6.698   0.284
 8507SOL     OW26419   1.739   1.132   6.210
 8507SOL    HW126420   1.682   1.155   6.288
 8507SOL    HW226421   1.721   1.196   6.135
 8508SOL     OW26422   6.882   2.264   5.521
 8508SOL    HW126423   6.842   2.354   5.504
 8508SOL    HW226424   6.981   2.273   5.532
 8509SOL     OW26425   5.995   1.984   3.959
 8509SOL    HW126426   5.970   2.065   4.012
 8509SOL    HW226427   5.936   1.908   3.986
 8510SOL     OW26428   5.871   5.888   2.744
 8510SOL    HW126429   5.806   5.941   2.799
 8510SOL    HW226430   5.826   5.808   2.706
 8511SOL     OW26431   6.821   4.737   1.672
 8511SOL    HW126432   6.829   4.638   1.660
 8511SOL    HW226433   6.808   4.758   1.769
 8512SOL     OW26434   5.128   2.396   0.061
 8512SOL    HW126435   5.159   2.315   0.111
 8512SOL    HW226436   5.202   2.432   0.005
 8513SOL     OW26437   6.237   4.492   1.039
 8513SOL    HW126438   6.173   4.454   0.972
 8513SOL    HW226439   6.279   4.418   1.091
 8514SOL     OW26440   2.758   1.340   4.779
 8514SOL    HW126441   2.725   1.333   4.873
 8514SOL    HW226442   2.742   1.432   4.745
 8515SOL     OW26443   0.895   0.961   0.375
 8515SOL    HW126444   0.873   0.981   0.471
 8515SOL    HW226445   0.823   0.999   0.317
 8516SOL     OW26446   5.964   3.019   2.403
 8516SOL    HW126447   6.017   2.987   2.325
 8516SOL    HW226448   5.960   3.119   2.401
 8517SOL     OW26449   1.537   2.995   5.158
 8517SOL    HW126450   1.484   2.941   5.092
 8517SOL    HW226451   1.583   3.070   5.110
 8518SOL     OW26452   5.180   4.784   6.785
 8518SOL    HW126453   5.214   4.851   6.719
 8518SOL    HW226454   5.188   4.821   6.878
 8519SOL     OW26455   1.365   4.161   0.902
 8519SOL    HW126456   1.330   4.242   0.853
 8519SOL    HW226457   1.411   4.101   0.837
 8520SOL     OW26458   3.989   4.012   4.859
 8520SOL    HW126459   4.048   4.086   4.826
 8520SOL    HW226460   3.955   3.959   4.781
 8521SOL     OW26461   1.340   6.289   5.221
 8521SOL    HW126462   1.281   6.258   5.296
 8521SOL    HW226463   1.382   6.376   5.245
 8522SOL     OW26464   1.429   0.134   0.545
 8522SOL    HW126465   1.348   0.191   0.557
 8522SOL    HW226466   1.402   0.037   0.546
 8523SOL     OW26467   2.606   0.073   6.283
 8523SOL    HW126468   2.513   0.038   6.272
 8523SOL    HW226469   2.637   0.113   6.197
 8524SOL     OW26470   1.454   5.201   4.737
 8524SOL    HW126471   1.384   5.273   4.747
 8524SOL    HW226472   1.539   5.242   4.703
 8525SOL     OW26473   6.892   4.899   1.316
 8525SOL    HW126474   6.926   4.889   1.222
 8525SOL    HW226475   6.893   4.996   1.341
 8526SOL     OW26476   2.245   6.987   0.749
 8526SOL    HW126477   2.319   6.923   0.731
 8526SOL    HW226478   2.252   7.021   0.843
 8527SOL     OW26479   3.536   0.209   6.533
 8527SOL    HW126480   3.461   0.144   6.527
 8527SOL    HW226481   3.553   0.248   6.442
 8528SOL     OW26482   4.635   2.317   0.942
 8528SOL    HW126483   4.713   2.362   0.985
 8528SOL    HW226484   4.559   2.382   0.934
 8529SOL     OW26485   1.139   6.055   0.169
 8529SOL    HW126486   1.109   5.982   0.107
 8529SOL    HW226487   1.069   6.071   0.239
 8530SOL     OW26488   2.900   3.529   3.995
 8530SOL    HW126489   2.834   3.515   4.069
 8530SOL    HW226490   2.907   3.627   3.975
 8531SOL     OW26491   6.826   5.767   3.801
 8531SOL    HW126492   6.784   5.777   3.891
 8531SOL    HW226493   6.918   5.728   3.811
 8532SOL     OW26494   3.568   6.243   4.325
 8532SOL    HW126495   3.504   6.226   4.400
 8532SOL    HW226496   3.548   6.180   4.249
 8533SOL     OW26497   0.888   6.132   6.745
 8533SOL    HW126498   0.804   6.150   6.796
 8533SOL    HW226499   0.899   6.200   6.673
 8534SOL     OW26500   4.270   2.057   3.882
 8534SOL    HW126501   4.361   2.040   3.843
 8534SOL    HW226502   4.200   2.023   3.819
 8535SOL     OW26503   5.464   0.818   3.845
 8535SOL    HW126504   5.508   0.855   3.928
 8535SOL    HW226505   5.386   0.761   3.872
 8536SOL     OW26506   0.174   0.621   4.585
 8536SOL    HW126507   0.134   0.611   4.676
 8536SOL    HW226508   0.231   0.541   4.564
 8537SOL     OW26509   6.731   1.292   3.279
 8537SOL    HW126510   6.746   1.236   3.360
 8537SOL    HW226511   6.647   1.346   3.290
 8538SOL     OW26512   1.745   1.686   0.312
 8538SOL    HW126513   1.789   1.619   0.373
 8538SOL    HW226514   1.726   1.770   0.363
 8539SOL     OW26515   6.362   2.952   2.918
 8539SOL    HW126516   6.331   2.877   2.860
 8539SOL    HW226517   6.343   2.931   3.014
 8540SOL     OW26518   4.302   6.990   6.768
 8540SOL    HW126519   4.212   6.963   6.735
 8540SOL    HW226520   4.367   6.992   6.691
 8541SOL     OW26521   2.187   2.374   3.598
 8541SOL    HW126522   2.110   2.333   3.548
 8541SOL    HW226523   2.152   2.418   3.681
 8542SOL     OW26524   4.185   4.033   6.218
 8542SOL    HW126525   4.094   4.075   6.213
 8542SOL    HW226526   4.206   3.990   6.130
 8543SOL     OW26527   2.125   2.700   0.204
 8543SOL    HW126528   2.207   2.673   0.254
 8543SOL    HW226529   2.151   2.743   0.118
 8544SOL     OW26530   5.351   2.640   3.850
 8544SOL    HW126531   5.402   2.703   3.909
 8544SOL    HW226532   5.257   2.631   3.883
 8545SOL     OW26533   5.102   6.352   5.463
 8545SOL    HW126534   5.090   6.356   5.364
 8545SOL    HW226535   5.036   6.288   5.502
 8546SOL     OW26536   5.183   1.688   3.919
 8546SOL    HW126537   5.218   1.781   3.932
 8546SOL    HW226538   5.127   1.662   3.997
 8547SOL     OW26539   1.006   4.504   3.891
 8547SOL    HW126540   0.940   4.561   3.940
 8547SOL    HW226541   1.001   4.523   3.793
 8548SOL     OW26542   5.408   0.956   4.833
 8548SOL    HW126543   5.464   0.935   4.753
 8548SOL    HW226544   5.429   0.892   4.906
 8549SOL     OW26545   6.512   3.210   4.150
 8549SOL    HW126546   6.487   3.114   4.157
 8549SOL    HW226547   6.459   3.254   4.077
 8550SOL     OW26548   1.418   4.940   6.617
 8550SOL    HW126549   1.432   5.037   6.595
 8550SOL    HW226550   1.494   4.886   6.580
 8551SOL     OW26551   3.457   3.917   6.702
 8551SOL    HW126552   3.552   3.944   6.686
 8551SOL    HW226553   3.442   3.902   6.799
 8552SOL     OW26554   2.790   6.003   3.454
 8552SOL    HW126555   2.776   6.074   3.386
 8552SOL    HW226556   2.707   5.947   3.461
 8553SOL     OW26557   4.908   6.522   0.732
 8553SOL    HW126558   4.860   6.488   0.813
 8553SOL    HW226559   5.002   6.488   0.732
 8554SOL     OW26560   0.012   4.292   6.919
 8554SOL    HW126561   7.016   4.225   6.847
 8554SOL    HW226562   0.022   4.246   7.007
 8555SOL     OW26563   0.933   0.743   4.073
 8555SOL    HW126564   1.026   0.728   4.106
 8555SOL    HW226565   0.925   0.710   3.978
 8556SOL     OW26566   6.593   0.489   3.650
 8556SOL    HW126567   6.582   0.543   3.734
 8556SOL    HW226568   6.512   0.432   3.637
 8557SOL     OW26569   0.218   6.952   1.337
 8557SOL    HW126570   0.272   6.946   1.420
 8557SOL    HW226571   0.247   6.880   1.273
 8558SOL     OW26572   1.716   5.396   2.222
 8558SOL    HW126573   1.656   5.317   2.224
 8558SOL    HW226574   1.709   5.442   2.133
 8559SOL     OW26575   1.226   0.207   1.632
 8559SOL    HW126576   1.269   0.124   1.667
 8559SOL    HW226577   1.178   0.253   1.706
 8560SOL     OW26578   6.284   1.618   0.315
 8560SOL    HW126579   6.326   1.686   0.375
 8560SOL    HW226580   6.185   1.636   0.308
 8561SOL     OW26581   4.842   6.141   3.455
 8561SOL    HW126582   4.867   6.140   3.359
 8561SOL    HW226583   4.850   6.049   3.493
 8562SOL     OW26584   3.610   6.890   4.488
 8562SOL    HW126585   3.709   6.906   4.496
 8562SOL    HW226586   3.561   6.976   4.500
 8563SOL     OW26587   2.645   2.670   6.920
 8563SOL    HW126588   2.575   2.660   6.849
 8563SOL    HW226589   2.735   2.677   6.877
 8564SOL     OW26590   1.115   6.662   3.662
 8564SOL    HW126591   1.075   6.582   3.706
 8564SOL    HW226592   1.214   6.649   3.654
 8565SOL     OW26593   3.848   6.723   0.685
 8565SOL    HW126594   3.808   6.758   0.770
 8565SOL    HW226595   3.942   6.756   0.676
 8566SOL     OW26596   1.187   2.139   3.034
 8566SOL    HW126597   1.287   2.133   3.038
 8566SOL    HW226598   1.155   2.109   2.945
 8567SOL     OW26599   5.582   1.308   0.729
 8567SOL    HW126600   5.512   1.273   0.792
 8567SOL    HW226601   5.548   1.389   0.682
 8568SOL     OW26602   5.533   2.021   0.291
 8568SOL    HW126603   5.604   1.957   0.323
 8568SOL    HW226604   5.499   2.074   0.368
 8569SOL     OW26605   4.744   1.030   4.542
 8569SOL    HW126606   4.756   0.994   4.449
 8569SOL    HW226607   4.677   0.975   4.591
 8570SOL     OW26608   0.285   3.995   6.777
 8570SOL    HW126609   0.326   3.939   6.705
 8570SOL    HW226610   0.340   4.077   6.791
 8571SOL     OW26611   6.565   3.957   4.351
 8571SOL    HW126612   6.542   4.031   4.414
 8571SOL    HW226613   6.664   3.940   4.353
 8572SOL     OW26614   2.131   4.896   5.267
 8572SOL    HW126615   2.067   4.945   5.208
 8572SOL    HW226616   2.136   4.800   5.237
 8573SOL     OW26617   4.422   5.792   5.724
 8573SOL    HW126618   4.406   5.705   5.677
 8573SOL    HW226619   4.335   5.835   5.746
 8574SOL     OW26620   0.330   3.713   5.548
 8574SOL    HW126621   0.412   3.734   5.602
 8574SOL    HW226622   0.346   3.630   5.495
 8575SOL     OW26623   3.124   2.761   0.878
 8575SOL    HW126624   3.117   2.824   0.955
 8575SOL    HW226625   3.034   2.752   0.834
 8576SOL     OW26626   0.864   0.359   1.511
 8576SOL    HW126627   0.780   0.319   1.546
 8576SOL    HW226628   0.926   0.286   1.482
 8577SOL     OW26629   6.317   5.856   3.421
 8577SOL    HW126630   6.231   5.891   3.386
 8577SOL    HW226631   6.369   5.813   3.347
 8578SOL     OW26632   4.664   0.244   3.699
 8578SOL    HW126633   4.637   0.149   3.714
 8578SOL    HW226634   4.606   0.285   3.629
 8579SOL     OW26635   1.142   4.952   3.458
 8579SOL    HW126636   1.080   5.018   3.500
 8579SOL    HW226637   1.230   4.954   3.505
 8580SOL     OW26638   1.632   6.381   1.640
 8580SOL    HW126639   1.695   6.319   1.593
 8580SOL    HW226640   1.597   6.448   1.575
 8581SOL     OW26641   3.337   1.859   0.761
 8581SOL    HW126642   3.322   1.796   0.838
 8581SOL    HW226643   3.416   1.828   0.708
 8582SOL     OW26644   4.416   4.581   2.007
 8582SOL    HW126645   4.416   4.482   2.024
 8582SOL    HW226646   4.327   4.609   1.971
 8583SOL     OW26647   6.237   6.950   5.876
 8583SOL    HW126648   6.290   0.008   5.905
 8583SOL    HW226649   6.251   6.876   5.942
 8584SOL     OW26650   6.748   5.299   0.623
 8584SOL    HW126651   6.771   5.396   0.630
 8584SOL    HW226652   6.658   5.288   0.582
 8585SOL     OW26653   0.073   0.869   0.286
 8585SOL    HW126654   0.019   0.808   0.228
 8585SOL    HW226655   0.168   0.838   0.287
 8586SOL     OW26656   3.869   5.551   2.790
 8586SOL    HW126657   3.947   5.613   2.777
 8586SOL    HW226658   3.784   5.599   2.770
 8587SOL     OW26659   0.170   2.023   2.431
 8587SOL    HW126660   0.251   2.061   2.476
 8587SOL    HW226661   0.112   2.098   2.399
 8588SOL     OW26662   4.017   2.246   0.240
 8588SOL    HW126663   4.040   2.162   0.191
 8588SOL    HW226664   4.061   2.324   0.196
 8589SOL     OW26665   3.590   1.379   3.955
 8589SOL    HW126666   3.593   1.301   4.017
 8589SOL    HW226667   3.532   1.450   3.993
 8590SOL     OW26668   6.084   5.144   5.374
 8590SOL    HW126669   6.016   5.217   5.374
 8590SOL    HW226670   6.070   5.086   5.454
 8591SOL     OW26671   0.843   3.676   6.390
 8591SOL    HW126672   0.933   3.670   6.346
 8591SOL    HW226673   0.819   3.772   6.402
 8592SOL     OW26674   6.517   4.447   0.714
 8592SOL    HW126675   6.495   4.512   0.786
 8592SOL    HW226676   6.434   4.400   0.685
 8593SOL     OW26677   1.747   0.224   2.154
 8593SOL    HW126678   1.656   0.243   2.117
 8593SOL    HW226679   1.784   0.308   2.193
 8594SOL     OW26680   2.916   3.541   4.333
 8594SOL    HW126681   2.906   3.525   4.431
 8594SOL    HW226682   2.911   3.639   4.315
 8595SOL     OW26683   1.893   2.202   2.570
 8595SOL    HW126684   1.794   2.217   2.570
 8595SOL    HW226685   1.912   2.110   2.604
 8596SOL     OW26686   5.995   5.233   1.736
 8596SOL    HW126687   5.963   5.326   1.717
 8596SOL    HW226688   5.961   5.171   1.666
 8597SOL     OW26689   2.878   1.509   0.615
 8597SOL    HW126690   2.788   1.466   0.616
 8597SOL    HW226691   2.949   1.440   0.628
 8598SOL     OW26692   6.152   4.098   1.247
 8598SOL    HW126693   6.228   4.041   1.278
 8598SOL    HW226694   6.136   4.083   1.149
 8599SOL     OW26695   1.655   2.925   3.449
 8599SOL    HW126696   1.644   3.024   3.446
 8599SOL    HW226697   1.676   2.897   3.543
 8600SOL     OW26698   6.529   5.149   6.795
 8600SOL    HW126699   6.588   5.214   6.748
 8600SOL    HW226700   6.541   5.159   6.894
 8601SOL     OW26701   0.684   6.891   3.906
 8601SOL    HW126702   0.732   6.827   3.846
 8601SOL    HW226703   0.729   6.894   3.995
 8602SOL     OW26704   2.535   5.868   2.197
 8602SOL    HW126705   2.511   5.785   2.248
 8602SOL    HW226706   2.622   5.853   2.149
 8603SOL     OW26707   4.049   3.271   0.204
 8603SOL    HW126708   4.018   3.347   0.260
 8603SOL    HW226709   4.138   3.293   0.164
 8604SOL     OW26710   5.383   3.078   3.844
 8604SOL    HW126711   5.444   3.042   3.914
 8604SOL    HW226712   5.307   3.126   3.887
 8605SOL     OW26713   2.437   6.047   3.364
 8605SOL    HW126714   2.384   6.094   3.294
 8605SOL    HW226715   2.478   6.115   3.426
 8606SOL     OW26716   3.900   4.751   5.637
 8606SOL    HW126717   3.931   4.840   5.604
 8606SOL    HW226718   3.876   4.693   5.559
 8607SOL     OW26719   4.425   5.373   2.139
 8607SOL    HW126720   4.414   5.413   2.231
 8607SOL    HW226721   4.463   5.442   2.077
 8608SOL     OW26722   4.358   5.430   2.439
 8608SOL    HW126723   4.391   5.361   2.504
 8608SOL    HW226724   4.284   5.391   2.384
 8609SOL     OW26725   3.455   0.766   5.184
 8609SOL    HW126726   3.531   0.766   5.248
 8609SOL    HW226727   3.489   0.786   5.092
 8610SOL     OW26728   1.258   6.337   3.684
 8610SOL    HW126729   1.171   6.359   3.639
 8610SOL    HW226730   1.327   6.405   3.657
 8611SOL     OW26731   1.934   1.763   4.902
 8611SOL    HW126732   2.014   1.809   4.863
 8611SOL    HW226733   1.964   1.686   4.959
 8612SOL     OW26734   3.986   2.748   6.287
 8612SOL    HW126735   4.001   2.801   6.204
 8612SOL    HW226736   4.057   2.768   6.353
 8613SOL     OW26737   2.060   2.063   1.163
 8613SOL    HW126738   2.140   2.034   1.216
 8613SOL    HW226739   1.989   2.096   1.226
 8614SOL     OW26740   0.871   2.704   3.154
 8614SOL    HW126741   0.909   2.734   3.242
 8614SOL    HW226742   0.774   2.727   3.150
 8615SOL     OW26743   4.516   2.007   5.362
 8615SOL    HW126744   4.528   1.972   5.270
 8615SOL    HW226745   4.419   2.006   5.386
 8616SOL     OW26746   0.774   4.615   0.501
 8616SOL    HW126747   0.858   4.667   0.488
 8616SOL    HW226748   0.707   4.671   0.549
 8617SOL     OW26749   6.217   2.881   0.935
 8617SOL    HW126750   6.119   2.891   0.921
 8617SOL    HW226751   6.235   2.848   1.028
 8618SOL     OW26752   4.675   0.211   3.269
 8618SOL    HW126753   4.623   0.178   3.190
 8618SOL    HW226754   4.737   0.139   3.300
 8619SOL     OW26755   4.584   5.430   6.992
 8619SOL    HW126756   4.663   5.380   0.007
 8619SOL    HW226757   4.602   5.454   6.897
 8620SOL     OW26758   6.167   6.274   2.256
 8620SOL    HW126759   6.219   6.234   2.180
 8620SOL    HW226760   6.208   6.247   2.342
 8621SOL     OW26761   5.854   1.171   3.789
 8621SOL    HW126762   5.788   1.203   3.857
 8621SOL    HW226763   5.808   1.162   3.700
 8622SOL     OW26764   4.469   4.875   0.702
 8622SOL    HW126765   4.567   4.895   0.705
 8622SOL    HW226766   4.449   4.814   0.625
 8623SOL     OW26767   0.728   3.730   2.938
 8623SOL    HW126768   0.718   3.815   2.887
 8623SOL    HW226769   0.747   3.655   2.874
 8624SOL     OW26770   0.735   3.952   2.792
 8624SOL    HW126771   0.827   3.980   2.765
 8624SOL    HW226772   0.671   4.028   2.778
 8625SOL     OW26773   4.010   0.993   4.986
 8625SOL    HW126774   4.010   0.973   4.889
 8625SOL    HW226775   4.103   1.017   5.016
 8626SOL     OW26776   3.235   3.360   4.299
 8626SOL    HW126777   3.229   3.423   4.222
 8626SOL    HW226778   3.149   3.310   4.309
 8627SOL     OW26779   1.137   1.069   0.757
 8627SOL    HW126780   1.084   1.120   0.825
 8627SOL    HW226781   1.182   1.134   0.695
 8628SOL     OW26782   5.280   0.936   6.750
 8628SOL    HW126783   5.306   0.915   6.844
 8628SOL    HW226784   5.219   0.865   6.715
 8629SOL     OW26785   1.478   4.512   3.907
 8629SOL    HW126786   1.447   4.483   3.816
 8629SOL    HW226787   1.515   4.604   3.901
 8630SOL     OW26788   5.775   4.231   3.866
 8630SOL    HW126789   5.780   4.258   3.770
 8630SOL    HW226790   5.864   4.243   3.909
 8631SOL     OW26791   3.851   6.084   5.020
 8631SOL    HW126792   3.846   6.004   5.079
 8631SOL    HW226793   3.879   6.163   5.073
 8632SOL     OW26794   3.977   0.228   3.123
 8632SOL    HW126795   3.984   0.320   3.084
 8632SOL    HW226796   3.963   0.236   3.222
 8633SOL     OW26797   5.479   1.215   4.132
 8633SOL    HW126798   5.527   1.245   4.215
 8633SOL    HW226799   5.387   1.186   4.155
 8634SOL     OW26800   6.875   4.840   1.987
 8634SOL    HW126801   6.803   4.904   1.960
 8634SOL    HW226802   6.891   4.848   2.086
 8635SOL     OW26803   5.862   3.290   6.026
 8635SOL    HW126804   5.838   3.381   5.992
 8635SOL    HW226805   5.888   3.232   5.949
 8636SOL     OW26806   6.583   5.928   0.429
 8636SOL    HW126807   6.658   5.952   0.490
 8636SOL    HW226808   6.510   5.997   0.437
 8637SOL     OW26809   1.795   0.828   0.704
 8637SOL    HW126810   1.743   0.752   0.667
 8637SOL    HW226811   1.834   0.882   0.629
 8638SOL     OW26812   2.930   5.111   0.439
 8638SOL    HW126813   2.991   5.176   0.484
 8638SOL    HW226814   2.836   5.126   0.471
 8639SOL     OW26815   5.993   3.564   2.126
 8639SOL    HW126816   5.915   3.612   2.085
 8639SOL    HW226817   6.075   3.582   2.073
 8640SOL     OW26818   5.086   5.058   0.851
 8640SOL    HW126819   5.029   4.977   0.861
 8640SOL    HW226820   5.089   5.086   0.755
 8641SOL     OW26821   6.717   3.978   3.111
 8641SOL    HW126822   6.658   4.024   3.044
 8641SOL    HW226823   6.782   4.044   3.149
 8642SOL     OW26824   4.573   0.978   1.647
 8642SOL    HW126825   4.585   1.072   1.615
 8642SOL    HW226826   4.531   0.978   1.738
 8643SOL     OW26827   4.143   0.530   6.414
 8643SOL    HW126828   4.078   0.454   6.406
 8643SOL    HW226829   4.093   0.615   6.431
 8644SOL     OW26830   5.620   2.208   4.496
 8644SOL    HW126831   5.596   2.111   4.491
 8644SOL    HW226832   5.610   2.249   4.406
 8645SOL     OW26833   6.669   4.004   1.252
 8645SOL    HW126834   6.666   4.094   1.296
 8645SOL    HW226835   6.745   3.951   1.290
 8646SOL     OW26836   5.137   0.755   7.001
 8646SOL    HW126837   5.132   0.717   6.908
 8646SOL    HW226838   5.045   0.778   0.010
 8647SOL     OW26839   3.961   4.718   6.947
 8647SOL    HW126840   3.938   4.638   7.001
 8647SOL    HW226841   3.883   4.743   6.889
 8648SOL     OW26842   5.819   1.005   4.377
 8648SOL    HW126843   5.847   0.914   4.405
 8648SOL    HW226844   5.719   1.014   4.385
 8649SOL     OW26845   6.194   3.853   5.502
 8649SOL    HW126846   6.157   3.862   5.594
 8649SOL    HW226847   6.269   3.918   5.490
 8650SOL     OW26848   2.196   5.132   3.811
 8650SOL    HW126849   2.249   5.060   3.766
 8650SOL    HW226850   2.132   5.173   3.746
 8651SOL     OW26851   3.667   1.858   6.943
 8651SOL    HW126852   3.661   1.860   0.021
 8651SOL    HW226853   3.620   1.938   6.905
 8652SOL     OW26854   1.925   3.593   3.523
 8652SOL    HW126855   1.951   3.508   3.477
 8652SOL    HW226856   1.827   3.590   3.543
 8653SOL     OW26857   0.197   3.044   0.018
 8653SOL    HW126858   0.166   2.981   0.089
 8653SOL    HW226859   0.237   3.125   0.061
 8654SOL     OW26860   0.262   6.924   2.892
 8654SOL    HW126861   0.246   6.939   2.794
 8654SOL    HW226862   0.222   6.837   2.919
 8655SOL     OW26863   6.194   6.268   4.952
 8655SOL    HW126864   6.285   6.265   4.910
 8655SOL    HW226865   6.197   6.327   5.033
 8656SOL     OW26866   6.783   1.017   1.368
 8656SOL    HW126867   6.761   0.942   1.306
 8656SOL    HW226868   6.834   0.982   1.446
 8657SOL     OW26869   4.451   4.723   6.639
 8657SOL    HW126870   4.456   4.626   6.663
 8657SOL    HW226871   4.359   4.745   6.608
 8658SOL     OW26872   5.907   5.177   0.086
 8658SOL    HW126873   5.835   5.108   0.082
 8658SOL    HW226874   5.868   5.267   0.069
 8659SOL     OW26875   4.965   0.278   3.126
 8659SOL    HW126876   5.012   0.262   3.213
 8659SOL    HW226877   4.910   0.361   3.133
 8660SOL     OW26878   5.556   3.667   0.627
 8660SOL    HW126879   5.605   3.630   0.548
 8660SOL    HW226880   5.506   3.594   0.673
 8661SOL     OW26881   6.665   4.205   1.750
 8661SOL    HW126882   6.566   4.215   1.735
 8661SOL    HW226883   6.683   4.207   1.848
 8662SOL     OW26884   6.366   6.242   1.140
 8662SOL    HW126885   6.393   6.149   1.168
 8662SOL    HW226886   6.410   6.264   1.052
 8663SOL     OW26887   2.486   5.689   0.966
 8663SOL    HW126888   2.430   5.616   0.928
 8663SOL    HW226889   2.447   5.778   0.939
 8664SOL     OW26890   3.967   5.978   6.934
 8664SOL    HW126891   3.994   6.000   6.841
 8664SOL    HW226892   4.016   5.896   6.964
 8665SOL     OW26893   4.265   5.344   5.291
 8665SOL    HW126894   4.190   5.387   5.241
 8665SOL    HW226895   4.352   5.377   5.255
 8666SOL     OW26896   4.978   2.789   5.642
 8666SOL    HW126897   5.065   2.760   5.602
 8666SOL    HW226898   4.992   2.818   5.737
 8667SOL     OW26899   4.957   1.389   3.578
 8667SOL    HW126900   4.876   1.374   3.635
 8667SOL    HW226901   5.016   1.456   3.622
 8668SOL     OW26902   4.829   1.890   4.359
 8668SOL    HW126903   4.771   1.957   4.405
 8668SOL    HW226904   4.925   1.920   4.364
 8669SOL     OW26905   4.152   0.573   6.118
 8669SOL    HW126906   4.102   0.496   6.157
 8669SOL    HW226907   4.186   0.632   6.191
 8670SOL     OW26908   3.486   5.437   4.272
 8670SOL    HW126909   3.455   5.461   4.364
 8670SOL    HW226910   3.486   5.519   4.215
 8671SOL     OW26911   6.286   6.872   3.885
 8671SOL    HW126912   6.381   6.846   3.864
 8671SOL    HW226913   6.226   6.794   3.867
 8672SOL     OW26914   3.345   4.918   4.289
 8672SOL    HW126915   3.417   4.851   4.270
 8672SOL    HW226916   3.376   5.009   4.263
 8673SOL     OW26917   6.788   1.806   0.537
 8673SOL    HW126918   6.755   1.899   0.550
 8673SOL    HW226919   6.728   1.757   0.474
 8674SOL     OW26920   6.880   0.552   2.727
 8674SOL    HW126921   6.962   0.610   2.725
 8674SOL    HW226922   6.798   0.609   2.724
 8675SOL     OW26923   2.484   0.989   3.383
 8675SOL    HW126924   2.483   1.018   3.287
 8675SOL    HW226925   2.534   0.903   3.391
 8676SOL     OW26926   3.948   0.069   2.529
 8676SOL    HW126927   3.961   0.168   2.534
 8676SOL    HW226928   3.975   0.027   2.616
 8677SOL     OW26929   2.924   4.167   6.248
 8677SOL    HW126930   2.993   4.202   6.184
 8677SOL    HW226931   2.859   4.111   6.197
 8678SOL     OW26932   0.953   0.480   6.495
 8678SOL    HW126933   0.998   0.491   6.407
 8678SOL    HW226934   0.935   0.383   6.512
 8679SOL     OW26935   6.327   1.915   5.289
 8679SOL    HW126936   6.335   1.851   5.213
 8679SOL    HW226937   6.408   1.973   5.293
 8680SOL     OW26938   1.419   3.706   0.191
 8680SOL    HW126939   1.437   3.608   0.181
 8680SOL    HW226940   1.505   3.756   0.191
 8681SOL     OW26941   4.361   4.384   0.222
 8681SOL    HW126942   4.454   4.373   0.185
 8681SOL    HW226943   4.366   4.410   0.318
 8682SOL     OW26944   2.555   6.621   2.646
 8682SOL    HW126945   2.525   6.707   2.688
 8682SOL    HW226946   2.477   6.572   2.608
 8683SOL     OW26947   0.804   2.819   1.313
 8683SOL    HW126948   0.790   2.783   1.405
 8683SOL    HW226949   0.898   2.802   1.284
 8684SOL     OW26950   5.787   2.705   5.181
 8684SOL    HW126951   5.787   2.610   5.213
 8684SOL    HW226952   5.861   2.717   5.115
 8685SOL     OW26953   0.867   1.726   6.545
 8685SOL    HW126954   0.770   1.738   6.526
 8685SOL    HW226955   0.879   1.698   6.640
 8686SOL     OW26956   6.902   2.138   2.540
 8686SOL    HW126957   6.809   2.139   2.503
 8686SOL    HW226958   6.901   2.106   2.634
 8687SOL     OW26959   3.746   6.619   2.124
 8687SOL    HW126960   3.752   6.599   2.026
 8687SOL    HW226961   3.652   6.606   2.155
 8688SOL     OW26962   2.896   0.107   1.449
 8688SOL    HW126963   2.977   0.050   1.457
 8688SOL    HW226964   2.908   0.172   1.374
 8689SOL     OW26965   4.303   5.631   0.027
 8689SOL    HW126966   4.389   5.599   7.011
 8689SOL    HW226967   4.312   5.728   0.052
 8690SOL     OW26968   0.561   1.693   3.808
 8690SOL    HW126969   0.586   1.768   3.748
 8690SOL    HW226970   0.643   1.656   3.851
 8691SOL     OW26971   4.410   2.561   6.443
 8691SOL    HW126972   4.444   2.615   6.519
 8691SOL    HW226973   4.480   2.493   6.417
 8692SOL     OW26974   2.778   2.161   3.456
 8692SOL    HW126975   2.702   2.100   3.476
 8692SOL    HW226976   2.742   2.246   3.416
 8693SOL     OW26977   5.668   2.201   0.976
 8693SOL    HW126978   5.673   2.235   0.882
 8693SOL    HW226979   5.761   2.182   1.009
 8694SOL     OW26980   4.165   0.316   6.747
 8694SOL    HW126981   4.184   0.259   6.666
 8694SOL    HW226982   4.197   0.409   6.729
 8695SOL     OW26983   5.077   3.334   5.202
 8695SOL    HW126984   5.020   3.316   5.122
 8695SOL    HW226985   5.023   3.383   5.271
 8696SOL     OW26986   2.926   5.866   1.167
 8696SOL    HW126987   2.939   5.894   1.072
 8696SOL    HW226988   2.909   5.767   1.170
 8697SOL     OW26989   6.712   3.404   1.177
 8697SOL    HW126990   6.788   3.467   1.163
 8697SOL    HW226991   6.627   3.455   1.191
 8698SOL     OW26992   5.410   6.101   4.469
 8698SOL    HW126993   5.398   6.179   4.530
 8698SOL    HW226994   5.400   6.016   4.520
 8699SOL     OW26995   0.896   1.629   5.704
 8699SOL    HW126996   0.902   1.643   5.605
 8699SOL    HW226997   0.849   1.707   5.746
 8700SOL     OW26998   2.123   0.634   4.958
 8700SOL    HW126999   2.046   0.647   5.021
 8700SOL    HW227000   2.105   0.685   4.873
 8701SOL     OW27001   1.076   0.823   5.254
 8701SOL    HW127002   1.047   0.826   5.159
 8701SOL    HW227003   1.152   0.887   5.269
 8702SOL     OW27004   5.534   5.108   0.243
 8702SOL    HW127005   5.526   5.205   0.218
 8702SOL    HW227006   5.584   5.059   0.171
 8703SOL     OW27007   3.168   5.620   1.032
 8703SOL    HW127008   3.237   5.687   1.007
 8703SOL    HW227009   3.205   5.528   1.022
 8704SOL     OW27010   6.822   4.934   2.233
 8704SOL    HW127011   6.725   4.927   2.259
 8704SOL    HW227012   6.873   4.980   2.306
 8705SOL     OW27013   4.970   0.192   6.195
 8705SOL    HW127014   4.926   0.277   6.225
 8705SOL    HW227015   4.962   0.183   6.096
 8706SOL     OW27016   5.039   2.109   6.859
 8706SOL    HW127017   5.087   2.115   6.946
 8706SOL    HW227018   5.070   2.028   6.809
 8707SOL     OW27019   4.560   2.878   6.934
 8707SOL    HW127020   4.601   2.962   6.897
 8707SOL    HW227021   4.463   2.893   6.952
 8708SOL     OW27022   3.576   1.107   1.452
 8708SOL    HW127023   3.666   1.073   1.477
 8708SOL    HW227024   3.516   1.030   1.430
 8709SOL     OW27025   6.958   4.549   0.282
 8709SOL    HW127026   6.950   4.646   0.305
 8709SOL    HW227027   6.920   4.534   0.191
 8710SOL     OW27028   1.790   3.433   3.114
 8710SOL    HW127029   1.771   3.531   3.110
 8710SOL    HW227030   1.728   3.383   3.054
 8711SOL     OW27031   6.125   0.952   2.688
 8711SOL    HW127032   6.114   0.994   2.598
 8711SOL    HW227033   6.132   1.023   2.758
 8712SOL     OW27034   3.244   1.602   4.708
 8712SOL    HW127035   3.272   1.606   4.611
 8712SOL    HW227036   3.314   1.646   4.764
 8713SOL     OW27037   6.552   4.388   3.545
 8713SOL    HW127038   6.515   4.393   3.452
 8713SOL    HW227039   6.487   4.339   3.604
 8714SOL     OW27040   1.342   0.912   5.887
 8714SOL    HW127041   1.311   0.984   5.824
 8714SOL    HW227042   1.303   0.929   5.977
 8715SOL     OW27043   6.429   1.164   1.661
 8715SOL    HW127044   6.463   1.147   1.753
 8715SOL    HW227045   6.331   1.144   1.657
 8716SOL     OW27046   0.834   1.455   1.180
 8716SOL    HW127047   0.788   1.385   1.125
 8716SOL    HW227048   0.854   1.417   1.271
 8717SOL     OW27049   4.148   3.669   2.011
 8717SOL    HW127050   4.230   3.725   2.019
 8717SOL    HW227051   4.110   3.653   2.102
 8718SOL     OW27052   0.123   2.352   4.616
 8718SOL    HW127053   0.176   2.282   4.569
 8718SOL    HW227054   0.081   2.413   4.549
 8719SOL     OW27055   1.253   0.589   5.887
 8719SOL    HW127056   1.322   0.614   5.956
 8719SOL    HW227057   1.164   0.626   5.914
 8720SOL     OW27058   5.548   4.917   5.133
 8720SOL    HW127059   5.606   4.900   5.054
 8720SOL    HW227060   5.605   4.935   5.213
 8721SOL     OW27061   6.742   2.191   4.357
 8721SOL    HW127062   6.778   2.258   4.292
 8721SOL    HW227063   6.817   2.152   4.410
 8722SOL     OW27064   3.784   2.389   0.779
 8722SOL    HW127065   3.836   2.333   0.715
 8722SOL    HW227066   3.775   2.341   0.866
 8723SOL     OW27067   6.623   5.909   0.742
 8723SOL    HW127068   6.679   5.848   0.799
 8723SOL    HW227069   6.526   5.895   0.764
 8724SOL     OW27070   5.502   0.418   5.976
 8724SOL    HW127071   5.549   0.495   6.021
 8724SOL    HW227072   5.488   0.344   6.041
 8725SOL     OW27073   2.004   0.241   0.350
 8725SOL    HW127074   1.976   0.207   0.260
 8725SOL    HW227075   2.012   0.163   0.413
 8726SOL     OW27076   6.065   0.273   1.294
 8726SOL    HW127077   6.163   0.278   1.316
 8726SOL    HW227078   6.049   0.198   1.230
 8727SOL     OW27079   6.400   6.038   1.716
 8727SOL    HW127080   6.349   6.065   1.634
 8727SOL    HW227081   6.480   6.096   1.727
 8728SOL     OW27082   3.314   6.704   5.083
 8728SOL    HW127083   3.264   6.618   5.073
 8728SOL    HW227084   3.256   6.772   5.129
 8729SOL     OW27085   3.807   5.320   3.599
 8729SOL    HW127086   3.817   5.357   3.506
 8729SOL    HW227087   3.862   5.238   3.609
 8730SOL     OW27088   0.371   6.108   2.279
 8730SOL    HW127089   0.344   6.035   2.217
 8730SOL    HW227090   0.350   6.081   2.373
 8731SOL     OW27091   1.098   1.798   3.443
 8731SOL    HW127092   1.100   1.880   3.501
 8731SOL    HW227093   1.167   1.734   3.475
 8732SOL     OW27094   5.661   3.652   1.980
 8732SOL    HW127095   5.642   3.554   1.979
 8732SOL    HW227096   5.679   3.684   1.887
 8733SOL     OW27097   0.872   6.429   1.769
 8733SOL    HW127098   0.883   6.456   1.865
 8733SOL    HW227099   0.956   6.447   1.719
 8734SOL     OW27100   0.402   5.803   1.331
 8734SOL    HW127101   0.417   5.722   1.388
 8734SOL    HW227102   0.374   5.880   1.389
 8735SOL     OW27103   0.427   1.773   7.022
 8735SOL    HW127104   0.446   1.697   0.062
 8735SOL    HW227105   0.351   1.827   0.034
 8736SOL     OW27106   0.744   5.040   6.640
 8736SOL    HW127107   0.809   4.973   6.606
 8736SOL    HW227108   0.775   5.132   6.617
 8737SOL     OW27109   3.307   6.133   6.028
 8737SOL    HW127110   3.394   6.099   6.064
 8737SOL    HW227111   3.261   6.188   6.098
 8738SOL     OW27112   1.378   3.843   3.942
 8738SOL    HW127113   1.400   3.750   3.911
 8738SOL    HW227114   1.452   3.905   3.915
 8739SOL     OW27115   6.682   3.584   5.646
 8739SOL    HW127116   6.628   3.528   5.582
 8739SOL    HW227117   6.641   3.675   5.652
 8740SOL     OW27118   2.769   0.079   6.714
 8740SOL    HW127119   2.689   0.127   6.677
 8740SOL    HW227120   2.803   0.129   6.794
 8741SOL     OW27121   1.304   2.616   2.563
 8741SOL    HW127122   1.283   2.553   2.638
 8741SOL    HW227123   1.375   2.575   2.506
 8742SOL     OW27124   4.634   0.075   1.590
 8742SOL    HW127125   4.575   0.151   1.617
 8742SOL    HW227126   4.644   0.012   1.667
 8743SOL     OW27127   1.992   5.823   2.064
 8743SOL    HW127128   2.024   5.909   2.104
 8743SOL    HW227129   1.946   5.768   2.133
 8744SOL     OW27130   4.177   2.790   6.478
 8744SOL    HW127131   4.265   2.765   6.438
 8744SOL    HW227132   4.171   2.751   6.570
 8745SOL     OW27133   6.175   2.144   5.328
 8745SOL    HW127134   6.219   2.182   5.410
 8745SOL    HW227135   6.225   2.062   5.299
 8746SOL     OW27136   5.142   4.869   5.394
 8746SOL    HW127137   5.127   4.774   5.370
 8746SOL    HW227138   5.238   4.884   5.416
 8747SOL     OW27139   1.330   2.497   4.111
 8747SOL    HW127140   1.242   2.521   4.153
 8747SOL    HW227141   1.369   2.418   4.158
 8748SOL     OW27142   1.270   0.489   6.728
 8748SOL    HW127143   1.331   0.459   6.802
 8748SOL    HW227144   1.184   0.521   6.767
 8749SOL     OW27145   3.820   0.525   3.471
 8749SOL    HW127146   3.753   0.599   3.480
 8749SOL    HW227147   3.858   0.503   3.561
 8750SOL     OW27148   2.101   2.294   5.066
 8750SOL    HW127149   2.016   2.242   5.071
 8750SOL    HW227150   2.132   2.298   4.971
 8751SOL     OW27151   0.881   0.102   2.044
 8751SOL    HW127152   0.890   0.201   2.055
 8751SOL    HW227153   0.791   0.074   2.077
 8752SOL     OW27154   1.985   3.657   6.625
 8752SOL    HW127155   2.007   3.754   6.614
 8752SOL    HW227156   2.015   3.607   6.544
 8753SOL     OW27157   5.557   1.357   4.730
 8753SOL    HW127158   5.524   1.312   4.647
 8753SOL    HW227159   5.656   1.344   4.736
 8754SOL     OW27160   0.791   1.425   6.139
 8754SOL    HW127161   0.829   1.354   6.198
 8754SOL    HW227162   0.814   1.405   6.044
 8755SOL     OW27163   2.430   0.807   0.686
 8755SOL    HW127164   2.337   0.802   0.722
 8755SOL    HW227165   2.470   0.715   0.684
 8756SOL     OW27166   2.072   3.191   4.039
 8756SOL    HW127167   2.126   3.213   3.957
 8756SOL    HW227168   2.023   3.105   4.023
 8757SOL     OW27169   4.058   6.590   4.607
 8757SOL    HW127170   4.012   6.522   4.665
 8757SOL    HW227171   4.111   6.652   4.664
 8758SOL     OW27172   5.916   6.389   2.303
 8758SOL    HW127173   6.007   6.353   2.278
 8758SOL    HW227174   5.846   6.338   2.253
 8759SOL     OW27175   4.805   0.764   6.192
 8759SOL    HW127176   4.753   0.738   6.110
 8759SOL    HW227177   4.882   0.702   6.203
 8760SOL     OW27178   1.836   1.920   4.254
 8760SOL    HW127179   1.758   1.887   4.307
 8760SOL    HW227180   1.810   2.001   4.202
 8761SOL     OW27181   5.072   0.385   0.009
 8761SOL    HW127182   5.014   0.411   6.954
 8761SOL    HW227183   5.167   0.378   7.000
 8762SOL     OW27184   1.092   3.489   1.506
 8762SOL    HW127185   1.112   3.504   1.409
 8762SOL    HW227186   1.106   3.392   1.527
 8763SOL     OW27187   0.386   6.269   5.997
 8763SOL    HW127188   0.312   6.210   6.032
 8763SOL    HW227189   0.460   6.212   5.962
 8764SOL     OW27190   4.924   1.430   4.377
 8764SOL    HW127191   4.866   1.356   4.410
 8764SOL    HW227192   4.895   1.516   4.420
 8765SOL     OW27193   5.751   6.941   4.523
 8765SOL    HW127194   5.768   6.886   4.604
 8765SOL    HW227195   5.829   6.933   4.460
 8766SOL     OW27196   2.315   5.035   2.916
 8766SOL    HW127197   2.356   4.946   2.896
 8766SOL    HW227198   2.215   5.027   2.913
 8767SOL     OW27199   4.736   0.939   3.160
 8767SOL    HW127200   4.691   1.028   3.163
 8767SOL    HW227201   4.806   0.939   3.088
 8768SOL     OW27202   2.134   3.601   0.230
 8768SOL    HW127203   2.186   3.682   0.259
 8768SOL    HW227204   2.194   3.540   0.179
 8769SOL     OW27205   1.045   6.995   5.766
 8769SOL    HW127206   1.094   0.043   5.816
 8769SOL    HW227207   1.002   0.013   5.685
 8770SOL     OW27208   5.390   3.499   1.654
 8770SOL    HW127209   5.346   3.536   1.573
 8770SOL    HW227210   5.379   3.563   1.730
 8771SOL     OW27211   1.920   1.594   6.759
 8771SOL    HW127212   1.966   1.591   6.670
 8771SOL    HW227213   1.941   1.681   6.804
 8772SOL     OW27214   5.630   1.369   6.506
 8772SOL    HW127215   5.677   1.395   6.422
 8772SOL    HW227216   5.665   1.423   6.582
 8773SOL     OW27217   2.924   2.023   3.170
 8773SOL    HW127218   2.989   2.035   3.095
 8773SOL    HW227219   2.842   1.976   3.136
 8774SOL     OW27220   1.175   1.673   0.648
 8774SOL    HW127221   1.162   1.601   0.716
 8774SOL    HW227222   1.087   1.714   0.625
 8775SOL     OW27223   6.127   6.773   3.485
 8775SOL    HW127224   6.127   6.683   3.529
 8775SOL    HW227225   6.199   6.829   3.525
 8776SOL     OW27226   3.077   3.184   5.049
 8776SOL    HW127227   2.982   3.151   5.053
 8776SOL    HW227228   3.122   3.168   5.137
 8777SOL     OW27229   5.954   5.842   2.118
 8777SOL    HW127230   5.965   5.898   2.036
 8777SOL    HW227231   6.009   5.881   2.192
 8778SOL     OW27232   0.113   2.065   3.363
 8778SOL    HW127233   0.100   2.153   3.317
 8778SOL    HW227234   0.100   2.076   3.461
 8779SOL     OW27235   1.671   5.045   1.206
 8779SOL    HW127236   1.574   5.043   1.230
 8779SOL    HW227237   1.712   4.956   1.226
 8780SOL     OW27238   0.621   5.313   4.379
 8780SOL    HW127239   0.716   5.314   4.410
 8780SOL    HW227240   0.615   5.269   4.290
 8781SOL     OW27241   0.736   1.958   3.194
 8781SOL    HW127242   0.760   2.008   3.278
 8781SOL    HW227243   0.653   1.906   3.210
 8782SOL     OW27244   4.384   1.286   2.615
 8782SOL    HW127245   4.369   1.385   2.613
 8782SOL    HW227246   4.309   1.240   2.567
 8783SOL     OW27247   5.808   3.913   4.277
 8783SOL    HW127248   5.786   3.990   4.336
 8783SOL    HW227249   5.787   3.937   4.182
 8784SOL     OW27250   5.660   5.164   5.596
 8784SOL    HW127251   5.664   5.203   5.504
 8784SOL    HW227252   5.714   5.079   5.599
 8785SOL     OW27253   5.510   4.401   6.869
 8785SOL    HW127254   5.509   4.303   6.888
 8785SOL    HW227255   5.540   4.450   6.951
 8786SOL     OW27256   1.608   6.629   0.017
 8786SOL    HW127257   1.692   6.680   0.036
 8786SOL    HW227258   1.546   6.640   0.095
 8787SOL     OW27259   1.834   3.608   1.496
 8787SOL    HW127260   1.800   3.592   1.403
 8787SOL    HW227261   1.908   3.544   1.516
 8788SOL     OW27262   0.062   1.935   5.390
 8788SOL    HW127263   0.002   2.008   5.357
 8788SOL    HW227264   0.102   1.888   5.312
 8789SOL     OW27265   6.490   0.393   6.643
 8789SOL    HW127266   6.420   0.411   6.713
 8789SOL    HW227267   6.481   0.460   6.569
 8790SOL     OW27268   6.226   1.724   6.950
 8790SOL    HW127269   6.290   1.647   6.952
 8790SOL    HW227270   6.157   1.708   6.880
 8791SOL     OW27271   4.776   6.570   5.884
 8791SOL    HW127272   4.866   6.583   5.926
 8791SOL    HW227273   4.739   6.659   5.857
 8792SOL     OW27274   4.358   6.737   3.210
 8792SOL    HW127275   4.329   6.655   3.259
 8792SOL    HW227276   4.376   6.811   3.275
 8793SOL     OW27277   1.890   5.959   3.531
 8793SOL    HW127278   1.853   6.011   3.609
 8793SOL    HW227279   1.818   5.900   3.494
 8794SOL     OW27280   1.959   0.102   2.685
 8794SOL    HW127281   1.995   0.195   2.678
 8794SOL    HW227282   2.034   0.037   2.698
 8795SOL     OW27283   1.541   6.723   5.722
 8795SOL    HW127284   1.466   6.714   5.788
 8795SOL    HW227285   1.617   6.771   5.764
 8796SOL     OW27286   4.813   2.408   5.495
 8796SOL    HW127287   4.819   2.320   5.542
 8796SOL    HW227288   4.877   2.409   5.419
 8797SOL     OW27289   0.495   6.991   6.271
 8797SOL    HW127290   0.434   6.995   6.351
 8797SOL    HW227291   0.554   0.049   6.271
 8798SOL     OW27292   5.525   3.582   5.046
 8798SOL    HW127293   5.449   3.548   5.100
 8798SOL    HW227294   5.559   3.508   4.987
 8799SOL     OW27295   3.023   4.805   3.080
 8799SOL    HW127296   3.064   4.840   2.995
 8799SOL    HW227297   3.084   4.822   3.157
 8800SOL     OW27298   4.507   4.883   6.333
 8800SOL    HW127299   4.570   4.932   6.393
 8800SOL    HW227300   4.522   4.913   6.238
 8801SOL     OW27301   2.575   1.378   4.359
 8801SOL    HW127302   2.626   1.439   4.420
 8801SOL    HW227303   2.622   1.371   4.271
 8802SOL     OW27304   2.025   6.178   2.399
 8802SOL    HW127305   1.995   6.263   2.356
 8802SOL    HW227306   2.039   6.194   2.496
 8803SOL     OW27307   2.887   5.590   6.920
 8803SOL    HW127308   2.941   5.512   6.953
 8803SOL    HW227309   2.924   5.675   6.957
 8804SOL     OW27310   4.221   0.437   1.101
 8804SOL    HW127311   4.206   0.493   1.183
 8804SOL    HW227312   4.312   0.396   1.105
 8805SOL     OW27313   0.565   0.142   3.169
 8805SOL    HW127314   0.598   0.189   3.251
 8805SOL    HW227315   0.476   0.100   3.187
 8806SOL     OW27316   1.668   5.154   0.291
 8806SOL    HW127317   1.767   5.162   0.302
 8806SOL    HW227318   1.630   5.102   0.367
 8807SOL     OW27319   0.584   6.094   5.862
 8807SOL    HW127320   0.583   6.031   5.939
 8807SOL    HW227321   0.591   6.042   5.777
 8808SOL     OW27322   5.181   1.176   0.103
 8808SOL    HW127323   5.204   1.140   0.194
 8808SOL    HW227324   5.221   1.117   0.033
 8809SOL     OW27325   5.838   3.801   1.521
 8809SOL    HW127326   5.793   3.780   1.434
 8809SOL    HW227327   5.934   3.774   1.517
 8810SOL     OW27328   4.396   1.701   3.547
 8810SOL    HW127329   4.340   1.626   3.511
 8810SOL    HW227330   4.358   1.788   3.516
 8811SOL     OW27331   2.289   1.732   3.366
 8811SOL    HW127332   2.373   1.777   3.335
 8811SOL    HW227333   2.258   1.667   3.297
 8812SOL     OW27334   1.238   1.243   0.561
 8812SOL    HW127335   1.193   1.224   0.474
 8812SOL    HW227336   1.323   1.294   0.545
 8813SOL     OW27337   1.649   6.983   2.333
 8813SOL    HW127338   1.719   0.029   2.355
 8813SOL    HW227339   1.648   6.969   2.234
 8814SOL     OW27340   6.081   0.759   6.701
 8814SOL    HW127341   6.050   0.792   6.612
 8814SOL    HW227342   6.142   0.681   6.688
 8815SOL     OW27343   0.061   5.990   2.469
 8815SOL    HW127344   0.060   5.949   2.378
 8815SOL    HW227345   7.007   6.053   2.478
 8816SOL     OW27346   1.162   5.942   1.755
 8816SOL    HW127347   1.131   5.864   1.701
 8816SOL    HW227348   1.119   5.939   1.845
 8817SOL     OW27349   1.557   5.685   5.168
 8817SOL    HW127350   1.634   5.744   5.142
 8817SOL    HW227351   1.579   5.638   5.253
 8818SOL     OW27352   0.492   4.667   3.876
 8818SOL    HW127353   0.435   4.633   3.951
 8818SOL    HW227354   0.558   4.596   3.851
 8819SOL     OW27355   5.152   6.416   4.206
 8819SOL    HW127356   5.154   6.321   4.238
 8819SOL    HW227357   5.099   6.422   4.121
 8820SOL     OW27358   1.751   2.395   4.369
 8820SOL    HW127359   1.751   2.332   4.446
 8820SOL    HW227360   1.744   2.489   4.403
 8821SOL     OW27361   2.706   0.220   6.076
 8821SOL    HW127362   2.669   0.283   6.008
 8821SOL    HW227363   2.774   0.268   6.132
 8822SOL     OW27364   0.845   1.586   3.787
 8822SOL    HW127365   0.791   1.603   3.704
 8822SOL    HW227366   0.848   1.488   3.805
 8823SOL     OW27367   1.688   6.839   0.748
 8823SOL    HW127368   1.786   6.856   0.745
 8823SOL    HW227369   1.640   6.910   0.696
 8824SOL     OW27370   3.632   4.059   0.667
 8824SOL    HW127371   3.685   3.987   0.714
 8824SOL    HW227372   3.624   4.138   0.728
 8825SOL     OW27373   0.984   1.322   2.035
 8825SOL    HW127374   1.000   1.343   2.131
 8825SOL    HW227375   0.955   1.405   1.987
 8826SOL     OW27376   5.335   1.218   6.532
 8826SOL    HW127377   5.432   1.235   6.550
 8826SOL    HW227378   5.288   1.197   6.618
 8827SOL     OW27379   1.651   1.443   3.363
 8827SOL    HW127380   1.615   1.482   3.448
 8827SOL    HW227381   1.576   1.419   3.302
 8828SOL     OW27382   2.949   6.388   2.408
 8828SOL    HW127383   2.865   6.394   2.462
 8828SOL    HW227384   3.028   6.404   2.467
 8829SOL     OW27385   0.055   1.838   6.857
 8829SOL    HW127386   0.058   1.799   6.949
 8829SOL    HW227387   0.126   1.908   6.847
 8830SOL     OW27388   1.056   1.587   0.195
 8830SOL    HW127389   1.122   1.554   0.262
 8830SOL    HW227390   1.098   1.657   0.138
 8831SOL     OW27391   6.547   1.063   2.996
 8831SOL    HW127392   6.619   1.026   3.054
 8831SOL    HW227393   6.587   1.126   2.929
 8832SOL     OW27394   6.394   0.563   2.656
 8832SOL    HW127395   6.446   0.538   2.575
 8832SOL    HW227396   6.308   0.607   2.629
 8833SOL     OW27397   2.308   5.329   4.362
 8833SOL    HW127398   2.268   5.241   4.333
 8833SOL    HW227399   2.398   5.313   4.402
 8834SOL     OW27400   6.026   3.221   4.803
 8834SOL    HW127401   6.053   3.130   4.771
 8834SOL    HW227402   6.010   3.218   4.901
 8835SOL     OW27403   6.970   6.590   5.573
 8835SOL    HW127404   6.995   6.495   5.594
 8835SOL    HW227405   0.025   6.650   5.593
 8836SOL     OW27406   4.275   1.159   6.685
 8836SOL    HW127407   4.228   1.114   6.761
 8836SOL    HW227408   4.343   1.224   6.721
 8837SOL     OW27409   0.230   0.862   1.642
 8837SOL    HW127410   0.266   0.954   1.627
 8837SOL    HW227411   0.297   0.795   1.611
 8838SOL     OW27412   2.960   5.093   3.189
 8838SOL    HW127413   2.961   4.997   3.160
 8838SOL    HW227414   2.905   5.147   3.124
 8839SOL     OW27415   6.084   6.102   3.766
 8839SOL    HW127416   6.159   6.072   3.708
 8839SOL    HW227417   6.091   6.057   3.855
 8840SOL     OW27418   5.673   2.309   2.172
 8840SOL    HW127419   5.749   2.245   2.162
 8840SOL    HW227420   5.706   2.395   2.212
 8841SOL     OW27421   0.884   1.625   5.439
 8841SOL    HW127422   0.822   1.704   5.428
 8841SOL    HW227423   0.939   1.615   5.356
 8842SOL     OW27424   2.342   2.694   1.948
 8842SOL    HW127425   2.363   2.770   2.010
 8842SOL    HW227426   2.410   2.691   1.875
 8843SOL     OW27427   1.318   2.596   4.926
 8843SOL    HW127428   1.315   2.497   4.933
 8843SOL    HW227429   1.249   2.627   4.860
 8844SOL     OW27430   6.369   0.533   6.201
 8844SOL    HW127431   6.317   0.450   6.179
 8844SOL    HW227432   6.331   0.611   6.152
 8845SOL     OW27433   4.839   4.243   0.120
 8845SOL    HW127434   4.848   4.166   0.057
 8845SOL    HW227435   4.915   4.241   0.185
 8846SOL     OW27436   2.223   4.611   3.900
 8846SOL    HW127437   2.246   4.587   3.806
 8846SOL    HW227438   2.273   4.551   3.963
 8847SOL     OW27439   3.324   0.165   2.091
 8847SOL    HW127440   3.323   0.126   1.999
 8847SOL    HW227441   3.300   0.262   2.087
 8848SOL     OW27442   1.806   0.468   2.249
 8848SOL    HW127443   1.824   0.566   2.253
 8848SOL    HW227444   1.750   0.441   2.327
 8849SOL     OW27445   2.545   6.654   1.590
 8849SOL    HW127446   2.491   6.610   1.518
 8849SOL    HW227447   2.528   6.608   1.677
 8850SOL     OW27448   3.479   2.346   6.542
 8850SOL    HW127449   3.485   2.406   6.622
 8850SOL    HW227450   3.540   2.380   6.470
 8851SOL     OW27451   1.529   4.538   2.677
 8851SOL    HW127452   1.622   4.572   2.664
 8851SOL    HW227453   1.475   4.557   2.595
 8852SOL     OW27454   1.100   1.538   6.155
 8852SOL    HW127455   1.024   1.512   6.214
 8852SOL    HW227456   1.066   1.598   6.082
 8853SOL     OW27457   3.814   1.111   0.340
 8853SOL    HW127458   3.762   1.174   0.398
 8853SOL    HW227459   3.820   1.022   0.386
 8854SOL     OW27460   1.582   3.249   5.087
 8854SOL    HW127461   1.597   3.336   5.133
 8854SOL    HW227462   1.609   3.256   4.991
 8855SOL     OW27463   5.644   5.044   0.795
 8855SOL    HW127464   5.640   4.995   0.708
 8855SOL    HW227465   5.589   5.127   0.789
 8856SOL     OW27466   0.782   5.554   6.430
 8856SOL    HW127467   0.735   5.587   6.348
 8856SOL    HW227468   0.856   5.491   6.403
 8857SOL     OW27469   6.636   1.373   5.419
 8857SOL    HW127470   6.548   1.338   5.388
 8857SOL    HW227471   6.626   1.467   5.450
 8858SOL     OW27472   6.299   4.757   4.424
 8858SOL    HW127473   6.244   4.839   4.443
 8858SOL    HW227474   6.246   4.675   4.445
 8859SOL     OW27475   0.693   0.393   3.622
 8859SOL    HW127476   0.754   0.402   3.701
 8859SOL    HW227477   0.649   0.481   3.604
 8860SOL     OW27478   6.981   2.495   2.031
 8860SOL    HW127479   6.989   2.420   1.965
 8860SOL    HW227480   0.032   2.560   2.016
 8861SOL     OW27481   4.532   2.568   1.577
 8861SOL    HW127482   4.608   2.504   1.583
 8861SOL    HW227483   4.461   2.531   1.517
 8862SOL     OW27484   4.657   5.247   5.024
 8862SOL    HW127485   4.559   5.226   5.020
 8862SOL    HW227486   4.710   5.162   5.017
 8863SOL     OW27487   2.253   4.047   3.797
 8863SOL    HW127488   2.215   3.970   3.848
 8863SOL    HW227489   2.310   4.012   3.722
 8864SOL     OW27490   5.804   1.519   5.443
 8864SOL    HW127491   5.857   1.603   5.434
 8864SOL    HW227492   5.853   1.443   5.401
 8865SOL     OW27493   2.082   1.655   6.468
 8865SOL    HW127494   2.057   1.722   6.398
 8865SOL    HW227495   2.050   1.564   6.440
 8866SOL     OW27496   6.102   5.704   2.429
 8866SOL    HW127497   6.148   5.663   2.350
 8866SOL    HW227498   6.068   5.795   2.405
 8867SOL     OW27499   6.404   4.040   2.588
 8867SOL    HW127500   6.309   4.046   2.616
 8867SOL    HW227501   6.411   3.982   2.507
 8868SOL     OW27502   0.316   3.867   3.641
 8868SOL    HW127503   0.374   3.837   3.566
 8868SOL    HW227504   0.358   3.946   3.686
 8869SOL     OW27505   3.089   6.359   3.561
 8869SOL    HW127506   3.145   6.278   3.548
 8869SOL    HW227507   3.077   6.376   3.659
 8870SOL     OW27508   1.568   0.253   2.472
 8870SOL    HW127509   1.658   0.217   2.497
 8870SOL    HW227510   1.550   0.233   2.376
 8871SOL     OW27511   0.610   0.798   2.959
 8871SOL    HW127512   0.618   0.897   2.952
 8871SOL    HW227513   0.643   0.756   2.874
 8872SOL     OW27514   0.620   4.685   4.677
 8872SOL    HW127515   0.670   4.702   4.761
 8872SOL    HW227516   0.533   4.639   4.698
 8873SOL     OW27517   1.526   0.631   2.674
 8873SOL    HW127518   1.454   0.660   2.737
 8873SOL    HW227519   1.499   0.545   2.630
 8874SOL     OW27520   3.243   5.744   0.335
 8874SOL    HW127521   3.284   5.724   0.246
 8874SOL    HW227522   3.210   5.838   0.336
 8875SOL     OW27523   0.307   3.354   3.707
 8875SOL    HW127524   0.209   3.347   3.727
 8875SOL    HW227525   0.326   3.442   3.663
 8876SOL     OW27526   3.743   0.646   6.393
 8876SOL    HW127527   3.822   0.704   6.376
 8876SOL    HW227528   3.744   0.569   6.329
 8877SOL     OW27529   1.686   4.190   1.265
 8877SOL    HW127530   1.767   4.220   1.315
 8877SOL    HW227531   1.632   4.129   1.323
 8878SOL     OW27532   4.486   3.848   0.979
 8878SOL    HW127533   4.523   3.906   0.907
 8878SOL    HW227534   4.431   3.903   1.042
 8879SOL     OW27535   5.883   4.833   2.892
 8879SOL    HW127536   5.868   4.892   2.812
 8879SOL    HW227537   5.870   4.737   2.865
 8880SOL     OW27538   4.678   6.774   4.115
 8880SOL    HW127539   4.741   6.792   4.190
 8880SOL    HW227540   4.607   6.711   4.146
 8881SOL     OW27541   4.168   5.096   4.546
 8881SOL    HW127542   4.223   5.173   4.513
 8881SOL    HW227543   4.080   5.095   4.497
 8882SOL     OW27544   4.360   0.735   0.813
 8882SOL    HW127545   4.285   0.693   0.863
 8882SOL    HW227546   4.447   0.711   0.857
 8883SOL     OW27547   7.001   6.332   4.666
 8883SOL    HW127548   6.919   6.300   4.712
 8883SOL    HW227549   0.057   6.320   4.725
 8884SOL     OW27550   5.267   3.457   4.884
 8884SOL    HW127551   5.187   3.510   4.858
 8884SOL    HW227552   5.287   3.471   4.981
 8885SOL     OW27553   6.126   5.411   0.570
 8885SOL    HW127554   6.130   5.312   0.565
 8885SOL    HW227555   6.164   5.442   0.657
 8886SOL     OW27556   3.350   5.754   6.627
 8886SOL    HW127557   3.378   5.682   6.564
 8886SOL    HW227558   3.271   5.723   6.681
 8887SOL     OW27559   5.236   1.254   1.594
 8887SOL    HW127560   5.264   1.346   1.622
 8887SOL    HW227561   5.149   1.232   1.637
 8888SOL     OW27562   2.352   1.613   3.729
 8888SOL    HW127563   2.351   1.514   3.748
 8888SOL    HW227564   2.438   1.638   3.685
 8889SOL     OW27565   0.537   6.528   5.984
 8889SOL    HW127566   0.503   6.434   5.977
 8889SOL    HW227567   0.481   6.588   5.926
 8890SOL     OW27568   0.398   6.880   0.191
 8890SOL    HW127569   0.487   6.873   0.235
 8890SOL    HW227570   0.334   6.928   0.251
 8891SOL     OW27571   5.959   4.326   0.272
 8891SOL    HW127572   6.059   4.315   0.268
 8891SOL    HW227573   5.937   4.424   0.279
 8892SOL     OW27574   2.955   5.472   3.522
 8892SOL    HW127575   2.898   5.509   3.595
 8892SOL    HW227576   3.025   5.540   3.498
 8893SOL     OW27577   1.147   4.972   4.962
 8893SOL    HW127578   1.236   4.960   4.918
 8893SOL    HW227579   1.075   4.967   4.893
 8894SOL     OW27580   4.396   1.803   6.916
 8894SOL    HW127581   4.333   1.735   6.878
 8894SOL    HW227582   4.419   1.779   7.010
 8895SOL     OW27583   0.580   3.592   1.437
 8895SOL    HW127584   0.540   3.664   1.380
 8895SOL    HW227585   0.679   3.608   1.445
 8896SOL     OW27586   0.528   2.292   4.824
 8896SOL    HW127587   0.460   2.357   4.858
 8896SOL    HW227588   0.601   2.342   4.778
 8897SOL     OW27589   1.876   3.995   3.976
 8897SOL    HW127590   1.853   3.913   4.028
 8897SOL    HW227591   1.969   3.986   3.940
 8898SOL     OW27592   5.009   4.277   2.786
 8898SOL    HW127593   4.917   4.312   2.767
 8898SOL    HW227594   5.010   4.178   2.773
 8899SOL     OW27595   6.697   3.508   6.200
 8899SOL    HW127596   6.615   3.488   6.254
 8899SOL    HW227597   6.676   3.500   6.103
 8900SOL     OW27598   4.983   2.698   4.317
 8900SOL    HW127599   5.032   2.783   4.299
 8900SOL    HW227600   4.887   2.718   4.332
 8901SOL     OW27601   1.139   2.911   4.401
 8901SOL    HW127602   1.040   2.911   4.407
 8901SOL    HW227603   1.167   2.914   4.305
 8902SOL     OW27604   0.612   4.325   0.269
 8902SOL    HW127605   0.615   4.276   0.356
 8902SOL    HW227606   0.563   4.270   0.202
 8903SOL     OW27607   1.520   0.145   5.260
 8903SOL    HW127608   1.605   0.198   5.261
 8903SOL    HW227609   1.489   0.133   5.166
 8904SOL     OW27610   0.509   1.386   3.399
 8904SOL    HW127611   0.581   1.374   3.331
 8904SOL    HW227612   0.490   1.484   3.410
 8905SOL     OW27613   1.498   3.866   1.809
 8905SOL    HW127614   1.464   3.960   1.813
 8905SOL    HW227615   1.471   3.818   1.892
 8906SOL     OW27616   6.917   7.008   0.244
 8906SOL    HW127617   6.825   6.983   0.276
 8906SOL    HW227618   6.954   0.057   0.304
 8907SOL     OW27619   3.477   3.032   4.753
 8907SOL    HW127620   3.424   3.116   4.763
 8907SOL    HW227621   3.471   2.978   4.837
 8908SOL     OW27622   1.274   5.857   1.092
 8908SOL    HW127623   1.175   5.843   1.093
 8908SOL    HW227624   1.320   5.771   1.110
 8909SOL     OW27625   2.894   0.700   0.179
 8909SOL    HW127626   2.810   0.699   0.234
 8909SOL    HW227627   2.923   0.795   0.166
 8910SOL     OW27628   2.065   1.834   4.116
 8910SOL    HW127629   2.002   1.853   4.192
 8910SOL    HW227630   2.064   1.912   4.053
 8911SOL     OW27631   4.691   1.428   3.988
 8911SOL    HW127632   4.620   1.490   4.019
 8911SOL    HW227633   4.704   1.355   4.055
 8912SOL     OW27634   3.165   3.530   5.075
 8912SOL    HW127635   3.209   3.484   5.152
 8912SOL    HW227636   3.234   3.561   5.010
 8913SOL     OW27637   5.002   5.896   6.985
 8913SOL    HW127638   5.056   5.828   0.013
 8913SOL    HW227639   5.049   5.918   6.900
 8914SOL     OW27640   5.053   6.321   6.199
 8914SOL    HW127641   5.125   6.350   6.136
 8914SOL    HW227642   5.046   6.387   6.274
 8915SOL     OW27643   0.916   1.068   3.337
 8915SOL    HW127644   0.922   0.969   3.325
 8915SOL    HW227645   0.934   1.091   3.432
 8916SOL     OW27646   5.181   1.188   6.777
 8916SOL    HW127647   5.081   1.186   6.764
 8916SOL    HW227648   5.219   1.099   6.754
 8917SOL     OW27649   5.697   1.816   0.374
 8917SOL    HW127650   5.709   1.765   0.459
 8917SOL    HW227651   5.722   1.757   0.297
 8918SOL     OW27652   1.089   4.303   2.264
 8918SOL    HW127653   1.117   4.239   2.192
 8918SOL    HW227654   1.131   4.276   2.351
 8919SOL     OW27655   5.843   3.818   0.463
 8919SOL    HW127656   5.763   3.861   0.420
 8919SOL    HW227657   5.921   3.881   0.459
 8920SOL     OW27658   6.652   1.504   0.457
 8920SOL    HW127659   6.668   1.466   0.366
 8920SOL    HW227660   6.565   1.555   0.457
 8921SOL     OW27661   1.364   3.373   1.374
 8921SOL    HW127662   1.425   3.437   1.420
 8921SOL    HW227663   1.367   3.389   1.275
 8922SOL     OW27664   3.878   0.264   3.403
 8922SOL    HW127665   3.800   0.234   3.348
 8922SOL    HW227666   3.869   0.362   3.423
 8923SOL     OW27667   1.643   2.343   5.088
 8923SOL    HW127668   1.606   2.420   5.036
 8923SOL    HW227669   1.650   2.368   5.185
 8924SOL     OW27670   5.184   5.498   4.855
 8924SOL    HW127671   5.184   5.411   4.904
 8924SOL    HW227672   5.214   5.484   4.761
 8925SOL     OW27673   1.288   0.737   3.458
 8925SOL    HW127674   1.275   0.823   3.408
 8925SOL    HW227675   1.213   0.674   3.438
 8926SOL     OW27676   6.597   2.968   5.293
 8926SOL    HW127677   6.516   3.026   5.300
 8926SOL    HW227678   6.639   2.981   5.203
 8927SOL     OW27679   6.890   1.176   6.269
 8927SOL    HW127680   6.954   1.197   6.195
 8927SOL    HW227681   6.924   1.214   6.355
 8928SOL     OW27682   1.889   6.597   5.188
 8928SOL    HW127683   1.853   6.600   5.281
 8928SOL    HW227684   1.828   6.648   5.127
 8929SOL     OW27685   6.975   2.135   4.463
 8929SOL    HW127686   7.014   2.215   4.508
 8929SOL    HW227687   0.007   2.054   4.485
 8930SOL     OW27688   1.538   4.781   3.850
 8930SOL    HW127689   1.628   4.769   3.808
 8930SOL    HW227690   1.517   4.878   3.856
 8931SOL     OW27691   3.756   2.689   1.044
 8931SOL    HW127692   3.678   2.628   1.028
 8931SOL    HW227693   3.811   2.694   0.960
 8932SOL     OW27694   0.390   2.948   2.898
 8932SOL    HW127695   0.374   2.879   2.968
 8932SOL    HW227696   0.392   3.039   2.940
 8933SOL     OW27697   4.006   1.663   5.615
 8933SOL    HW127698   3.977   1.572   5.644
 8933SOL    HW227699   3.960   1.732   5.670
 8934SOL     OW27700   2.663   5.840   3.895
 8934SOL    HW127701   2.643   5.908   3.965
 8934SOL    HW227702   2.741   5.784   3.924
 8935SOL     OW27703   6.974   5.247   1.333
 8935SOL    HW127704   6.888   5.299   1.331
 8935SOL    HW227705   6.980   5.197   1.419
 8936SOL     OW27706   1.964   3.288   0.975
 8936SOL    HW127707   1.994   3.242   1.059
 8936SOL    HW227708   1.920   3.222   0.915
 8937SOL     OW27709   0.690   6.452   5.540
 8937SOL    HW127710   0.604   6.439   5.590
 8937SOL    HW227711   0.692   6.389   5.462
 8938SOL     OW27712   6.066   5.135   0.652
 8938SOL    HW127713   6.004   5.140   0.731
 8938SOL    HW227714   6.152   5.092   0.679
 8939SOL     OW27715   5.307   2.366   4.505
 8939SOL    HW127716   5.240   2.315   4.559
 8939SOL    HW227717   5.392   2.314   4.499
 8940SOL     OW27718   6.619   0.982   3.623
 8940SOL    HW127719   6.679   1.059   3.601
 8940SOL    HW227720   6.563   1.005   3.702
 8941SOL     OW27721   5.309   2.589   6.415
 8941SOL    HW127722   5.317   2.545   6.505
 8941SOL    HW227723   5.344   2.527   6.345
 8942SOL     OW27724   0.391   2.331   5.343
 8942SOL    HW127725   0.314   2.395   5.336
 8942SOL    HW227726   0.357   2.238   5.334
 8943SOL     OW27727   4.887   3.359   1.201
 8943SOL    HW127728   4.788   3.370   1.202
 8943SOL    HW227729   4.917   3.324   1.290
 8944SOL     OW27730   4.089   5.606   0.800
 8944SOL    HW127731   4.089   5.574   0.706
 8944SOL    HW227732   4.100   5.528   0.862
 8945SOL     OW27733   2.522   0.880   4.718
 8945SOL    HW127734   2.485   0.787   4.713
 8945SOL    HW227735   2.453   0.940   4.758
 8946SOL     OW27736   3.580   1.851   4.696
 8946SOL    HW127737   3.519   1.857   4.617
 8946SOL    HW227738   3.619   1.941   4.714
 8947SOL     OW27739   4.025   3.604   5.418
 8947SOL    HW127740   3.954   3.564   5.360
 8947SOL    HW227741   4.092   3.652   5.361
 8948SOL     OW27742   5.409   4.949   3.401
 8948SOL    HW127743   5.337   4.880   3.405
 8948SOL    HW227744   5.496   4.907   3.428
 8949SOL     OW27745   1.206   6.777   0.028
 8949SOL    HW127746   1.255   6.809   0.110
 8949SOL    HW227747   1.122   6.732   0.056
 8950SOL     OW27748   4.893   3.030   5.182
 8950SOL    HW127749   4.902   3.109   5.121
 8950SOL    HW227750   4.843   3.057   5.264
 8951SOL     OW27751   1.581   2.699   5.283
 8951SOL    HW127752   1.499   2.643   5.275
 8951SOL    HW227753   1.601   2.742   5.195
 8952SOL     OW27754   0.840   1.324   2.905
 8952SOL    HW127755   0.914   1.390   2.890
 8952SOL    HW227756   0.868   1.258   2.976
 8953SOL     OW27757   1.938   3.388   0.213
 8953SOL    HW127758   1.954   3.354   0.120
 8953SOL    HW227759   2.012   3.449   0.239
 8954SOL     OW27760   1.828   6.110   6.504
 8954SOL    HW127761   1.749   6.164   6.477
 8954SOL    HW227762   1.836   6.110   6.604
 8955SOL     OW27763   6.767   4.203   3.514
 8955SOL    HW127764   6.690   4.266   3.509
 8955SOL    HW227765   6.813   4.200   3.426
 8956SOL     OW27766   0.147   0.484   6.130
 8956SOL    HW127767   0.234   0.438   6.113
 8956SOL    HW227768   0.140   0.565   6.072
 8957SOL     OW27769   2.789   4.809   2.369
 8957SOL    HW127770   2.884   4.826   2.394
 8957SOL    HW227771   2.785   4.755   2.285
 8958SOL     OW27772   1.918   6.608   4.381
 8958SOL    HW127773   1.957   6.693   4.417
 8958SOL    HW227774   1.841   6.580   4.439
 8959SOL     OW27775   1.015   4.784   0.465
 8959SOL    HW127776   1.061   4.843   0.532
 8959SOL    HW227777   1.005   4.833   0.378
 8960SOL     OW27778   3.741   5.673   1.869
 8960SOL    HW127779   3.655   5.696   1.824
 8960SOL    HW227780   3.790   5.756   1.895
 8961SOL     OW27781   1.680   2.540   3.832
 8961SOL    HW127782   1.607   2.472   3.833
 8961SOL    HW227783   1.727   2.537   3.744
 8962SOL     OW27784   5.934   0.576   3.516
 8962SOL    HW127785   5.911   0.498   3.575
 8962SOL    HW227786   6.016   0.621   3.551
 8963SOL     OW27787   5.968   0.775   4.430
 8963SOL    HW127788   6.028   0.825   4.492
 8963SOL    HW227789   5.901   0.723   4.483
 8964SOL     OW27790   5.204   4.617   1.924
 8964SOL    HW127791   5.265   4.538   1.916
 8964SOL    HW227792   5.123   4.602   1.866
 8965SOL     OW27793   1.603   5.280   1.625
 8965SOL    HW127794   1.658   5.198   1.608
 8965SOL    HW227795   1.635   5.353   1.565
 8966SOL     OW27796   2.002   2.617   6.115
 8966SOL    HW127797   1.951   2.656   6.192
 8966SOL    HW227798   2.100   2.625   6.133
 8967SOL     OW27799   4.114   0.810   0.477
 8967SOL    HW127800   4.039   0.754   0.510
 8967SOL    HW227801   4.201   0.773   0.511
 8968SOL     OW27802   5.137   6.276   1.499
 8968SOL    HW127803   5.050   6.312   1.532
 8968SOL    HW227804   5.131   6.176   1.489
 8969SOL     OW27805   5.945   0.938   3.926
 8969SOL    HW127806   5.921   1.028   3.889
 8969SOL    HW227807   6.045   0.933   3.937
 8970SOL     OW27808   3.517   2.468   1.463
 8970SOL    HW127809   3.560   2.536   1.522
 8970SOL    HW227810   3.458   2.409   1.519
 8971SOL     OW27811   3.776   5.510   2.085
 8971SOL    HW127812   3.757   5.563   2.003
 8971SOL    HW227813   3.724   5.425   2.083
 8972SOL     OW27814   5.459   6.149   5.498
 8972SOL    HW127815   5.454   6.104   5.409
 8972SOL    HW227816   5.439   6.083   5.570
 8973SOL     OW27817   1.596   4.823   0.393
 8973SOL    HW127818   1.560   4.804   0.302
 8973SOL    HW227819   1.533   4.884   0.442
 8974SOL     OW27820   0.823   4.039   6.136
 8974SOL    HW127821   0.809   3.980   6.215
 8974SOL    HW227822   0.911   4.086   6.144
 8975SOL     OW27823   3.069   0.228   0.889
 8975SOL    HW127824   3.143   0.262   0.832
 8975SOL    HW227825   2.989   0.210   0.832
 8976SOL     OW27826   1.697   5.336   4.674
 8976SOL    HW127827   1.707   5.432   4.646
 8976SOL    HW227828   1.739   5.277   4.606
 8977SOL     OW27829   6.353   1.671   5.633
 8977SOL    HW127830   6.334   1.602   5.564
 8977SOL    HW227831   6.356   1.628   5.724
 8978SOL     OW27832   5.885   6.410   0.084
 8978SOL    HW127833   5.862   6.314   0.096
 8978SOL    HW227834   5.938   6.442   0.162
 8979SOL     OW27835   1.825   3.901   4.802
 8979SOL    HW127836   1.839   3.805   4.825
 8979SOL    HW227837   1.913   3.947   4.796
 8980SOL     OW27838   3.360   3.219   4.998
 8980SOL    HW127839   3.363   3.229   5.097
 8980SOL    HW227840   3.264   3.219   4.967
 8981SOL     OW27841   3.545   1.489   5.004
 8981SOL    HW127842   3.525   1.532   5.092
 8981SOL    HW227843   3.544   1.558   4.932
 8982SOL     OW27844   2.782   4.217   0.581
 8982SOL    HW127845   2.813   4.153   0.511
 8982SOL    HW227846   2.757   4.304   0.537
 8983SOL     OW27847   3.968   5.259   0.086
 8983SOL    HW127848   3.908   5.218   0.155
 8983SOL    HW227849   4.025   5.329   0.130
 8984SOL     OW27850   2.231   6.152   3.174
 8984SOL    HW127851   2.171   6.072   3.179
 8984SOL    HW227852   2.238   6.182   3.079
 8985SOL     OW27853   3.711   3.185   6.937
 8985SOL    HW127854   3.689   3.198   0.011
 8985SOL    HW227855   3.784   3.117   6.928
 8986SOL     OW27856   3.718   4.896   3.001
 8986SOL    HW127857   3.706   4.989   3.033
 8986SOL    HW227858   3.634   4.844   3.017
 8987SOL     OW27859   5.243   5.586   2.784
 8987SOL    HW127860   5.182   5.519   2.826
 8987SOL    HW227861   5.247   5.570   2.685
 8988SOL     OW27862   0.582   5.493   4.124
 8988SOL    HW127863   0.644   5.416   4.111
 8988SOL    HW227864   0.600   5.535   4.213
 8989SOL     OW27865   4.512   2.815   6.652
 8989SOL    HW127866   4.487   2.757   6.729
 8989SOL    HW227867   4.483   2.909   6.669
 8990SOL     OW27868   0.363   5.067   3.980
 8990SOL    HW127869   0.313   5.074   3.893
 8990SOL    HW227870   0.457   5.040   3.962
 8991SOL     OW27871   1.558   2.289   4.733
 8991SOL    HW127872   1.591   2.359   4.796
 8991SOL    HW227873   1.473   2.321   4.690
 8992SOL     OW27874   6.038   2.308   6.904
 8992SOL    HW127875   6.119   2.309   6.963
 8992SOL    HW227876   6.028   2.398   6.860
 8993SOL     OW27877   3.759   3.412   6.045
 8993SOL    HW127878   3.762   3.485   5.976
 8993SOL    HW227879   3.783   3.325   6.003
 8994SOL     OW27880   2.058   4.645   4.730
 8994SOL    HW127881   2.001   4.584   4.784
 8994SOL    HW227882   2.002   4.691   4.661
 8995SOL     OW27883   0.071   1.715   1.493
 8995SOL    HW127884   0.131   1.636   1.485
 8995SOL    HW227885   0.062   1.759   1.403
 8996SOL     OW27886   5.172   3.904   6.846
 8996SOL    HW127887   5.175   3.813   6.888
 8996SOL    HW227888   5.215   3.900   6.756
 8997SOL     OW27889   5.448   1.009   5.308
 8997SOL    HW127890   5.524   0.954   5.344
 8997SOL    HW227891   5.485   1.082   5.251
 8998SOL     OW27892   6.104   4.017   3.781
 8998SOL    HW127893   6.140   3.961   3.855
 8998SOL    HW227894   6.082   4.108   3.816
 8999SOL     OW27895   4.575   0.041   5.840
 8999SOL    HW127896   4.598   0.110   5.909
 8999SOL    HW227897   4.497   0.072   5.786
 9000SOL     OW27898   1.675   4.402   1.576
 9000SOL    HW127899   1.714   4.429   1.489
 9000SOL    HW227900   1.632   4.312   1.567
 9001SOL     OW27901   0.211   4.931   2.396
 9001SOL    HW127902   0.261   4.872   2.459
 9001SOL    HW227903   0.127   4.964   2.440
 9002SOL     OW27904   1.336   4.214   5.498
 9002SOL    HW127905   1.416   4.222   5.439
 9002SOL    HW227906   1.290   4.127   5.479
 9003SOL     OW27907   5.226   2.415   1.223
 9003SOL    HW127908   5.255   2.411   1.127
 9003SOL    HW227909   5.248   2.504   1.261
 9004SOL     OW27910   4.311   5.079   0.714
 9004SOL    HW127911   4.345   5.121   0.630
 9004SOL    HW227912   4.367   5.000   0.737
 9005SOL     OW27913   5.417   1.294   5.706
 9005SOL    HW127914   5.448   1.389   5.704
 9005SOL    HW227915   5.484   1.236   5.659
 9006SOL     OW27916   3.268   0.310   0.734
 9006SOL    HW127917   3.353   0.313   0.787
 9006SOL    HW227918   3.285   0.267   0.646
 9007SOL     OW27919   2.579   1.183   2.557
 9007SOL    HW127920   2.483   1.157   2.567
 9007SOL    HW227921   2.589   1.280   2.578
 9008SOL     OW27922   0.236   5.582   2.840
 9008SOL    HW127923   0.313   5.617   2.893
 9008SOL    HW227924   0.215   5.645   2.765
 9009SOL     OW27925   3.968   5.169   0.929
 9009SOL    HW127926   4.007   5.258   0.953
 9009SOL    HW227927   3.939   5.170   0.833
 9010SOL     OW27928   2.263   6.374   3.980
 9010SOL    HW127929   2.203   6.416   4.048
 9010SOL    HW227930   2.228   6.284   3.955
 9011SOL     OW27931   4.764   0.932   2.430
 9011SOL    HW127932   4.699   0.892   2.366
 9011SOL    HW227933   4.852   0.884   2.424
 9012SOL     OW27934   2.681   5.742   0.586
 9012SOL    HW127935   2.672   5.838   0.558
 9012SOL    HW227936   2.705   5.737   0.682
 9013SOL     OW27937   1.535   6.776   4.648
 9013SOL    HW127938   1.617   6.738   4.605
 9013SOL    HW227939   1.485   6.704   4.695
 9014SOL     OW27940   6.298   2.694   1.803
 9014SOL    HW127941   6.395   2.671   1.792
 9014SOL    HW227942   6.246   2.612   1.823
 9015SOL     OW27943   4.820   2.821   0.873
 9015SOL    HW127944   4.883   2.870   0.935
 9015SOL    HW227945   4.806   2.876   0.791
 9016SOL     OW27946   5.658   5.256   6.557
 9016SOL    HW127947   5.609   5.271   6.472
 9016SOL    HW227948   5.606   5.194   6.616
 9017SOL     OW27949   3.451   1.266   4.898
 9017SOL    HW127950   3.493   1.349   4.935
 9017SOL    HW227951   3.386   1.230   4.964
 9018SOL     OW27952   3.633   3.286   6.694
 9018SOL    HW127953   3.666   3.247   6.780
 9018SOL    HW227954   3.613   3.383   6.708
 9019SOL     OW27955   1.363   3.608   3.115
 9019SOL    HW127956   1.454   3.573   3.094
 9019SOL    HW227957   1.294   3.540   3.092
 9020SOL     OW27958   6.697   5.569   1.713
 9020SOL    HW127959   6.794   5.555   1.733
 9020SOL    HW227960   6.655   5.483   1.685
 9021SOL     OW27961   6.873   0.269   3.669
 9021SOL    HW127962   6.841   0.270   3.575
 9021SOL    HW227963   6.809   0.216   3.725
 9022SOL     OW27964   3.712   2.731   6.706
 9022SOL    HW127965   3.782   2.798   6.733
 9022SOL    HW227966   3.701   2.663   6.779
 9023SOL     OW27967   3.874   3.136   1.075
 9023SOL    HW127968   3.938   3.198   1.030
 9023SOL    HW227969   3.919   3.091   1.151
 9024SOL     OW27970   0.910   5.111   5.789
 9024SOL    HW127971   0.963   5.165   5.723
 9024SOL    HW227972   0.819   5.094   5.753
 9025SOL     OW27973   0.376   5.878   0.664
 9025SOL    HW127974   0.288   5.909   0.700
 9025SOL    HW227975   0.363   5.797   0.608
 9026SOL     OW27976   3.599   1.576   0.205
 9026SOL    HW127977   3.528   1.579   0.135
 9026SOL    HW227978   3.620   1.669   0.235
 9027SOL     OW27979   0.979   3.739   3.642
 9027SOL    HW127980   0.929   3.703   3.721
 9027SOL    HW227981   0.916   3.751   3.565
 9028SOL     OW27982   3.445   3.568   5.314
 9028SOL    HW127983   3.389   3.649   5.332
 9028SOL    HW227984   3.474   3.568   5.218
 9029SOL     OW27985   4.319   0.543   4.511
 9029SOL    HW127986   4.269   0.629   4.501
 9029SOL    HW227987   4.259   0.475   4.554
 9030SOL     OW27988   2.357   2.722   4.001
 9030SOL    HW127989   2.383   2.735   4.097
 9030SOL    HW227990   2.281   2.658   3.995
 9031SOL     OW27991   4.562   0.147   4.656
 9031SOL    HW127992   4.609   0.177   4.739
 9031SOL    HW227993   4.621   0.083   4.606
 9032SOL     OW27994   5.136   3.483   1.098
 9032SOL    HW127995   5.037   3.472   1.109
 9032SOL    HW227996   5.177   3.500   1.188
 9033SOL     OW27997   0.588   5.106   2.120
 9033SOL    HW127998   0.636   5.152   2.195
 9033SOL    HW227999   0.493   5.089   2.147
 9034SOL     OW28000   3.284   6.249   4.947
 9034SOL    HW128001   3.339   6.300   4.881
 9034SOL    HW228002   3.281   6.153   4.920
 9035SOL     OW28003   2.189   5.977   0.119
 9035SOL    HW128004   2.161   5.964   0.024
 9035SOL    HW228005   2.288   5.964   0.127
 9036SOL     OW28006   1.189   3.587   4.715
 9036SOL    HW128007   1.098   3.576   4.675
 9036SOL    HW228008   1.199   3.526   4.794
 9037SOL     OW28009   0.687   2.498   4.187
 9037SOL    HW128010   0.686   2.503   4.287
 9037SOL    HW228011   0.725   2.410   4.158
 9038SOL     OW28012   4.567   3.020   6.311
 9038SOL    HW128013   4.500   2.977   6.371
 9038SOL    HW228014   4.533   3.110   6.283
 9039SOL     OW28015   3.435   4.770   6.818
 9039SOL    HW128016   3.358   4.770   6.754
 9039SOL    HW228017   3.490   4.853   6.805
 9040SOL     OW28018   2.016   2.414   1.934
 9040SOL    HW128019   2.024   2.355   2.015
 9040SOL    HW228020   2.077   2.380   1.862
 9041SOL     OW28021   0.510   2.383   0.789
 9041SOL    HW128022   0.584   2.358   0.851
 9041SOL    HW228023   0.440   2.311   0.789
 9042SOL     OW28024   3.402   5.941   5.483
 9042SOL    HW128025   3.326   5.982   5.533
 9042SOL    HW228026   3.478   6.005   5.479
 9043SOL     OW28027   2.595   1.087   6.635
 9043SOL    HW128028   2.642   1.083   6.547
 9043SOL    HW228029   2.639   1.154   6.694
 9044SOL     OW28030   0.474   0.381   7.007
 9044SOL    HW128031   0.442   0.305   0.040
 9044SOL    HW228032   0.558   0.354   6.959
 9045SOL     OW28033   4.302   0.398   3.204
 9045SOL    HW128034   4.258   0.446   3.281
 9045SOL    HW228035   4.277   0.302   3.206
 9046SOL     OW28036   3.577   3.180   2.579
 9046SOL    HW128037   3.597   3.149   2.672
 9046SOL    HW228038   3.489   3.228   2.578
 9047SOL     OW28039   1.843   4.363   5.641
 9047SOL    HW128040   1.783   4.431   5.684
 9047SOL    HW228041   1.930   4.404   5.618
 9048SOL     OW28042   5.782   2.450   6.381
 9048SOL    HW128043   5.772   2.545   6.412
 9048SOL    HW228044   5.784   2.448   6.281
 9049SOL     OW28045   3.208   6.723   6.296
 9049SOL    HW128046   3.195   6.763   6.387
 9049SOL    HW228047   3.286   6.660   6.299
 9050SOL     OW28048   0.604   4.393   1.559
 9050SOL    HW128049   0.566   4.458   1.494
 9050SOL    HW228050   0.644   4.315   1.509
 9051SOL     OW28051   2.833   1.603   1.341
 9051SOL    HW128052   2.838   1.701   1.361
 9051SOL    HW228053   2.849   1.551   1.425
 9052SOL     OW28054   2.049   2.924   4.515
 9052SOL    HW128055   2.123   2.917   4.448
 9052SOL    HW228056   2.047   2.840   4.570
 9053SOL     OW28057   2.159   1.655   1.372
 9053SOL    HW128058   2.237   1.632   1.430
 9053SOL    HW228059   2.187   1.657   1.276
 9054SOL     OW28060   3.069   5.381   3.881
 9054SOL    HW128061   3.132   5.382   3.804
 9054SOL    HW228062   3.011   5.299   3.875
 9055SOL     OW28063   0.072   4.267   4.765
 9055SOL    HW128064   7.012   4.318   4.788
 9055SOL    HW228065   0.121   4.314   4.692
 9056SOL     OW28066   6.036   2.104   2.429
 9056SOL    HW128067   6.064   2.045   2.353
 9056SOL    HW228068   6.024   2.049   2.511
 9057SOL     OW28069   4.635   1.403   4.395
 9057SOL    HW128070   4.674   1.362   4.478
 9057SOL    HW228071   4.646   1.502   4.399
 9058SOL     OW28072   1.343   0.516   6.325
 9058SOL    HW128073   1.347   0.428   6.370
 9058SOL    HW228074   1.427   0.567   6.343
 9059SOL     OW28075   1.506   2.463   2.424
 9059SOL    HW128076   1.457   2.445   2.339
 9059SOL    HW228077   1.594   2.506   2.404
 9060SOL     OW28078   4.857   2.910   4.844
 9060SOL    HW128079   4.949   2.939   4.815
 9060SOL    HW228080   4.861   2.816   4.877
 9061SOL     OW28081   4.728   5.264   2.385
 9061SOL    HW128082   4.645   5.215   2.357
 9061SOL    HW228083   4.721   5.288   2.482
 9062SOL     OW28084   1.644   5.533   1.481
 9062SOL    HW128085   1.664   5.594   1.558
 9062SOL    HW228086   1.626   5.589   1.400
 9063SOL     OW28087   2.712   1.450   3.418
 9063SOL    HW128088   2.749   1.379   3.358
 9063SOL    HW228089   2.725   1.424   3.513
 9064SOL     OW28090   6.430   3.597   6.990
 9064SOL    HW128091   6.438   3.525   0.036
 9064SOL    HW228092   6.475   3.567   6.905
 9065SOL     OW28093   3.151   0.920   0.433
 9065SOL    HW128094   3.123   1.016   0.422
 9065SOL    HW228095   3.070   0.863   0.447
 9066SOL     OW28096   5.317   6.453   0.153
 9066SOL    HW128097   5.396   6.511   0.132
 9066SOL    HW228098   5.286   6.473   0.246
 9067SOL     OW28099   1.578   6.632   3.384
 9067SOL    HW128100   1.516   6.678   3.320
 9067SOL    HW228101   1.543   6.640   3.477
 9068SOL     OW28102   1.724   6.116   6.135
 9068SOL    HW128103   1.815   6.120   6.175
 9068SOL    HW228104   1.657   6.090   6.206
 9069SOL     OW28105   1.937   2.532   5.860
 9069SOL    HW128106   1.915   2.586   5.941
 9069SOL    HW228107   2.015   2.473   5.879
 9070SOL     OW28108   1.410   4.446   4.592
 9070SOL    HW128109   1.327   4.391   4.580
 9070SOL    HW228110   1.483   4.408   4.536
 9071SOL     OW28111   6.246   6.511   6.959
 9071SOL    HW128112   6.289   6.595   6.993
 9071SOL    HW228113   6.302   6.472   6.886
 9072SOL     OW28114   6.691   4.288   0.108
 9072SOL    HW128115   6.683   4.200   0.061
 9072SOL    HW228116   6.614   4.299   0.171
 9073SOL     OW28117   1.890   0.990   2.182
 9073SOL    HW128118   1.939   1.069   2.146
 9073SOL    HW228119   1.840   0.946   2.107
 9074SOL     OW28120   1.280   6.903   3.494
 9074SOL    HW128121   1.307   6.999   3.492
 9074SOL    HW228122   1.187   6.893   3.456
 9075SOL     OW28123   6.534   0.616   2.401
 9075SOL    HW128124   6.553   0.625   2.303
 9075SOL    HW228125   6.576   0.692   2.451
 9076SOL     OW28126   6.745   0.830   5.692
 9076SOL    HW128127   6.661   0.866   5.651
 9076SOL    HW228128   6.722   0.782   5.777
 9077SOL     OW28129   5.724   5.924   2.251
 9077SOL    HW128130   5.670   5.932   2.167
 9077SOL    HW228131   5.787   5.847   2.243
 9078SOL     OW28132   4.134   3.312   4.533
 9078SOL    HW128133   4.109   3.233   4.478
 9078SOL    HW228134   4.158   3.282   4.626
 9079SOL     OW28135   3.315   6.787   5.457
 9079SOL    HW128136   3.334   6.707   5.400
 9079SOL    HW228137   3.267   6.759   5.540
 9080SOL     OW28138   5.694   2.343   0.388
 9080SOL    HW128139   5.765   2.413   0.383
 9080SOL    HW228140   5.610   2.376   0.346
 9081SOL     OW28141   5.749   6.269   2.097
 9081SOL    HW128142   5.706   6.228   2.177
 9081SOL    HW228143   5.758   6.200   2.025
 9082SOL     OW28144   3.192   1.187   3.880
 9082SOL    HW128145   3.163   1.201   3.785
 9082SOL    HW228146   3.256   1.111   3.884
 9083SOL     OW28147   5.143   4.629   4.895
 9083SOL    HW128148   5.235   4.665   4.909
 9083SOL    HW228149   5.108   4.594   4.982
 9084SOL     OW28150   3.241   4.072   3.115
 9084SOL    HW128151   3.286   4.076   3.026
 9084SOL    HW228152   3.190   4.157   3.130
 9085SOL     OW28153   2.167   2.406   1.458
 9085SOL    HW128154   2.258   2.399   1.499
 9085SOL    HW228155   2.125   2.316   1.453
 9086SOL     OW28156   0.652   3.961   1.383
 9086SOL    HW128157   0.567   3.916   1.354
 9086SOL    HW228158   0.725   3.893   1.390
 9087SOL     OW28159   4.848   3.778   2.307
 9087SOL    HW128160   4.807   3.824   2.229
 9087SOL    HW228161   4.846   3.679   2.294
 9088SOL     OW28162   5.798   0.844   6.704
 9088SOL    HW128163   5.708   0.803   6.719
 9088SOL    HW228164   5.868   0.772   6.704
 9089SOL     OW28165   4.408   0.211   5.512
 9089SOL    HW128166   4.365   0.121   5.522
 9089SOL    HW228167   4.423   0.251   5.602
 9090SOL     OW28168   5.548   1.030   4.416
 9090SOL    HW128169   5.505   1.117   4.443
 9090SOL    HW228170   5.481   0.974   4.366
 9091SOL     OW28171   3.297   3.695   6.655
 9091SOL    HW128172   3.360   3.773   6.659
 9091SOL    HW228173   3.214   3.716   6.706
 9092SOL     OW28174   6.676   2.605   0.143
 9092SOL    HW128175   6.682   2.701   0.170
 9092SOL    HW228176   6.726   2.591   0.058
 9093SOL     OW28177   1.587   6.771   5.450
 9093SOL    HW128178   1.589   6.871   5.450
 9093SOL    HW228179   1.572   6.737   5.543
 9094SOL     OW28180   0.392   3.467   1.824
 9094SOL    HW128181   0.395   3.402   1.900
 9094SOL    HW228182   0.404   3.560   1.859
 9095SOL     OW28183   5.351   5.998   5.290
 9095SOL    HW128184   5.307   5.972   5.376
 9095SOL    HW228185   5.366   5.917   5.235
 9096SOL     OW28186   6.360   5.531   2.518
 9096SOL    HW128187   6.351   5.478   2.602
 9096SOL    HW228188   6.435   5.597   2.527
 9097SOL     OW28189   1.130   3.099   6.052
 9097SOL    HW128190   1.138   3.174   6.118
 9097SOL    HW228191   1.145   3.012   6.099
 9098SOL     OW28192   1.743   3.567   4.443
 9098SOL    HW128193   1.660   3.608   4.406
 9098SOL    HW228194   1.812   3.639   4.457
 9099SOL     OW28195   2.197   3.690   6.929
 9099SOL    HW128196   2.100   3.667   6.923
 9099SOL    HW228197   2.227   3.683   0.001
 9100SOL     OW28198   1.052   4.501   2.938
 9100SOL    HW128199   1.096   4.495   2.848
 9100SOL    HW228200   0.987   4.577   2.938
 9101SOL     OW28201   1.638   2.215   2.039
 9101SOL    HW128202   1.662   2.277   2.114
 9101SOL    HW228203   1.625   2.123   2.076
 9102SOL     OW28204   4.570   6.077   2.837
 9102SOL    HW128205   4.593   6.009   2.768
 9102SOL    HW228206   4.585   6.169   2.801
 9103SOL     OW28207   5.792   1.735   0.635
 9103SOL    HW128208   5.750   1.814   0.679
 9103SOL    HW228209   5.855   1.690   0.699
 9104SOL     OW28210   6.103   1.096   0.032
 9104SOL    HW128211   6.088   1.119   0.128
 9104SOL    HW228212   6.031   1.035   0.000
 9105SOL     OW28213   2.239   0.399   6.384
 9105SOL    HW128214   2.148   0.381   6.422
 9105SOL    HW228215   2.241   0.489   6.342
 9106SOL     OW28216   1.739   5.004   0.036
 9106SOL    HW128217   1.796   5.070   7.010
 9106SOL    HW228218   1.689   5.049   0.109
 9107SOL     OW28219   2.366   1.357   6.985
 9107SOL    HW128220   2.306   1.397   6.916
 9107SOL    HW228221   2.453   1.333   6.943
 9108SOL     OW28222   5.637   4.891   5.933
 9108SOL    HW128223   5.631   4.988   5.954
 9108SOL    HW228224   5.730   4.858   5.948
 9109SOL     OW28225   5.240   2.752   2.936
 9109SOL    HW128226   5.154   2.727   2.892
 9109SOL    HW228227   5.311   2.765   2.866
 9110SOL     OW28228   1.417   5.896   4.644
 9110SOL    HW128229   1.370   5.808   4.638
 9110SOL    HW228230   1.468   5.901   4.729
 9111SOL     OW28231   4.327   2.931   5.379
 9111SOL    HW128232   4.245   2.875   5.363
 9111SOL    HW228233   4.311   3.024   5.346
 9112SOL     OW28234   1.021   5.309   2.424
 9112SOL    HW128235   1.026   5.243   2.498
 9112SOL    HW228236   1.067   5.271   2.343
 9113SOL     OW28237   5.307   1.791   3.537
 9113SOL    HW128238   5.230   1.742   3.495
 9113SOL    HW228239   5.371   1.725   3.576
 9114SOL     OW28240   1.283   5.883   5.159
 9114SOL    HW128241   1.373   5.853   5.130
 9114SOL    HW228242   1.249   5.953   5.096
 9115SOL     OW28243   5.662   4.447   4.301
 9115SOL    HW128244   5.577   4.468   4.351
 9115SOL    HW228245   5.640   4.430   4.205
 9116SOL     OW28246   0.940   6.600   3.353
 9116SOL    HW128247   0.954   6.674   3.418
 9116SOL    HW228248   0.847   6.565   3.361
 9117SOL     OW28249   3.944   0.693   6.821
 9117SOL    HW128250   3.883   0.768   6.796
 9117SOL    HW228251   3.889   0.614   6.849
 9118SOL     OW28252   6.357   4.278   1.208
 9118SOL    HW128253   6.276   4.237   1.249
 9118SOL    HW228254   6.430   4.283   1.277
 9119SOL     OW28255   3.606   0.624   0.570
 9119SOL    HW128256   3.590   0.529   0.543
 9119SOL    HW228257   3.518   0.670   0.582
 9120SOL     OW28258   6.106   3.200   5.435
 9120SOL    HW128259   6.116   3.246   5.523
 9120SOL    HW228260   6.053   3.116   5.447
 9121SOL     OW28261   3.273   0.934   4.797
 9121SOL    HW128262   3.195   0.874   4.777
 9121SOL    HW228263   3.318   0.958   4.711
 9122SOL     OW28264   2.470   4.486   2.230
 9122SOL    HW128265   2.411   4.421   2.181
 9122SOL    HW228266   2.509   4.442   2.310
 9123SOL     OW28267   1.033   0.232   4.024
 9123SOL    HW128268   1.101   0.199   3.959
 9123SOL    HW228269   1.074   0.238   4.115
 9124SOL     OW28270   2.928   5.591   1.646
 9124SOL    HW128271   2.968   5.499   1.646
 9124SOL    HW228272   2.849   5.593   1.585
 9125SOL     OW28273   4.737   6.116   1.303
 9125SOL    HW128274   4.767   6.052   1.233
 9125SOL    HW228275   4.753   6.210   1.271
 9126SOL     OW28276   3.828   4.541   0.076
 9126SOL    HW128277   3.836   4.462   0.137
 9126SOL    HW228278   3.769   4.610   0.118
 9127SOL     OW28279   0.155   4.236   5.295
 9127SOL    HW128280   0.209   4.307   5.342
 9127SOL    HW228281   0.188   4.226   5.202
 9128SOL     OW28282   5.899   3.582   5.422
 9128SOL    HW128283   5.954   3.557   5.342
 9128SOL    HW228284   5.826   3.516   5.435
 9129SOL     OW28285   1.622   2.924   0.716
 9129SOL    HW128286   1.578   2.919   0.806
 9129SOL    HW228287   1.571   2.988   0.658
 9130SOL     OW28288   2.612   4.011   5.315
 9130SOL    HW128289   2.531   3.986   5.261
 9130SOL    HW228290   2.647   4.099   5.284
 9131SOL     OW28291   5.302   2.685   1.241
 9131SOL    HW128292   5.221   2.713   1.292
 9131SOL    HW228293   5.351   2.766   1.209
 9132SOL     OW28294   0.011   4.683   3.548
 9132SOL    HW128295   0.041   4.778   3.559
 9132SOL    HW228296   7.010   4.646   3.638
 9133SOL     OW28297   4.653   1.425   0.651
 9133SOL    HW128298   4.625   1.347   0.595
 9133SOL    HW228299   4.730   1.471   0.607
 9134SOL     OW28300   3.933   5.238   0.600
 9134SOL    HW128301   3.982   5.322   0.575
 9134SOL    HW228302   3.843   5.261   0.635
 9135SOL     OW28303   0.105   6.616   2.664
 9135SOL    HW128304   0.055   6.530   2.675
 9135SOL    HW228305   0.040   6.689   2.642
 9136SOL     OW28306   6.043   4.372   6.769
 9136SOL    HW128307   5.945   4.359   6.786
 9136SOL    HW228308   6.070   4.463   6.800
 9137SOL     OW28309   5.333   6.499   6.411
 9137SOL    HW128310   5.343   6.594   6.440
 9137SOL    HW228311   5.408   6.445   6.448
 9138SOL     OW28312   3.132   3.203   0.903
 9138SOL    HW128313   3.222   3.181   0.940
 9138SOL    HW228314   3.142   3.237   0.810
 9139SOL     OW28315   0.040   0.106   0.942
 9139SOL    HW128316   0.090   0.021   0.964
 9139SOL    HW228317   0.093   0.184   0.975
 9140SOL     OW28318   1.044   3.728   2.935
 9140SOL    HW128319   0.944   3.732   2.925
 9140SOL    HW228320   1.067   3.730   3.032
 9141SOL     OW28321   6.722   5.747   5.765
 9141SOL    HW128322   6.734   5.789   5.675
 9141SOL    HW228323   6.667   5.807   5.822
 9142SOL     OW28324   1.313   4.248   4.194
 9142SOL    HW128325   1.314   4.203   4.105
 9142SOL    HW228326   1.401   4.236   4.239
 9143SOL     OW28327   0.323   4.245   2.790
 9143SOL    HW128328   0.253   4.188   2.833
 9143SOL    HW228329   0.283   4.332   2.762
 9144SOL     OW28330   2.484   4.646   5.512
 9144SOL    HW128331   2.394   4.623   5.473
 9144SOL    HW228332   2.498   4.745   5.508
 9145SOL     OW28333   1.153   6.375   5.734
 9145SOL    HW128334   1.082   6.426   5.684
 9145SOL    HW228335   1.237   6.375   5.681
 9146SOL     OW28336   6.355   2.874   3.223
 9146SOL    HW128337   6.402   2.930   3.291
 9146SOL    HW228338   6.401   2.785   3.216
 9147SOL     OW28339   4.186   7.020   4.291
 9147SOL    HW128340   4.135   6.972   4.220
 9147SOL    HW228341   4.284   7.009   4.276
 9148SOL     OW28342   6.254   6.109   1.506
 9148SOL    HW128343   6.249   6.046   1.428
 9148SOL    HW228344   6.176   6.094   1.566
 9149SOL     OW28345   0.667   3.592   2.283
 9149SOL    HW128346   0.667   3.654   2.362
 9149SOL    HW228347   0.761   3.572   2.257
 9150SOL     OW28348   2.822   2.460   1.047
 9150SOL    HW128349   2.857   2.520   1.119
 9150SOL    HW228350   2.886   2.458   0.971
 9151SOL     OW28351   1.583   3.102   3.798
 9151SOL    HW128352   1.622   3.150   3.719
 9151SOL    HW228353   1.488   3.131   3.811
 9152SOL     OW28354   1.867   4.327   2.991
 9152SOL    HW128355   1.829   4.413   3.026
 9152SOL    HW228356   1.907   4.342   2.901
 9153SOL     OW28357   0.045   3.863   6.420
 9153SOL    HW128358   6.976   3.856   6.380
 9153SOL    HW228359   0.060   3.955   6.455
 9154SOL     OW28360   5.493   4.885   2.440
 9154SOL    HW128361   5.477   4.984   2.434
 9154SOL    HW228362   5.515   4.861   2.535
 9155SOL     OW28363   1.468   6.530   2.610
 9155SOL    HW128364   1.539   6.500   2.547
 9155SOL    HW228365   1.442   6.624   2.590
 9156SOL     OW28366   6.696   4.004   6.485
 9156SOL    HW128367   6.738   3.989   6.574
 9156SOL    HW228368   6.633   4.082   6.491
 9157SOL     OW28369   1.934   4.746   6.254
 9157SOL    HW128370   1.912   4.689   6.174
 9157SOL    HW228371   2.029   4.776   6.248
 9158SOL     OW28372   6.401   3.725   4.336
 9158SOL    HW128373   6.415   3.823   4.321
 9158SOL    HW228374   6.363   3.710   4.427
 9159SOL     OW28375   3.154   1.667   4.015
 9159SOL    HW128376   3.079   1.731   4.028
 9159SOL    HW228377   3.131   1.603   3.942
 9160SOL     OW28378   0.168   4.464   1.183
 9160SOL    HW128379   0.125   4.453   1.272
 9160SOL    HW228380   0.152   4.382   1.128
 9161SOL     OW28381   6.779   4.586   1.939
 9161SOL    HW128382   6.683   4.573   1.914
 9161SOL    HW228383   6.794   4.681   1.967
 9162SOL     OW28384   4.056   2.010   1.694
 9162SOL    HW128385   4.003   2.094   1.701
 9162SOL    HW228386   4.004   1.943   1.641
 9163SOL     OW28387   1.455   2.377   3.748
 9163SOL    HW128388   1.436   2.401   3.652
 9163SOL    HW228389   1.370   2.346   3.791
 9164SOL     OW28390   3.010   6.994   0.316
 9164SOL    HW128391   3.106   6.987   0.288
 9164SOL    HW228392   2.953   6.942   0.253
 9165SOL     OW28393   5.424   1.785   6.152
 9165SOL    HW128394   5.331   1.790   6.187
 9165SOL    HW228395   5.484   1.745   6.221
 9166SOL     OW28396   5.363   5.564   1.505
 9166SOL    HW128397   5.347   5.469   1.480
 9166SOL    HW228398   5.461   5.581   1.511
 9167SOL     OW28399   1.722   1.237   4.627
 9167SOL    HW128400   1.784   1.302   4.583
 9167SOL    HW228401   1.683   1.279   4.709
 9168SOL     OW28402   6.679   5.988   4.498
 9168SOL    HW128403   6.653   5.893   4.512
 9168SOL    HW228404   6.709   6.028   4.584
 9169SOL     OW28405   6.802   5.768   0.895
 9169SOL    HW128406   6.901   5.769   0.879
 9169SOL    HW228407   6.783   5.722   0.981
 9170SOL     OW28408   1.217   1.303   6.106
 9170SOL    HW128409   1.156   1.271   6.033
 9170SOL    HW228410   1.190   1.395   6.135
 9171SOL     OW28411   3.149   4.639   7.006
 9171SOL    HW128412   3.192   4.711   0.037
 9171SOL    HW228413   3.067   4.675   6.961
 9172SOL     OW28414   4.503   1.220   3.811
 9172SOL    HW128415   4.576   1.274   3.854
 9172SOL    HW228416   4.435   1.195   3.881
 9173SOL     OW28417   5.760   3.203   4.697
 9173SOL    HW128418   5.831   3.217   4.766
 9173SOL    HW228419   5.717   3.113   4.710
 9174SOL     OW28420   0.341   4.337   0.634
 9174SOL    HW128421   0.357   4.430   0.665
 9174SOL    HW228422   0.273   4.337   0.561
 9175SOL     OW28423   1.990   0.371   6.927
 9175SOL    HW128424   2.036   0.378   6.839
 9175SOL    HW228425   1.904   0.423   6.924
 9176SOL     OW28426   1.453   1.731   2.247
 9176SOL    HW128427   1.499   1.645   2.222
 9176SOL    HW228428   1.478   1.756   2.341
 9177SOL     OW28429   0.405   4.361   3.675
 9177SOL    HW128430   0.405   4.297   3.598
 9177SOL    HW228431   0.374   4.451   3.644
 9178SOL     OW28432   1.846   5.981   0.311
 9178SOL    HW128433   1.803   5.957   0.398
 9178SOL    HW228434   1.921   6.044   0.327
 9179SOL     OW28435   3.333   5.194   4.190
 9179SOL    HW128436   3.397   5.242   4.250
 9179SOL    HW228437   3.240   5.225   4.209
 9180SOL     OW28438   6.626   1.082   5.081
 9180SOL    HW128439   6.714   1.071   5.034
 9180SOL    HW228440   6.616   1.178   5.108
 9181SOL     OW28441   2.574   1.667   3.515
 9181SOL    HW128442   2.529   1.678   3.426
 9181SOL    HW228443   2.634   1.587   3.512
 9182SOL     OW28444   1.036   1.552   2.944
 9182SOL    HW128445   0.996   1.602   2.867
 9182SOL    HW228446   1.057   1.615   3.018
 9183SOL     OW28447   1.161   2.020   6.300
 9183SOL    HW128448   1.257   1.999   6.320
 9183SOL    HW228449   1.102   1.955   6.348
 9184SOL     OW28450   3.807   3.270   0.740
 9184SOL    HW128451   3.895   3.292   0.783
 9184SOL    HW228452   3.821   3.198   0.671
 9185SOL     OW28453   1.000   1.032   7.004
 9185SOL    HW128454   1.012   1.124   0.018
 9185SOL    HW228455   0.908   0.999   0.002
 9186SOL     OW28456   5.343   1.138   6.199
 9186SOL    HW128457   5.314   1.185   6.115
 9186SOL    HW228458   5.320   1.194   6.278
 9187SOL     OW28459   5.715   2.291   0.678
 9187SOL    HW128460   5.686   2.326   0.589
 9187SOL    HW228461   5.764   2.363   0.728
 9188SOL     OW28462   1.570   0.708   1.941
 9188SOL    HW128463   1.625   0.628   1.965
 9188SOL    HW228464   1.514   0.687   1.860
 9189SOL     OW28465   3.972   1.472   4.943
 9189SOL    HW128466   3.972   1.466   5.043
 9189SOL    HW228467   3.894   1.422   4.906
 9190SOL     OW28468   6.648   2.043   5.098
 9190SOL    HW128469   6.581   2.037   5.025
 9190SOL    HW228470   6.740   2.029   5.060
 9191SOL     OW28471   5.779   6.586   0.531
 9191SOL    HW128472   5.735   6.552   0.448
 9191SOL    HW228473   5.709   6.612   0.598
 9192SOL     OW28474   5.256   4.561   4.263
 9192SOL    HW128475   5.311   4.612   4.197
 9192SOL    HW228476   5.304   4.557   4.350
 9193SOL     OW28477   3.424   2.877   3.443
 9193SOL    HW128478   3.502   2.853   3.385
 9193SOL    HW228479   3.457   2.917   3.528
 9194SOL     OW28480   3.556   5.876   2.792
 9194SOL    HW128481   3.472   5.909   2.750
 9194SOL    HW228482   3.603   5.951   2.838
 9195SOL     OW28483   0.325   2.936   2.258
 9195SOL    HW128484   0.266   2.992   2.317
 9195SOL    HW228485   0.396   2.893   2.314
 9196SOL     OW28486   4.515   0.315   3.484
 9196SOL    HW128487   4.566   0.300   3.399
 9196SOL    HW228488   4.486   0.410   3.490
 9197SOL     OW28489   3.409   2.768   5.210
 9197SOL    HW128490   3.338   2.697   5.213
 9197SOL    HW228491   3.474   2.753   5.284
 9198SOL     OW28492   5.215   2.609   5.333
 9198SOL    HW128493   5.286   2.647   5.272
 9198SOL    HW228494   5.156   2.548   5.281
 9199SOL     OW28495   1.501   3.913   6.623
 9199SOL    HW128496   1.542   3.829   6.589
 9199SOL    HW228497   1.570   3.968   6.670
 9200SOL     OW28498   6.305   6.049   0.842
 9200SOL    HW128499   6.401   6.058   0.867
 9200SOL    HW228500   6.272   6.134   0.801
 9201SOL     OW28501   1.938   4.251   3.259
 9201SOL    HW128502   1.946   4.271   3.162
 9201SOL    HW228503   1.894   4.162   3.271
 9202SOL     OW28504   3.332   5.488   3.829
 9202SOL    HW128505   3.356   5.399   3.869
 9202SOL    HW228506   3.372   5.495   3.737
 9203SOL     OW28507   5.319   0.863   6.131
 9203SOL    HW128508   5.235   0.860   6.076
 9203SOL    HW228509   5.324   0.951   6.179
 9204SOL     OW28510   4.618   4.268   1.678
 9204SOL    HW128511   4.618   4.366   1.657
 9204SOL    HW228512   4.540   4.247   1.738
 9205SOL     OW28513   4.878   3.025   2.287
 9205SOL    HW128514   4.868   2.928   2.266
 9205SOL    HW228515   4.852   3.079   2.206
 9206SOL     OW28516   0.531   6.900   2.929
 9206SOL    HW128517   0.433   6.921   2.935
 9206SOL    HW228518   0.546   6.806   2.960
 9207SOL     OW28519   3.876   6.467   6.937
 9207SOL    HW128520   3.809   6.447   6.866
 9207SOL    HW228521   3.871   6.563   6.963
 9208SOL     OW28522   4.704   4.683   2.298
 9208SOL    HW128523   4.660   4.751   2.355
 9208SOL    HW228524   4.780   4.725   2.248
 9209SOL     OW28525   3.943   0.791   2.920
 9209SOL    HW128526   3.872   0.728   2.951
 9209SOL    HW228527   3.980   0.841   2.998
 9210SOL     OW28528   1.454   6.816   0.566
 9210SOL    HW128529   1.438   6.727   0.608
 9210SOL    HW228530   1.540   6.813   0.515
 9211SOL     OW28531   4.939   1.700   6.374
 9211SOL    HW128532   4.865   1.748   6.421
 9211SOL    HW228533   4.973   1.626   6.432
 9212SOL     OW28534   5.994   3.488   4.714
 9212SOL    HW128535   5.992   3.389   4.720
 9212SOL    HW228536   6.073   3.517   4.661
 9213SOL     OW28537   6.709   0.144   2.500
 9213SOL    HW128538   6.729   0.222   2.559
 9213SOL    HW228539   6.777   0.072   2.516
 9214SOL     OW28540   1.925   2.505   5.191
 9214SOL    HW128541   1.990   2.560   5.139
 9214SOL    HW228542   1.946   2.408   5.179
 9215SOL     OW28543   0.582   3.339   2.648
 9215SOL    HW128544   0.529   3.255   2.636
 9215SOL    HW228545   0.651   3.346   2.576
 9216SOL     OW28546   2.758   5.565   4.002
 9216SOL    HW128547   2.759   5.481   4.056
 9216SOL    HW228548   2.847   5.611   4.010
 9217SOL     OW28549   4.727   1.013   6.256
 9217SOL    HW128550   4.754   0.919   6.237
 9217SOL    HW228551   4.662   1.044   6.187
 9218SOL     OW28552   6.072   5.510   6.743
 9218SOL    HW128553   5.994   5.449   6.730
 9218SOL    HW228554   6.157   5.457   6.740
 9219SOL     OW28555   3.577   2.679   5.509
 9219SOL    HW128556   3.582   2.590   5.463
 9219SOL    HW228557   3.669   2.706   5.538
 9220SOL     OW28558   0.984   6.429   3.775
 9220SOL    HW128559   1.011   6.362   3.845
 9220SOL    HW228560   0.958   6.515   3.820
 9221SOL     OW28561   2.270   1.599   0.398
 9221SOL    HW128562   2.239   1.527   0.461
 9221SOL    HW228563   2.339   1.561   0.336
 9222SOL     OW28564   1.758   3.042   4.253
 9222SOL    HW128565   1.828   2.974   4.229
 9222SOL    HW228566   1.801   3.120   4.297
 9223SOL     OW28567   0.573   3.122   4.907
 9223SOL    HW128568   0.583   3.209   4.858
 9223SOL    HW228569   0.538   3.053   4.844
 9224SOL     OW28570   2.238   4.186   3.464
 9224SOL    HW128571   2.146   4.209   3.497
 9224SOL    HW228572   2.302   4.258   3.490
 9225SOL     OW28573   5.205   5.645   6.661
 9225SOL    HW128574   5.106   5.630   6.667
 9225SOL    HW228575   5.223   5.721   6.599
 9226SOL     OW28576   0.823   0.915   1.165
 9226SOL    HW128577   0.911   0.880   1.132
 9226SOL    HW228578   0.805   0.881   1.257
 9227SOL     OW28579   2.100   4.434   0.735
 9227SOL    HW128580   2.124   4.366   0.666
 9227SOL    HW228581   2.036   4.500   0.696
 9228SOL     OW28582   3.335   3.327   5.346
 9228SOL    HW128583   3.380   3.415   5.330
 9228SOL    HW228584   3.289   3.329   5.435
 9229SOL     OW28585   0.136   4.847   0.385
 9229SOL    HW128586   0.191   4.777   0.340
 9229SOL    HW228587   0.197   4.910   0.434
 9230SOL     OW28588   4.531   1.483   5.044
 9230SOL    HW128589   4.557   1.389   5.022
 9230SOL    HW228590   4.521   1.492   5.143
 9231SOL     OW28591   6.664   5.578   3.371
 9231SOL    HW128592   6.697   5.487   3.394
 9231SOL    HW228593   6.720   5.647   3.417
 9232SOL     OW28594   1.419   5.136   2.621
 9232SOL    HW128595   1.333   5.127   2.671
 9232SOL    HW228596   1.495   5.107   2.679
 9233SOL     OW28597   0.717   6.659   6.652
 9233SOL    HW128598   0.630   6.684   6.692
 9233SOL    HW228599   0.705   6.636   6.555
 9234SOL     OW28600   2.052   4.159   0.438
 9234SOL    HW128601   2.147   4.151   0.469
 9234SOL    HW228602   2.026   4.255   0.437
 9235SOL     OW28603   2.084   2.082   3.234
 9235SOL    HW128604   2.103   1.996   3.281
 9235SOL    HW228605   1.986   2.097   3.230
 9236SOL     OW28606   2.502   3.408   6.667
 9236SOL    HW128607   2.591   3.451   6.652
 9236SOL    HW228608   2.490   3.334   6.601
 9237SOL     OW28609   5.230   5.155   3.590
 9237SOL    HW128610   5.322   5.194   3.587
 9237SOL    HW228611   5.212   5.107   3.504
 9238SOL     OW28612   1.260   2.885   4.636
 9238SOL    HW128613   1.181   2.915   4.689
 9238SOL    HW228614   1.243   2.901   4.539
 9239SOL     OW28615   1.334   4.993   6.933
 9239SOL    HW128616   1.308   5.012   0.005
 9239SOL    HW228617   1.349   4.895   6.921
 9240SOL     OW28618   4.340   2.078   2.925
 9240SOL    HW128619   4.381   2.147   2.985
 9240SOL    HW228620   4.242   2.098   2.915
 9241SOL     OW28621   5.811   6.490   1.286
 9241SOL    HW128622   5.856   6.401   1.287
 9241SOL    HW228623   5.870   6.557   1.241
 9242SOL     OW28624   1.496   2.549   0.569
 9242SOL    HW128625   1.502   2.611   0.648
 9242SOL    HW228626   1.429   2.585   0.504
 9243SOL     OW28627   1.197   0.892   0.191
 9243SOL    HW128628   1.116   0.935   0.151
 9243SOL    HW228629   1.208   0.800   0.154
 9244SOL     OW28630   3.565   6.675   5.641
 9244SOL    HW128631   3.494   6.608   5.658
 9244SOL    HW228632   3.575   6.689   5.542
 9245SOL     OW28633   1.146   4.880   3.834
 9245SOL    HW128634   1.053   4.907   3.859
 9245SOL    HW228635   1.147   4.846   3.740
 9246SOL     OW28636   5.907   0.352   6.564
 9246SOL    HW128637   5.888   0.435   6.511
 9246SOL    HW228638   5.854   0.276   6.526
 9247SOL     OW28639   3.927   6.392   3.188
 9247SOL    HW128640   3.897   6.307   3.231
 9247SOL    HW228641   3.978   6.371   3.105
 9248SOL     OW28642   2.554   0.603   0.021
 9248SOL    HW128643   2.611   0.550   6.982
 9248SOL    HW228644   2.466   0.623   7.000
 9249SOL     OW28645   3.541   6.054   0.738
 9249SOL    HW128646   3.498   6.144   0.741
 9249SOL    HW228647   3.537   6.018   0.644
 9250SOL     OW28648   0.381   3.085   3.589
 9250SOL    HW128649   0.426   3.012   3.639
 9250SOL    HW228650   0.323   3.138   3.651
 9251SOL     OW28651   2.945   3.097   1.063
 9251SOL    HW128652   2.958   3.000   1.045
 9251SOL    HW228653   3.019   3.149   1.019
 9252SOL     OW28654   5.337   2.017   5.169
 9252SOL    HW128655   5.379   1.972   5.090
 9252SOL    HW228656   5.377   2.108   5.180
 9253SOL     OW28657   0.966   5.490   5.374
 9253SOL    HW128658   1.014   5.557   5.316
 9253SOL    HW228659   0.874   5.475   5.338
 9254SOL     OW28660   0.128   4.502   2.743
 9254SOL    HW128661   0.091   4.564   2.674
 9254SOL    HW228662   0.054   4.443   2.777
 9255SOL     OW28663   6.869   4.122   0.307
 9255SOL    HW128664   6.827   4.209   0.281
 9255SOL    HW228665   6.930   4.136   0.385
 9256SOL     OW28666   2.860   6.180   1.395
 9256SOL    HW128667   2.884   6.178   1.298
 9256SOL    HW228668   2.858   6.274   1.427
 9257SOL     OW28669   6.699   5.716   4.034
 9257SOL    HW128670   6.753   5.640   4.071
 9257SOL    HW228671   6.603   5.703   4.058
 9258SOL     OW28672   3.216   5.131   1.386
 9258SOL    HW128673   3.232   5.056   1.449
 9258SOL    HW228674   3.120   5.158   1.390
 9259SOL     OW28675   2.037   2.048   0.112
 9259SOL    HW128676   2.073   2.046   0.019
 9259SOL    HW228677   2.090   1.985   0.169
 9260SOL     OW28678   5.767   4.143   4.961
 9260SOL    HW128679   5.670   4.129   4.945
 9260SOL    HW228680   5.819   4.069   4.918
 9261SOL     OW28681   3.638   2.563   1.698
 9261SOL    HW128682   3.710   2.619   1.657
 9261SOL    HW228683   3.679   2.493   1.756
 9262SOL     OW28684   6.374   5.960   5.020
 9262SOL    HW128685   6.370   6.024   5.097
 9262SOL    HW228686   6.289   5.966   4.968
 9263SOL     OW28687   1.980   4.158   3.621
 9263SOL    HW128688   2.045   4.084   3.603
 9263SOL    HW228689   1.887   4.122   3.621
 9264SOL     OW28690   4.600   4.391   0.046
 9264SOL    HW128691   4.614   4.470   0.107
 9264SOL    HW228692   4.684   4.336   0.043
 9265SOL     OW28693   6.081   2.092   0.777
 9265SOL    HW128694   6.140   2.147   0.836
 9265SOL    HW228695   6.095   2.119   0.682
 9266SOL     OW28696   1.258   4.791   1.305
 9266SOL    HW128697   1.296   4.714   1.253
 9266SOL    HW228698   1.162   4.803   1.281
 9267SOL     OW28699   6.627   1.196   4.268
 9267SOL    HW128700   6.692   1.202   4.193
 9267SOL    HW228701   6.556   1.266   4.258
 9268SOL     OW28702   0.646   7.014   1.529
 9268SOL    HW128703   0.556   6.970   1.535
 9268SOL    HW228704   0.641   0.082   1.571
 9269SOL     OW28705   3.590   1.311   0.377
 9269SOL    HW128706   3.584   1.401   0.333
 9269SOL    HW228707   3.509   1.257   0.351
 9270SOL     OW28708   1.990   0.350   6.446
 9270SOL    HW128709   1.935   0.314   6.522
 9270SOL    HW228710   1.970   0.299   6.363
 9271SOL     OW28711   1.211   6.062   4.961
 9271SOL    HW128712   1.141   6.015   4.908
 9271SOL    HW228713   1.176   6.150   4.993
 9272SOL     OW28714   6.637   5.978   6.179
 9272SOL    HW128715   6.688   6.059   6.207
 9272SOL    HW228716   6.680   5.896   6.219
 9273SOL     OW28717   4.851   4.726   3.816
 9273SOL    HW128718   4.864   4.825   3.825
 9273SOL    HW228719   4.830   4.704   3.721
 9274SOL     OW28720   0.235   3.064   0.777
 9274SOL    HW128721   0.276   3.126   0.710
 9274SOL    HW228722   0.299   2.990   0.797
 9275SOL     OW28723   6.916   0.801   0.093
 9275SOL    HW128724   6.817   0.815   0.083
 9275SOL    HW228725   6.961   0.819   0.006
 9276SOL     OW28726   2.861   5.720   0.244
 9276SOL    HW128727   2.907   5.637   0.277
 9276SOL    HW228728   2.907   5.800   0.281
 9277SOL     OW28729   5.102   5.707   1.486
 9277SOL    HW128730   5.181   5.650   1.462
 9277SOL    HW228731   5.020   5.669   1.442
 9278SOL     OW28732   1.098   0.435   5.712
 9278SOL    HW128733   1.025   0.459   5.648
 9278SOL    HW228734   1.147   0.517   5.740
 9279SOL     OW28735   4.263   5.645   1.585
 9279SOL    HW128736   4.342   5.616   1.531
 9279SOL    HW228737   4.198   5.691   1.525
 9280SOL     OW28738   1.381   6.755   2.506
 9280SOL    HW128739   1.461   6.801   2.544
 9280SOL    HW228740   1.376   6.773   2.407
 9281SOL     OW28741   2.350   5.393   6.951
 9281SOL    HW128742   2.314   5.484   6.969
 9281SOL    HW228743   2.442   5.401   6.913
 9282SOL     OW28744   3.122   0.112   5.041
 9282SOL    HW128745   3.135   0.038   4.976
 9282SOL    HW228746   3.163   0.196   5.004
 9283SOL     OW28747   4.538   6.390   1.087
 9283SOL    HW128748   4.494   6.415   1.174
 9283SOL    HW228749   4.515   6.458   1.018
 9284SOL     OW28750   3.659   3.930   5.144
 9284SOL    HW128751   3.621   3.868   5.076
 9284SOL    HW228752   3.692   4.013   5.099
 9285SOL     OW28753   0.751   5.405   2.599
 9285SOL    HW128754   0.814   5.418   2.522
 9285SOL    HW228755   0.686   5.332   2.577
 9286SOL     OW28756   4.634   6.508   1.595
 9286SOL    HW128757   4.711   6.570   1.586
 9286SOL    HW228758   4.608   6.473   1.505
 9287SOL     OW28759   3.694   4.094   5.896
 9287SOL    HW128760   3.644   4.150   5.829
 9287SOL    HW228761   3.681   3.997   5.876
 9288SOL     OW28762   3.430   2.085   2.628
 9288SOL    HW128763   3.479   2.021   2.569
 9288SOL    HW228764   3.360   2.132   2.575
 9289SOL     OW28765   5.136   6.373   0.711
 9289SOL    HW128766   5.231   6.378   0.680
 9289SOL    HW228767   5.106   6.278   0.712
 9290SOL     OW28768   4.797   0.836   3.739
 9290SOL    HW128769   4.728   0.847   3.811
 9290SOL    HW228770   4.759   0.863   3.651
 9291SOL     OW28771   0.943   4.546   5.938
 9291SOL    HW128772   0.913   4.479   5.870
 9291SOL    HW228773   0.871   4.613   5.954
 9292SOL     OW28774   0.942   1.304   6.638
 9292SOL    HW128775   0.940   1.365   6.717
 9292SOL    HW228776   0.998   1.224   6.660
 9293SOL     OW28777   4.743   2.584   4.578
 9293SOL    HW128778   4.658   2.587   4.526
 9293SOL    HW228779   4.732   2.637   4.662
 9294SOL     OW28780   4.811   0.811   6.658
 9294SOL    HW128781   4.741   0.800   6.728
 9294SOL    HW228782   4.832   0.908   6.647
 9295SOL     OW28783   0.580   0.978   5.445
 9295SOL    HW128784   0.572   0.991   5.347
 9295SOL    HW228785   0.629   0.893   5.464
 9296SOL     OW28786   1.870   4.664   6.662
 9296SOL    HW128787   1.774   4.638   6.646
 9296SOL    HW228788   1.929   4.616   6.597
 9297SOL     OW28789   6.307   5.862   2.513
 9297SOL    HW128790   6.384   5.827   2.459
 9297SOL    HW228791   6.236   5.793   2.518
 9298SOL     OW28792   1.559   5.136   6.841
 9298SOL    HW128793   1.477   5.078   6.835
 9298SOL    HW228794   1.620   5.116   6.765
 9299SOL     OW28795   2.318   2.810   4.607
 9299SOL    HW128796   2.361   2.827   4.519
 9299SOL    HW228797   2.298   2.897   4.652
 9300SOL     OW28798   1.649   5.391   4.978
 9300SOL    HW128799   1.646   5.376   4.879
 9300SOL    HW228800   1.702   5.474   4.997
 9301SOL     OW28801   0.173   4.674   4.865
 9301SOL    HW128802   0.100   4.635   4.809
 9301SOL    HW228803   0.203   4.761   4.825
 9302SOL     OW28804   2.075   3.268   5.540
 9302SOL    HW128805   2.119   3.271   5.630
 9302SOL    HW228806   2.072   3.361   5.502
 9303SOL     OW28807   2.569   4.423   0.618
 9303SOL    HW128808   2.601   4.452   0.708
 9303SOL    HW228809   2.505   4.347   0.628
 9304SOL     OW28810   4.363   5.055   0.155
 9304SOL    HW128811   4.457   5.054   0.124
 9304SOL    HW228812   4.324   4.963   0.147
 9305SOL     OW28813   2.176   2.086   1.628
 9305SOL    HW128814   2.099   2.097   1.565
 9305SOL    HW228815   2.149   2.026   1.703
 9306SOL     OW28816   6.559   5.693   4.925
 9306SOL    HW128817   6.502   5.765   4.962
 9306SOL    HW228818   6.562   5.616   4.989
 9307SOL     OW28819   2.260   3.558   1.452
 9307SOL    HW128820   2.251   3.610   1.366
 9307SOL    HW228821   2.289   3.620   1.525
 9308SOL     OW28822   2.098   3.701   2.201
 9308SOL    HW128823   2.045   3.760   2.141
 9308SOL    HW228824   2.105   3.610   2.160
 9309SOL     OW28825   4.933   5.472   6.421
 9309SOL    HW128826   4.862   5.479   6.351
 9309SOL    HW228827   4.971   5.563   6.438
 9310SOL     OW28828   5.957   6.522   6.876
 9310SOL    HW128829   6.057   6.518   6.887
 9310SOL    HW228830   5.913   6.481   6.956
 9311SOL     OW28831   4.840   3.666   1.219
 9311SOL    HW128832   4.778   3.744   1.230
 9311SOL    HW228833   4.813   3.613   1.139
 9312SOL     OW28834   0.725   3.060   3.318
 9312SOL    HW128835   0.748   2.976   3.367
 9312SOL    HW228836   0.809   3.106   3.289
 9313SOL     OW28837   0.824   0.778   2.156
 9313SOL    HW128838   0.778   0.851   2.205
 9313SOL    HW228839   0.835   0.699   2.217
 9314SOL     OW28840   5.267   3.826   0.394
 9314SOL    HW128841   5.245   3.732   0.418
 9314SOL    HW228842   5.327   3.866   0.464
 9315SOL     OW28843   5.154   0.039   6.329
 9315SOL    HW128844   5.191   0.101   6.398
 9315SOL    HW228845   5.066   0.075   6.296
 9316SOL     OW28846   4.701   0.619   5.699
 9316SOL    HW128847   4.676   0.715   5.684
 9316SOL    HW228848   4.669   0.590   5.789
 9317SOL     OW28849   3.890   6.133   3.304
 9317SOL    HW128850   3.918   6.120   3.399
 9317SOL    HW228851   3.793   6.156   3.300
 9318SOL     OW28852   4.261   6.379   1.718
 9318SOL    HW128853   4.201   6.454   1.746
 9318SOL    HW228854   4.357   6.408   1.726
 9319SOL     OW28855   2.869   2.986   7.001
 9319SOL    HW128856   2.935   2.998   0.053
 9319SOL    HW228857   2.878   2.895   6.962
 9320SOL     OW28858   6.428   6.435   6.775
 9320SOL    HW128859   6.499   6.504   6.763
 9320SOL    HW228860   6.461   6.347   6.742
 9321SOL     OW28861   0.386   3.607   4.852
 9321SOL    HW128862   0.292   3.579   4.870
 9321SOL    HW228863   0.449   3.557   4.912
 9322SOL     OW28864   6.069   3.138   6.795
 9322SOL    HW128865   6.092   3.235   6.800
 9322SOL    HW228866   6.149   3.085   6.767
 9323SOL     OW28867   0.586   2.139   5.853
 9323SOL    HW128868   0.560   2.110   5.945
 9323SOL    HW228869   0.675   2.184   5.856
 9324SOL     OW28870   1.143   4.693   1.935
 9324SOL    HW128871   1.084   4.768   1.964
 9324SOL    HW228872   1.125   4.612   1.992
 9325SOL     OW28873   1.001   4.530   3.601
 9325SOL    HW128874   1.089   4.525   3.554
 9325SOL    HW228875   0.941   4.457   3.569
 9326SOL     OW28876   4.730   4.443   1.954
 9326SOL    HW128877   4.748   4.540   1.972
 9326SOL    HW228878   4.638   4.420   1.986
 9327SOL     OW28879   3.870   0.822   3.637
 9327SOL    HW128880   3.874   0.794   3.541
 9327SOL    HW228881   3.952   0.789   3.684
 9328SOL     OW28882   2.278   0.095   4.268
 9328SOL    HW128883   2.236   0.005   4.257
 9328SOL    HW228884   2.359   0.088   4.325
 9329SOL     OW28885   0.233   5.262   6.861
 9329SOL    HW128886   0.267   5.181   6.909
 9329SOL    HW228887   0.295   5.285   6.786
 9330SOL     OW28888   6.516   6.053   6.502
 9330SOL    HW128889   6.554   6.137   6.462
 9330SOL    HW228890   6.450   6.013   6.438
 9331SOL     OW28891   1.636   3.620   4.105
 9331SOL    HW128892   1.602   3.652   4.194
 9331SOL    HW228893   1.562   3.622   4.038
 9332SOL     OW28894   4.665   5.687   1.072
 9332SOL    HW128895   4.646   5.639   0.986
 9332SOL    HW228896   4.669   5.621   1.146
 9333SOL     OW28897   4.367   4.095   0.655
 9333SOL    HW128898   4.418   4.173   0.619
 9333SOL    HW228899   4.430   4.033   0.701
 9334SOL     OW28900   5.922   6.081   5.824
 9334SOL    HW128901   5.902   6.164   5.772
 9334SOL    HW228902   5.854   6.011   5.801
 9335SOL     OW28903   0.768   3.738   1.681
 9335SOL    HW128904   0.680   3.751   1.728
 9335SOL    HW228905   0.768   3.788   1.595
 9336SOL     OW28906   5.910   6.820   5.795
 9336SOL    HW128907   5.968   6.749   5.834
 9336SOL    HW228908   5.890   6.799   5.700
 9337SOL     OW28909   2.257   0.222   6.163
 9337SOL    HW128910   2.256   0.282   6.243
 9337SOL    HW228911   2.272   0.127   6.193
 9338SOL     OW28912   5.692   6.745   0.257
 9338SOL    HW128913   5.686   6.647   0.278
 9338SOL    HW228914   5.639   6.765   0.174
 9339SOL     OW28915   6.037   3.569   5.660
 9339SOL    HW128916   6.004   3.580   5.566
 9339SOL    HW228917   6.061   3.659   5.697
 9340SOL     OW28918   3.832   5.409   1.378
 9340SOL    HW128919   3.794   5.374   1.292
 9340SOL    HW228920   3.763   5.401   1.450
 9341SOL     OW28921   5.144   4.169   6.855
 9341SOL    HW128922   5.145   4.227   6.936
 9341SOL    HW228923   5.169   4.076   6.881
 9342SOL     OW28924   3.484   0.424   4.072
 9342SOL    HW128925   3.566   0.463   4.114
 9342SOL    HW228926   3.451   0.486   4.001
 9343SOL     OW28927   4.703   3.920   1.288
 9343SOL    HW128928   4.634   3.969   1.234
 9343SOL    HW228929   4.684   3.933   1.385
 9344SOL     OW28930   5.951   6.500   5.140
 9344SOL    HW128931   5.858   6.465   5.128
 9344SOL    HW228932   5.949   6.599   5.154
 9345SOL     OW28933   1.081   5.846   0.751
 9345SOL    HW128934   1.117   5.761   0.712
 9345SOL    HW228935   1.061   5.910   0.677
 9346SOL     OW28936   5.597   5.898   0.666
 9346SOL    HW128937   5.578   5.981   0.718
 9346SOL    HW228938   5.511   5.851   0.646
 9347SOL     OW28939   3.187   5.353   0.972
 9347SOL    HW128940   3.116   5.374   0.905
 9347SOL    HW228941   3.170   5.264   1.014
 9348SOL     OW28942   2.742   5.818   2.029
 9348SOL    HW128943   2.798   5.901   2.032
 9348SOL    HW228944   2.793   5.744   1.987
 9349SOL     OW28945   6.853   5.650   1.963
 9349SOL    HW128946   6.842   5.593   2.044
 9349SOL    HW228947   6.783   5.721   1.962
 9350SOL     OW28948   6.679   0.629   5.879
 9350SOL    HW128949   6.715   0.537   5.891
 9350SOL    HW228950   6.676   0.676   5.967
 9351SOL     OW28951   3.370   2.278   6.037
 9351SOL    HW128952   3.325   2.318   6.117
 9351SOL    HW228953   3.384   2.349   5.968
 9352SOL     OW28954   3.519   2.396   5.804
 9352SOL    HW128955   3.505   2.493   5.827
 9352SOL    HW228956   3.446   2.365   5.744
 9353SOL     OW28957   0.826   3.249   1.268
 9353SOL    HW128958   0.779   3.172   1.310
 9353SOL    HW228959   0.761   3.324   1.253
 9354SOL     OW28960   4.854   2.155   1.756
 9354SOL    HW128961   4.776   2.109   1.713
 9354SOL    HW228962   4.906   2.204   1.686
 9355SOL     OW28963   6.741   0.188   3.372
 9355SOL    HW128964   6.653   0.177   3.326
 9355SOL    HW228965   6.806   0.232   3.310
 9356SOL     OW28966   4.447   4.492   2.602
 9356SOL    HW128967   4.356   4.474   2.639
 9356SOL    HW228968   4.457   4.445   2.514
 9357SOL     OW28969   3.759   2.985   0.611
 9357SOL    HW128970   3.748   2.975   0.709
 9357SOL    HW228971   3.847   2.946   0.583
 9358SOL     OW28972   5.698   4.719   2.052
 9358SOL    HW128973   5.630   4.720   1.979
 9358SOL    HW228974   5.731   4.626   2.065
 9359SOL     OW28975   6.591   3.868   5.668
 9359SOL    HW128976   6.683   3.903   5.688
 9359SOL    HW228977   6.539   3.937   5.619
 9360SOL     OW28978   1.935   0.900   6.931
 9360SOL    HW128979   1.967   0.822   6.985
 9360SOL    HW228980   1.898   0.970   6.991
 9361SOL     OW28981   3.015   6.973   2.306
 9361SOL    HW128982   3.113   6.951   2.308
 9361SOL    HW228983   2.967   6.904   2.251
 9362SOL     OW28984   2.128   1.193   2.580
 9362SOL    HW128985   2.201   1.138   2.538
 9362SOL    HW228986   2.050   1.134   2.600
 9363SOL     OW28987   3.363   5.643   2.498
 9363SOL    HW128988   3.444   5.692   2.465
 9363SOL    HW228989   3.303   5.624   2.420
 9364SOL     OW28990   4.377   4.766   0.131
 9364SOL    HW128991   4.292   4.737   0.174
 9364SOL    HW228992   4.373   4.749   0.033
 9365SOL     OW28993   2.973   1.573   4.660
 9365SOL    HW128994   2.914   1.630   4.718
 9365SOL    HW228995   3.067   1.605   4.667
 9366SOL     OW28996   2.859   1.772   0.663
 9366SOL    HW128997   2.945   1.823   0.662
 9366SOL    HW228998   2.879   1.674   0.653
 9367SOL     OW28999   6.864   5.616   3.116
 9367SOL    HW129000   6.811   5.699   3.099
 9367SOL    HW229001   6.809   5.536   3.091
 9368SOL     OW29002   3.079   2.090   1.498
 9368SOL    HW129003   3.103   2.128   1.587
 9368SOL    HW229004   3.143   2.122   1.429
 9369SOL     OW29005   0.258   2.141   4.519
 9369SOL    HW129006   0.295   2.185   4.437
 9369SOL    HW229007   0.201   2.063   4.491
 9370SOL     OW29008   5.929   1.287   2.959
 9370SOL    HW129009   5.854   1.236   2.918
 9370SOL    HW229010   5.919   1.286   3.059
 9371SOL     OW29011   0.706   6.169   0.559
 9371SOL    HW129012   0.745   6.205   0.643
 9371SOL    HW229013   0.606   6.166   0.567
 9372SOL     OW29014   5.820   6.586   4.761
 9372SOL    HW129015   5.916   6.581   4.791
 9372SOL    HW229016   5.781   6.674   4.789
 9373SOL     OW29017   3.719   1.788   3.521
 9373SOL    HW129018   3.756   1.853   3.588
 9373SOL    HW229019   3.681   1.709   3.569
 9374SOL     OW29020   5.475   3.566   0.309
 9374SOL    HW129021   5.490   3.496   0.239
 9374SOL    HW229022   5.443   3.523   0.393
 9375SOL     OW29023   0.526   1.209   3.623
 9375SOL    HW129024   0.537   1.120   3.580
 9375SOL    HW229025   0.539   1.281   3.553
 9376SOL     OW29026   2.177   3.990   1.499
 9376SOL    HW129027   2.182   3.991   1.599
 9376SOL    HW229028   2.261   3.951   1.462
 9377SOL     OW29029   5.959   5.055   4.235
 9377SOL    HW129030   5.942   5.006   4.150
 9377SOL    HW229031   5.912   5.143   4.233
 9378SOL     OW29032   2.608   0.254   0.629
 9378SOL    HW129033   2.598   0.319   0.553
 9378SOL    HW229034   2.517   0.226   0.660
 9379SOL     OW29035   5.261   4.975   4.328
 9379SOL    HW129036   5.333   4.974   4.398
 9379SOL    HW229037   5.197   4.900   4.344
 9380SOL     OW29038   6.003   0.023   5.936
 9380SOL    HW129039   5.944   6.973   5.901
 9380SOL    HW229040   6.098   7.017   5.932
 9381SOL     OW29041   2.505   1.897   5.747
 9381SOL    HW129042   2.544   1.967   5.687
 9381SOL    HW229043   2.408   1.885   5.725
 9382SOL     OW29044   4.795   2.271   2.772
 9382SOL    HW129045   4.801   2.371   2.773
 9382SOL    HW229046   4.844   2.235   2.693
 9383SOL     OW29047   4.029   6.165   4.710
 9383SOL    HW129048   4.032   6.261   4.737
 9383SOL    HW229049   3.934   6.138   4.695
 9384SOL     OW29050   4.780   5.698   1.790
 9384SOL    HW129051   4.777   5.724   1.886
 9384SOL    HW229052   4.875   5.688   1.762
 9385SOL     OW29053   3.715   1.106   3.125
 9385SOL    HW129054   3.722   1.032   3.058
 9385SOL    HW229055   3.795   1.164   3.119
 9386SOL     OW29056   2.785   0.010   5.690
 9386SOL    HW129057   2.875   0.052   5.699
 9386SOL    HW229058   2.795   6.933   5.684
 9387SOL     OW29059   3.578   6.934   0.158
 9387SOL    HW129060   3.514   6.858   0.149
 9387SOL    HW229061   3.650   6.910   0.222
 9388SOL     OW29062   0.097   0.547   3.134
 9388SOL    HW129063   0.085   0.569   3.231
 9388SOL    HW229064   0.194   0.534   3.115
 9389SOL     OW29065   2.564   0.877   5.654
 9389SOL    HW129066   2.568   0.849   5.750
 9389SOL    HW229067   2.494   0.947   5.642
 9390SOL     OW29068   2.763   5.655   2.305
 9390SOL    HW129069   2.757   5.710   2.388
 9390SOL    HW229070   2.672   5.645   2.265
 9391SOL     OW29071   0.349   1.313   5.722
 9391SOL    HW129072   0.410   1.341   5.796
 9391SOL    HW229073   0.404   1.277   5.646
 9392SOL     OW29074   1.446   6.033   4.410
 9392SOL    HW129075   1.402   5.979   4.338
 9392SOL    HW229076   1.444   5.981   4.496
 9393SOL     OW29077   3.737   2.244   5.199
 9393SOL    HW129078   3.656   2.213   5.148
 9393SOL    HW229079   3.813   2.183   5.179
 9394SOL     OW29080   6.172   3.011   2.584
 9394SOL    HW129081   6.080   3.019   2.547
 9394SOL    HW229082   6.183   2.921   2.626
 9395SOL     OW29083   2.266   3.424   0.457
 9395SOL    HW129084   2.273   3.325   0.469
 9395SOL    HW229085   2.289   3.448   0.363
 9396SOL     OW29086   6.162   0.307   6.158
 9396SOL    HW129087   6.111   0.332   6.076
 9396SOL    HW229088   6.203   0.217   6.145
 9397SOL     OW29089   2.405   6.923   1.348
 9397SOL    HW129090   2.338   6.996   1.362
 9397SOL    HW229091   2.496   6.956   1.372
 9398SOL     OW29092   2.778   1.605   6.387
 9398SOL    HW129093   2.822   1.663   6.456
 9398SOL    HW229094   2.713   1.544   6.432
 9399SOL     OW29095   6.896   0.607   5.423
 9399SOL    HW129096   6.812   0.660   5.410
 9399SOL    HW229097   6.891   0.556   5.508
 9400SOL     OW29098   5.828   3.300   2.414
 9400SOL    HW129099   5.747   3.320   2.358
 9400SOL    HW229100   5.907   3.348   2.376
 9401SOL     OW29101   3.058   6.799   3.035
 9401SOL    HW129102   3.134   6.818   2.973
 9401SOL    HW229103   3.088   6.734   3.105
 9402SOL     OW29104   2.077   5.255   6.492
 9402SOL    HW129105   2.015   5.242   6.570
 9402SOL    HW229106   2.024   5.255   6.407
 9403SOL     OW29107   5.350   1.892   4.015
 9403SOL    HW129108   5.383   1.961   4.079
 9403SOL    HW229109   5.409   1.888   3.935
 9404SOL     OW29110   0.926   4.888   6.568
 9404SOL    HW129111   1.018   4.892   6.606
 9404SOL    HW229112   0.931   4.865   6.471
 9405SOL     OW29113   6.399   6.614   0.821
 9405SOL    HW129114   6.405   6.713   0.825
 9405SOL    HW229115   6.302   6.587   0.815
 9406SOL     OW29116   0.155   1.330   4.808
 9406SOL    HW129117   0.161   1.242   4.856
 9406SOL    HW229118   0.111   1.397   4.867
 9407SOL     OW29119   3.227   5.980   2.840
 9407SOL    HW129120   3.284   6.046   2.889
 9407SOL    HW229121   3.258   5.973   2.745
 9408SOL     OW29122   3.932   1.808   6.238
 9408SOL    HW129123   3.981   1.775   6.158
 9408SOL    HW229124   3.853   1.862   6.209
 9409SOL     OW29125   5.841   3.634   3.693
 9409SOL    HW129126   5.924   3.690   3.704
 9409SOL    HW229127   5.849   3.580   3.609
 9410SOL     OW29128   4.356   6.294   2.686
 9410SOL    HW129129   4.455   6.282   2.677
 9410SOL    HW229130   4.336   6.350   2.766
 9411SOL     OW29131   4.051   5.475   0.538
 9411SOL    HW129132   4.144   5.454   0.507
 9411SOL    HW229133   4.027   5.568   0.508
 9412SOL     OW29134   0.130   2.184   1.261
 9412SOL    HW129135   0.193   2.113   1.227
 9412SOL    HW229136   0.037   2.148   1.262
 9413SOL     OW29137   3.949   6.197   5.542
 9413SOL    HW129138   4.046   6.176   5.560
 9413SOL    HW229139   3.900   6.199   5.629
 9414SOL     OW29140   2.830   1.572   2.333
 9414SOL    HW129141   2.738   1.600   2.362
 9414SOL    HW229142   2.874   1.521   2.406
 9415SOL     OW29143   2.253   6.654   2.348
 9415SOL    HW129144   2.185   6.721   2.378
 9415SOL    HW229145   2.318   6.699   2.287
 9416SOL     OW29146   1.113   2.007   1.926
 9416SOL    HW129147   1.156   1.988   2.014
 9416SOL    HW229148   1.183   2.024   1.857
 9417SOL     OW29149   2.365   5.541   5.626
 9417SOL    HW129150   2.359   5.526   5.528
 9417SOL    HW229151   2.297   5.609   5.654
 9418SOL     OW29152   2.526   4.982   1.190
 9418SOL    HW129153   2.529   4.965   1.092
 9418SOL    HW229154   2.522   4.895   1.239
 9419SOL     OW29155   3.018   6.642   4.785
 9419SOL    HW129156   3.114   6.618   4.771
 9419SOL    HW229157   2.978   6.578   4.852
 9420SOL     OW29158   0.240   1.459   4.574
 9420SOL    HW129159   0.286   1.530   4.627
 9420SOL    HW229160   0.181   1.405   4.635
 9421SOL     OW29161   0.688   4.361   5.195
 9421SOL    HW129162   0.683   4.323   5.103
 9421SOL    HW229163   0.745   4.303   5.252
 9422SOL     OW29164   5.055   0.636   1.988
 9422SOL    HW129165   5.146   0.615   2.025
 9422SOL    HW229166   4.989   0.572   2.027
 9423SOL     OW29167   3.838   0.646   3.925
 9423SOL    HW129168   3.914   0.582   3.932
 9423SOL    HW229169   3.826   0.672   3.829
 9424SOL     OW29170   3.731   6.463   4.535
 9424SOL    HW129171   3.692   6.536   4.590
 9424SOL    HW229172   3.670   6.444   4.457
 9425SOL     OW29173   0.798   3.367   4.987
 9425SOL    HW129174   0.759   3.333   4.902
 9425SOL    HW229175   0.894   3.339   4.993
 9426SOL     OW29176   3.178   0.415   6.756
 9426SOL    HW129177   3.087   0.372   6.756
 9426SOL    HW229178   3.242   0.358   6.807
 9427SOL     OW29179   2.664   5.352   4.877
 9427SOL    HW129180   2.691   5.405   4.957
 9427SOL    HW229181   2.689   5.402   4.794
 9428SOL     OW29182   6.119   0.337   3.036
 9428SOL    HW129183   6.126   0.401   3.113
 9428SOL    HW229184   6.146   0.383   2.952
 9429SOL     OW29185   0.828   4.233   2.171
 9429SOL    HW129186   0.801   4.139   2.154
 9429SOL    HW229187   0.910   4.234   2.229
 9430SOL     OW29188   6.648   6.762   1.585
 9430SOL    HW129189   6.557   6.794   1.558
 9430SOL    HW229190   6.657   6.766   1.685
 9431SOL     OW29191   6.774   4.058   0.875
 9431SOL    HW129192   6.697   4.064   0.811
 9431SOL    HW229193   6.761   4.124   0.948
 9432SOL     OW29194   6.329   0.182   2.853
 9432SOL    HW129195   6.299   0.146   2.765
 9432SOL    HW229196   6.257   0.166   2.921
 9433SOL     OW29197   3.350   4.759   5.202
 9433SOL    HW129198   3.252   4.747   5.184
 9433SOL    HW229199   3.381   4.844   5.160
 9434SOL     OW29200   5.539   4.783   2.697
 9434SOL    HW129201   5.523   4.686   2.712
 9434SOL    HW229202   5.483   4.836   2.761
 9435SOL     OW29203   1.546   0.938   4.354
 9435SOL    HW129204   1.579   0.869   4.289
 9435SOL    HW229205   1.446   0.939   4.354
 9436SOL     OW29206   2.628   3.238   0.116
 9436SOL    HW129207   2.679   3.307   0.169
 9436SOL    HW229208   2.690   3.167   0.085
 9437SOL     OW29209   1.543   5.190   3.336
 9437SOL    HW129210   1.470   5.213   3.272
 9437SOL    HW229211   1.624   5.161   3.286
 9438SOL     OW29212   0.922   6.511   2.036
 9438SOL    HW129213   0.939   6.610   2.039
 9438SOL    HW229214   0.825   6.494   2.050
 9439SOL     OW29215   0.115   2.720   2.268
 9439SOL    HW129216   0.171   2.802   2.257
 9439SOL    HW229217   0.033   2.742   2.321
 9440SOL     OW29218   5.027   6.592   5.999
 9440SOL    HW129219   5.093   6.586   6.073
 9440SOL    HW229220   5.069   6.637   5.920
 9441SOL     OW29221   1.943   5.013   5.107
 9441SOL    HW129222   1.956   5.112   5.107
 9441SOL    HW229223   1.946   4.979   5.014
 9442SOL     OW29224   6.862   2.757   0.541
 9442SOL    HW129225   6.904   2.792   0.624
 9442SOL    HW229226   6.931   2.713   0.484
 9443SOL     OW29227   2.090   3.929   1.099
 9443SOL    HW129228   2.068   4.026   1.088
 9443SOL    HW229229   2.067   3.879   1.016
 9444SOL     OW29230   0.288   3.279   0.102
 9444SOL    HW129231   0.310   3.377   0.101
 9444SOL    HW229232   0.304   3.243   0.194
 9445SOL     OW29233   5.676   3.718   1.713
 9445SOL    HW129234   5.599   3.780   1.730
 9445SOL    HW229235   5.724   3.747   1.630
 9446SOL     OW29236   6.787   5.841   2.255
 9446SOL    HW129237   6.748   5.843   2.162
 9446SOL    HW229238   6.886   5.832   2.249
 9447SOL     OW29239   5.796   4.221   2.415
 9447SOL    HW129240   5.755   4.172   2.492
 9447SOL    HW229241   5.890   4.189   2.402
 9448SOL     OW29242   5.387   6.021   0.318
 9448SOL    HW129243   5.331   6.044   0.397
 9448SOL    HW229244   5.366   5.927   0.289
 9449SOL     OW29245   5.597   5.204   5.872
 9449SOL    HW129246   5.566   5.184   5.779
 9449SOL    HW229247   5.529   5.171   5.938
 9450SOL     OW29248   3.213   4.879   4.866
 9450SOL    HW129249   3.218   4.818   4.945
 9450SOL    HW229250   3.132   4.938   4.875
 9451SOL     OW29251   4.356   5.438   6.264
 9451SOL    HW129252   4.450   5.471   6.275
 9451SOL    HW229253   4.299   5.479   6.335
 9452SOL     OW29254   2.540   4.668   1.535
 9452SOL    HW129255   2.625   4.639   1.577
 9452SOL    HW229256   2.475   4.592   1.532
 9453SOL     OW29257   2.805   5.202   2.958
 9453SOL    HW129258   2.751   5.259   2.896
 9453SOL    HW229259   2.749   5.125   2.989
 9454SOL     OW29260   1.594   3.518   5.887
 9454SOL    HW129261   1.582   3.420   5.876
 9454SOL    HW229262   1.610   3.560   5.797
 9455SOL     OW29263   3.486   1.398   2.278
 9455SOL    HW129264   3.445   1.475   2.328
 9455SOL    HW229265   3.497   1.423   2.182
 9456SOL     OW29266   0.928   3.636   0.880
 9456SOL    HW129267   0.976   3.549   0.872
 9456SOL    HW229268   0.955   3.697   0.805
 9457SOL     OW29269   1.436   3.122   0.062
 9457SOL    HW129270   1.467   3.070   0.141
 9457SOL    HW229271   1.511   3.132   7.019
 9458SOL     OW29272   0.125   5.293   5.344
 9458SOL    HW129273   0.111   5.214   5.286
 9458SOL    HW229274   0.219   5.295   5.377
 9459SOL     OW29275   6.482   5.699   1.841
 9459SOL    HW129276   6.422   5.705   1.761
 9459SOL    HW229277   6.542   5.619   1.831
 9460SOL     OW29278   1.142   1.819   5.309
 9460SOL    HW129279   1.131   1.798   5.211
 9460SOL    HW229280   1.225   1.873   5.322
 9461SOL     OW29281   0.975   0.864   3.543
 9461SOL    HW129282   0.947   0.803   3.469
 9461SOL    HW229283   0.933   0.834   3.629
 9462SOL     OW29284   0.813   2.956   2.135
 9462SOL    HW129285   0.891   2.998   2.090
 9462SOL    HW229286   0.800   2.999   2.225
 9463SOL     OW29287   5.966   1.382   0.281
 9463SOL    HW129288   5.920   1.385   0.369
 9463SOL    HW229289   6.018   1.296   0.273
 9464SOL     OW29290   6.251   6.977   6.254
 9464SOL    HW129291   6.300   6.945   6.335
 9464SOL    HW229292   6.270   6.914   6.177
 9465SOL     OW29293   6.239   0.291   4.144
 9465SOL    HW129294   6.187   0.223   4.196
 9465SOL    HW229295   6.273   0.361   4.207
 9466SOL     OW29296   2.308   2.910   6.293
 9466SOL    HW129297   2.320   2.996   6.243
 9466SOL    HW229298   2.214   2.903   6.326
 9467SOL     OW29299   1.858   2.944   2.301
 9467SOL    HW129300   1.829   2.891   2.381
 9467SOL    HW229301   1.939   2.902   2.261
 9468SOL     OW29302   6.968   3.556   5.670
 9468SOL    HW129303   6.868   3.555   5.665
 9468SOL    HW229304   7.006   3.518   5.585
 9469SOL     OW29305   6.039   5.266   2.405
 9469SOL    HW129306   6.065   5.187   2.460
 9469SOL    HW229307   6.064   5.350   2.453
 9470SOL     OW29308   4.561   3.790   0.567
 9470SOL    HW129309   4.653   3.830   0.562
 9470SOL    HW229310   4.569   3.690   0.573
 9471SOL     OW29311   6.826   2.303   5.994
 9471SOL    HW129312   6.789   2.331   5.905
 9471SOL    HW229313   6.919   2.338   6.003
 9472SOL     OW29314   5.888   4.403   4.447
 9472SOL    HW129315   5.866   4.366   4.537
 9472SOL    HW229316   5.804   4.419   4.396
 9473SOL     OW29317   2.492   5.590   6.024
 9473SOL    HW129318   2.515   5.558   5.932
 9473SOL    HW229319   2.573   5.631   6.067
 9474SOL     OW29320   4.501   5.148   2.274
 9474SOL    HW129321   4.441   5.070   2.258
 9474SOL    HW229322   4.500   5.208   2.194
 9475SOL     OW29323   2.972   3.891   1.162
 9475SOL    HW129324   3.060   3.934   1.141
 9475SOL    HW229325   2.975   3.852   1.254
 9476SOL     OW29326   4.320   3.203   5.364
 9476SOL    HW129327   4.285   3.277   5.422
 9476SOL    HW229328   4.402   3.234   5.317
 9477SOL     OW29329   1.128   2.351   1.279
 9477SOL    HW129330   1.183   2.344   1.362
 9477SOL    HW229331   1.183   2.391   1.205
 9478SOL     OW29332   5.911   4.647   5.419
 9478SOL    HW129333   5.922   4.697   5.333
 9478SOL    HW229334   5.814   4.636   5.439
 9479SOL     OW29335   5.938   6.026   6.356
 9479SOL    HW129336   5.987   6.006   6.441
 9479SOL    HW229337   5.940   5.946   6.297
 9480SOL     OW29338   5.574   4.559   0.097
 9480SOL    HW129339   5.561   4.540   0.194
 9480SOL    HW229340   5.504   4.624   0.066
 9481SOL     OW29341   6.886   3.900   1.988
 9481SOL    HW129342   6.951   3.872   2.058
 9481SOL    HW229343   6.797   3.916   2.030
 9482SOL     OW29344   4.654   1.149   1.997
 9482SOL    HW129345   4.598   1.221   1.956
 9482SOL    HW229346   4.697   1.184   2.081
 9483SOL     OW29347   2.016   1.847   0.478
 9483SOL    HW129348   2.083   1.908   0.520
 9483SOL    HW229349   2.061   1.793   0.406
 9484SOL     OW29350   6.343   1.570   3.966
 9484SOL    HW129351   6.435   1.557   4.002
 9484SOL    HW229352   6.343   1.553   3.868
 9485SOL     OW29353   0.904   0.566   2.710
 9485SOL    HW129354   0.935   0.512   2.789
 9485SOL    HW229355   0.808   0.592   2.723
 9486SOL     OW29356   2.679   5.899   1.258
 9486SOL    HW129357   2.778   5.883   1.255
 9486SOL    HW229358   2.653   5.930   1.350
 9487SOL     OW29359   3.423   3.656   3.851
 9487SOL    HW129360   3.449   3.560   3.849
 9487SOL    HW229361   3.456   3.702   3.768
 9488SOL     OW29362   1.484   6.457   1.372
 9488SOL    HW129363   1.432   6.373   1.391
 9488SOL    HW229364   1.576   6.433   1.342
 9489SOL     OW29365   4.061   4.801   1.402
 9489SOL    HW129366   4.081   4.712   1.444
 9489SOL    HW229367   3.970   4.831   1.428
 9490SOL     OW29368   5.412   0.974   1.072
 9490SOL    HW129369   5.464   1.004   1.152
 9490SOL    HW229370   5.403   1.050   1.007
 9491SOL     OW29371   6.299   5.162   4.770
 9491SOL    HW129372   6.214   5.112   4.781
 9491SOL    HW229373   6.299   5.241   4.832
 9492SOL     OW29374   3.311   3.898   1.809
 9492SOL    HW129375   3.267   3.828   1.752
 9492SOL    HW229376   3.285   3.989   1.777
 9493SOL     OW29377   4.613   5.699   3.117
 9493SOL    HW129378   4.532   5.717   3.172
 9493SOL    HW229379   4.662   5.784   3.099
 9494SOL     OW29380   5.199   3.430   6.504
 9494SOL    HW129381   5.268   3.422   6.432
 9494SOL    HW229382   5.119   3.374   6.481
 9495SOL     OW29383   6.271   1.918   4.750
 9495SOL    HW129384   6.231   1.992   4.695
 9495SOL    HW229385   6.200   1.875   4.805
 9496SOL     OW29386   5.782   3.735   0.150
 9496SOL    HW129387   5.700   3.746   0.206
 9496SOL    HW229388   5.854   3.794   0.186
 9497SOL     OW29389   5.414   5.556   7.017
 9497SOL    HW129390   5.417   5.574   6.918
 9497SOL    HW229391   5.428   5.642   0.044
 9498SOL     OW29392   3.522   0.163   5.495
 9498SOL    HW129393   3.438   0.181   5.545
 9498SOL    HW229394   3.582   0.103   5.549
 9499SOL     OW29395   2.651   3.747   5.331
 9499SOL    HW129396   2.630   3.845   5.327
 9499SOL    HW229397   2.743   3.734   5.369
 9500SOL     OW29398   4.276   5.800   1.799
 9500SOL    HW129399   4.264   5.749   1.714
 9500SOL    HW229400   4.374   5.804   1.821
 9501SOL     OW29401   3.480   1.312   4.327
 9501SOL    HW129402   3.410   1.291   4.258
 9501SOL    HW229403   3.523   1.227   4.358
 9502SOL     OW29404   6.474   2.354   4.924
 9502SOL    HW129405   6.495   2.257   4.915
 9502SOL    HW229406   6.397   2.378   4.865
 9503SOL     OW29407   0.594   0.111   2.132
 9503SOL    HW129408   0.509   0.126   2.081
 9503SOL    HW229409   0.595   0.018   2.167
 9504SOL     OW29410   0.468   2.824   0.418
 9504SOL    HW129411   0.543   2.758   0.423
 9504SOL    HW229412   0.426   2.820   0.328
 9505SOL     OW29413   6.497   3.174   3.211
 9505SOL    HW129414   6.566   3.222   3.264
 9505SOL    HW229415   6.508   3.196   3.114
 9506SOL     OW29416   0.045   3.563   0.204
 9506SOL    HW129417   6.974   3.582   0.176
 9506SOL    HW229418   0.044   3.508   0.288
 9507SOL     OW29419   1.081   1.594   3.671
 9507SOL    HW129420   1.151   1.527   3.648
 9507SOL    HW229421   1.000   1.547   3.706
 9508SOL     OW29422   5.520   1.766   0.826
 9508SOL    HW129423   5.469   1.777   0.912
 9508SOL    HW229424   5.521   1.853   0.776
 9509SOL     OW29425   2.068   6.661   5.566
 9509SOL    HW129426   2.061   6.751   5.610
 9509SOL    HW229427   2.059   6.590   5.636
 9510SOL     OW29428   6.592   4.709   2.516
 9510SOL    HW129429   6.679   4.754   2.497
 9510SOL    HW229430   6.590   4.678   2.611
 9511SOL     OW29431   0.485   2.297   0.118
 9511SOL    HW129432   0.387   2.276   0.124
 9511SOL    HW229433   0.501   2.389   0.153
 9512SOL     OW29434   1.336   2.140   4.086
 9512SOL    HW129435   1.360   2.044   4.079
 9512SOL    HW229436   1.399   2.185   4.150
 9513SOL     OW29437   2.187   3.831   3.982
 9513SOL    HW129438   2.167   3.795   3.890
 9513SOL    HW229439   2.184   3.756   4.048
 9514SOL     OW29440   1.730   3.478   0.374
 9514SOL    HW129441   1.791   3.438   0.305
 9514SOL    HW229442   1.762   3.453   0.465
 9515SOL     OW29443   1.576   6.217   6.437
 9515SOL    HW129444   1.516   6.296   6.430
 9515SOL    HW229445   1.536   6.149   6.499
 9516SOL     OW29446   5.424   4.156   3.678
 9516SOL    HW129447   5.362   4.120   3.608
 9516SOL    HW229448   5.431   4.090   3.753
 9517SOL     OW29449   0.691   5.554   1.533
 9517SOL    HW129450   0.751   5.559   1.613
 9517SOL    HW229451   0.730   5.609   1.459
 9518SOL     OW29452   0.744   2.598   6.427
 9518SOL    HW129453   0.829   2.649   6.442
 9518SOL    HW229454   0.669   2.643   6.475
 9519SOL     OW29455   3.377   3.661   2.891
 9519SOL    HW129456   3.311   3.659   2.816
 9519SOL    HW229457   3.328   3.657   2.979
 9520SOL     OW29458   0.047   0.532   5.211
 9520SOL    HW129459   7.007   0.562   5.282
 9520SOL    HW229460   0.140   0.562   5.233
 9521SOL     OW29461   3.316   6.880   1.015
 9521SOL    HW129462   3.319   6.940   0.936
 9521SOL    HW229463   3.224   6.842   1.025
 9522SOL     OW29464   3.921   5.601   1.187
 9522SOL    HW129465   3.905   5.696   1.160
 9522SOL    HW229466   3.848   5.571   1.249
 9523SOL     OW29467   2.544   5.312   4.487
 9523SOL    HW129468   2.530   5.398   4.536
 9523SOL    HW229469   2.624   5.265   4.525
 9524SOL     OW29470   1.566   3.955   0.981
 9524SOL    HW129471   1.540   3.919   1.071
 9524SOL    HW229472   1.492   3.939   0.916
 9525SOL     OW29473   2.055   2.220   5.550
 9525SOL    HW129474   2.155   2.229   5.549
 9525SOL    HW229475   2.027   2.142   5.494
 9526SOL     OW29476   5.309   5.177   6.853
 9526SOL    HW129477   5.254   5.259   6.846
 9526SOL    HW229478   5.297   5.121   6.771
 9527SOL     OW29479   3.749   6.836   3.558
 9527SOL    HW129480   3.695   6.757   3.530
 9527SOL    HW229481   3.813   6.860   3.485
 9528SOL     OW29482   6.194   1.473   1.041
 9528SOL    HW129483   6.132   1.405   1.002
 9528SOL    HW229484   6.238   1.525   0.967
 9529SOL     OW29485   6.398   2.136   1.881
 9529SOL    HW129486   6.395   2.233   1.904
 9529SOL    HW229487   6.491   2.111   1.854
 9530SOL     OW29488   0.664   5.306   3.550
 9530SOL    HW129489   0.736   5.360   3.593
 9530SOL    HW229490   0.621   5.248   3.619
 9531SOL     OW29491   4.033   4.827   3.480
 9531SOL    HW129492   4.123   4.783   3.476
 9531SOL    HW229493   3.995   4.816   3.572
 9532SOL     OW29494   5.853   5.497   2.123
 9532SOL    HW129495   5.952   5.491   2.131
 9532SOL    HW229496   5.827   5.585   2.083
 9533SOL     OW29497   1.567   5.344   3.920
 9533SOL    HW129498   1.497   5.411   3.946
 9533SOL    HW229499   1.639   5.390   3.869
 9534SOL     OW29500   5.884   4.929   4.601
 9534SOL    HW129501   5.949   4.938   4.526
 9534SOL    HW229502   5.821   4.854   4.582
 9535SOL     OW29503   1.490   1.607   5.743
 9535SOL    HW129504   1.526   1.672   5.676
 9535SOL    HW229505   1.390   1.607   5.740
 9536SOL     OW29506   3.666   3.717   4.960
 9536SOL    HW129507   3.762   3.709   4.986
 9536SOL    HW229508   3.660   3.753   4.867
 9537SOL     OW29509   1.375   0.806   3.736
 9537SOL    HW129510   1.399   0.889   3.785
 9537SOL    HW229511   1.334   0.830   3.648
 9538SOL     OW29512   3.744   0.664   4.543
 9538SOL    HW129513   3.787   0.733   4.485
 9538SOL    HW229514   3.690   0.708   4.614
 9539SOL     OW29515   3.845   2.969   3.131
 9539SOL    HW129516   3.883   2.946   3.042
 9539SOL    HW229517   3.805   3.061   3.126
 9540SOL     OW29518   4.852   5.232   4.258
 9540SOL    HW129519   4.843   5.132   4.253
 9540SOL    HW229520   4.883   5.258   4.349
 9541SOL     OW29521   1.384   6.404   4.984
 9541SOL    HW129522   1.342   6.358   5.062
 9541SOL    HW229523   1.341   6.372   4.899
 9542SOL     OW29524   5.639   4.859   4.322
 9542SOL    HW129525   5.582   4.818   4.393
 9542SOL    HW229526   5.721   4.803   4.309
 9543SOL     OW29527   2.540   0.742   6.203
 9543SOL    HW129528   2.625   0.723   6.252
 9543SOL    HW229529   2.511   0.836   6.221
 9544SOL     OW29530   5.245   4.111   3.477
 9544SOL    HW129531   5.151   4.078   3.486
 9544SOL    HW229532   5.243   4.210   3.458
 9545SOL     OW29533   1.409   4.712   1.992
 9545SOL    HW129534   1.435   4.808   1.987
 9545SOL    HW229535   1.310   4.703   1.976
 9546SOL     OW29536   3.021   1.405   5.878
 9546SOL    HW129537   2.942   1.454   5.914
 9546SOL    HW229538   3.001   1.372   5.786
 9547SOL     OW29539   3.443   6.247   3.991
 9547SOL    HW129540   3.421   6.344   4.001
 9547SOL    HW229541   3.359   6.193   3.990
 9548SOL     OW29542   1.286   4.993   6.316
 9548SOL    HW129543   1.261   4.948   6.402
 9548SOL    HW229544   1.367   5.050   6.330
 9549SOL     OW29545   3.922   1.978   2.518
 9549SOL    HW129546   3.904   2.023   2.431
 9549SOL    HW229547   3.850   2.002   2.584
 9550SOL     OW29548   5.380   2.654   1.675
 9550SOL    HW129549   5.458   2.652   1.738
 9550SOL    HW229550   5.351   2.749   1.660
 9551SOL     OW29551   6.295   2.044   6.374
 9551SOL    HW129552   6.232   2.043   6.297
 9551SOL    HW229553   6.272   1.970   6.437
 9552SOL     OW29554   2.488   0.707   6.556
 9552SOL    HW129555   2.543   0.730   6.637
 9552SOL    HW229556   2.391   0.727   6.576
 9553SOL     OW29557   5.345   2.693   0.395
 9553SOL    HW129558   5.373   2.606   0.354
 9553SOL    HW229559   5.249   2.687   0.422
 9554SOL     OW29560   2.450   6.454   4.145
 9554SOL    HW129561   2.373   6.434   4.085
 9554SOL    HW229562   2.532   6.471   4.090
 9555SOL     OW29563   6.401   1.352   3.087
 9555SOL    HW129564   6.460   1.349   3.007
 9555SOL    HW229565   6.363   1.260   3.104
 9556SOL     OW29566   1.874   4.586   1.157
 9556SOL    HW129567   1.932   4.640   1.096
 9556SOL    HW229568   1.778   4.603   1.134
 9557SOL     OW29569   5.373   6.983   1.852
 9557SOL    HW129570   5.318   6.921   1.795
 9557SOL    HW229571   5.327   0.049   1.859
 9558SOL     OW29572   5.833   6.340   5.736
 9558SOL    HW129573   5.773   6.416   5.763
 9558SOL    HW229574   5.824   6.324   5.638
 9559SOL     OW29575   1.468   4.032   0.224
 9559SOL    HW129576   1.406   3.979   0.166
 9559SOL    HW229577   1.441   4.022   0.320
 9560SOL     OW29578   3.596   0.297   2.038
 9560SOL    HW129579   3.511   0.344   2.016
 9560SOL    HW229580   3.637   0.338   2.120
 9561SOL     OW29581   0.502   0.539   0.888
 9561SOL    HW129582   0.439   0.536   0.811
 9561SOL    HW229583   0.510   0.633   0.921
 9562SOL     OW29584   2.594   5.460   3.807
 9562SOL    HW129585   2.568   5.448   3.903
 9562SOL    HW229586   2.672   5.523   3.801
 9563SOL     OW29587   0.623   6.679   0.340
 9563SOL    HW129588   0.619   6.582   0.317
 9563SOL    HW229589   0.718   6.710   0.337
 9564SOL     OW29590   1.493   0.434   1.177
 9564SOL    HW129591   1.487   0.336   1.197
 9564SOL    HW229592   1.582   0.454   1.134
 9565SOL     OW29593   3.384   0.962   3.990
 9565SOL    HW129594   3.336   0.893   4.043
 9565SOL    HW229595   3.441   1.018   4.050
 9566SOL     OW29596   2.428   6.780   0.673
 9566SOL    HW129597   2.500   6.824   0.619
 9566SOL    HW229598   2.387   6.706   0.619
 9567SOL     OW29599   0.052   4.881   0.699
 9567SOL    HW129600   7.012   4.818   0.743
 9567SOL    HW229601   0.057   4.861   0.601
 9568SOL     OW29602   3.984   2.156   6.888
 9568SOL    HW129603   4.069   2.107   6.870
 9568SOL    HW229604   3.911   2.090   6.906
 9569SOL     OW29605   5.808   0.530   1.642
 9569SOL    HW129606   5.808   0.572   1.733
 9569SOL    HW229607   5.899   0.536   1.602
 9570SOL     OW29608   0.489   2.980   1.155
 9570SOL    HW129609   0.407   2.970   1.211
 9570SOL    HW229610   0.564   3.013   1.212
 9571SOL     OW29611   2.628   2.712   6.523
 9571SOL    HW129612   2.700   2.730   6.455
 9571SOL    HW229613   2.577   2.796   6.540
 9572SOL     OW29614   2.210   3.928   3.515
 9572SOL    HW129615   2.171   3.875   3.441
 9572SOL    HW229616   2.228   4.021   3.484
 9573SOL     OW29617   6.576   0.627   5.385
 9573SOL    HW129618   6.538   0.535   5.400
 9573SOL    HW229619   6.628   0.628   5.300
 9574SOL     OW29620   3.983   3.021   1.318
 9574SOL    HW129621   3.949   2.946   1.374
 9574SOL    HW229622   4.059   2.990   1.261
 9575SOL     OW29623   5.932   6.932   2.221
 9575SOL    HW129624   5.968   6.838   2.218
 9575SOL    HW229625   5.889   6.948   2.310
 9576SOL     OW29626   1.545   1.538   0.224
 9576SOL    HW129627   1.545   1.567   0.128
 9576SOL    HW229628   1.613   1.591   0.275
 9577SOL     OW29629   0.089   6.184   0.609
 9577SOL    HW129630   0.115   6.113   0.544
 9577SOL    HW229631   7.019   6.216   0.587
 9578SOL     OW29632   1.344   2.894   2.733
 9578SOL    HW129633   1.360   2.892   2.832
 9578SOL    HW229634   1.353   2.802   2.696
 9579SOL     OW29635   6.053   0.139   2.116
 9579SOL    HW129636   6.002   0.055   2.135
 9579SOL    HW229637   6.117   0.157   2.191
 9580SOL     OW29638   5.072   4.297   0.868
 9580SOL    HW129639   5.080   4.367   0.939
 9580SOL    HW229640   5.160   4.250   0.859
 9581SOL     OW29641   6.823   0.702   6.779
 9581SOL    HW129642   6.781   0.743   6.860
 9581SOL    HW229643   6.884   0.768   6.737
 9582SOL     OW29644   3.793   5.844   4.650
 9582SOL    HW129645   3.776   5.747   4.636
 9582SOL    HW229646   3.825   5.885   4.564
 9583SOL     OW29647   3.390   4.491   1.585
 9583SOL    HW129648   3.411   4.585   1.613
 9583SOL    HW229649   3.347   4.492   1.495
 9584SOL     OW29650   1.575   4.682   4.890
 9584SOL    HW129651   1.550   4.766   4.939
 9584SOL    HW229652   1.555   4.693   4.792
 9585SOL     OW29653   5.070   5.991   1.526
 9585SOL    HW129654   5.114   5.901   1.534
 9585SOL    HW229655   4.985   5.992   1.579
 9586SOL     OW29656   4.488   4.872   1.672
 9586SOL    HW129657   4.452   4.960   1.642
 9586SOL    HW229658   4.443   4.799   1.621
 9587SOL     OW29659   2.326   6.446   2.139
 9587SOL    HW129660   2.267   6.493   2.204
 9587SOL    HW229661   2.290   6.355   2.121
 9588SOL     OW29662   6.212   6.289   0.768
 9588SOL    HW129663   6.211   6.379   0.810
 9588SOL    HW229664   6.140   6.283   0.698
 9589SOL     OW29665   1.760   3.513   6.555
 9589SOL    HW129666   1.726   3.465   6.636
 9589SOL    HW229667   1.843   3.564   6.578
 9590SOL     OW29668   5.645   1.818   1.811
 9590SOL    HW129669   5.555   1.828   1.769
 9590SOL    HW229670   5.711   1.788   1.743
 9591SOL     OW29671   3.396   6.544   5.951
 9591SOL    HW129672   3.444   6.467   5.994
 9591SOL    HW229673   3.370   6.519   5.858
 9592SOL     OW29674   2.590   4.346   6.582
 9592SOL    HW129675   2.658   4.362   6.652
 9592SOL    HW229676   2.615   4.395   6.498
 9593SOL     OW29677   1.949   1.012   5.981
 9593SOL    HW129678   1.849   1.009   5.975
 9593SOL    HW229679   1.977   1.102   6.014
 9594SOL     OW29680   2.468   6.056   3.970
 9594SOL    HW129681   2.420   5.973   3.998
 9594SOL    HW229682   2.483   6.114   4.050
 9595SOL     OW29683   0.396   3.583   3.525
 9595SOL    HW129684   0.298   3.600   3.515
 9595SOL    HW229685   0.443   3.599   3.438
 9596SOL     OW29686   0.955   5.261   1.107
 9596SOL    HW129687   0.871   5.230   1.150
 9596SOL    HW229688   0.993   5.337   1.159
 9597SOL     OW29689   1.458   4.528   1.509
 9597SOL    HW129690   1.410   4.516   1.596
 9597SOL    HW229691   1.554   4.502   1.520
 9598SOL     OW29692   1.856   3.586   2.550
 9598SOL    HW129693   1.954   3.602   2.564
 9598SOL    HW229694   1.825   3.514   2.611
 9599SOL     OW29695   3.330   6.850   4.127
 9599SOL    HW129696   3.307   6.855   4.224
 9599SOL    HW229697   3.426   6.876   4.114
 9600SOL     OW29698   3.061   0.226   1.178
 9600SOL    HW129699   3.085   0.139   1.222
 9600SOL    HW229700   3.103   0.230   1.088
 9601SOL     OW29701   6.256   4.667   1.259
 9601SOL    HW129702   6.246   4.576   1.219
 9601SOL    HW229703   6.262   4.736   1.187
 9602SOL     OW29704   4.481   4.845   5.634
 9602SOL    HW129705   4.427   4.827   5.552
 9602SOL    HW229706   4.525   4.935   5.626
 9603SOL     OW29707   5.669   6.122   6.036
 9603SOL    HW129708   5.718   6.062   5.973
 9603SOL    HW229709   5.657   6.076   6.123
 9604SOL     OW29710   4.966   0.451   1.356
 9604SOL    HW129711   4.936   0.460   1.451
 9604SOL    HW229712   5.054   0.498   1.344
 9605SOL     OW29713   0.317   5.014   3.027
 9605SOL    HW129714   0.236   5.026   2.969
 9605SOL    HW229715   0.396   5.055   2.983
 9606SOL     OW29716   1.554   1.265   6.904
 9606SOL    HW129717   1.487   1.216   6.960
 9606SOL    HW229718   1.513   1.289   6.816
 9607SOL     OW29719   3.174   1.746   6.885
 9607SOL    HW129720   3.204   1.747   6.981
 9607SOL    HW229721   3.100   1.680   6.874
 9608SOL     OW29722   6.909   4.558   2.496
 9608SOL    HW129723   6.890   4.657   2.496
 9608SOL    HW229724   6.824   4.508   2.509
 9609SOL     OW29725   3.749   2.724   6.423
 9609SOL    HW129726   3.838   2.719   6.379
 9609SOL    HW229727   3.761   2.722   6.522
 9610SOL     OW29728   1.764   4.682   2.681
 9610SOL    HW129729   1.850   4.653   2.724
 9610SOL    HW229730   1.784   4.734   2.598
 9611SOL     OW29731   1.969   6.582   0.821
 9611SOL    HW129732   1.964   6.678   0.796
 9611SOL    HW229733   1.917   6.527   0.755
 9612SOL     OW29734   0.639   2.818   1.937
 9612SOL    HW129735   0.578   2.893   1.962
 9612SOL    HW229736   0.712   2.810   2.005
 9613SOL     OW29737   5.694   6.445   3.501
 9613SOL    HW129738   5.717   6.355   3.462
 9613SOL    HW229739   5.598   6.466   3.483
 9614SOL     OW29740   3.704   2.043   2.666
 9614SOL    HW129741   3.648   2.119   2.632
 9614SOL    HW229742   3.648   1.961   2.675
 9615SOL     OW29743   2.717   2.329   1.255
 9615SOL    HW129744   2.752   2.373   1.172
 9615SOL    HW229745   2.642   2.383   1.292
 9616SOL     OW29746   3.274   3.198   1.267
 9616SOL    HW129747   3.264   3.120   1.328
 9616SOL    HW229748   3.185   3.242   1.254
 9617SOL     OW29749   2.112   3.259   3.768
 9617SOL    HW129750   2.034   3.233   3.711
 9617SOL    HW229751   2.095   3.348   3.810
 9618SOL     OW29752   2.960   0.686   1.155
 9618SOL    HW129753   2.918   0.606   1.113
 9618SOL    HW229754   2.891   0.757   1.168
 9619SOL     OW29755   1.905   0.341   5.537
 9619SOL    HW129756   1.896   0.437   5.564
 9619SOL    HW229757   1.938   0.288   5.615
 9620SOL     OW29758   4.739   0.676   4.633
 9620SOL    HW129759   4.655   0.695   4.684
 9620SOL    HW229760   4.774   0.586   4.660
 9621SOL     OW29761   1.688   2.954   1.861
 9621SOL    HW129762   1.689   2.932   1.764
 9621SOL    HW229763   1.727   3.045   1.875
 9622SOL     OW29764   5.958   1.419   0.591
 9622SOL    HW129765   5.886   1.353   0.614
 9622SOL    HW229766   5.941   1.504   0.639
 9623SOL     OW29767   2.113   2.563   6.794
 9623SOL    HW129768   2.103   2.545   6.696
 9623SOL    HW229769   2.209   2.554   6.820
 9624SOL     OW29770   6.155   3.734   2.963
 9624SOL    HW129771   6.139   3.675   2.885
 9624SOL    HW229772   6.250   3.766   2.961
 9625SOL     OW29773   5.433   5.793   0.140
 9625SOL    HW129774   5.450   5.859   0.066
 9625SOL    HW229775   5.519   5.775   0.187
 9626SOL     OW29776   3.767   4.975   0.585
 9626SOL    HW129777   3.706   4.896   0.585
 9626SOL    HW229778   3.739   5.038   0.658
 9627SOL     OW29779   0.797   5.976   6.527
 9627SOL    HW129780   0.708   6.020   6.540
 9627SOL    HW229781   0.842   5.964   6.616
 9628SOL     OW29782   5.030   5.428   0.899
 9628SOL    HW129783   5.128   5.437   0.915
 9628SOL    HW229784   5.014   5.417   0.801
 9629SOL     OW29785   1.729   0.652   1.547
 9629SOL    HW129786   1.779   0.699   1.474
 9629SOL    HW229787   1.731   0.707   1.630
 9630SOL     OW29788   6.401   6.999   5.065
 9630SOL    HW129789   6.464   0.046   5.100
 9630SOL    HW229790   6.327   0.020   5.014
 9631SOL     OW29791   6.345   0.117   6.539
 9631SOL    HW129792   6.279   0.180   6.498
 9631SOL    HW229793   6.436   0.159   6.540
 9632SOL     OW29794   1.651   6.553   2.834
 9632SOL    HW129795   1.571   6.519   2.784
 9632SOL    HW229796   1.628   6.563   2.931
 9633SOL     OW29797   5.795   5.428   0.003
 9633SOL    HW129798   5.776   5.514   6.979
 9633SOL    HW229799   5.718   5.406   0.064
 9634SOL     OW29800   1.703   6.492   4.500
 9634SOL    HW129801   1.635   6.538   4.443
 9634SOL    HW229802   1.684   6.394   4.503
 9635SOL     OW29803   2.354   5.209   5.082
 9635SOL    HW129804   2.304   5.294   5.064
 9635SOL    HW229805   2.435   5.206   5.024
 9636SOL     OW29806   4.212   1.823   5.263
 9636SOL    HW129807   4.275   1.897   5.239
 9636SOL    HW229808   4.166   1.844   5.349
 9637SOL     OW29809   2.191   2.309   6.204
 9637SOL    HW129810   2.212   2.230   6.262
 9637SOL    HW229811   2.099   2.341   6.224
 9638SOL     OW29812   6.666   3.620   5.333
 9638SOL    HW129813   6.580   3.671   5.333
 9638SOL    HW229814   6.741   3.681   5.358
 9639SOL     OW29815   4.155   1.643   2.223
 9639SOL    HW129816   4.132   1.656   2.320
 9639SOL    HW229817   4.094   1.699   2.166
 9640SOL     OW29818   2.526   2.528   3.173
 9640SOL    HW129819   2.437   2.551   3.134
 9640SOL    HW229820   2.583   2.484   3.103
 9641SOL     OW29821   4.964   6.925   0.406
 9641SOL    HW129822   4.916   7.012   0.415
 9641SOL    HW229823   4.899   6.850   0.417
 9642SOL     OW29824   3.304   0.596   4.828
 9642SOL    HW129825   3.325   0.511   4.779
 9642SOL    HW229826   3.385   0.654   4.830
 9643SOL     OW29827   5.271   3.929   3.089
 9643SOL    HW129828   5.306   3.928   2.995
 9643SOL    HW229829   5.245   4.022   3.113
 9644SOL     OW29830   1.204   3.032   6.483
 9644SOL    HW129831   1.259   2.970   6.539
 9644SOL    HW229832   1.252   3.119   6.471
 9645SOL     OW29833   2.987   5.314   5.433
 9645SOL    HW129834   2.994   5.346   5.339
 9645SOL    HW229835   2.892   5.290   5.453
 9646SOL     OW29836   4.194   5.076   2.417
 9646SOL    HW129837   4.152   5.007   2.475
 9646SOL    HW229838   4.262   5.032   2.357
 9647SOL     OW29839   6.127   3.302   1.260
 9647SOL    HW129840   6.106   3.372   1.191
 9647SOL    HW229841   6.130   3.212   1.217
 9648SOL     OW29842   4.310   2.244   1.016
 9648SOL    HW129843   4.219   2.251   1.057
 9648SOL    HW229844   4.373   2.205   1.083
 9649SOL     OW29845   2.427   6.557   0.270
 9649SOL    HW129846   2.480   6.621   0.216
 9649SOL    HW229847   2.431   6.466   0.227
 9650SOL     OW29848   6.976   5.554   2.354
 9650SOL    HW129849   6.989   5.541   2.452
 9650SOL    HW229850   7.008   5.646   2.328
 9651SOL     OW29851   0.708   1.689   6.124
 9651SOL    HW129852   0.785   1.745   6.093
 9651SOL    HW229853   0.733   1.592   6.119
 9652SOL     OW29854   1.111   4.723   2.323
 9652SOL    HW129855   1.170   4.802   2.338
 9652SOL    HW229856   1.060   4.703   2.407
 9653SOL     OW29857   4.768   4.944   4.462
 9653SOL    HW129858   4.813   4.928   4.373
 9653SOL    HW229859   4.812   5.022   4.507
 9654SOL     OW29860   2.257   2.486   2.101
 9654SOL    HW129861   2.279   2.543   2.021
 9654SOL    HW229862   2.158   2.475   2.109
 9655SOL     OW29863   6.826   1.964   6.332
 9655SOL    HW129864   6.733   1.995   6.313
 9655SOL    HW229865   6.846   1.975   6.430
 9656SOL     OW29866   3.264   6.906   2.287
 9656SOL    HW129867   3.276   6.868   2.195
 9656SOL    HW229868   3.320   6.989   2.296
 9657SOL     OW29869   6.244   1.151   5.051
 9657SOL    HW129870   6.330   1.138   5.001
 9657SOL    HW229871   6.176   1.086   5.018
 9658SOL     OW29872   6.340   3.126   2.099
 9658SOL    HW129873   6.290   3.122   2.186
 9658SOL    HW229874   6.319   3.211   2.052
 9659SOL     OW29875   0.766   5.038   0.277
 9659SOL    HW129876   0.817   5.124   0.276
 9659SOL    HW229877   0.720   5.027   0.366
 9660SOL     OW29878   1.022   5.371   0.584
 9660SOL    HW129879   0.939   5.425   0.572
 9660SOL    HW229880   1.041   5.359   0.681
 9661SOL     OW29881   4.470   0.042   0.467
 9661SOL    HW129882   4.540   0.077   0.404
 9661SOL    HW229883   4.501   0.054   0.561
 9662SOL     OW29884   5.963   1.639   4.254
 9662SOL    HW129885   6.058   1.645   4.285
 9662SOL    HW229886   5.960   1.657   4.155
 9663SOL     OW29887   1.549   5.297   2.960
 9663SOL    HW129888   1.461   5.345   2.958
 9663SOL    HW229889   1.612   5.346   3.020
 9664SOL     OW29890   4.534   6.406   2.198
 9664SOL    HW129891   4.592   6.440   2.272
 9664SOL    HW229892   4.456   6.357   2.236
 9665SOL     OW29893   5.516   4.056   4.881
 9665SOL    HW129894   5.444   4.117   4.846
 9665SOL    HW229895   5.487   3.961   4.869
 9666SOL     OW29896   5.353   4.286   2.513
 9666SOL    HW129897   5.261   4.245   2.509
 9666SOL    HW229898   5.346   4.385   2.508
 9667SOL     OW29899   3.957   3.967   4.321
 9667SOL    HW129900   3.917   3.878   4.298
 9667SOL    HW229901   3.996   4.009   4.239
 9668SOL     OW29902   0.192   1.115   5.864
 9668SOL    HW129903   0.211   1.021   5.895
 9668SOL    HW229904   0.274   1.153   5.821
 9669SOL     OW29905   0.487   0.120   0.117
 9669SOL    HW129906   0.569   0.108   0.174
 9669SOL    HW229907   0.414   0.060   0.151
 9670SOL     OW29908   4.876   4.769   6.387
 9670SOL    HW129909   4.784   4.803   6.404
 9670SOL    HW229910   4.930   4.839   6.341
 9671SOL     OW29911   0.080   5.245   5.701
 9671SOL    HW129912   0.107   5.324   5.645
 9671SOL    HW229913   0.156   5.180   5.704
 9672SOL     OW29914   0.596   6.127   4.897
 9672SOL    HW129915   0.622   6.217   4.862
 9672SOL    HW229916   0.525   6.088   4.839
 9673SOL     OW29917   3.697   3.803   6.514
 9673SOL    HW129918   3.693   3.902   6.532
 9673SOL    HW229919   3.789   3.779   6.483
 9674SOL     OW29920   3.209   6.343   1.765
 9674SOL    HW129921   3.158   6.257   1.753
 9674SOL    HW229922   3.239   6.350   1.860
 9675SOL     OW29923   6.683   1.405   2.438
 9675SOL    HW129924   6.778   1.382   2.418
 9675SOL    HW229925   6.629   1.398   2.354
 9676SOL     OW29926   1.066   3.672   5.575
 9676SOL    HW129927   0.994   3.643   5.637
 9676SOL    HW229928   1.146   3.613   5.585
 9677SOL     OW29929   2.107   4.219   6.150
 9677SOL    HW129930   2.115   4.234   6.051
 9677SOL    HW229931   2.055   4.135   6.167
 9678SOL     OW29932   4.050   3.831   3.492
 9678SOL    HW129933   4.048   3.804   3.589
 9678SOL    HW229934   4.121   3.900   3.478
 9679SOL     OW29935   1.722   2.761   2.092
 9679SOL    HW129936   1.635   2.722   2.124
 9679SOL    HW229937   1.709   2.857   2.069
 9680SOL     OW29938   5.809   6.191   3.335
 9680SOL    HW129939   5.890   6.202   3.276
 9680SOL    HW229940   5.838   6.184   3.430
 9681SOL     OW29941   1.963   0.700   2.036
 9681SOL    HW129942   1.971   0.782   1.979
 9681SOL    HW229943   2.048   0.648   2.030
 9682SOL     OW29944   5.460   4.404   3.575
 9682SOL    HW129945   5.420   4.487   3.614
 9682SOL    HW229946   5.434   4.325   3.630
 9683SOL     OW29947   4.020   5.648   0.207
 9683SOL    HW129948   4.081   5.712   0.160
 9683SOL    HW229949   4.075   5.573   0.245
 9684SOL     OW29950   0.551   3.993   5.488
 9684SOL    HW129951   0.465   3.987   5.437
 9684SOL    HW229952   0.624   4.023   5.427
 9685SOL     OW29953   1.695   3.297   1.279
 9685SOL    HW129954   1.647   3.353   1.212
 9685SOL    HW229955   1.794   3.304   1.264
 9686SOL     OW29956   6.740   0.472   1.584
 9686SOL    HW129957   6.664   0.437   1.528
 9686SOL    HW229958   6.721   0.566   1.611
 9687SOL     OW29959   2.525   0.561   3.325
 9687SOL    HW129960   2.623   0.553   3.344
 9687SOL    HW229961   2.478   0.592   3.408
 9688SOL     OW29962   6.935   1.601   3.044
 9688SOL    HW129963   6.919   1.527   2.978
 9688SOL    HW229964   6.948   1.562   3.135
 9689SOL     OW29965   2.897   6.449   6.340
 9689SOL    HW129966   2.931   6.376   6.398
 9689SOL    HW229967   2.964   6.469   6.268
 9690SOL     OW29968   6.459   4.974   0.574
 9690SOL    HW129969   6.498   5.062   0.548
 9690SOL    HW229970   6.440   4.920   0.492
 9691SOL     OW29971   1.973   5.361   1.890
 9691SOL    HW129972   1.914   5.369   1.970
 9691SOL    HW229973   1.998   5.266   1.877
 9692SOL     OW29974   2.820   5.454   2.095
 9692SOL    HW129975   2.888   5.481   2.026
 9692SOL    HW229976   2.798   5.532   2.153
 9693SOL     OW29977   7.020   6.303   1.826
 9693SOL    HW129978   6.947   6.246   1.863
 9693SOL    HW229979   6.983   6.363   1.755
 9694SOL     OW29980   1.720   2.414   0.477
 9694SOL    HW129981   1.794   2.481   0.472
 9694SOL    HW229982   1.636   2.459   0.507
 9695SOL     OW29983   6.611   3.772   1.090
 9695SOL    HW129984   6.647   3.832   1.162
 9695SOL    HW229985   6.544   3.822   1.036
 9696SOL     OW29986   3.818   2.836   1.827
 9696SOL    HW129987   3.723   2.830   1.859
 9696SOL    HW229988   3.876   2.870   1.901
 9697SOL     OW29989   0.300   5.055   0.025
 9697SOL    HW129990   0.249   5.088   0.104
 9697SOL    HW229991   0.386   5.015   0.054
 9698SOL     OW29992   5.548   1.502   5.233
 9698SOL    HW129993   5.470   1.559   5.209
 9698SOL    HW229994   5.595   1.542   5.312
 9699SOL     OW29995   1.091   3.819   6.624
 9699SOL    HW129996   1.009   3.833   6.681
 9699SOL    HW229997   1.093   3.888   6.551
 9700SOL     OW29998   3.383   4.803   5.478
 9700SOL    HW129999   3.343   4.890   5.509
 9700SOL    HW230000   3.374   4.796   5.378
 9701SOL     OW30001   4.355   4.913   4.645
 9701SOL    HW130002   4.416   4.970   4.700
 9701SOL    HW230003   4.276   4.967   4.615
 9702SOL     OW30004   5.143   1.106   0.878
 9702SOL    HW130005   5.044   1.119   0.880
 9702SOL    HW230006   5.166   1.016   0.915
 9703SOL     OW30007   3.367   6.176   4.504
 9703SOL    HW130008   3.272   6.203   4.487
 9703SOL    HW230009   3.386   6.091   4.456
 9704SOL     OW30010   3.683   6.951   3.016
 9704SOL    HW130011   3.657   6.871   3.069
 9704SOL    HW230012   3.610   6.975   2.953
 9705SOL     OW30013   3.346   4.634   0.768
 9705SOL    HW130014   3.265   4.598   0.721
 9705SOL    HW230015   3.395   4.695   0.706
 9706SOL     OW30016   6.208   3.199   2.353
 9706SOL    HW130017   6.158   3.286   2.357
 9706SOL    HW230018   6.189   3.145   2.435
 9707SOL     OW30019   1.501   4.215   2.149
 9707SOL    HW130020   1.483   4.244   2.243
 9707SOL    HW230021   1.521   4.295   2.093
 9708SOL     OW30022   2.103   1.715   3.677
 9708SOL    HW130023   2.103   1.795   3.617
 9708SOL    HW230024   2.197   1.688   3.698
 9709SOL     OW30025   1.490   6.125   3.420
 9709SOL    HW130026   1.517   6.037   3.382
 9709SOL    HW230027   1.570   6.186   3.423
 9710SOL     OW30028   0.274   1.339   3.209
 9710SOL    HW130029   0.305   1.309   3.300
 9710SOL    HW230030   0.333   1.412   3.176
 9711SOL     OW30031   1.475   3.713   6.111
 9711SOL    HW130032   1.376   3.697   6.105
 9711SOL    HW230033   1.523   3.651   6.049
 9712SOL     OW30034   5.433   1.996   4.500
 9712SOL    HW130035   5.372   1.924   4.466
 9712SOL    HW230036   5.395   2.034   4.584
 9713SOL     OW30037   0.303   4.734   3.093
 9713SOL    HW130038   0.299   4.830   3.066
 9713SOL    HW230039   0.398   4.703   3.090
 9714SOL     OW30040   2.122   2.841   1.838
 9714SOL    HW130041   2.094   2.807   1.749
 9714SOL    HW230042   2.214   2.807   1.859
 9715SOL     OW30043   5.105   5.261   4.945
 9715SOL    HW130044   5.008   5.240   4.954
 9715SOL    HW230045   5.149   5.191   4.888
 9716SOL     OW30046   4.041   1.859   6.477
 9716SOL    HW130047   3.990   1.842   6.393
 9716SOL    HW230048   4.054   1.957   6.490
 9717SOL     OW30049   6.058   5.659   3.716
 9717SOL    HW130050   6.080   5.719   3.793
 9717SOL    HW230051   6.141   5.636   3.666
 9718SOL     OW30052   3.736   3.326   1.278
 9718SOL    HW130053   3.778   3.261   1.341
 9718SOL    HW230054   3.805   3.393   1.249
 9719SOL     OW30055   0.493   2.882   0.003
 9719SOL    HW130056   0.462   2.955   6.964
 9719SOL    HW230057   0.585   2.903   0.036
 9720SOL     OW30058   0.340   6.673   2.239
 9720SOL    HW130059   0.312   6.720   2.155
 9720SOL    HW230060   0.381   6.584   2.215
 9721SOL     OW30061   0.000   3.831   2.567
 9721SOL    HW130062   6.960   3.768   2.521
 9721SOL    HW230063   6.978   3.870   2.647
 9722SOL     OW30064   0.452   0.488   3.845
 9722SOL    HW130065   0.407   0.474   3.932
 9722SOL    HW230066   0.412   0.428   3.776
 9723SOL     OW30067   0.346   0.335   3.655
 9723SOL    HW130068   0.397   0.359   3.573
 9723SOL    HW230069   0.251   0.365   3.645
 9724SOL     OW30070   3.018   2.359   1.384
 9724SOL    HW130071   2.950   2.323   1.448
 9724SOL    HW230072   2.978   2.434   1.331
 9725SOL     OW30073   5.271   3.270   6.288
 9725SOL    HW130074   5.176   3.256   6.259
 9725SOL    HW230075   5.320   3.184   6.283
 9726SOL     OW30076   4.909   6.680   4.904
 9726SOL    HW130077   4.944   6.590   4.932
 9726SOL    HW230078   4.953   6.708   4.819
 9727SOL     OW30079   0.774   2.995   6.111
 9727SOL    HW130080   0.850   2.934   6.086
 9727SOL    HW230081   0.703   2.942   6.159
 9728SOL     OW30082   2.231   6.166   6.301
 9728SOL    HW130083   2.201   6.260   6.285
 9728SOL    HW230084   2.315   6.149   6.250
 9729SOL     OW30085   1.191   4.310   3.309
 9729SOL    HW130086   1.279   4.285   3.269
 9729SOL    HW230087   1.126   4.235   3.297
 9730SOL     OW30088   6.749   3.186   2.537
 9730SOL    HW130089   6.667   3.181   2.480
 9730SOL    HW230090   6.730   3.240   2.619
 9731SOL     OW30091   3.472   5.056   0.597
 9731SOL    HW130092   3.529   5.103   0.665
 9731SOL    HW230093   3.376   5.068   0.620
 9732SOL     OW30094   6.864   6.168   2.477
 9732SOL    HW130095   6.836   6.235   2.409
 9732SOL    HW230096   6.828   6.194   2.567
 9733SOL     OW30097   5.087   4.815   4.478
 9733SOL    HW130098   5.062   4.784   4.570
 9733SOL    HW230099   5.028   4.770   4.410
 9734SOL     OW30100   5.505   2.168   4.045
 9734SOL    HW130101   5.430   2.230   4.023
 9734SOL    HW230102   5.542   2.129   3.960
 9735SOL     OW30103   2.220   5.470   1.874
 9735SOL    HW130104   2.212   5.563   1.838
 9735SOL    HW230105   2.129   5.430   1.884
 9736SOL     OW30106   4.661   1.529   6.782
 9736SOL    HW130107   4.748   1.487   6.807
 9736SOL    HW230108   4.650   1.525   6.682
 9737SOL     OW30109   4.294   2.191   5.144
 9737SOL    HW130110   4.260   2.285   5.138
 9737SOL    HW230111   4.259   2.138   5.067
 9738SOL     OW30112   1.795   1.325   3.105
 9738SOL    HW130113   1.737   1.246   3.084
 9738SOL    HW230114   1.760   1.372   3.186
 9739SOL     OW30115   6.354   4.861   1.994
 9739SOL    HW130116   6.263   4.820   1.992
 9739SOL    HW230117   6.396   4.853   1.904
 9740SOL     OW30118   5.902   4.352   2.668
 9740SOL    HW130119   5.910   4.445   2.702
 9740SOL    HW230120   5.817   4.342   2.616
 9741SOL     OW30121   4.769   1.751   1.660
 9741SOL    HW130122   4.746   1.784   1.751
 9741SOL    HW230123   4.707   1.792   1.593
 9742SOL     OW30124   5.549   0.675   3.330
 9742SOL    HW130125   5.546   0.603   3.399
 9742SOL    HW230126   5.533   0.635   3.240
 9743SOL     OW30127   1.874   2.995   5.770
 9743SOL    HW130128   1.781   2.977   5.801
 9743SOL    HW230129   1.911   2.913   5.727
 9744SOL     OW30130   1.887   1.250   1.956
 9744SOL    HW130131   1.820   1.322   1.974
 9744SOL    HW230132   1.953   1.245   2.031
 9745SOL     OW30133   0.636   2.073   5.168
 9745SOL    HW130134   0.632   2.173   5.160
 9745SOL    HW230135   0.566   2.042   5.232
 9746SOL     OW30136   5.732   0.737   5.084
 9746SOL    HW130137   5.776   0.754   4.996
 9746SOL    HW230138   5.747   0.642   5.110
 9747SOL     OW30139   0.986   0.284   6.842
 9747SOL    HW130140   1.069   0.272   6.788
 9747SOL    HW230141   1.009   0.283   6.940
 9748SOL     OW30142   1.057   6.207   4.133
 9748SOL    HW130143   1.117   6.244   4.204
 9748SOL    HW230144   1.096   6.225   4.043
 9749SOL     OW30145   0.645   3.348   4.742
 9749SOL    HW130146   0.635   3.286   4.664
 9749SOL    HW230147   0.569   3.414   4.742
 9750SOL     OW30148   4.822   5.160   3.579
 9750SOL    HW130149   4.733   5.196   3.606
 9750SOL    HW230150   4.817   5.126   3.485
 9751SOL     OW30151   1.841   2.255   0.799
 9751SOL    HW130152   1.769   2.225   0.736
 9751SOL    HW230153   1.838   2.355   0.808
 9752SOL     OW30154   4.286   0.681   5.461
 9752SOL    HW130155   4.208   0.720   5.412
 9752SOL    HW230156   4.297   0.585   5.435
 9753SOL     OW30157   6.658   5.846   5.508
 9753SOL    HW130158   6.621   5.802   5.426
 9753SOL    HW230159   6.599   5.922   5.534
 9754SOL     OW30160   1.689   1.814   0.062
 9754SOL    HW130161   1.753   1.785   0.133
 9754SOL    HW230162   1.712   1.906   0.032
 9755SOL     OW30163   4.031   3.830   5.045
 9755SOL    HW130164   4.037   3.891   5.125
 9755SOL    HW230165   4.021   3.885   4.962
 9756SOL     OW30166   5.775   3.035   6.389
 9756SOL    HW130167   5.690   3.083   6.410
 9756SOL    HW230168   5.851   3.076   6.439
 9757SOL     OW30169   5.533   2.793   4.029
 9757SOL    HW130170   5.572   2.742   4.105
 9757SOL    HW230171   5.603   2.811   3.960
 9758SOL     OW30172   2.964   0.773   6.946
 9758SOL    HW130173   2.882   0.818   6.911
 9758SOL    HW230174   2.938   0.704   7.013
 9759SOL     OW30175   3.091   6.715   1.118
 9759SOL    HW130176   3.167   6.652   1.103
 9759SOL    HW230177   3.029   6.713   1.040
 9760SOL     OW30178   5.851   4.384   6.132
 9760SOL    HW130179   5.773   4.443   6.113
 9760SOL    HW230180   5.876   4.392   6.228
 9761SOL     OW30181   5.099   5.428   1.665
 9761SOL    HW130182   5.013   5.465   1.629
 9761SOL    HW230183   5.089   5.330   1.680
 9762SOL     OW30184   2.780   2.320   5.018
 9762SOL    HW130185   2.809   2.352   5.109
 9762SOL    HW230186   2.686   2.349   5.001
 9763SOL     OW30187   3.157   1.873   1.831
 9763SOL    HW130188   3.240   1.899   1.881
 9763SOL    HW230189   3.099   1.816   1.888
 9764SOL     OW30190   1.076   1.776   3.095
 9764SOL    HW130191   1.036   1.863   3.068
 9764SOL    HW230192   1.055   1.758   3.192
 9765SOL     OW30193   0.282   2.262   6.004
 9765SOL    HW130194   0.368   2.231   6.046
 9765SOL    HW230195   0.283   2.240   5.907
 9766SOL     OW30196   2.612   0.256   3.469
 9766SOL    HW130197   2.611   0.355   3.453
 9766SOL    HW230198   2.695   0.216   3.429
 9767SOL     OW30199   5.212   0.525   5.529
 9767SOL    HW130200   5.168   0.601   5.578
 9767SOL    HW230201   5.194   0.534   5.431
 9768SOL     OW30202   4.555   2.134   2.446
 9768SOL    HW130203   4.543   2.156   2.543
 9768SOL    HW230204   4.612   2.204   2.403
 9769SOL     OW30205   1.540   2.242   0.737
 9769SOL    HW130206   1.537   2.161   0.797
 9769SOL    HW230207   1.506   2.216   0.646
 9770SOL     OW30208   5.585   4.775   5.668
 9770SOL    HW130209   5.613   4.808   5.758
 9770SOL    HW230210   5.645   4.700   5.639
 9771SOL     OW30211   3.935   5.594   5.765
 9771SOL    HW130212   3.868   5.626   5.832
 9771SOL    HW230213   3.945   5.663   5.693
 9772SOL     OW30214   6.874   0.418   2.075
 9772SOL    HW130215   6.804   0.371   2.129
 9772SOL    HW230216   6.880   0.513   2.104
 9773SOL     OW30217   6.294   5.508   3.642
 9773SOL    HW130218   6.365   5.578   3.650
 9773SOL    HW230219   6.288   5.478   3.547
 9774SOL     OW30220   6.487   4.755   3.746
 9774SOL    HW130221   6.467   4.851   3.729
 9774SOL    HW230222   6.547   4.746   3.826
 9775SOL     OW30223   1.876   2.483   4.730
 9775SOL    HW130224   1.802   2.550   4.728
 9775SOL    HW230225   1.840   2.393   4.706
 9776SOL     OW30226   0.014   5.809   4.313
 9776SOL    HW130227   0.039   5.889   4.258
 9776SOL    HW230228   6.937   5.801   4.317
 9777SOL     OW30229   5.265   4.268   6.116
 9777SOL    HW130230   5.180   4.268   6.167
 9777SOL    HW230231   5.285   4.176   6.084
 9778SOL     OW30232   5.527   6.400   2.646
 9778SOL    HW130233   5.552   6.494   2.624
 9778SOL    HW230234   5.477   6.360   2.569
 9779SOL     OW30235   3.009   1.599   5.478
 9779SOL    HW130236   2.988   1.645   5.565
 9779SOL    HW230237   2.935   1.615   5.413
 9780SOL     OW30238   2.541   4.016   0.471
 9780SOL    HW130239   2.603   4.091   0.449
 9780SOL    HW230240   2.578   3.963   0.547
 9781SOL     OW30241   2.474   4.941   5.170
 9781SOL    HW130242   2.400   5.008   5.178
 9781SOL    HW230243   2.472   4.900   5.079
 9782SOL     OW30244   6.372   0.383   1.503
 9782SOL    HW130245   6.364   0.480   1.526
 9782SOL    HW230246   6.309   0.330   1.560
 9783SOL     OW30247   5.608   1.540   1.873
 9783SOL    HW130248   5.593   1.637   1.852
 9783SOL    HW230249   5.706   1.523   1.883
 9784SOL     OW30250   4.557   1.167   3.134
 9784SOL    HW130251   4.474   1.157   3.188
 9784SOL    HW230252   4.540   1.137   3.040
 9785SOL     OW30253   0.471   2.561   2.192
 9785SOL    HW130254   0.508   2.641   2.240
 9785SOL    HW230255   0.472   2.578   2.094
 9786SOL     OW30256   2.619   5.889   5.426
 9786SOL    HW130257   2.631   5.955   5.352
 9786SOL    HW230258   2.663   5.803   5.402
 9787SOL     OW30259   4.834   4.178   1.906
 9787SOL    HW130260   4.932   4.196   1.895
 9787SOL    HW230261   4.783   4.264   1.897
 9788SOL     OW30262   6.264   0.797   5.220
 9788SOL    HW130263   6.354   0.800   5.177
 9788SOL    HW230264   6.228   0.890   5.229
 9789SOL     OW30265   2.419   5.565   5.213
 9789SOL    HW130266   2.397   5.660   5.233
 9789SOL    HW230267   2.363   5.505   5.271
 9790SOL     OW30268   5.601   1.997   4.235
 9790SOL    HW130269   5.544   2.002   4.317
 9790SOL    HW230270   5.591   2.081   4.182
 9791SOL     OW30271   0.784   1.772   2.076
 9791SOL    HW130272   0.761   1.868   2.059
 9791SOL    HW230273   0.705   1.715   2.051
 9792SOL     OW30274   4.424   4.524   1.184
 9792SOL    HW130275   4.382   4.462   1.249
 9792SOL    HW230276   4.391   4.617   1.200
 9793SOL     OW30277   5.601   5.696   2.085
 9793SOL    HW130278   5.628   5.687   2.181
 9793SOL    HW230279   5.590   5.793   2.063
 9794SOL     OW30280   4.720   2.689   6.550
 9794SOL    HW130281   4.636   2.740   6.564
 9794SOL    HW230282   4.736   2.677   6.452
 9795SOL     OW30283   1.771   3.403   4.015
 9795SOL    HW130284   1.736   3.492   4.044
 9795SOL    HW230285   1.747   3.334   4.084
 9796SOL     OW30286   2.814   5.005   6.995
 9796SOL    HW130287   2.834   5.047   0.061
 9796SOL    HW230288   2.726   5.040   6.962
 9797SOL     OW30289   4.738   3.242   6.057
 9797SOL    HW130290   4.692   3.245   6.146
 9797SOL    HW230291   4.671   3.221   5.986
 9798SOL     OW30292   2.562   1.352   0.948
 9798SOL    HW130293   2.543   1.324   1.042
 9798SOL    HW230294   2.522   1.442   0.931
 9799SOL     OW30295   2.986   3.172   2.620
 9799SOL    HW130296   2.965   3.161   2.523
 9799SOL    HW230297   3.082   3.153   2.636
 9800SOL     OW30298   4.270   5.165   6.324
 9800SOL    HW130299   4.255   5.122   6.413
 9800SOL    HW230300   4.315   5.254   6.337
 9801SOL     OW30301   3.813   5.823   6.459
 9801SOL    HW130302   3.846   5.760   6.530
 9801SOL    HW230303   3.867   5.907   6.462
 9802SOL     OW30304   6.733   3.528   0.753
 9802SOL    HW130305   6.747   3.626   0.766
 9802SOL    HW230306   6.636   3.507   0.761
 9803SOL     OW30307   5.993   0.674   0.140
 9803SOL    HW130308   6.061   0.704   0.072
 9803SOL    HW230309   5.963   0.753   0.194
 9804SOL     OW30310   6.154   5.800   4.220
 9804SOL    HW130311   6.145   5.731   4.148
 9804SOL    HW230312   6.097   5.774   4.298
 9805SOL     OW30313   1.825   5.479   0.214
 9805SOL    HW130314   1.839   5.497   0.117
 9805SOL    HW230315   1.897   5.419   0.249
 9806SOL     OW30316   0.287   2.149   2.795
 9806SOL    HW130317   0.295   2.249   2.802
 9806SOL    HW230318   0.311   2.120   2.703
 9807SOL     OW30319   3.967   2.235   0.584
 9807SOL    HW130320   3.999   2.199   0.496
 9807SOL    HW230321   3.943   2.159   0.644
 9808SOL     OW30322   0.492   1.437   4.873
 9808SOL    HW130323   0.402   1.479   4.887
 9808SOL    HW230324   0.480   1.341   4.848
 9809SOL     OW30325   0.666   0.943   4.720
 9809SOL    HW130326   0.572   0.956   4.689
 9809SOL    HW230327   0.728   0.949   4.641
 9810SOL     OW30328   3.483   0.736   3.195
 9810SOL    HW130329   3.564   0.682   3.170
 9810SOL    HW230330   3.437   0.768   3.113
 9811SOL     OW30331   0.320   6.950   2.604
 9811SOL    HW130332   0.307   6.858   2.566
 9811SOL    HW230333   0.414   6.980   2.587
 9812SOL     OW30334   5.056   2.552   6.270
 9812SOL    HW130335   5.044   2.460   6.307
 9812SOL    HW230336   5.121   2.602   6.326
 9813SOL     OW30337   6.519   4.473   0.303
 9813SOL    HW130338   6.607   4.446   0.343
 9813SOL    HW230339   6.533   4.548   0.239
 9814SOL     OW30340   6.956   6.919   5.667
 9814SOL    HW130341   0.027   6.908   5.702
 9814SOL    HW230342   6.892   6.877   5.731
 9815SOL     OW30343   5.721   3.369   1.963
 9815SOL    HW130344   5.729   3.408   1.871
 9815SOL    HW230345   5.806   3.322   1.986
 9816SOL     OW30346   6.922   6.764   0.078
 9816SOL    HW130347   6.944   6.830   0.150
 9816SOL    HW230348   7.004   6.711   0.055
 9817SOL     OW30349   2.826   6.302   0.012
 9817SOL    HW130350   2.787   6.362   6.965
 9817SOL    HW230351   2.826   6.208   7.001
 9818SOL     OW30352   0.959   6.680   3.910
 9818SOL    HW130353   0.966   6.779   3.908
 9818SOL    HW230354   1.013   6.643   3.985
 9819SOL     OW30355   6.770   3.557   5.052
 9819SOL    HW130356   6.717   3.477   5.026
 9819SOL    HW230357   6.725   3.605   5.127
 9820SOL     OW30358   3.775   1.974   5.951
 9820SOL    HW130359   3.795   2.072   5.955
 9820SOL    HW230360   3.744   1.943   6.041
 9821SOL     OW30361   4.691   2.633   1.860
 9821SOL    HW130362   4.722   2.676   1.775
 9821SOL    HW230363   4.628   2.558   1.839
 9822SOL     OW30364   3.291   6.296   5.415
 9822SOL    HW130365   3.257   6.217   5.365
 9822SOL    HW230366   3.214   6.352   5.446
 9823SOL     OW30367   1.862   0.478   3.368
 9823SOL    HW130368   1.905   0.535   3.438
 9823SOL    HW230369   1.892   0.383   3.380
 9824SOL     OW30370   0.613   5.869   5.219
 9824SOL    HW130371   0.674   5.912   5.285
 9824SOL    HW230372   0.543   5.935   5.191
 9825SOL     OW30373   5.140   6.102   6.051
 9825SOL    HW130374   5.092   6.174   6.100
 9825SOL    HW230375   5.151   6.023   6.111
 9826SOL     OW30376   2.005   6.559   5.873
 9826SOL    HW130377   2.076   6.501   5.834
 9826SOL    HW230378   1.929   6.567   5.808
 9827SOL     OW30379   1.458   5.705   1.848
 9827SOL    HW130380   1.523   5.667   1.782
 9827SOL    HW230381   1.487   5.796   1.876
 9828SOL     OW30382   3.932   2.167   4.781
 9828SOL    HW130383   4.009   2.229   4.795
 9828SOL    HW230384   3.946   2.113   4.698
 9829SOL     OW30385   4.509   5.416   5.184
 9829SOL    HW130386   4.537   5.506   5.151
 9829SOL    HW230387   4.565   5.346   5.142
 9830SOL     OW30388   5.921   2.490   2.521
 9830SOL    HW130389   5.824   2.495   2.544
 9830SOL    HW230390   5.967   2.428   2.584
 9831SOL     OW30391   0.374   4.062   2.341
 9831SOL    HW130392   0.390   4.018   2.253
 9831SOL    HW230393   0.278   4.049   2.368
 9832SOL     OW30394   4.429   4.642   4.692
 9832SOL    HW130395   4.409   4.613   4.785
 9832SOL    HW230396   4.405   4.739   4.681
 9833SOL     OW30397   3.211   4.017   3.875
 9833SOL    HW130398   3.202   3.939   3.937
 9833SOL    HW230399   3.280   4.079   3.910
 9834SOL     OW30400   2.028   6.062   5.646
 9834SOL    HW130401   1.934   6.061   5.614
 9834SOL    HW230402   2.030   6.090   5.743
 9835SOL     OW30403   3.404   4.174   4.050
 9835SOL    HW130404   3.497   4.151   4.080
 9835SOL    HW230405   3.389   4.272   4.060
 9836SOL     OW30406   0.090   3.479   5.439
 9836SOL    HW130407   0.064   3.521   5.351
 9836SOL    HW230408   0.189   3.470   5.443
 9837SOL     OW30409   5.331   2.041   3.139
 9837SOL    HW130410   5.345   1.942   3.132
 9837SOL    HW230411   5.251   2.060   3.196
 9838SOL     OW30412   1.345   0.368   1.471
 9838SOL    HW130413   1.292   0.325   1.544
 9838SOL    HW230414   1.338   0.315   1.387
 9839SOL     OW30415   4.491   0.494   3.025
 9839SOL    HW130416   4.485   0.495   2.925
 9839SOL    HW230417   4.402   0.469   3.064
 9840SOL     OW30418   6.152   0.746   6.971
 9840SOL    HW130419   6.249   0.724   6.980
 9840SOL    HW230420   6.135   0.784   6.880
 9841SOL     OW30421   0.394   6.256   3.468
 9841SOL    HW130422   0.330   6.279   3.542
 9841SOL    HW230423   0.485   6.290   3.492
 9842SOL     OW30424   2.639   1.994   6.636
 9842SOL    HW130425   2.650   2.010   6.538
 9842SOL    HW230426   2.728   2.004   6.682
 9843SOL     OW30427   0.904   0.438   1.248
 9843SOL    HW130428   0.820   0.489   1.228
 9843SOL    HW230429   0.906   0.414   1.345
 9844SOL     OW30430   5.240   6.688   4.187
 9844SOL    HW130431   5.223   6.739   4.270
 9844SOL    HW230432   5.200   6.596   4.195
 9845SOL     OW30433   1.802   3.879   1.780
 9845SOL    HW130434   1.782   3.876   1.682
 9845SOL    HW230435   1.736   3.937   1.827
 9846SOL     OW30436   5.358   2.380   0.996
 9846SOL    HW130437   5.409   2.294   1.000
 9846SOL    HW230438   5.303   2.382   0.913
 9847SOL     OW30439   3.918   3.720   0.003
 9847SOL    HW130440   3.951   3.673   6.944
 9847SOL    HW230441   3.844   3.668   0.045
 9848SOL     OW30442   3.272   3.764   5.439
 9848SOL    HW130443   3.316   3.817   5.366
 9848SOL    HW230444   3.202   3.819   5.483
 9849SOL     OW30445   0.816   1.797   4.601
 9849SOL    HW130446   0.883   1.789   4.528
 9849SOL    HW230447   0.746   1.863   4.575
 9850SOL     OW30448   0.995   0.294   4.617
 9850SOL    HW130449   1.062   0.232   4.658
 9850SOL    HW230450   0.972   0.261   4.526
 9851SOL     OW30451   3.600   4.929   4.157
 9851SOL    HW130452   3.620   4.856   4.090
 9851SOL    HW230453   3.682   4.949   4.209
 9852SOL     OW30454   2.029   0.955   0.277
 9852SOL    HW130455   2.026   0.955   0.377
 9852SOL    HW230456   2.060   1.045   0.246
 9853SOL     OW30457   6.689   4.628   3.512
 9853SOL    HW130458   6.647   4.698   3.569
 9853SOL    HW230459   6.657   4.538   3.541
 9854SOL     OW30460   0.737   4.735   5.913
 9854SOL    HW130461   0.662   4.791   5.946
 9854SOL    HW230462   0.808   4.794   5.874
 9855SOL     OW30463   1.387   4.840   1.581
 9855SOL    HW130464   1.463   4.779   1.603
 9855SOL    HW230465   1.326   4.794   1.517
 9856SOL     OW30466   5.550   4.127   3.337
 9856SOL    HW130467   5.573   4.030   3.347
 9856SOL    HW230468   5.458   4.143   3.374
 9857SOL     OW30469   3.599   0.826   4.692
 9857SOL    HW130470   3.663   0.881   4.746
 9857SOL    HW230471   3.530   0.886   4.651
 9858SOL     OW30472   6.209   6.685   2.654
 9858SOL    HW130473   6.280   6.626   2.692
 9858SOL    HW230474   6.121   6.636   2.654
 9859SOL     OW30475   6.996   5.976   3.422
 9859SOL    HW130476   0.048   5.965   3.357
 9859SOL    HW230477   6.938   6.052   3.393
 9860SOL     OW30478   1.250   2.915   4.114
 9860SOL    HW130479   1.339   2.914   4.159
 9860SOL    HW230480   1.260   2.949   4.020
 9861SOL     OW30481   3.678   1.610   3.732
 9861SOL    HW130482   3.610   1.656   3.789
 9861SOL    HW230483   3.700   1.521   3.773
 9862SOL     OW30484   1.173   4.911   0.659
 9862SOL    HW130485   1.139   4.858   0.737
 9862SOL    HW230486   1.269   4.887   0.641
 9863SOL     OW30487   3.485   5.757   0.735
 9863SOL    HW130488   3.570   5.747   0.785
 9863SOL    HW230489   3.408   5.741   0.796
 9864SOL     OW30490   3.026   5.543   5.671
 9864SOL    HW130491   2.934   5.511   5.646
 9864SOL    HW230492   3.093   5.505   5.607
 9865SOL     OW30493   0.206   6.054   5.442
 9865SOL    HW130494   0.153   5.970   5.439
 9865SOL    HW230495   0.161   6.124   5.386
 9866SOL     OW30496   6.312   4.475   5.015
 9866SOL    HW130497   6.216   4.485   5.041
 9866SOL    HW230498   6.353   4.566   5.006
 9867SOL     OW30499   4.327   2.078   1.499
 9867SOL    HW130500   4.348   2.151   1.564
 9867SOL    HW230501   4.272   2.008   1.545
 9868SOL     OW30502   2.118   3.798   3.725
 9868SOL    HW130503   2.179   3.845   3.661
 9868SOL    HW230504   2.090   3.710   3.685
 9869SOL     OW30505   6.449   2.885   0.799
 9869SOL    HW130506   6.363   2.878   0.849
 9869SOL    HW230507   6.512   2.943   0.850
 9870SOL     OW30508   2.978   1.059   2.793
 9870SOL    HW130509   3.077   1.064   2.789
 9870SOL    HW230510   2.945   0.982   2.739
 9871SOL     OW30511   6.741   4.696   4.678
 9871SOL    HW130512   6.699   4.657   4.596
 9871SOL    HW230513   6.692   4.666   4.759
 9872SOL     OW30514   1.170   4.977   5.828
 9872SOL    HW130515   1.188   4.901   5.766
 9872SOL    HW230516   1.073   5.003   5.821
 9873SOL     OW30517   1.003   1.765   6.032
 9873SOL    HW130518   1.059   1.823   6.092
 9873SOL    HW230519   0.966   1.820   5.958
 9874SOL     OW30520   0.698   2.508   4.682
 9874SOL    HW130521   0.692   2.575   4.756
 9874SOL    HW230522   0.653   2.545   4.600
 9875SOL     OW30523   6.415   5.314   0.736
 9875SOL    HW130524   6.361   5.397   0.748
 9875SOL    HW230525   6.400   5.253   0.814
 9876SOL     OW30526   1.658   6.459   4.058
 9876SOL    HW130527   1.689   6.548   4.090
 9876SOL    HW230528   1.686   6.445   3.963
 9877SOL     OW30529   0.503   5.027   4.802
 9877SOL    HW130530   0.553   4.948   4.837
 9877SOL    HW230531   0.481   5.088   4.878
 9878SOL     OW30532   2.053   2.388   0.081
 9878SOL    HW130533   2.134   2.348   0.038
 9878SOL    HW230534   2.062   2.487   0.083
 9879SOL     OW30535   6.886   5.285   6.449
 9879SOL    HW130536   6.864   5.190   6.430
 9879SOL    HW230537   6.861   5.342   6.370
 9880SOL     OW30538   2.980   1.191   6.954
 9880SOL    HW130539   3.074   1.163   6.969
 9880SOL    HW230540   2.943   1.145   6.873
 9881SOL     OW30541   5.978   0.597   4.195
 9881SOL    HW130542   5.883   0.589   4.164
 9881SOL    HW230543   5.980   0.629   4.289
 9882SOL     OW30544   3.459   2.942   5.011
 9882SOL    HW130545   3.428   2.867   5.070
 9882SOL    HW230546   3.406   3.025   5.030
 9883SOL     OW30547   2.167   6.955   1.710
 9883SOL    HW130548   2.145   0.004   1.776
 9883SOL    HW230549   2.265   6.936   1.713
 9884SOL     OW30550   2.330   3.491   5.594
 9884SOL    HW130551   2.389   3.483   5.514
 9884SOL    HW230552   2.329   3.586   5.625
 9885SOL     OW30553   5.641   2.951   4.712
 9885SOL    HW130554   5.648   2.851   4.719
 9885SOL    HW230555   5.573   2.984   4.777
 9886SOL     OW30556   4.313   5.657   1.220
 9886SOL    HW130557   4.354   5.659   1.311
 9886SOL    HW230558   4.366   5.716   1.159
 9887SOL     OW30559   3.219   0.088   6.590
 9887SOL    HW130560   3.134   0.140   6.588
 9887SOL    HW230561   3.256   0.086   6.683
 9888SOL     OW30562   6.321   6.501   3.302
 9888SOL    HW130563   6.407   6.458   3.273
 9888SOL    HW230564   6.305   6.482   3.399
 9889SOL     OW30565   0.060   5.496   3.373
 9889SOL    HW130566   0.149   5.499   3.419
 9889SOL    HW230567   0.072   5.509   3.275
 9890SOL     OW30568   0.461   3.906   2.116
 9890SOL    HW130569   0.439   3.809   2.116
 9890SOL    HW230570   0.388   3.957   2.071
 9891SOL     OW30571   5.699   5.324   0.609
 9891SOL    HW130572   5.663   5.392   0.672
 9891SOL    HW230573   5.793   5.346   0.586
 9892SOL     OW30574   1.969   4.627   3.973
 9892SOL    HW130575   1.974   4.623   4.072
 9892SOL    HW230576   2.060   4.616   3.934
 9893SOL     OW30577   5.480   5.257   3.672
 9893SOL    HW130578   5.482   5.223   3.765
 9893SOL    HW230579   5.568   5.300   3.650
 9894SOL     OW30580   3.944   2.932   6.051
 9894SOL    HW130581   4.038   2.962   6.063
 9894SOL    HW230582   3.885   3.012   6.039
 9895SOL     OW30583   5.359   2.078   6.904
 9895SOL    HW130584   5.347   2.151   6.837
 9895SOL    HW230585   5.430   2.015   6.873
 9896SOL     OW30586   3.939   4.257   0.822
 9896SOL    HW130587   4.002   4.181   0.805
 9896SOL    HW230588   3.915   4.301   0.736
 9897SOL     OW30589   6.705   1.824   3.831
 9897SOL    HW130590   6.621   1.783   3.797
 9897SOL    HW230591   6.710   1.812   3.930
 9898SOL     OW30592   1.373   5.084   5.333
 9898SOL    HW130593   1.374   5.162   5.270
 9898SOL    HW230594   1.293   5.090   5.392
 9899SOL     OW30595   5.773   5.011   1.791
 9899SOL    HW130596   5.783   5.020   1.692
 9899SOL    HW230597   5.683   4.975   1.813
 9900SOL     OW30598   1.178   3.584   3.524
 9900SOL    HW130599   1.271   3.616   3.547
 9900SOL    HW230600   1.113   3.625   3.587
 9901SOL     OW30601   3.242   2.060   5.154
 9901SOL    HW130602   3.252   2.126   5.079
 9901SOL    HW230603   3.150   2.067   5.192
 9902SOL     OW30604   4.343   3.918   7.016
 9902SOL    HW130605   4.390   3.896   0.078
 9902SOL    HW230606   4.411   3.935   6.944
 9903SOL     OW30607   4.019   1.593   1.585
 9903SOL    HW130608   4.068   1.569   1.669
 9903SOL    HW230609   3.963   1.516   1.556
 9904SOL     OW30610   6.626   0.286   2.127
 9904SOL    HW130611   6.662   0.287   2.034
 9904SOL    HW230612   6.603   0.192   2.153
 9905SOL     OW30613   1.197   6.614   5.280
 9905SOL    HW130614   1.252   6.584   5.358
 9905SOL    HW230615   1.154   6.702   5.301
 9906SOL     OW30616   3.058   2.844   5.975
 9906SOL    HW130617   3.139   2.870   6.029
 9906SOL    HW230618   2.984   2.817   6.037
 9907SOL     OW30619   2.292   6.698   2.974
 9907SOL    HW130620   2.336   6.635   3.039
 9907SOL    HW230621   2.362   6.757   2.933
 9908SOL     OW30622   1.300   3.581   5.635
 9908SOL    HW130623   1.305   3.586   5.735
 9908SOL    HW230624   1.370   3.518   5.601
 9909SOL     OW30625   3.981   6.746   2.693
 9909SOL    HW130626   3.892   6.732   2.649
 9909SOL    HW230627   3.972   6.732   2.791
 9910SOL     OW30628   0.207   3.902   1.330
 9910SOL    HW130629   0.195   3.996   1.362
 9910SOL    HW230630   0.119   3.855   1.333
 9911SOL     OW30631   2.832   4.782   3.273
 9911SOL    HW130632   2.879   4.795   3.361
 9911SOL    HW230633   2.898   4.751   3.204
 9912SOL     OW30634   4.947   0.011   1.294
 9912SOL    HW130635   4.901   0.077   1.234
 9912SOL    HW230636   4.878   6.974   1.336
 9913SOL     OW30637   4.591   1.841   2.388
 9913SOL    HW130638   4.510   1.896   2.412
 9913SOL    HW230639   4.652   1.837   2.466
 9914SOL     OW30640   1.449   6.796   5.197
 9914SOL    HW130641   1.355   6.832   5.201
 9914SOL    HW230642   1.483   6.783   5.290
 9915SOL     OW30643   5.385   3.777   4.486
 9915SOL    HW130644   5.383   3.801   4.583
 9915SOL    HW230645   5.332   3.845   4.434
 9916SOL     OW30646   2.238   3.094   1.578
 9916SOL    HW130647   2.193   3.014   1.617
 9916SOL    HW230648   2.246   3.165   1.648
 9917SOL     OW30649   2.073   3.530   5.994
 9917SOL    HW130650   2.049   3.439   5.961
 9917SOL    HW230651   1.990   3.587   5.997
 9918SOL     OW30652   1.471   1.420   5.045
 9918SOL    HW130653   1.451   1.349   5.113
 9918SOL    HW230654   1.440   1.509   5.079
 9919SOL     OW30655   0.483   5.211   2.881
 9919SOL    HW130656   0.531   5.185   2.798
 9919SOL    HW230657   0.443   5.302   2.870
 9920SOL     OW30658   4.465   6.806   1.355
 9920SOL    HW130659   4.442   6.799   1.452
 9920SOL    HW230660   4.467   6.715   1.314
 9921SOL     OW30661   5.317   0.044   2.739
 9921SOL    HW130662   5.407   0.021   2.701
 9921SOL    HW230663   5.302   0.143   2.728
 9922SOL     OW30664   4.445   2.964   1.335
 9922SOL    HW130665   4.398   3.038   1.383
 9922SOL    HW230666   4.478   2.897   1.402
 9923SOL     OW30667   6.375   2.144   6.652
 9923SOL    HW130668   6.473   2.160   6.636
 9923SOL    HW230669   6.341   2.079   6.584
 9924SOL     OW30670   6.089   0.796   3.119
 9924SOL    HW130671   6.049   0.711   3.152
 9924SOL    HW230672   6.161   0.826   3.183
 9925SOL     OW30673   2.272   2.607   4.805
 9925SOL    HW130674   2.312   2.651   4.885
 9925SOL    HW230675   2.300   2.656   4.722
 9926SOL     OW30676   1.480   1.365   0.438
 9926SOL    HW130677   1.496   1.432   0.366
 9926SOL    HW230678   1.557   1.363   0.501
 9927SOL     OW30679   0.839   2.558   2.725
 9927SOL    HW130680   0.879   2.496   2.658
 9927SOL    HW230681   0.904   2.631   2.746
 9928SOL     OW30682   0.157   3.269   2.726
 9928SOL    HW130683   0.120   3.177   2.717
 9928SOL    HW230684   0.234   3.269   2.790
 9929SOL     OW30685   2.108   4.348   6.785
 9929SOL    HW130686   2.153   4.280   6.843
 9929SOL    HW230687   2.019   4.371   6.823
 9930SOL     OW30688   0.178   6.300   0.042
 9930SOL    HW130689   0.090   6.345   0.026
 9930SOL    HW230690   0.232   6.304   6.980
 9931SOL     OW30691   2.320   5.843   6.109
 9931SOL    HW130692   2.221   5.837   6.119
 9931SOL    HW230693   2.351   5.774   6.044
 9932SOL     OW30694   1.778   2.140   0.510
 9932SOL    HW130695   1.872   2.150   0.478
 9932SOL    HW230696   1.733   2.230   0.509
 9933SOL     OW30697   1.088   1.973   3.656
 9933SOL    HW130698   1.040   1.911   3.718
 9933SOL    HW230699   1.091   2.064   3.696
 9934SOL     OW30700   3.620   1.062   5.901
 9934SOL    HW130701   3.551   1.106   5.843
 9934SOL    HW230702   3.592   0.968   5.921
 9935SOL     OW30703   2.429   2.000   0.828
 9935SOL    HW130704   2.392   2.013   0.920
 9935SOL    HW230705   2.373   1.932   0.780
 9936SOL     OW30706   6.204   6.288   5.533
 9936SOL    HW130707   6.193   6.292   5.632
 9936SOL    HW230708   6.115   6.274   5.490
 9937SOL     OW30709   0.275   0.087   3.778
 9937SOL    HW130710   0.336   0.155   3.737
 9937SOL    HW230711   0.248   0.020   3.708
 9938SOL     OW30712   6.950   1.647   3.769
 9938SOL    HW130713   6.910   1.556   3.779
 9938SOL    HW230714   6.876   1.715   3.764
 9939SOL     OW30715   3.185   4.522   1.380
 9939SOL    HW130716   3.213   4.521   1.284
 9939SOL    HW230717   3.112   4.455   1.394
 9940SOL     OW30718   0.393   0.885   3.328
 9940SOL    HW130719   0.456   0.958   3.356
 9940SOL    HW230720   0.442   0.816   3.276
 9941SOL     OW30721   4.888   4.760   6.709
 9941SOL    HW130722   4.841   4.705   6.778
 9941SOL    HW230723   4.986   4.741   6.713
 9942SOL     OW30724   4.732   5.047   2.771
 9942SOL    HW130725   4.770   5.050   2.863
 9942SOL    HW230726   4.687   4.959   2.756
 9943SOL     OW30727   2.374   4.233   6.247
 9943SOL    HW130728   2.393   4.137   6.268
 9943SOL    HW230729   2.288   4.240   6.196
 9944SOL     OW30730   0.399   5.100   6.283
 9944SOL    HW130731   0.319   5.114   6.342
 9944SOL    HW230732   0.480   5.090   6.341
 9945SOL     OW30733   6.188   3.171   6.361
 9945SOL    HW130734   6.178   3.202   6.455
 9945SOL    HW230735   6.276   3.125   6.350
 9946SOL     OW30736   5.428   1.639   1.487
 9946SOL    HW130737   5.463   1.732   1.492
 9946SOL    HW230738   5.342   1.638   1.436
 9947SOL     OW30739   1.227   1.712   3.879
 9947SOL    HW130740   1.198   1.807   3.894
 9947SOL    HW230741   1.158   1.666   3.823
 9948SOL     OW30742   6.202   0.231   4.585
 9948SOL    HW130743   6.163   0.209   4.496
 9948SOL    HW230744   6.146   0.189   4.657
 9949SOL     OW30745   6.150   4.750   3.994
 9949SOL    HW130746   6.171   4.776   3.900
 9949SOL    HW230747   6.232   4.758   4.050
 9950SOL     OW30748   5.710   3.962   5.574
 9950SOL    HW130749   5.741   3.895   5.506
 9950SOL    HW230750   5.764   4.046   5.564
 9951SOL     OW30751   0.385   2.008   3.467
 9951SOL    HW130752   0.288   2.021   3.448
 9951SOL    HW230753   0.429   1.963   3.389
 9952SOL     OW30754   0.512   4.926   1.925
 9952SOL    HW130755   0.543   4.995   1.990
 9952SOL    HW230756   0.590   4.895   1.870
 9953SOL     OW30757   6.037   2.472   3.796
 9953SOL    HW130758   6.085   2.399   3.749
 9953SOL    HW230759   6.069   2.560   3.763
 9954SOL     OW30760   3.569   1.504   5.961
 9954SOL    HW130761   3.552   1.599   5.986
 9954SOL    HW230762   3.527   1.443   6.028
 9955SOL     OW30763   5.746   4.094   1.176
 9955SOL    HW130764   5.751   4.187   1.140
 9955SOL    HW230765   5.819   4.081   1.244
 9956SOL     OW30766   2.236   3.020   3.208
 9956SOL    HW130767   2.176   2.946   3.238
 9956SOL    HW230768   2.238   3.092   3.278
 9957SOL     OW30769   5.086   0.166   0.753
 9957SOL    HW130770   5.023   0.108   0.805
 9957SOL    HW230771   5.123   0.114   0.676
 9958SOL     OW30772   5.072   6.029   0.261
 9958SOL    HW130773   5.075   5.940   0.217
 9958SOL    HW230774   5.054   6.100   0.192
 9959SOL     OW30775   5.041   4.335   0.603
 9959SOL    HW130776   5.017   4.278   0.681
 9959SOL    HW230777   5.098   4.411   0.633
 9960SOL     OW30778   0.316   0.591   0.015
 9960SOL    HW130779   0.358   0.504   7.013
 9960SOL    HW230780   0.254   0.620   6.964
 9961SOL     OW30781   2.732   5.073   1.369
 9961SOL    HW130782   2.652   5.069   1.309
 9961SOL    HW230783   2.767   4.981   1.384
 9962SOL     OW30784   3.268   0.179   1.537
 9962SOL    HW130785   3.230   0.091   1.566
 9962SOL    HW230786   3.366   0.170   1.525
 9963SOL     OW30787   0.674   1.093   6.346
 9963SOL    HW130788   0.613   1.040   6.287
 9963SOL    HW230789   0.748   1.132   6.291
 9964SOL     OW30790   4.408   4.269   5.907
 9964SOL    HW130791   4.475   4.314   5.847
 9964SOL    HW230792   4.352   4.206   5.853
 9965SOL     OW30793   2.594   5.651   4.221
 9965SOL    HW130794   2.618   5.680   4.129
 9965SOL    HW230795   2.677   5.623   4.270
 9966SOL     OW30796   3.819   4.864   2.523
 9966SOL    HW130797   3.738   4.865   2.582
 9966SOL    HW230798   3.791   4.852   2.428
 9967SOL     OW30799   0.220   0.476   2.626
 9967SOL    HW130800   0.173   0.554   2.666
 9967SOL    HW230801   0.197   0.393   2.676
 9968SOL     OW30802   3.410   6.732   0.207
 9968SOL    HW130803   3.478   6.661   0.189
 9968SOL    HW230804   3.353   6.705   0.285
 9969SOL     OW30805   1.756   5.446   3.593
 9969SOL    HW130806   1.831   5.445   3.659
 9969SOL    HW230807   1.693   5.371   3.612
 9970SOL     OW30808   6.400   3.440   1.348
 9970SOL    HW130809   6.325   3.399   1.400
 9970SOL    HW230810   6.372   3.451   1.253
 9971SOL     OW30811   0.628   4.712   3.059
 9971SOL    HW130812   0.658   4.772   3.133
 9971SOL    HW230813   0.676   4.736   2.975
 9972SOL     OW30814   3.047   3.385   6.744
 9972SOL    HW130815   2.958   3.372   6.701
 9972SOL    HW230816   3.119   3.369   6.677
 9973SOL     OW30817   2.961   1.958   3.426
 9973SOL    HW130818   2.892   2.022   3.458
 9973SOL    HW230819   2.964   1.958   3.326
 9974SOL     OW30820   1.301   3.149   2.606
 9974SOL    HW130821   1.292   3.154   2.507
 9974SOL    HW230822   1.307   3.054   2.634
 9975SOL     OW30823   1.885   5.199   6.955
 9975SOL    HW130824   1.903   5.296   6.974
 9975SOL    HW230825   1.971   5.149   6.955
 9976SOL     OW30826   2.986   4.128   6.754
 9976SOL    HW130827   3.072   4.127   6.805
 9976SOL    HW230828   2.909   4.137   6.817
 9977SOL     OW30829   5.318   6.332   5.647
 9977SOL    HW130830   5.258   6.377   5.581
 9977SOL    HW230831   5.385   6.275   5.598
 9978SOL     OW30832   0.784   3.430   6.493
 9978SOL    HW130833   0.781   3.355   6.427
 9978SOL    HW230834   0.802   3.516   6.445
 9979SOL     OW30835   4.093   3.248   5.119
 9979SOL    HW130836   4.160   3.176   5.139
 9979SOL    HW230837   4.138   3.323   5.070
 9980SOL     OW30838   2.160   1.511   0.890
 9980SOL    HW130839   2.165   1.581   0.961
 9980SOL    HW230840   2.118   1.428   0.928
 9981SOL     OW30841   6.888   2.813   1.584
 9981SOL    HW130842   6.796   2.774   1.579
 9981SOL    HW230843   6.913   2.850   1.494
 9982SOL     OW30844   2.170   2.037   5.143
 9982SOL    HW130845   2.146   2.133   5.156
 9982SOL    HW230846   2.220   2.026   5.056
 9983SOL     OW30847   0.942   2.594   2.284
 9983SOL    HW130848   0.961   2.638   2.373
 9983SOL    HW230849   0.953   2.661   2.211
 9984SOL     OW30850   6.865   6.020   1.083
 9984SOL    HW130851   6.918   6.063   1.156
 9984SOL    HW230852   6.872   6.074   1.000
 9985SOL     OW30853   3.826   5.105   0.274
 9985SOL    HW130854   3.732   5.120   0.305
 9985SOL    HW230855   3.826   5.044   0.195
 9986SOL     OW30856   5.197   4.965   7.016
 9986SOL    HW130857   5.264   4.918   0.050
 9986SOL    HW230858   5.243   5.032   6.958
 9987SOL     OW30859   5.160   2.976   1.243
 9987SOL    HW130860   5.247   2.940   1.208
 9987SOL    HW230861   5.125   2.916   1.314
 9988SOL     OW30862   5.393   6.403   4.538
 9988SOL    HW130863   5.438   6.447   4.615
 9988SOL    HW230864   5.294   6.415   4.547
 9989SOL     OW30865   6.545   5.175   2.615
 9989SOL    HW130866   6.480   5.165   2.540
 9989SOL    HW230867   6.518   5.251   2.674
 9990SOL     OW30868   0.686   6.437   3.985
 9990SOL    HW130869   0.716   6.508   4.049
 9990SOL    HW230870   0.692   6.471   3.891
 9991SOL     OW30871   1.509   4.584   3.436
 9991SOL    HW130872   1.527   4.509   3.373
 9991SOL    HW230873   1.591   4.604   3.490
 9992SOL     OW30874   3.537   4.914   1.086
 9992SOL    HW130875   3.506   4.929   1.180
 9992SOL    HW230876   3.623   4.964   1.071
 9993SOL     OW30877   3.765   6.664   4.164
 9993SOL    HW130878   3.796   6.580   4.120
 9993SOL    HW230879   3.832   6.693   4.233
 9994SOL     OW30880   6.574   4.604   4.484
 9994SOL    HW130881   6.492   4.661   4.493
 9994SOL    HW230882   6.552   4.526   4.425
 9995SOL     OW30883   3.069   0.727   4.833
 9995SOL    HW130884   3.153   0.675   4.818
 9995SOL    HW230885   3.008   0.675   4.893
 9996SOL     OW30886   2.383   3.572   1.039
 9996SOL    HW130887   2.472   3.538   1.011
 9996SOL    HW230888   2.313   3.541   0.974
 9997SOL     OW30889   6.076   2.816   3.706
 9997SOL    HW130890   6.168   2.783   3.684
 9997SOL    HW230891   6.083   2.889   3.775
 9998SOL     OW30892   5.209   4.588   2.803
 9998SOL    HW130893   5.242   4.676   2.837
 9998SOL    HW230894   5.121   4.601   2.759
 9999SOL     OW30895   1.122   6.203   3.882
 9999SOL    HW130896   1.188   6.258   3.831
 9999SOL    HW230897   1.105   6.118   3.833
10000SOL     OW30898   5.670   2.122   1.519
10000SOL    HW130899   5.613   2.202   1.500
10000SOL    HW230900   5.701   2.125   1.614
10001SOL     OW30901   4.160   6.224   1.983
10001SOL    HW130902   4.156   6.324   1.983
10001SOL    HW230903   4.180   6.190   2.075
10002SOL     OW30904   2.900   0.779   1.945
10002SOL    HW130905   2.948   0.845   1.887
10002SOL    HW230906   2.908   0.688   1.905
10003SOL     OW30907   1.606   0.702   3.821
10003SOL    HW130908   1.635   0.764   3.894
10003SOL    HW230909   1.525   0.739   3.775
10004SOL     OW30910   6.303   4.210   5.086
10004SOL    HW130911   6.225   4.160   5.050
10004SOL    HW230912   6.286   4.309   5.079
10005SOL     OW30913   2.018   5.437   3.145
10005SOL    HW130914   2.101   5.464   3.097
10005SOL    HW230915   2.016   5.480   3.235
10006SOL     OW30916   5.576   0.559   5.404
10006SOL    HW130917   5.594   0.502   5.324
10006SOL    HW230918   5.550   0.501   5.481
10007SOL     OW30919   1.656   5.093   4.430
10007SOL    HW130920   1.620   5.012   4.383
10007SOL    HW230921   1.709   5.064   4.510
10008SOL     OW30922   4.111   1.581   6.298
10008SOL    HW130923   4.181   1.590   6.227
10008SOL    HW230924   4.054   1.663   6.299
10009SOL     OW30925   1.235   3.186   1.982
10009SOL    HW130926   1.265   3.093   1.961
10009SOL    HW230927   1.292   3.224   2.055
10010SOL     OW30928   2.329   4.453   0.088
10010SOL    HW130929   2.232   4.476   0.101
10010SOL    HW230930   2.372   4.519   0.027
10011SOL     OW30931   1.241   3.485   0.486
10011SOL    HW130932   1.215   3.560   0.425
10011SOL    HW230933   1.336   3.498   0.515
10012SOL     OW30934   4.921   1.510   2.622
10012SOL    HW130935   4.949   1.597   2.581
10012SOL    HW230936   4.992   1.478   2.684
10013SOL     OW30937   0.779   6.157   4.497
10013SOL    HW130938   0.772   6.063   4.529
10013SOL    HW230939   0.731   6.218   4.560
10014SOL     OW30940   0.775   0.017   3.010
10014SOL    HW130941   0.718   6.971   2.965
10014SOL    HW230942   0.719   0.072   3.071
10015SOL     OW30943   4.174   4.528   5.741
10015SOL    HW130944   4.172   4.440   5.788
10015SOL    HW230945   4.082   4.552   5.711
10016SOL     OW30946   2.513   0.045   2.859
10016SOL    HW130947   2.538   0.077   2.950
10016SOL    HW230948   2.436   0.098   2.825
10017SOL     OW30949   2.879   1.689   3.058
10017SOL    HW130950   2.942   1.688   3.136
10017SOL    HW230951   2.873   1.597   3.019
10018SOL     OW30952   6.155   2.529   6.203
10018SOL    HW130953   6.180   2.500   6.296
10018SOL    HW230954   6.059   2.556   6.202
10019SOL     OW30955   0.628   1.750   2.488
10019SOL    HW130956   0.676   1.836   2.467
10019SOL    HW230957   0.693   1.674   2.487
10020SOL     OW30958   6.605   0.573   2.130
10020SOL    HW130959   6.609   0.474   2.139
10020SOL    HW230960   6.689   0.613   2.167
10021SOL     OW30961   1.219   4.182   2.018
10021SOL    HW130962   1.294   4.160   1.955
10021SOL    HW230963   1.165   4.258   1.981
10022SOL     OW30964   2.611   6.009   0.549
10022SOL    HW130965   2.608   6.007   0.449
10022SOL    HW230966   2.592   6.101   0.582
10023SOL     OW30967   1.746   6.871   5.776
10023SOL    HW130968   1.839   6.892   5.746
10023SOL    HW230969   1.704   6.953   5.816
10024SOL     OW30970   1.686   4.527   3.041
10024SOL    HW130971   1.620   4.531   2.967
10024SOL    HW230972   1.643   4.491   3.123
10025SOL     OW30973   1.199   4.480   1.415
10025SOL    HW130974   1.298   4.474   1.425
10025SOL    HW230975   1.164   4.556   1.470
10026SOL     OW30976   5.300   1.441   4.000
10026SOL    HW130977   5.389   1.478   4.026
10026SOL    HW230978   5.245   1.513   3.958
10027SOL     OW30979   2.045   1.757   5.646
10027SOL    HW130980   2.006   1.687   5.705
10027SOL    HW230981   1.974   1.822   5.619
10028SOL     OW30982   4.667   0.700   1.296
10028SOL    HW130983   4.582   0.698   1.349
10028SOL    HW230984   4.745   0.713   1.357
10029SOL     OW30985   0.145   3.289   4.850
10029SOL    HW130986   0.206   3.330   4.918
10029SOL    HW230987   0.062   3.257   4.896
10030SOL     OW30988   2.944   0.265   4.770
10030SOL    HW130989   2.859   0.219   4.745
10030SOL    HW230990   3.018   0.197   4.778
10031SOL     OW30991   3.163   4.852   4.055
10031SOL    HW130992   3.067   4.828   4.068
10031SOL    HW230993   3.205   4.872   4.144
10032SOL     OW30994   3.003   6.185   4.797
10032SOL    HW130995   3.036   6.222   4.711
10032SOL    HW230996   3.059   6.107   4.824
10033SOL     OW30997   4.086   1.820   2.707
10033SOL    HW130998   4.033   1.786   2.785
10033SOL    HW230999   4.024   1.855   2.637
10034SOL     OW31000   2.731   0.524   3.522
10034SOL    HW131001   2.734   0.587   3.600
10034SOL    HW231002   2.822   0.489   3.504
10035SOL     OW31003   6.049   2.897   1.637
10035SOL    HW131004   6.121   2.904   1.705
10035SOL    HW231005   6.005   2.986   1.624
10036SOL     OW31006   6.315   0.484   6.867
10036SOL    HW131007   6.223   0.452   6.846
10036SOL    HW231008   6.318   0.518   6.961
10037SOL     OW31009   6.188   6.844   6.760
10037SOL    HW131010   6.167   6.901   6.680
10037SOL    HW231011   6.107   6.839   6.819
10038SOL     OW31012   4.257   0.264   6.984
10038SOL    HW131013   4.255   0.168   7.014
10038SOL    HW231014   4.235   0.268   6.886
10039SOL     OW31015   5.987   5.132   3.657
10039SOL    HW131016   5.996   5.229   3.632
10039SOL    HW231017   5.897   5.099   3.630
10040SOL     OW31018   3.618   0.513   0.216
10040SOL    HW131019   3.522   0.538   0.210
10040SOL    HW231020   3.673   0.595   0.229
10041SOL     OW31021   6.652   4.829   5.333
10041SOL    HW131022   6.671   4.820   5.235
10041SOL    HW231023   6.729   4.793   5.385
10042SOL     OW31024   0.532   0.555   4.980
10042SOL    HW131025   0.486   0.644   4.981
10042SOL    HW231026   0.541   0.521   5.073
10043SOL     OW31027   1.579   1.309   2.734
10043SOL    HW131028   1.590   1.251   2.814
10043SOL    HW231029   1.518   1.264   2.668
10044SOL     OW31030   2.146   1.382   5.773
10044SOL    HW131031   2.207   1.428   5.837
10044SOL    HW231032   2.106   1.302   5.816
10045SOL     OW31033   4.469   6.297   4.797
10045SOL    HW131034   4.404   6.243   4.850
10045SOL    HW231035   4.441   6.297   4.701
10046SOL     OW31036   0.294   2.370   1.978
10046SOL    HW131037   0.308   2.464   2.010
10046SOL    HW231038   0.259   2.314   2.053
10047SOL     OW31039   6.500   1.789   4.836
10047SOL    HW131040   6.430   1.837   4.783
10047SOL    HW231041   6.585   1.787   4.783
10048SOL     OW31042   3.380   1.652   1.793
10048SOL    HW131043   3.318   1.636   1.717
10048SOL    HW231044   3.470   1.676   1.758
10049SOL     OW31045   2.224   0.796   6.562
10049SOL    HW131046   2.191   0.812   6.469
10049SOL    HW231047   2.162   0.734   6.609
10050SOL     OW31048   4.957   2.623   4.804
10050SOL    HW131049   4.978   2.668   4.717
10050SOL    HW231050   4.904   2.540   4.786
10051SOL     OW31051   5.890   2.868   4.594
10051SOL    HW131052   5.808   2.897   4.643
10051SOL    HW231053   5.931   2.947   4.548
10052SOL     OW31054   1.231   3.400   1.789
10052SOL    HW131055   1.219   3.340   1.868
10052SOL    HW231056   1.157   3.467   1.786
10053SOL     OW31057   3.166   4.863   3.593
10053SOL    HW131058   3.240   4.930   3.583
10053SOL    HW231059   3.157   4.811   3.508
10054SOL     OW31060   4.011   5.777   5.577
10054SOL    HW131061   3.930   5.830   5.553
10054SOL    HW231062   4.025   5.704   5.510
10055SOL     OW31063   6.410   2.499   5.141
10055SOL    HW131064   6.412   2.425   5.209
10055SOL    HW231065   6.449   2.465   5.055
10056SOL     OW31066   6.669   4.881   1.479
10056SOL    HW131067   6.700   4.842   1.392
10056SOL    HW231068   6.729   4.850   1.552
10057SOL     OW31069   4.116   1.814   4.544
10057SOL    HW131070   4.140   1.788   4.451
10057SOL    HW231071   4.140   1.910   4.559
10058SOL     OW31072   0.125   5.103   4.204
10058SOL    HW131073   0.088   5.193   4.183
10058SOL    HW231074   0.220   5.098   4.172
10059SOL     OW31075   5.283   0.535   1.061
10059SOL    HW131076   5.365   0.509   1.010
10059SOL    HW231077   5.221   0.457   1.065
10060SOL     OW31078   3.077   2.220   1.781
10060SOL    HW131079   3.037   2.304   1.817
10060SOL    HW231080   3.039   2.141   1.831
10061SOL     OW31081   6.121   1.326   4.265
10061SOL    HW131082   6.046   1.269   4.299
10061SOL    HW231083   6.119   1.415   4.310
10062SOL     OW31084   5.922   5.815   3.549
10062SOL    HW131085   5.961   5.742   3.606
10062SOL    HW231086   5.860   5.871   3.603
10063SOL     OW31087   1.417   3.603   3.877
10063SOL    HW131088   1.435   3.553   3.792
10063SOL    HW231089   1.345   3.556   3.928
10064SOL     OW31090   4.870   5.845   4.476
10064SOL    HW131091   4.813   5.869   4.397
10064SOL    HW231092   4.874   5.922   4.538
10065SOL     OW31093   1.176   6.572   2.421
10065SOL    HW131094   1.246   6.607   2.484
10065SOL    HW231095   1.109   6.519   2.472
10066SOL     OW31096   0.552   6.976   4.196
10066SOL    HW131097   0.589   0.046   4.203
10066SOL    HW231098   0.476   6.975   4.132
10067SOL     OW31099   4.906   4.612   4.302
10067SOL    HW131100   4.973   4.568   4.243
10067SOL    HW231101   4.822   4.628   4.251
10068SOL     OW31102   5.359   2.912   4.464
10068SOL    HW131103   5.451   2.927   4.429
10068SOL    HW231104   5.364   2.861   4.551
10069SOL     OW31105   3.091   0.882   3.669
10069SOL    HW131106   3.063   0.967   3.623
10069SOL    HW231107   3.041   0.873   3.755
10070SOL     OW31108   0.404   6.028   5.075
10070SOL    HW131109   0.358   6.105   5.119
10070SOL    HW231110   0.481   6.062   5.020
10071SOL     OW31111   4.893   5.562   4.240
10071SOL    HW131112   4.844   5.490   4.290
10071SOL    HW231113   4.947   5.616   4.304
10072SOL     OW31114   0.508   6.384   3.191
10072SOL    HW131115   0.413   6.386   3.221
10072SOL    HW231116   0.514   6.415   3.097
10073SOL     OW31117   6.387   4.793   5.280
10073SOL    HW131118   6.384   4.781   5.181
10073SOL    HW231119   6.482   4.801   5.310
10074SOL     OW31120   1.397   0.306   6.006
10074SOL    HW131121   1.473   0.337   6.063
10074SOL    HW231122   1.433   0.262   5.923
10075SOL     OW31123   1.403   2.175   3.450
10075SOL    HW131124   1.409   2.106   3.378
10075SOL    HW231125   1.491   2.182   3.497
10076SOL     OW31126   4.798   0.109   4.424
10076SOL    HW131127   4.777   0.056   4.341
10076SOL    HW231128   4.802   0.047   4.502
10077SOL     OW31129   3.985   2.432   6.545
10077SOL    HW131130   3.970   2.335   6.565
10077SOL    HW231131   4.039   2.440   6.461
10078SOL     OW31132   6.074   6.818   5.317
10078SOL    HW131133   6.133   6.738   5.321
10078SOL    HW231134   6.048   6.835   5.222
10079SOL     OW31135   1.111   3.055   1.432
10079SOL    HW131136   1.014   3.072   1.449
10079SOL    HW231137   1.167   3.110   1.494
10080SOL     OW31138   2.255   2.591   0.717
10080SOL    HW131139   2.305   2.661   0.768
10080SOL    HW231140   2.312   2.557   0.642
10081SOL     OW31141   0.543   0.479   6.337
10081SOL    HW131142   0.596   0.532   6.404
10081SOL    HW231143   0.464   0.533   6.307
10082SOL     OW31144   6.179   1.988   1.930
10082SOL    HW131145   6.211   1.893   1.930
10082SOL    HW231146   6.255   2.049   1.907
10083SOL     OW31147   4.297   0.254   3.938
10083SOL    HW131148   4.301   0.353   3.925
10083SOL    HW231149   4.214   0.231   3.989
10084SOL     OW31150   2.551   1.121   5.893
10084SOL    HW131151   2.478   1.141   5.827
10084SOL    HW231152   2.546   1.186   5.969
10085SOL     OW31153   0.780   5.037   2.854
10085SOL    HW131154   0.741   5.060   2.943
10085SOL    HW231155   0.733   5.090   2.783
10086SOL     OW31156   6.475   4.745   1.777
10086SOL    HW131157   6.443   4.717   1.687
10086SOL    HW231158   6.469   4.667   1.840
10087SOL     OW31159   1.282   0.899   4.327
10087SOL    HW131160   1.311   0.821   4.271
10087SOL    HW231161   1.189   0.884   4.360
10088SOL     OW31162   0.684   6.584   4.768
10088SOL    HW131163   0.697   6.619   4.860
10088SOL    HW231164   0.614   6.638   4.721
10089SOL     OW31165   2.568   1.410   2.786
10089SOL    HW131166   2.564   1.479   2.859
10089SOL    HW231167   2.521   1.445   2.705
10090SOL     OW31168   0.915   4.429   0.673
10090SOL    HW131169   1.015   4.442   0.677
10090SOL    HW231170   0.879   4.478   0.593
10091SOL     OW31171   0.745   3.387   4.388
10091SOL    HW131172   0.807   3.333   4.445
10091SOL    HW231173   0.681   3.325   4.341
10092SOL     OW31174   1.763   3.456   5.150
10092SOL    HW131175   1.826   3.394   5.105
10092SOL    HW231176   1.813   3.536   5.184
10093SOL     OW31177   0.396   5.337   5.455
10093SOL    HW131178   0.385   5.382   5.544
10093SOL    HW231179   0.456   5.258   5.465
10094SOL     OW31180   2.595   0.770   2.361
10094SOL    HW131181   2.574   0.856   2.314
10094SOL    HW231182   2.564   0.775   2.455
10095SOL     OW31183   6.946   1.600   5.949
10095SOL    HW131184   6.901   1.518   5.914
10095SOL    HW231185   0.003   1.574   6.002
10096SOL     OW31186   0.600   5.137   2.641
10096SOL    HW131187   0.624   5.041   2.624
10096SOL    HW231188   0.521   5.162   2.584
10097SOL     OW31189   1.019   1.463   0.774
10097SOL    HW131190   0.962   1.530   0.821
10097SOL    HW231191   1.018   1.377   0.825
10098SOL     OW31192   1.953   6.089   5.899
10098SOL    HW131193   1.896   6.109   5.979
10098SOL    HW231194   1.985   5.994   5.904
10099SOL     OW31195   0.018   3.587   5.191
10099SOL    HW131196   6.946   3.559   5.176
10099SOL    HW231197   0.020   3.681   5.226
10100SOL     OW31198   4.858   0.975   4.847
10100SOL    HW131199   4.836   1.062   4.890
10100SOL    HW231200   4.839   0.980   4.749
10101SOL     OW31201   0.195   4.560   2.087
10101SOL    HW131202   0.156   4.634   2.032
10101SOL    HW231203   0.178   4.473   2.042
10102SOL     OW31204   3.254   1.244   2.351
10102SOL    HW131205   3.335   1.301   2.333
10102SOL    HW231206   3.197   1.288   2.420
10103SOL     OW31207   2.732   1.340   5.072
10103SOL    HW131208   2.785   1.362   5.154
10103SOL    HW231209   2.745   1.244   5.049
10104SOL     OW31210   0.914   4.349   5.373
10104SOL    HW131211   0.931   4.398   5.458
10104SOL    HW231212   0.998   4.342   5.320
10105SOL     OW31213   1.608   1.116   6.462
10105SOL    HW131214   1.637   1.210   6.479
10105SOL    HW231215   1.529   1.095   6.520
10106SOL     OW31216   5.302   5.445   0.364
10106SOL    HW131217   5.401   5.454   0.355
10106SOL    HW231218   5.281   5.371   0.428
10107SOL     OW31219   6.190   1.052   6.052
10107SOL    HW131220   6.230   0.961   6.052
10107SOL    HW231221   6.096   1.047   6.017
10108SOL     OW31222   6.237   6.361   0.170
10108SOL    HW131223   6.234   6.399   0.078
10108SOL    HW231224   6.332   6.356   0.201
10109SOL     OW31225   4.852   5.898   3.527
10109SOL    HW131226   4.784   5.834   3.492
10109SOL    HW231227   4.942   5.874   3.492
10110SOL     OW31228   3.749   6.657   5.863
10110SOL    HW131229   3.841   6.671   5.826
10110SOL    HW231230   3.683   6.652   5.788
10111SOL     OW31231   6.753   3.287   3.321
10111SOL    HW131232   6.752   3.386   3.305
10111SOL    HW231233   6.770   3.270   3.418
10112SOL     OW31234   5.560   4.150   5.219
10112SOL    HW131235   5.633   4.149   5.151
10112SOL    HW231236   5.556   4.062   5.265
10113SOL     OW31237   3.950   1.082   6.888
10113SOL    HW131238   4.035   1.032   6.870
10113SOL    HW231239   3.873   1.027   6.857
10114SOL     OW31240   5.183   1.453   6.823
10114SOL    HW131241   5.177   1.354   6.811
10114SOL    HW231242   5.194   1.474   6.920
10115SOL     OW31243   1.908   2.675   3.950
10115SOL    HW131244   1.821   2.629   3.932
10115SOL    HW231245   1.926   2.740   3.876
10116SOL     OW31246   0.812   6.989   0.739
10116SOL    HW131247   0.746   0.041   0.736
10116SOL    HW231248   0.811   6.948   0.831
10117SOL     OW31249   6.198   0.396   5.207
10117SOL    HW131250   6.135   0.464   5.245
10117SOL    HW231251   6.291   0.431   5.211
10118SOL     OW31252   0.226   5.036   2.780
10118SOL    HW131253   0.313   4.988   2.770
10118SOL    HW231254   0.230   5.123   2.731
10119SOL     OW31255   2.399   0.669   4.912
10119SOL    HW131256   2.460   0.701   4.984
10119SOL    HW231257   2.304   0.676   4.942
10120SOL     OW31258   0.696   3.238   3.652
10120SOL    HW131259   0.711   3.335   3.672
10120SOL    HW231260   0.601   3.224   3.625
10121SOL     OW31261   6.701   4.871   5.071
10121SOL    HW131262   6.692   4.970   5.067
10121SOL    HW231263   6.784   4.843   5.022
10122SOL     OW31264   5.139   2.758   7.010
10122SOL    HW131265   5.042   2.781   7.021
10122SOL    HW231266   5.147   2.672   6.961
10123SOL     OW31267   0.800   5.860   0.831
10123SOL    HW131268   0.889   5.866   0.785
10123SOL    HW231269   0.753   5.776   0.802
10124SOL     OW31270   3.115   4.457   0.225
10124SOL    HW131271   3.019   4.452   0.253
10124SOL    HW231272   3.122   4.511   0.141
10125SOL     OW31273   2.069   0.836   3.005
10125SOL    HW131274   2.058   0.817   2.908
10125SOL    HW231275   2.008   0.777   3.058
10126SOL     OW31276   6.295   5.698   7.019
10126SOL    HW131277   6.370   5.651   6.973
10126SOL    HW231278   6.251   5.761   6.955
10127SOL     OW31279   3.204   5.480   5.461
10127SOL    HW131280   3.225   5.558   5.402
10127SOL    HW231281   3.120   5.436   5.430
10128SOL     OW31282   0.392   1.211   1.025
10128SOL    HW131283   0.421   1.306   1.008
10128SOL    HW231284   0.402   1.158   0.941
10129SOL     OW31285   5.113   2.543   3.950
10129SOL    HW131286   5.072   2.557   3.860
10129SOL    HW231287   5.043   2.509   4.013
10130SOL     OW31288   0.985   5.305   3.000
10130SOL    HW131289   0.957   5.209   2.994
10130SOL    HW231290   1.080   5.314   2.970
10131SOL     OW31291   0.824   1.894   2.327
10131SOL    HW131292   0.813   1.838   2.245
10131SOL    HW231293   0.767   1.975   2.321
10132SOL     OW31294   3.570   6.755   3.147
10132SOL    HW131295   3.496   6.699   3.110
10132SOL    HW231296   3.533   6.823   3.210
10133SOL     OW31297   4.252   6.142   3.297
10133SOL    HW131298   4.205   6.205   3.359
10133SOL    HW231299   4.319   6.193   3.243
10134SOL     OW31300   6.373   0.912   3.374
10134SOL    HW131301   6.316   0.948   3.447
10134SOL    HW231302   6.467   0.902   3.407
10135SOL     OW31303   4.808   4.113   2.579
10135SOL    HW131304   4.903   4.138   2.557
10135SOL    HW231305   4.784   4.030   2.530
10136SOL     OW31306   6.124   0.038   3.354
10136SOL    HW131307   6.091   0.116   3.408
10136SOL    HW231308   6.135   6.982   3.414
10137SOL     OW31309   6.636   5.503   4.416
10137SOL    HW131310   6.631   5.603   4.409
10137SOL    HW231311   6.723   5.477   4.459
10138SOL     OW31312   5.577   2.629   0.590
10138SOL    HW131313   5.492   2.644   0.641
10138SOL    HW231314   5.578   2.688   0.509
10139SOL     OW31315   3.916   2.992   2.855
10139SOL    HW131316   3.998   3.048   2.846
10139SOL    HW231317   3.883   2.966   2.765
10140SOL     OW31318   6.088   6.018   6.589
10140SOL    HW131319   6.169   6.076   6.580
10140SOL    HW231320   6.116   5.928   6.621
10141SOL     OW31321   2.743   1.985   4.469
10141SOL    HW131322   2.739   2.011   4.565
10141SOL    HW231323   2.837   1.994   4.436
10142SOL     OW31324   4.702   6.503   5.208
10142SOL    HW131325   4.626   6.544   5.158
10142SOL    HW231326   4.753   6.574   5.256
10143SOL     OW31327   4.522   0.131   1.301
10143SOL    HW131328   4.428   0.116   1.331
10143SOL    HW231329   4.584   0.084   1.364
10144SOL     OW31330   3.458   5.658   5.478
10144SOL    HW131331   3.423   5.621   5.564
10144SOL    HW231332   3.435   5.756   5.472
10145SOL     OW31333   2.711   6.090   6.021
10145SOL    HW131334   2.762   6.111   5.938
10145SOL    HW231335   2.748   6.007   6.063
10146SOL     OW31336   3.643   5.191   4.681
10146SOL    HW131337   3.673   5.220   4.772
10146SOL    HW231338   3.698   5.113   4.651
10147SOL     OW31339   4.902   4.549   4.570
10147SOL    HW131340   4.904   4.562   4.471
10147SOL    HW231341   4.811   4.521   4.599
10148SOL     OW31342   5.930   6.048   0.434
10148SOL    HW131343   5.964   6.036   0.528
10148SOL    HW231344   5.979   5.985   0.373
10149SOL     OW31345   4.826   1.595   0.495
10149SOL    HW131346   4.891   1.527   0.531
10149SOL    HW231347   4.875   1.659   0.436
10150SOL     OW31348   4.596   4.041   0.821
10150SOL    HW131349   4.557   4.128   0.852
10150SOL    HW231350   4.695   4.047   0.824
10151SOL     OW31351   1.422   7.006   6.681
10151SOL    HW131352   1.463   7.012   6.590
10151SOL    HW231353   1.421   6.911   6.712
10152SOL     OW31354   1.572   5.340   4.299
10152SOL    HW131355   1.603   5.268   4.361
10152SOL    HW231356   1.525   5.299   4.221
10153SOL     OW31357   4.390   5.938   3.751
10153SOL    HW131358   4.386   5.986   3.839
10153SOL    HW231359   4.463   5.978   3.695
10154SOL     OW31360   6.633   6.361   6.095
10154SOL    HW131361   6.668   6.298   6.165
10154SOL    HW231362   6.705   6.427   6.072
10155SOL     OW31363   4.234   1.139   5.989
10155SOL    HW131364   4.268   1.045   5.992
10155SOL    HW231365   4.205   1.160   5.895
10156SOL     OW31366   5.810   6.877   2.565
10156SOL    HW131367   5.835   6.803   2.503
10156SOL    HW231368   5.892   6.917   2.605
10157SOL     OW31369   5.884   2.053   5.646
10157SOL    HW131370   5.963   2.027   5.701
10157SOL    HW231371   5.801   2.014   5.685
10158SOL     OW31372   4.933   3.989   0.012
10158SOL    HW131373   4.968   3.953   0.098
10158SOL    HW231374   4.979   3.942   6.958
10159SOL     OW31375   2.700   3.235   5.837
10159SOL    HW131376   2.721   3.166   5.767
10159SOL    HW231377   2.728   3.325   5.804
10160SOL     OW31378   1.216   4.440   2.744
10160SOL    HW131379   1.214   4.341   2.761
10160SOL    HW231380   1.254   4.458   2.653
10161SOL     OW31381   3.452   4.800   0.545
10161SOL    HW131382   3.465   4.894   0.574
10161SOL    HW231383   3.541   4.759   0.524
10162SOL     OW31384   2.523   3.544   0.102
10162SOL    HW131385   2.453   3.473   0.092
10162SOL    HW231386   2.612   3.501   0.116
10163SOL     OW31387   5.865   4.217   6.547
10163SOL    HW131388   5.951   4.266   6.530
10163SOL    HW231389   5.795   4.249   6.483
10164SOL     OW31390   6.441   2.797   5.062
10164SOL    HW131391   6.495   2.858   5.120
10164SOL    HW231392   6.425   2.711   5.110
10165SOL     OW31393   1.417   2.032   4.535
10165SOL    HW131394   1.427   2.126   4.502
10165SOL    HW231395   1.483   2.015   4.608
10166SOL     OW31396   3.690   0.976   1.930
10166SOL    HW131397   3.787   0.997   1.920
10166SOL    HW231398   3.665   0.900   1.869
10167SOL     OW31399   5.417   0.921   6.517
10167SOL    HW131400   5.400   1.004   6.463
10167SOL    HW231401   5.379   0.933   6.608
10168SOL     OW31402   6.286   3.981   4.673
10168SOL    HW131403   6.223   3.902   4.672
10168SOL    HW231404   6.354   3.968   4.745
10169SOL     OW31405   6.889   4.222   3.262
10169SOL    HW131406   6.984   4.225   3.233
10169SOL    HW231407   6.858   4.314   3.286
10170SOL     OW31408   0.631   4.394   5.737
10170SOL    HW131409   0.648   4.484   5.696
10170SOL    HW231410   0.718   4.350   5.758
10171SOL     OW31411   6.352   3.566   6.636
10171SOL    HW131412   6.411   3.640   6.668
10171SOL    HW231413   6.341   3.572   6.537
10172SOL     OW31414   6.194   0.428   2.797
10172SOL    HW131415   6.237   0.516   2.778
10172SOL    HW231416   6.222   0.362   2.727
10173SOL     OW31417   1.895   2.477   1.116
10173SOL    HW131418   1.978   2.502   1.066
10173SOL    HW231419   1.913   2.482   1.214
10174SOL     OW31420   5.867   4.632   2.691
10174SOL    HW131421   5.770   4.609   2.682
10174SOL    HW231422   5.903   4.657   2.602
10175SOL     OW31423   6.234   2.803   4.359
10175SOL    HW131424   6.185   2.782   4.443
10175SOL    HW231425   6.263   2.718   4.315
10176SOL     OW31426   1.233   3.253   5.826
10176SOL    HW131427   1.195   3.194   5.897
10176SOL    HW231428   1.193   3.229   5.737
10177SOL     OW31429   2.882   0.162   0.160
10177SOL    HW131430   2.883   0.256   0.194
10177SOL    HW231431   2.948   0.108   0.212
10178SOL     OW31432   6.301   3.108   4.723
10178SOL    HW131433   6.369   3.036   4.706
10178SOL    HW231434   6.260   3.093   4.813
10179SOL     OW31435   0.847   2.144   6.054
10179SOL    HW131436   0.798   2.188   6.130
10179SOL    HW231437   0.942   2.174   6.054
10180SOL     OW31438   3.099   5.137   5.908
10180SOL    HW131439   3.175   5.082   5.941
10180SOL    HW231440   3.114   5.163   5.813
10181SOL     OW31441   5.169   3.586   2.345
10181SOL    HW131442   5.258   3.553   2.314
10181SOL    HW231443   5.098   3.560   2.279
10182SOL     OW31444   5.673   1.497   1.495
10182SOL    HW131445   5.726   1.529   1.574
10182SOL    HW231446   5.587   1.549   1.490
10183SOL     OW31447   1.325   2.125   6.602
10183SOL    HW131448   1.328   2.212   6.552
10183SOL    HW231449   1.248   2.070   6.570
10184SOL     OW31450   4.890   1.551   6.138
10184SOL    HW131451   4.902   1.603   6.222
10184SOL    HW231452   4.972   1.497   6.119
10185SOL     OW31453   4.765   6.332   0.889
10185SOL    HW131454   4.716   6.245   0.890
10185SOL    HW231455   4.720   6.396   0.951
10186SOL     OW31456   6.010   3.242   3.606
10186SOL    HW131457   6.078   3.215   3.674
10186SOL    HW231458   6.006   3.173   3.534
10187SOL     OW31459   1.039   1.608   2.214
10187SOL    HW131460   1.126   1.591   2.170
10187SOL    HW231461   0.997   1.691   2.175
10188SOL     OW31462   3.860   6.233   0.076
10188SOL    HW131463   3.861   6.324   0.034
10188SOL    HW231464   3.894   6.166   0.011
10189SOL     OW31465   2.543   0.113   5.712
10189SOL    HW131466   2.632   0.067   5.712
10189SOL    HW231467   2.548   0.197   5.658
10190SOL     OW31468   5.209   2.104   1.318
10190SOL    HW131469   5.118   2.144   1.307
10190SOL    HW231470   5.277   2.163   1.275
10191SOL     OW31471   4.812   4.385   6.797
10191SOL    HW131472   4.775   4.297   6.829
10191SOL    HW231473   4.888   4.368   6.734
10192SOL     OW31474   4.093   0.904   4.750
10192SOL    HW131475   4.038   0.965   4.694
10192SOL    HW231476   4.133   0.832   4.692
10193SOL     OW31477   4.396   3.878   1.546
10193SOL    HW131478   4.410   3.787   1.586
10193SOL    HW231479   4.344   3.869   1.461
10194SOL     OW31480   6.002   4.584   4.848
10194SOL    HW131481   6.011   4.571   4.946
10194SOL    HW231482   5.933   4.521   4.812
10195SOL     OW31483   5.848   4.461   1.261
10195SOL    HW131484   5.885   4.408   1.184
10195SOL    HW231485   5.864   4.412   1.346
10196SOL     OW31486   5.965   1.659   4.668
10196SOL    HW131487   5.903   1.613   4.604
10196SOL    HW231488   5.958   1.758   4.656
10197SOL     OW31489   0.014   1.788   4.799
10197SOL    HW131490   0.089   1.836   4.754
10197SOL    HW231491   6.971   1.756   4.730
10198SOL     OW31492   3.959   0.356   2.438
10198SOL    HW131493   3.869   0.322   2.410
10198SOL    HW231494   4.009   0.387   2.357
10199SOL     OW31495   1.636   2.752   5.829
10199SOL    HW131496   1.560   2.743   5.764
10199SOL    HW231497   1.600   2.785   5.916
10200SOL     OW31498   4.840   2.451   1.102
10200SOL    HW131499   4.873   2.512   1.030
10200SOL    HW231500   4.758   2.490   1.144
10201SOL     OW31501   1.094   4.535   0.405
10201SOL    HW131502   1.192   4.514   0.403
10201SOL    HW231503   1.081   4.632   0.425
10202SOL     OW31504   4.125   2.043   5.706
10202SOL    HW131505   4.127   2.142   5.698
10202SOL    HW231506   4.217   2.009   5.726
10203SOL     OW31507   5.096   2.642   4.571
10203SOL    HW131508   5.109   2.545   4.551
10203SOL    HW231509   5.046   2.685   4.496
10204SOL     OW31510   5.114   6.328   0.006
10204SOL    HW131511   5.056   6.408   0.022
10204SOL    HW231512   5.192   6.329   0.069
10205SOL     OW31513   0.633   1.513   0.361
10205SOL    HW131514   0.704   1.576   0.391
10205SOL    HW231515   0.589   1.472   0.441
10206SOL     OW31516   0.837   1.400   5.857
10206SOL    HW131517   0.778   1.344   5.798
10206SOL    HW231518   0.873   1.477   5.804
10207SOL     OW31519   1.260   1.663   6.323
10207SOL    HW131520   1.281   1.592   6.390
10207SOL    HW231521   1.215   1.622   6.244
10208SOL     OW31522   5.282   5.367   4.581
10208SOL    HW131523   5.250   5.299   4.515
10208SOL    HW231524   5.317   5.320   4.662
10209SOL     OW31525   6.769   0.378   5.931
10209SOL    HW131526   6.841   0.387   5.863
10209SOL    HW231527   6.803   0.323   6.008
10210SOL     OW31528   4.480   6.402   1.400
10210SOL    HW131529   4.395   6.456   1.403
10210SOL    HW231530   4.459   6.307   1.420
10211SOL     OW31531   3.719   6.710   4.709
10211SOL    HW131532   3.779   6.749   4.779
10211SOL    HW231533   3.693   6.782   4.645
10212SOL     OW31534   0.682   6.967   5.441
10212SOL    HW131535   0.637   6.899   5.500
10212SOL    HW231536   0.675   6.937   5.345
10213SOL     OW31537   5.229   2.801   0.683
10213SOL    HW131538   5.169   2.739   0.631
10213SOL    HW231539   5.300   2.747   0.728
10214SOL     OW31540   1.333   2.203   1.456
10214SOL    HW131541   1.390   2.207   1.374
10214SOL    HW231542   1.351   2.283   1.513
10215SOL     OW31543   3.999   3.563   2.746
10215SOL    HW131544   3.981   3.465   2.761
10215SOL    HW231545   4.034   3.603   2.831
10216SOL     OW31546   6.213   0.265   1.694
10216SOL    HW131547   6.209   0.228   1.787
10216SOL    HW231548   6.143   0.222   1.638
10217SOL     OW31549   3.009   0.585   3.782
10217SOL    HW131550   2.919   0.584   3.826
10217SOL    HW231551   3.045   0.678   3.780
10218SOL     OW31552   1.468   2.698   2.163
10218SOL    HW131553   1.391   2.754   2.133
10218SOL    HW231554   1.445   2.601   2.152
10219SOL     OW31555   0.416   1.154   1.905
10219SOL    HW131556   0.472   1.094   1.848
10219SOL    HW231557   0.368   1.219   1.847
10220SOL     OW31558   3.488   2.918   1.085
10220SOL    HW131559   3.442   2.847   1.140
10220SOL    HW231560   3.516   2.993   1.145
10221SOL     OW31561   0.431   6.085   3.007
10221SOL    HW131562   0.522   6.100   2.968
10221SOL    HW231563   0.409   6.159   3.071
10222SOL     OW31564   2.966   3.514   4.605
10222SOL    HW131565   2.952   3.427   4.652
10222SOL    HW231566   2.960   3.589   4.671
10223SOL     OW31567   1.017   5.756   1.068
10223SOL    HW131568   0.984   5.720   0.981
10223SOL    HW231569   0.940   5.791   1.121
10224SOL     OW31570   6.190   3.761   3.475
10224SOL    HW131571   6.193   3.661   3.473
10224SOL    HW231572   6.282   3.797   3.461
10225SOL     OW31573   1.488   3.877   5.659
10225SOL    HW131574   1.507   3.780   5.642
10225SOL    HW231575   1.429   3.913   5.587
10226SOL     OW31576   3.551   2.426   6.804
10226SOL    HW131577   3.467   2.433   6.858
10226SOL    HW231578   3.629   2.457   6.858
10227SOL     OW31579   5.496   3.804   1.040
10227SOL    HW131580   5.458   3.851   1.120
10227SOL    HW231581   5.438   3.821   0.961
10228SOL     OW31582   5.576   1.011   0.678
10228SOL    HW131583   5.649   1.037   0.615
10228SOL    HW231584   5.490   1.053   0.648
10229SOL     OW31585   0.510   3.433   5.019
10229SOL    HW131586   0.420   3.422   5.062
10229SOL    HW231587   0.581   3.408   5.084
10230SOL     OW31588   6.550   5.792   2.386
10230SOL    HW131589   6.620   5.857   2.414
10230SOL    HW231590   6.593   5.716   2.337
10231SOL     OW31591   1.818   6.536   3.259
10231SOL    HW131592   1.915   6.558   3.258
10231SOL    HW231593   1.770   6.598   3.321
10232SOL     OW31594   4.095   6.990   2.719
10232SOL    HW131595   4.065   6.989   2.815
10232SOL    HW231596   4.086   6.899   2.680
10233SOL     OW31597   3.975   4.261   6.253
10233SOL    HW131598   4.058   4.316   6.239
10233SOL    HW231599   3.899   4.301   6.201
10234SOL     OW31600   6.663   0.710   1.379
10234SOL    HW131601   6.658   0.727   1.477
10234SOL    HW231602   6.573   0.683   1.345
10235SOL     OW31603   0.876   1.149   3.089
10235SOL    HW131604   0.899   1.111   3.178
10235SOL    HW231605   0.799   1.100   3.050
10236SOL     OW31606   2.236   6.911   0.365
10236SOL    HW131607   2.148   6.947   0.398
10236SOL    HW231608   2.257   6.826   0.413
10237SOL     OW31609   0.529   3.470   7.009
10237SOL    HW131610   0.520   3.460   6.910
10237SOL    HW231611   0.443   3.504   0.025
10238SOL     OW31612   3.699   5.052   0.840
10238SOL    HW131613   3.633   5.092   0.903
10238SOL    HW231614   3.749   4.978   0.886
10239SOL     OW31615   1.609   2.855   4.718
10239SOL    HW131616   1.701   2.881   4.747
10239SOL    HW231617   1.544   2.926   4.745
10240SOL     OW31618   2.243   0.380   1.369
10240SOL    HW131619   2.176   0.445   1.404
10240SOL    HW231620   2.201   0.324   1.298
10241SOL     OW31621   4.398   2.308   1.618
10241SOL    HW131622   4.352   2.370   1.555
10241SOL    HW231623   4.361   2.321   1.710
10242SOL     OW31624   0.246   2.122   0.575
10242SOL    HW131625   0.345   2.108   0.563
10242SOL    HW231626   0.200   2.034   0.579
10243SOL     OW31627   2.431   4.813   0.566
10243SOL    HW131628   2.370   4.813   0.487
10243SOL    HW231629   2.512   4.758   0.545
10244SOL     OW31630   2.261   4.444   1.525
10244SOL    HW131631   2.253   4.373   1.596
10244SOL    HW231632   2.238   4.404   1.436
10245SOL     OW31633   3.799   4.338   0.579
10245SOL    HW131634   3.747   4.418   0.612
10245SOL    HW231635   3.737   4.275   0.533
10246SOL     OW31636   3.270   2.922   4.296
10246SOL    HW131637   3.312   2.938   4.385
10246SOL    HW231638   3.191   2.861   4.307
10247SOL     OW31639   0.812   3.890   4.390
10247SOL    HW131640   0.868   3.963   4.431
10247SOL    HW231641   0.857   3.855   4.308
10248SOL     OW31642   1.458   0.220   3.618
10248SOL    HW131643   1.486   0.173   3.535
10248SOL    HW231644   1.505   0.308   3.624
10249SOL     OW31645   2.031   4.721   6.875
10249SOL    HW131646   1.959   4.690   6.813
10249SOL    HW231647   2.117   4.678   6.850
10250SOL     OW31648   5.415   3.029   6.986
10250SOL    HW131649   5.439   3.009   6.891
10250SOL    HW231650   5.398   2.944   0.012
10251SOL     OW31651   1.519   0.271   4.302
10251SOL    HW131652   1.511   0.189   4.246
10251SOL    HW231653   1.432   0.321   4.302
10252SOL     OW31654   4.741   4.140   5.602
10252SOL    HW131655   4.785   4.180   5.682
10252SOL    HW231656   4.658   4.191   5.579
10253SOL     OW31657   4.202   6.643   6.907
10253SOL    HW131658   4.166   6.632   7.000
10253SOL    HW231659   4.226   6.553   6.871
10254SOL     OW31660   5.712   1.757   5.032
10254SOL    HW131661   5.792   1.697   5.020
10254SOL    HW231662   5.743   1.852   5.042
10255SOL     OW31663   3.134   5.634   1.308
10255SOL    HW131664   3.131   5.669   1.215
10255SOL    HW231665   3.046   5.590   1.330
10256SOL     OW31666   4.878   0.765   1.846
10256SOL    HW131667   4.944   0.717   1.904
10256SOL    HW231668   4.819   0.823   1.903
10257SOL     OW31669   2.808   5.039   2.601
10257SOL    HW131670   2.888   4.986   2.628
10257SOL    HW231671   2.742   4.979   2.556
10258SOL     OW31672   2.578   1.993   2.879
10258SOL    HW131673   2.533   2.068   2.927
10258SOL    HW231674   2.531   1.976   2.792
10259SOL     OW31675   0.645   4.110   3.956
10259SOL    HW131676   0.583   4.127   4.033
10259SOL    HW231677   0.735   4.150   3.976
10260SOL     OW31678   1.347   1.217   3.476
10260SOL    HW131679   1.363   1.274   3.556
10260SOL    HW231680   1.435   1.188   3.438
10261SOL     OW31681   0.213   3.812   0.648
10261SOL    HW131682   0.137   3.749   0.632
10261SOL    HW231683   0.279   3.770   0.710
10262SOL     OW31684   3.642   1.463   6.909
10262SOL    HW131685   3.742   1.461   6.903
10262SOL    HW231686   3.604   1.466   6.817
10263SOL     OW31687   5.993   1.013   1.398
10263SOL    HW131688   5.956   1.069   1.324
10263SOL    HW231689   5.967   0.917   1.382
10264SOL     OW31690   6.257   5.010   6.744
10264SOL    HW131691   6.345   5.046   6.775
10264SOL    HW231692   6.217   4.952   6.815
10265SOL     OW31693   2.083   2.285   6.768
10265SOL    HW131694   2.039   2.331   6.844
10265SOL    HW231695   2.022   2.285   6.689
10266SOL     OW31696   3.341   2.955   2.822
10266SOL    HW131697   3.280   2.964   2.901
10266SOL    HW231698   3.429   2.918   2.851
10267SOL     OW31699   5.834   0.750   0.529
10267SOL    HW131700   5.879   0.819   0.585
10267SOL    HW231701   5.752   0.717   0.575
10268SOL     OW31702   5.024   6.691   1.005
10268SOL    HW131703   5.060   6.753   1.075
10268SOL    HW231704   5.093   6.679   0.933
10269SOL     OW31705   1.945   2.384   6.277
10269SOL    HW131706   1.940   2.453   6.205
10269SOL    HW231707   1.924   2.427   6.365
10270SOL     OW31708   3.370   6.044   2.328
10270SOL    HW131709   3.468   6.035   2.345
10270SOL    HW231710   3.347   5.997   2.242
10271SOL     OW31711   2.653   2.152   0.726
10271SOL    HW131712   2.660   2.117   0.633
10271SOL    HW231713   2.577   2.108   0.773
10272SOL     OW31714   6.564   0.924   4.322
10272SOL    HW131715   6.465   0.933   4.325
10272SOL    HW231716   6.605   1.013   4.300
10273SOL     OW31717   2.571   5.166   4.187
10273SOL    HW131718   2.568   5.103   4.265
10273SOL    HW231719   2.543   5.118   4.104
10274SOL     OW31720   0.329   4.861   5.436
10274SOL    HW131721   0.358   4.778   5.388
10274SOL    HW231722   0.233   4.881   5.414
10275SOL     OW31723   0.397   0.587   3.096
10275SOL    HW131724   0.435   0.510   3.045
10275SOL    HW231725   0.445   0.670   3.071
10276SOL     OW31726   4.829   5.727   5.390
10276SOL    HW131727   4.781   5.640   5.382
10276SOL    HW231728   4.763   5.801   5.396
10277SOL     OW31729   1.242   6.798   4.270
10277SOL    HW131730   1.245   6.704   4.305
10277SOL    HW231731   1.277   6.799   4.176
10278SOL     OW31732   0.520   0.578   5.402
10278SOL    HW131733   0.517   0.517   5.482
10278SOL    HW231734   0.549   0.527   5.322
10279SOL     OW31735   2.339   5.627   4.282
10279SOL    HW131736   2.435   5.647   4.262
10279SOL    HW231737   2.332   5.533   4.317
10280SOL     OW31738   5.262   3.875   0.819
10280SOL    HW131739   5.313   3.864   0.734
10280SOL    HW231740   5.218   3.788   0.843
10281SOL     OW31741   6.260   2.176   3.130
10281SOL    HW131742   6.213   2.109   3.187
10281SOL    HW231743   6.197   2.210   3.060
10282SOL     OW31744   4.895   3.366   2.570
10282SOL    HW131745   4.853   3.438   2.516
10282SOL    HW231746   4.988   3.394   2.596
10283SOL     OW31747   0.454   3.806   1.271
10283SOL    HW131748   0.367   3.841   1.305
10283SOL    HW231749   0.471   3.843   1.180
10284SOL     OW31750   0.293   2.421   4.117
10284SOL    HW131751   0.230   2.457   4.048
10284SOL    HW231752   0.355   2.355   4.074
10285SOL     OW31753   4.414   6.280   3.746
10285SOL    HW131754   4.447   6.234   3.664
10285SOL    HW231755   4.442   6.377   3.743
10286SOL     OW31756   3.427   1.615   4.094
10286SOL    HW131757   3.454   1.618   4.190
10286SOL    HW231758   3.336   1.655   4.083
10287SOL     OW31759   1.910   6.235   1.960
10287SOL    HW131760   1.856   6.179   2.024
10287SOL    HW231761   2.007   6.220   1.977
10288SOL     OW31762   3.450   0.281   4.971
10288SOL    HW131763   3.394   0.348   5.019
10288SOL    HW231764   3.511   0.236   5.036
10289SOL     OW31765   3.131   6.510   0.712
10289SOL    HW131766   3.054   6.544   0.658
10289SOL    HW231767   3.184   6.588   0.746
10290SOL     OW31768   3.239   3.022   2.580
10290SOL    HW131769   3.305   3.021   2.654
10290SOL    HW231770   3.211   2.928   2.558
10291SOL     OW31771   3.211   0.744   2.563
10291SOL    HW131772   3.194   0.842   2.571
10291SOL    HW231773   3.137   0.694   2.609
10292SOL     OW31774   6.667   0.720   6.273
10292SOL    HW131775   6.599   0.779   6.229
10292SOL    HW231776   6.673   0.633   6.224
10293SOL     OW31777   0.604   3.728   3.842
10293SOL    HW131778   0.669   3.779   3.898
10293SOL    HW231779   0.538   3.791   3.802
10294SOL     OW31780   3.242   1.749   2.674
10294SOL    HW131781   3.156   1.787   2.640
10294SOL    HW231782   3.237   1.736   2.773
10295SOL     OW31783   1.118   2.584   6.681
10295SOL    HW131784   1.056   2.625   6.747
10295SOL    HW231785   1.131   2.487   6.704
10296SOL     OW31786   5.593   0.746   5.883
10296SOL    HW131787   5.600   0.843   5.908
10296SOL    HW231788   5.606   0.690   5.965
10297SOL     OW31789   2.946   1.875   6.286
10297SOL    HW131790   2.963   1.838   6.195
10297SOL    HW231791   2.947   1.801   6.353
10298SOL     OW31792   1.193   3.529   2.402
10298SOL    HW131793   1.141   3.599   2.452
10298SOL    HW231794   1.151   3.514   2.313
10299SOL     OW31795   4.715   6.605   2.333
10299SOL    HW131796   4.695   6.694   2.292
10299SOL    HW231797   4.813   6.589   2.332
10300SOL     OW31798   0.990   3.843   2.029
10300SOL    HW131799   1.048   3.892   2.094
10300SOL    HW231800   0.989   3.892   1.941
10301SOL     OW31801   4.222   1.167   5.713
10301SOL    HW131802   4.268   1.150   5.626
10301SOL    HW231803   4.179   1.258   5.710
10302SOL     OW31804   2.727   6.238   4.206
10302SOL    HW131805   2.680   6.294   4.138
10302SOL    HW231806   2.798   6.292   4.251
10303SOL     OW31807   1.022   5.953   3.810
10303SOL    HW131808   1.007   5.935   3.713
10303SOL    HW231809   0.936   5.941   3.860
10304SOL     OW31810   6.545   0.065   6.910
10304SOL    HW131811   6.645   0.067   6.912
10304SOL    HW231812   6.510   0.048   7.002
10305SOL     OW31813   2.508   3.802   5.857
10305SOL    HW131814   2.534   3.891   5.894
10305SOL    HW231815   2.505   3.735   5.931
10306SOL     OW31816   5.653   0.064   0.974
10306SOL    HW131817   5.604   0.094   1.056
10306SOL    HW231818   5.640   6.989   0.961
10307SOL     OW31819   2.792   1.165   4.379
10307SOL    HW131820   2.759   1.259   4.372
10307SOL    HW231821   2.884   1.159   4.340
10308SOL     OW31822   2.441   4.476   2.698
10308SOL    HW131823   2.527   4.503   2.657
10308SOL    HW231824   2.375   4.454   2.626
10309SOL     OW31825   5.871   0.384   5.461
10309SOL    HW131826   5.850   0.320   5.535
10309SOL    HW231827   5.930   0.457   5.496
10310SOL     OW31828   2.413   3.323   6.894
10310SOL    HW131829   2.486   3.272   6.940
10310SOL    HW231830   2.441   3.345   6.801
10311SOL     OW31831   5.630   5.879   6.725
10311SOL    HW131832   5.630   5.970   6.768
10311SOL    HW231833   5.540   5.838   6.734
10312SOL     OW31834   4.313   0.272   1.874
10312SOL    HW131835   4.320   0.316   1.964
10312SOL    HW231836   4.244   0.200   1.878
10313SOL     OW31837   4.472   5.619   2.868
10313SOL    HW131838   4.377   5.633   2.894
10313SOL    HW231839   4.532   5.650   2.941
10314SOL     OW31840   0.743   0.415   6.859
10314SOL    HW131841   0.739   0.489   6.791
10314SOL    HW231842   0.821   0.356   6.839
10315SOL     OW31843   5.290   6.532   3.625
10315SOL    HW131844   5.252   6.462   3.685
10315SOL    HW231845   5.216   6.579   3.578
10316SOL     OW31846   6.338   1.698   6.225
10316SOL    HW131847   6.257   1.734   6.178
10316SOL    HW231848   6.420   1.723   6.173
10317SOL     OW31849   3.489   5.968   6.164
10317SOL    HW131850   3.547   5.926   6.234
10317SOL    HW231851   3.412   5.908   6.144
10318SOL     OW31852   5.313   6.960   7.013
10318SOL    HW131853   5.295   6.969   0.088
10318SOL    HW231854   5.371   0.013   6.982
10319SOL     OW31855   0.248   4.892   4.705
10319SOL    HW131856   0.212   4.950   4.632
10319SOL    HW231857   0.320   4.940   4.755
10320SOL     OW31858   0.082   0.436   3.632
10320SOL    HW131859   0.075   0.527   3.672
10320SOL    HW231860   0.000   0.383   3.654
10321SOL     OW31861   5.853   2.031   1.976
10321SOL    HW131862   5.765   1.984   1.967
10321SOL    HW231863   5.917   1.971   2.024
10322SOL     OW31864   4.511   4.625   4.443
10322SOL    HW131865   4.490   4.622   4.541
10322SOL    HW231866   4.523   4.720   4.414
10323SOL     OW31867   5.937   4.371   5.474
10323SOL    HW131868   5.908   4.465   5.454
10323SOL    HW231869   6.025   4.373   5.521
10324SOL     OW31870   2.900   3.521   2.383
10324SOL    HW131871   2.996   3.498   2.369
10324SOL    HW231872   2.849   3.505   2.299
10325SOL     OW31873   0.417   5.865   2.460
10325SOL    HW131874   0.408   5.774   2.499
10325SOL    HW231875   0.514   5.884   2.442
10326SOL     OW31876   5.330   3.897   6.624
10326SOL    HW131877   5.323   3.963   6.549
10326SOL    HW231878   5.423   3.858   6.626
10327SOL     OW31879   2.717   3.888   1.062
10327SOL    HW131880   2.712   3.875   0.963
10327SOL    HW231881   2.813   3.894   1.090
10328SOL     OW31882   6.506   3.159   2.376
10328SOL    HW131883   6.511   3.210   2.291
10328SOL    HW231884   6.415   3.173   2.417
10329SOL     OW31885   3.114   0.767   3.129
10329SOL    HW131886   3.055   0.690   3.107
10329SOL    HW231887   3.128   0.772   3.228
10330SOL     OW31888   4.708   0.600   0.657
10330SOL    HW131889   4.808   0.604   0.652
10330SOL    HW231890   4.679   0.505   0.667
10331SOL     OW31891   6.195   6.560   6.668
10331SOL    HW131892   6.218   6.606   6.753
10331SOL    HW231893   6.260   6.485   6.652
10332SOL     OW31894   0.824   0.822   0.040
10332SOL    HW131895   0.859   0.751   0.100
10332SOL    HW231896   0.859   0.809   6.970
10333SOL     OW31897   0.600   5.712   4.416
10333SOL    HW131898   0.539   5.639   4.444
10333SOL    HW231899   0.548   5.783   4.369
10334SOL     OW31900   3.280   6.925   4.395
10334SOL    HW131901   3.193   6.930   4.444
10334SOL    HW231902   3.353   6.898   4.458
10335SOL     OW31903   0.234   4.745   6.431
10335SOL    HW131904   0.246   4.832   6.479
10335SOL    HW231905   0.321   4.717   6.391
10336SOL     OW31906   6.100   6.748   2.385
10336SOL    HW131907   6.173   6.800   2.431
10336SOL    HW231908   6.122   6.738   2.288
10337SOL     OW31909   6.329   5.406   0.090
10337SOL    HW131910   6.307   5.365   0.179
10337SOL    HW231911   6.314   5.505   0.094
10338SOL     OW31912   1.927   6.571   2.074
10338SOL    HW131913   1.962   6.656   2.035
10338SOL    HW231914   1.865   6.528   2.008
10339SOL     OW31915   6.278   3.543   6.394
10339SOL    HW131916   6.202   3.492   6.435
10339SOL    HW231917   6.243   3.597   6.317
10340SOL     OW31918   1.828   3.192   6.508
10340SOL    HW131919   1.766   3.123   6.471
10340SOL    HW231920   1.776   3.274   6.530
10341SOL     OW31921   2.093   3.298   2.408
10341SOL    HW131922   2.002   3.316   2.369
10341SOL    HW231923   2.145   3.383   2.410
10342SOL     OW31924   1.752   0.808   3.533
10342SOL    HW131925   1.703   0.723   3.516
10342SOL    HW231926   1.689   0.876   3.572
10343SOL     OW31927   2.228   5.557   0.904
10343SOL    HW131928   2.293   5.481   0.903
10343SOL    HW231929   2.203   5.578   0.999
10344SOL     OW31930   3.489   3.789   6.347
10344SOL    HW131931   3.560   3.798   6.417
10344SOL    HW231932   3.400   3.813   6.387
10345SOL     OW31933   1.073   2.901   5.143
10345SOL    HW131934   1.115   2.905   5.053
10345SOL    HW231935   1.091   2.812   5.185
10346SOL     OW31936   0.165   5.768   1.531
10346SOL    HW131937   0.250   5.715   1.530
10346SOL    HW231938   0.092   5.717   1.488
10347SOL     OW31939   4.440   1.296   3.558
10347SOL    HW131940   4.444   1.275   3.656
10347SOL    HW231941   4.531   1.323   3.526
10348SOL     OW31942   6.330   3.003   0.561
10348SOL    HW131943   6.235   2.985   0.534
10348SOL    HW231944   6.350   2.955   0.647
10349SOL     OW31945   0.834   0.227   6.577
10349SOL    HW131946   0.892   0.196   6.652
10349SOL    HW231947   0.773   0.152   6.549
10350SOL     OW31948   2.760   6.066   4.698
10350SOL    HW131949   2.674   6.101   4.735
10350SOL    HW231950   2.835   6.126   4.726
10351SOL     OW31951   4.750   5.590   5.727
10351SOL    HW131952   4.754   5.688   5.748
10351SOL    HW231953   4.679   5.574   5.658
10352SOL     OW31954   3.706   0.994   6.192
10352SOL    HW131955   3.647   0.945   6.127
10352SOL    HW231956   3.795   1.012   6.149
10353SOL     OW31957   6.759   3.067   4.791
10353SOL    HW131958   6.760   3.090   4.888
10353SOL    HW231959   6.762   3.151   4.737
10354SOL     OW31960   5.428   0.912   1.434
10354SOL    HW131961   5.501   0.854   1.468
10354SOL    HW231962   5.464   0.977   1.368
10355SOL     OW31963   2.715   6.376   2.567
10355SOL    HW131964   2.707   6.334   2.658
10355SOL    HW231965   2.661   6.460   2.565
10356SOL     OW31966   6.649   3.996   5.353
10356SOL    HW131967   6.678   4.084   5.393
10356SOL    HW231968   6.729   3.944   5.326
10357SOL     OW31969   2.200   2.473   6.526
10357SOL    HW131970   2.255   2.521   6.457
10357SOL    HW231971   2.103   2.476   6.499
10358SOL     OW31972   0.393   2.441   2.786
10358SOL    HW131973   0.489   2.458   2.804
10358SOL    HW231974   0.366   2.487   2.701
10359SOL     OW31975   0.227   1.494   1.480
10359SOL    HW131976   0.218   1.425   1.409
10359SOL    HW231977   0.316   1.540   1.471
10360SOL     OW31978   4.981   6.083   2.902
10360SOL    HW131979   5.079   6.102   2.903
10360SOL    HW231980   4.961   6.004   2.960
10361SOL     OW31981   3.097   5.822   2.471
10361SOL    HW131982   3.035   5.775   2.534
10361SOL    HW231983   3.055   5.828   2.381
10362SOL     OW31984   2.287   4.747   4.858
10362SOL    HW131985   2.355   4.675   4.874
10362SOL    HW231986   2.202   4.706   4.825
10363SOL     OW31987   5.266   0.318   2.674
10363SOL    HW131988   5.205   0.291   2.599
10363SOL    HW231989   5.220   0.303   2.761
10364SOL     OW31990   2.263   4.214   1.294
10364SOL    HW131991   2.211   4.135   1.326
10364SOL    HW231992   2.215   4.259   1.219
10365SOL     OW31993   4.655   5.527   0.468
10365SOL    HW131994   4.753   5.525   0.484
10365SOL    HW231995   4.636   5.508   0.371
10366SOL     OW31996   2.453   6.843   4.054
10366SOL    HW131997   2.517   6.920   4.047
10366SOL    HW231998   2.360   6.877   4.043
10367SOL     OW31999   6.161   2.739   3.030
10367SOL    HW132000   6.193   2.729   2.935
10367SOL    HW232001   6.065   2.764   3.030
10368SOL     OW32002   2.060   1.247   2.161
10368SOL    HW132003   2.154   1.212   2.166
10368SOL    HW232004   2.045   1.314   2.233
10369SOL     OW32005   4.072   1.798   0.957
10369SOL    HW132006   3.975   1.821   0.958
10369SOL    HW232007   4.118   1.846   1.032
10370SOL     OW32008   4.259   1.119   5.092
10370SOL    HW132009   4.342   1.063   5.084
10370SOL    HW232010   4.270   1.202   5.037
10371SOL     OW32011   4.206   5.808   5.132
10371SOL    HW132012   4.152   5.892   5.136
10371SOL    HW232013   4.291   5.820   5.184
10372SOL     OW32014   2.371   1.038   4.238
10372SOL    HW132015   2.381   1.103   4.313
10372SOL    HW232016   2.284   0.989   4.246
10373SOL     OW32017   1.021   6.263   4.532
10373SOL    HW132018   1.075   6.182   4.555
10373SOL    HW232019   0.936   6.234   4.488
10374SOL     OW32020   3.055   1.699   3.295
10374SOL    HW132021   3.028   1.720   3.389
10374SOL    HW232022   3.075   1.601   3.287
10375SOL     OW32023   5.522   2.089   1.163
10375SOL    HW132024   5.579   2.123   1.088
10375SOL    HW232025   5.521   2.157   1.236
10376SOL     OW32026   0.036   1.060   3.536
10376SOL    HW132027   0.100   0.995   3.494
10376SOL    HW232028   0.083   1.110   3.609
10377SOL     OW32029   0.193   0.670   3.967
10377SOL    HW132030   0.248   0.599   4.011
10377SOL    HW232031   0.251   0.747   3.942
10378SOL     OW32032   6.623   0.452   6.217
10378SOL    HW132033   6.631   0.356   6.246
10378SOL    HW232034   6.527   0.476   6.206
10379SOL     OW32035   5.316   0.417   4.899
10379SOL    HW132036   5.265   0.503   4.895
10379SOL    HW232037   5.290   0.358   4.823
10380SOL     OW32038   5.148   6.893   2.190
10380SOL    HW132039   5.243   6.914   2.166
10380SOL    HW232040   5.144   6.866   2.287
10381SOL     OW32041   4.574   5.093   5.519
10381SOL    HW132042   4.632   5.155   5.572
10381SOL    HW232043   4.492   5.141   5.489
10382SOL     OW32044   2.497   5.408   6.589
10382SOL    HW132045   2.455   5.318   6.574
10382SOL    HW232046   2.445   5.477   6.540
10383SOL     OW32047   0.866   2.476   1.416
10383SOL    HW132048   0.836   2.565   1.449
10383SOL    HW232049   0.951   2.486   1.365
10384SOL     OW32050   6.596   6.604   0.374
10384SOL    HW132051   6.506   6.592   0.418
10384SOL    HW232052   6.667   6.609   0.444
10385SOL     OW32053   6.340   1.114   6.334
10385SOL    HW132054   6.412   1.161   6.283
10385SOL    HW232055   6.296   1.047   6.274
10386SOL     OW32056   6.140   2.920   5.185
10386SOL    HW132057   6.109   2.939   5.278
10386SOL    HW232058   6.212   2.851   5.187
10387SOL     OW32059   2.014   2.799   3.125
10387SOL    HW132060   1.948   2.865   3.089
10387SOL    HW232061   2.082   2.778   3.056
10388SOL     OW32062   1.491   5.025   3.061
10388SOL    HW132063   1.573   5.075   3.035
10388SOL    HW232064   1.420   5.090   3.089
10389SOL     OW32065   0.823   4.863   3.913
10389SOL    HW132066   0.801   4.801   3.989
10389SOL    HW232067   0.821   4.812   3.827
10390SOL     OW32068   0.976   3.097   3.192
10390SOL    HW132069   1.027   3.056   3.116
10390SOL    HW232070   1.012   3.063   3.279
10391SOL     OW32071   2.433   6.323   6.593
10391SOL    HW132072   2.492   6.369   6.659
10391SOL    HW232073   2.359   6.385   6.565
10392SOL     OW32074   6.653   4.973   0.795
10392SOL    HW132075   6.728   5.028   0.831
10392SOL    HW232076   6.567   5.001   0.838
10393SOL     OW32077   0.789   1.133   4.262
10393SOL    HW132078   0.874   1.174   4.295
10393SOL    HW232079   0.795   1.034   4.268
10394SOL     OW32080   2.319   6.364   0.054
10394SOL    HW132081   2.234   6.346   0.104
10394SOL    HW232082   2.316   6.455   0.014
10395SOL     OW32083   0.362   0.826   4.920
10395SOL    HW132084   0.267   0.810   4.947
10395SOL    HW232085   0.367   0.833   4.820
10396SOL     OW32086   1.117   7.021   5.025
10396SOL    HW132087   1.074   6.945   4.976
10396SOL    HW232088   1.182   6.984   5.092
10397SOL     OW32089   3.504   1.568   3.355
10397SOL    HW132090   3.494   1.667   3.351
10397SOL    HW232091   3.431   1.525   3.301
10398SOL     OW32092   6.063   2.905   2.153
10398SOL    HW132093   6.148   2.853   2.147
10398SOL    HW232094   6.007   2.887   2.072
10399SOL     OW32095   5.417   2.693   5.139
10399SOL    HW132096   5.449   2.787   5.138
10399SOL    HW232097   5.375   2.671   5.051
10400SOL     OW32098   2.728   5.863   2.519
10400SOL    HW132099   2.783   5.824   2.593
10400SOL    HW232100   2.774   5.944   2.482
10401SOL     OW32101   0.890   5.802   1.924
10401SOL    HW132102   0.811   5.825   1.982
10401SOL    HW232103   0.972   5.847   1.960
10402SOL     OW32104   0.358   3.311   4.449
10402SOL    HW132105   0.435   3.268   4.497
10402SOL    HW232106   0.390   3.394   4.404
10403SOL     OW32107   5.570   0.931   2.111
10403SOL    HW132108   5.543   1.020   2.074
10403SOL    HW232109   5.634   0.887   2.047
10404SOL     OW32110   0.782   6.217   3.873
10404SOL    HW132111   0.846   6.169   3.933
10404SOL    HW232112   0.750   6.300   3.918
10405SOL     OW32113   1.763   6.258   5.793
10405SOL    HW132114   1.676   6.210   5.781
10405SOL    HW232115   1.837   6.192   5.806
10406SOL     OW32116   2.202   4.289   5.915
10406SOL    HW132117   2.292   4.309   5.877
10406SOL    HW232118   2.140   4.365   5.896
10407SOL     OW32119   0.507   2.260   6.847
10407SOL    HW132120   0.500   2.278   6.945
10407SOL    HW232121   0.536   2.166   6.833
10408SOL     OW32122   4.851   5.622   2.910
10408SOL    HW132123   4.866   5.543   2.851
10408SOL    HW232124   4.755   5.624   2.939
10409SOL     OW32125   6.874   4.825   2.542
10409SOL    HW132126   6.907   4.817   2.636
10409SOL    HW232127   6.910   4.909   2.501
10410SOL     OW32128   4.595   0.594   0.917
10410SOL    HW132129   4.662   0.605   0.990
10410SOL    HW232130   4.638   0.612   0.829
10411SOL     OW32131   2.043   4.652   2.729
10411SOL    HW132132   2.115   4.653   2.798
10411SOL    HW232133   2.077   4.692   2.644
10412SOL     OW32134   0.713   2.173   0.612
10412SOL    HW132135   0.803   2.138   0.587
10412SOL    HW232136   0.710   2.271   0.591
10413SOL     OW32137   6.936   2.280   7.000
10413SOL    HW132138   6.932   2.369   6.956
10413SOL    HW232139   6.884   2.282   0.063
10414SOL     OW32140   5.743   6.521   6.020
10414SOL    HW132141   5.742   6.422   6.032
10414SOL    HW232142   5.826   6.548   5.971
10415SOL     OW32143   0.637   5.920   3.616
10415SOL    HW132144   0.629   5.919   3.517
10415SOL    HW232145   0.673   6.008   3.646
10416SOL     OW32146   5.915   1.303   5.303
10416SOL    HW132147   6.003   1.317   5.256
10416SOL    HW232148   5.929   1.240   5.380
10417SOL     OW32149   3.899   4.834   4.137
10417SOL    HW132150   3.947   4.825   4.224
10417SOL    HW232151   3.958   4.804   4.063
10418SOL     OW32152   6.259   3.822   6.916
10418SOL    HW132153   6.308   3.751   6.967
10418SOL    HW232154   6.325   3.883   6.871
10419SOL     OW32155   3.031   1.166   4.239
10419SOL    HW132156   3.114   1.111   4.239
10419SOL    HW232157   3.046   1.251   4.291
10420SOL     OW32158   6.687   3.515   3.099
10420SOL    HW132159   6.654   3.538   3.191
10420SOL    HW232160   6.767   3.456   3.106
10421SOL     OW32161   1.168   4.309   4.565
10421SOL    HW132162   1.118   4.266   4.640
10421SOL    HW232163   1.126   4.397   4.543
10422SOL     OW32164   6.375   3.685   4.882
10422SOL    HW132165   6.420   3.613   4.936
10422SOL    HW232166   6.310   3.734   4.940
10423SOL     OW32167   3.212   5.027   3.840
10423SOL    HW132168   3.230   4.972   3.759
10423SOL    HW232169   3.207   4.967   3.921
10424SOL     OW32170   3.835   1.139   0.639
10424SOL    HW132171   3.759   1.197   0.669
10424SOL    HW232172   3.922   1.183   0.662
10425SOL     OW32173   2.068   1.815   0.924
10425SOL    HW132174   1.990   1.786   0.980
10425SOL    HW232175   2.073   1.915   0.922
10426SOL     OW32176   6.251   2.399   5.983
10426SOL    HW132177   6.336   2.354   6.009
10426SOL    HW232178   6.229   2.470   6.051
10427SOL     OW32179   5.624   6.807   4.300
10427SOL    HW132180   5.709   6.814   4.248
10427SOL    HW232181   5.641   6.831   4.395
10428SOL     OW32182   2.559   0.447   4.295
10428SOL    HW132183   2.511   0.516   4.240
10428SOL    HW232184   2.658   0.455   4.279
10429SOL     OW32185   1.210   2.828   2.149
10429SOL    HW132186   1.202   2.767   2.070
10429SOL    HW232187   1.277   2.900   2.128
10430SOL     OW32188   3.085   0.132   3.710
10430SOL    HW132189   3.176   0.091   3.721
10430SOL    HW232190   3.095   0.227   3.680
10431SOL     OW32191   3.591   0.360   3.076
10431SOL    HW132192   3.511   0.302   3.064
10431SOL    HW232193   3.652   0.320   3.145
10432SOL     OW32194   1.126   5.523   5.725
10432SOL    HW132195   1.203   5.561   5.674
10432SOL    HW232196   1.088   5.594   5.785
10433SOL     OW32197   2.721   0.034   2.675
10433SOL    HW132198   2.787   6.988   2.645
10433SOL    HW232199   2.662   7.017   2.745
10434SOL     OW32200   4.729   6.872   5.522
10434SOL    HW132201   4.763   6.966   5.528
10434SOL    HW232202   4.638   6.867   5.564
10435SOL     OW32203   2.364   1.904   6.754
10435SOL    HW132204   2.455   1.936   6.780
10435SOL    HW232205   2.370   1.850   6.670
10436SOL     OW32206   6.387   3.483   5.321
10436SOL    HW132207   6.426   3.453   5.408
10436SOL    HW232208   6.316   3.552   5.338
10437SOL     OW32209   5.289   6.435   4.827
10437SOL    HW132210   5.343   6.351   4.829
10437SOL    HW232211   5.248   6.446   4.737
10438SOL     OW32212   6.890   6.324   6.754
10438SOL    HW132213   6.922   6.233   6.728
10438SOL    HW232214   6.851   6.370   6.675
10439SOL     OW32215   6.836   6.318   5.339
10439SOL    HW132216   6.753   6.308   5.395
10439SOL    HW232217   6.826   6.398   5.279
10440SOL     OW32218   0.118   2.576   0.442
10440SOL    HW132219   0.217   2.577   0.451
10440SOL    HW232220   0.084   2.482   0.455
10441SOL     OW32221   4.011   1.970   0.456
10441SOL    HW132222   3.984   1.907   0.383
10441SOL    HW232223   3.945   1.965   0.530
10442SOL     OW32224   2.274   1.577   5.917
10442SOL    HW132225   2.201   1.643   5.933
10442SOL    HW232226   2.362   1.617   5.944
10443SOL     OW32227   0.512   1.583   3.094
10443SOL    HW132228   0.606   1.608   3.071
10443SOL    HW232229   0.493   1.610   3.189
10444SOL     OW32230   3.890   5.852   4.373
10444SOL    HW132231   3.934   5.941   4.368
10444SOL    HW232232   3.911   5.799   4.291
10445SOL     OW32233   1.314   3.762   2.894
10445SOL    HW132234   1.347   3.696   2.961
10445SOL    HW232235   1.222   3.737   2.865
10446SOL     OW32236   1.862   4.182   5.430
10446SOL    HW132237   1.855   4.242   5.509
10446SOL    HW232238   1.939   4.118   5.443
10447SOL     OW32239   0.448   1.876   3.232
10447SOL    HW132240   0.397   1.912   3.154
10447SOL    HW232241   0.402   1.793   3.266
10448SOL     OW32242   2.802   6.372   3.019
10448SOL    HW132243   2.757   6.340   2.936
10448SOL    HW232244   2.746   6.442   3.063
10449SOL     OW32245   3.781   5.273   4.916
10449SOL    HW132246   3.783   5.173   4.926
10449SOL    HW232247   3.852   5.301   4.851
10450SOL     OW32248   6.910   0.867   6.169
10450SOL    HW132249   6.874   0.954   6.201
10450SOL    HW232250   6.849   0.793   6.196
10451SOL     OW32251   3.058   0.744   3.426
10451SOL    HW132252   3.074   0.763   3.523
10451SOL    HW232253   3.094   0.654   3.403
10452SOL     OW32254   0.005   3.654   4.354
10452SOL    HW132255   0.086   3.599   4.333
10452SOL    HW232256   0.018   3.748   4.323
10453SOL     OW32257   3.820   5.831   3.496
10453SOL    HW132258   3.835   5.925   3.527
10453SOL    HW232259   3.901   5.776   3.518
10454SOL     OW32260   6.492   0.851   6.117
10454SOL    HW132261   6.527   0.917   6.051
10454SOL    HW232262   6.400   0.823   6.090
10455SOL     OW32263   6.327   6.030   3.633
10455SOL    HW132264   6.326   5.959   3.562
10455SOL    HW232265   6.379   6.109   3.600
10456SOL     OW32266   0.972   5.120   6.966
10456SOL    HW132267   1.032   5.044   6.991
10456SOL    HW232268   0.888   5.083   6.925
10457SOL     OW32269   3.214   2.366   6.527
10457SOL    HW132270   3.311   2.343   6.538
10457SOL    HW232271   3.158   2.286   6.547
10458SOL     OW32272   0.176   5.865   6.605
10458SOL    HW132273   0.133   5.775   6.593
10458SOL    HW232274   0.242   5.860   6.681
10459SOL     OW32275   6.875   5.158   0.435
10459SOL    HW132276   6.912   5.211   0.359
10459SOL    HW232277   6.836   5.219   0.504
10460SOL     OW32278   0.493   1.990   0.548
10460SOL    HW132279   0.491   2.005   0.450
10460SOL    HW232280   0.571   2.038   0.589
10461SOL     OW32281   6.636   5.303   5.882
10461SOL    HW132282   6.688   5.225   5.846
10461SOL    HW232283   6.666   5.386   5.835
10462SOL     OW32284   4.424   2.156   0.784
10462SOL    HW132285   4.332   2.147   0.746
10462SOL    HW232286   4.419   2.190   0.877
10463SOL     OW32287   4.744   2.909   6.102
10463SOL    HW132288   4.711   2.953   6.185
10463SOL    HW232289   4.667   2.867   6.053
10464SOL     OW32290   6.522   4.895   2.223
10464SOL    HW132291   6.509   4.804   2.262
10464SOL    HW232292   6.473   4.902   2.137
10465SOL     OW32293   5.008   4.462   1.364
10465SOL    HW132294   5.036   4.401   1.438
10465SOL    HW232295   5.052   4.435   1.279
10466SOL     OW32296   5.994   4.937   6.916
10466SOL    HW132297   5.979   5.024   6.964
10466SOL    HW232298   5.913   4.914   6.863
10467SOL     OW32299   1.061   2.786   0.094
10467SOL    HW132300   1.059   2.812   0.190
10467SOL    HW232301   1.066   2.867   0.037
10468SOL     OW32302   2.493   4.623   3.611
10468SOL    HW132303   2.494   4.612   3.711
10468SOL    HW232304   2.502   4.721   3.589
10469SOL     OW32305   6.827   1.380   4.491
10469SOL    HW132306   6.839   1.403   4.394
10469SOL    HW232307   6.733   1.397   4.518
10470SOL     OW32308   2.379   2.646   3.411
10470SOL    HW132309   2.352   2.550   3.397
10470SOL    HW232310   2.446   2.651   3.485
10471SOL     OW32311   3.266   6.646   6.979
10471SOL    HW132312   3.180   6.621   7.022
10471SOL    HW232313   3.341   6.632   0.021
10472SOL     OW32314   3.522   4.954   6.164
10472SOL    HW132315   3.609   4.990   6.128
10472SOL    HW232316   3.521   4.962   6.263
10473SOL     OW32317   4.951   5.519   0.385
10473SOL    HW132318   4.904   5.586   0.327
10473SOL    HW232319   4.977   5.440   0.330
10474SOL     OW32320   5.054   0.856   4.311
10474SOL    HW132321   5.119   0.786   4.280
10474SOL    HW232322   5.032   0.841   4.407
10475SOL     OW32323   1.493   6.655   1.117
10475SOL    HW132324   1.399   6.633   1.143
10475SOL    HW232325   1.537   6.707   1.190
10476SOL     OW32326   3.577   5.563   6.661
10476SOL    HW132327   3.534   5.645   6.700
10476SOL    HW232328   3.669   5.586   6.629
10477SOL     OW32329   6.879   5.271   3.823
10477SOL    HW132330   6.804   5.337   3.811
10477SOL    HW232331   6.938   5.272   3.742
10478SOL     OW32332   5.578   0.770   0.133
10478SOL    HW132333   5.561   0.697   0.198
10478SOL    HW232334   5.660   0.820   0.159
10479SOL     OW32335   0.954   2.221   2.047
10479SOL    HW132336   1.015   2.146   2.021
10479SOL    HW232337   1.009   2.296   2.084
10480SOL     OW32338   2.066   0.331   2.579
10480SOL    HW132339   2.059   0.366   2.485
10480SOL    HW232340   2.121   0.394   2.634
10481SOL     OW32341   0.208   1.604   2.186
10481SOL    HW132342   0.213   1.659   2.269
10481SOL    HW232343   0.207   1.507   2.212
10482SOL     OW32344   5.205   3.916   4.346
10482SOL    HW132345   5.137   3.845   4.367
10482SOL    HW232346   5.163   4.006   4.357
10483SOL     OW32347   6.136   6.124   0.065
10483SOL    HW132348   6.131   6.058   0.141
10483SOL    HW232349   6.144   6.216   0.102
10484SOL     OW32350   6.232   0.851   1.868
10484SOL    HW132351   6.162   0.875   1.935
10484SOL    HW232352   6.193   0.856   1.776
10485SOL     OW32353   5.783   3.821   5.347
10485SOL    HW132354   5.831   3.753   5.403
10485SOL    HW232355   5.755   3.779   5.261
10486SOL     OW32356   5.407   3.006   1.675
10486SOL    HW132357   5.344   2.974   1.746
10486SOL    HW232358   5.377   3.096   1.642
10487SOL     OW32359   5.930   6.636   1.910
10487SOL    HW132360   5.866   6.588   1.971
10487SOL    HW232361   6.015   6.654   1.959
10488SOL     OW32362   2.658   2.534   6.196
10488SOL    HW132363   2.720   2.538   6.274
10488SOL    HW232364   2.632   2.627   6.169
10489SOL     OW32365   0.900   5.966   6.278
10489SOL    HW132366   0.855   5.980   6.367
10489SOL    HW232367   0.878   5.874   6.245
10490SOL     OW32368   6.813   1.191   3.530
10490SOL    HW132369   6.899   1.140   3.527
10490SOL    HW232370   6.834   1.289   3.542
10491SOL     OW32371   1.383   4.434   5.940
10491SOL    HW132372   1.395   4.335   5.949
10491SOL    HW232373   1.300   4.453   5.887
10492SOL     OW32374   5.270   3.519   5.152
10492SOL    HW132375   5.219   3.442   5.190
10492SOL    HW232376   5.207   3.587   5.115
10493SOL     OW32377   3.047   1.278   1.712
10493SOL    HW132378   3.086   1.206   1.655
10493SOL    HW232379   3.109   1.298   1.788
10494SOL     OW32380   6.011   2.030   4.352
10494SOL    HW132381   6.091   2.001   4.300
10494SOL    HW232382   5.956   1.951   4.377
10495SOL     OW32383   1.378   6.312   0.604
10495SOL    HW132384   1.468   6.302   0.560
10495SOL    HW232385   1.307   6.314   0.534
10496SOL     OW32386   0.125   0.115   5.836
10496SOL    HW132387   0.079   0.050   5.896
10496SOL    HW232388   0.173   0.066   5.764
10497SOL     OW32389   1.404   1.317   1.030
10497SOL    HW132390   1.410   1.335   0.932
10497SOL    HW232391   1.342   1.240   1.046
10498SOL     OW32392   2.313   6.443   6.045
10498SOL    HW132393   2.381   6.486   5.985
10498SOL    HW232394   2.313   6.344   6.029
10499SOL     OW32395   3.297   5.760   3.227
10499SOL    HW132396   3.207   5.804   3.233
10499SOL    HW232397   3.290   5.666   3.261
10500SOL     OW32398   1.422   2.014   5.976
10500SOL    HW132399   1.338   1.990   5.927
10500SOL    HW232400   1.425   1.965   6.063
10501SOL     OW32401   1.628   3.575   2.829
10501SOL    HW132402   1.649   3.672   2.819
10501SOL    HW232403   1.533   3.558   2.801
10502SOL     OW32404   3.138   6.084   6.389
10502SOL    HW132405   3.159   6.156   6.322
10502SOL    HW232406   3.207   6.085   6.461
10503SOL     OW32407   2.976   2.462   6.868
10503SOL    HW132408   2.989   2.391   6.799
10503SOL    HW232409   3.050   2.457   6.936
10504SOL     OW32410   2.856   3.557   1.183
10504SOL    HW132411   2.845   3.616   1.263
10504SOL    HW232412   2.949   3.567   1.147
10505SOL     OW32413   6.810   5.971   1.748
10505SOL    HW132414   6.813   5.893   1.686
10505SOL    HW232415   6.727   6.025   1.729
10506SOL     OW32416   0.360   4.072   5.975
10506SOL    HW132417   0.401   4.081   5.884
10506SOL    HW232418   0.431   4.065   6.044
10507SOL     OW32419   1.012   0.380   6.106
10507SOL    HW132420   0.974   0.316   6.174
10507SOL    HW232421   1.053   0.328   6.032
10508SOL     OW32422   5.564   4.324   3.134
10508SOL    HW132423   5.608   4.402   3.177
10508SOL    HW232424   5.577   4.242   3.190
10509SOL     OW32425   1.502   6.774   6.823
10509SOL    HW132426   1.484   6.684   6.862
10509SOL    HW232427   1.600   6.783   6.804
10510SOL     OW32428   6.255   5.693   0.258
10510SOL    HW132429   6.237   5.595   0.257
10510SOL    HW232430   6.269   5.725   0.164
10511SOL     OW32431   4.384   2.989   0.372
10511SOL    HW132432   4.301   3.035   0.341
10511SOL    HW232433   4.395   2.903   0.323
10512SOL     OW32434   4.269   6.982   5.532
10512SOL    HW132435   4.346   6.924   5.555
10512SOL    HW232436   4.194   6.965   5.597
10513SOL     OW32437   0.466   2.655   6.830
10513SOL    HW132438   0.466   2.737   6.887
10513SOL    HW232439   0.383   2.601   6.850
10514SOL     OW32440   0.342   4.630   0.552
10514SOL    HW132441   0.344   4.635   0.453
10514SOL    HW232442   0.250   4.604   0.582
10515SOL     OW32443   6.747   2.083   3.242
10515SOL    HW132444   6.805   2.163   3.260
10515SOL    HW232445   6.680   2.105   3.172
10516SOL     OW32446   4.096   0.860   5.993
10516SOL    HW132447   4.066   0.834   5.901
10516SOL    HW232448   4.159   0.791   6.027
10517SOL     OW32449   6.844   1.701   2.415
10517SOL    HW132450   6.892   1.684   2.501
10517SOL    HW232451   6.820   1.613   2.373
10518SOL     OW32452   0.913   6.382   1.006
10518SOL    HW132453   0.844   6.405   0.937
10518SOL    HW232454   0.888   6.423   1.093
10519SOL     OW32455   3.275   3.446   5.846
10519SOL    HW132456   3.275   3.473   5.750
10519SOL    HW232457   3.332   3.510   5.898
10520SOL     OW32458   3.366   2.795   0.232
10520SOL    HW132459   3.421   2.791   0.315
10520SOL    HW232460   3.408   2.861   0.168
10521SOL     OW32461   6.458   5.713   1.218
10521SOL    HW132462   6.516   5.672   1.289
10521SOL    HW232463   6.382   5.762   1.262
10522SOL     OW32464   6.749   0.280   1.176
10522SOL    HW132465   6.693   0.284   1.259
10522SOL    HW232466   6.690   0.277   1.095
10523SOL     OW32467   0.460   5.666   6.403
10523SOL    HW132468   0.438   5.568   6.398
10523SOL    HW232469   0.453   5.697   6.498
10524SOL     OW32470   2.886   0.396   4.144
10524SOL    HW132471   2.886   0.322   4.076
10524SOL    HW232472   2.882   0.357   4.235
10525SOL     OW32473   1.976   6.138   5.195
10525SOL    HW132474   2.044   6.147   5.267
10525SOL    HW232475   2.002   6.196   5.117
10526SOL     OW32476   0.126   0.739   2.289
10526SOL    HW132477   0.133   0.653   2.340
10526SOL    HW232478   0.095   0.811   2.350
10527SOL     OW32479   0.880   3.032   4.627
10527SOL    HW132480   0.802   2.975   4.598
10527SOL    HW232481   0.939   2.979   4.688
10528SOL     OW32482   0.075   4.835   5.335
10528SOL    HW132483   7.009   4.825   5.380
10528SOL    HW232484   0.092   4.757   5.274
10529SOL     OW32485   6.662   0.103   3.749
10529SOL    HW132486   6.658   0.124   3.846
10529SOL    HW232487   6.574   0.121   3.707
10530SOL     OW32488   2.587   2.095   6.175
10530SOL    HW132489   2.614   2.094   6.079
10530SOL    HW232490   2.494   2.129   6.184
10531SOL     OW32491   1.846   2.989   4.777
10531SOL    HW132492   1.892   2.991   4.688
10531SOL    HW232493   1.909   2.951   4.846
10532SOL     OW32494   4.189   2.530   5.805
10532SOL    HW132495   4.158   2.621   5.777
10532SOL    HW232496   4.287   2.520   5.787
10533SOL     OW32497   2.634   1.623   5.719
10533SOL    HW132498   2.632   1.577   5.631
10533SOL    HW232499   2.597   1.716   5.709
10534SOL     OW32500   0.155   5.365   0.471
10534SOL    HW132501   0.232   5.325   0.421
10534SOL    HW232502   0.180   5.457   0.502
10535SOL     OW32503   0.327   1.350   2.289
10535SOL    HW132504   0.371   1.351   2.379
10535SOL    HW232505   0.397   1.343   2.218
10536SOL     OW32506   4.443   0.316   2.390
10536SOL    HW132507   4.480   0.253   2.459
10536SOL    HW232508   4.371   0.372   2.431
10537SOL     OW32509   1.818   5.082   2.065
10537SOL    HW132510   1.753   5.102   1.992
10537SOL    HW232511   1.773   5.030   2.137
10538SOL     OW32512   4.334   4.355   6.973
10538SOL    HW132513   4.310   4.335   0.045
10538SOL    HW232514   4.428   4.323   6.956
10539SOL     OW32515   0.637   3.672   6.667
10539SOL    HW132516   0.584   3.597   6.707
10539SOL    HW232517   0.688   3.639   6.588
10540SOL     OW32518   1.815   0.233   6.616
10540SOL    HW132519   1.791   0.238   6.713
10540SOL    HW232520   1.732   0.245   6.561
10541SOL     OW32521   3.570   3.451   6.934
10541SOL    HW132522   3.620   3.525   6.980
10541SOL    HW232523   3.627   3.369   6.932
10542SOL     OW32524   0.215   2.274   0.243
10542SOL    HW132525   0.134   2.303   0.191
10542SOL    HW232526   0.215   2.175   0.252
10543SOL     OW32527   0.726   1.265   5.661
10543SOL    HW132528   0.637   1.240   5.623
10543SOL    HW232529   0.784   1.302   5.589
10544SOL     OW32530   2.100   2.007   2.135
10544SOL    HW132531   2.104   1.990   2.036
10544SOL    HW232532   2.022   1.959   2.174
10545SOL     OW32533   6.573   0.814   2.570
10545SOL    HW132534   6.513   0.892   2.552
10545SOL    HW232535   6.581   0.802   2.669
10546SOL     OW32536   2.425   0.423   4.556
10546SOL    HW132537   2.447   0.396   4.462
10546SOL    HW232538   2.353   0.492   4.555
10547SOL     OW32539   4.512   1.833   1.207
10547SOL    HW132540   4.518   1.900   1.133
10547SOL    HW232541   4.553   1.746   1.177
10548SOL     OW32542   5.015   4.101   4.707
10548SOL    HW132543   5.058   4.135   4.624
10548SOL    HW232544   5.022   4.001   4.709
10549SOL     OW32545   0.937   1.106   1.886
10549SOL    HW132546   0.970   1.046   1.959
10549SOL    HW232547   0.922   1.198   1.923
10550SOL     OW32548   5.548   0.107   4.270
10550SOL    HW132549   5.484   0.079   4.199
10550SOL    HW232550   5.637   0.125   4.229
10551SOL     OW32551   1.076   2.234   6.155
10551SOL    HW132552   1.122   2.160   6.204
10551SOL    HW232553   1.059   2.310   6.218
10552SOL     OW32554   3.345   2.233   5.386
10552SOL    HW132555   3.405   2.162   5.347
10552SOL    HW232556   3.275   2.257   5.319
10553SOL     OW32557   1.270   5.474   0.276
10553SOL    HW132558   1.363   5.436   0.274
10553SOL    HW232559   1.273   5.567   0.312
10554SOL     OW32560   6.565   4.836   6.871
10554SOL    HW132561   6.494   4.803   6.934
10554SOL    HW232562   6.550   4.933   6.852
10555SOL     OW32563   3.793   1.394   1.690
10555SOL    HW132564   3.821   1.432   1.779
10555SOL    HW232565   3.696   1.414   1.675
10556SOL     OW32566   1.958   3.256   5.049
10556SOL    HW132567   2.010   3.326   5.001
10556SOL    HW232568   2.019   3.183   5.078
10557SOL     OW32569   6.875   2.908   3.128
10557SOL    HW132570   6.853   2.872   3.219
10557SOL    HW232571   6.856   2.838   3.059
10558SOL     OW32572   4.702   5.991   5.437
10558SOL    HW132573   4.633   6.021   5.370
10558SOL    HW232574   4.767   6.065   5.454
10559SOL     OW32575   4.583   1.970   0.565
10559SOL    HW132576   4.487   1.958   0.589
10559SOL    HW232577   4.612   2.062   0.590
10560SOL     OW32578   0.963   3.561   4.569
10560SOL    HW132579   0.948   3.466   4.541
10560SOL    HW232580   0.990   3.615   4.489
10561SOL     OW32581   2.063   4.465   0.130
10561SOL    HW132582   2.051   4.400   0.055
10561SOL    HW232583   1.973   4.498   0.160
10562SOL     OW32584   4.296   1.398   0.737
10562SOL    HW132585   4.343   1.317   0.772
10562SOL    HW232586   4.322   1.413   0.642
10563SOL     OW32587   1.708   2.124   5.671
10563SOL    HW132588   1.782   2.096   5.732
10563SOL    HW232589   1.659   2.202   5.711
10564SOL     OW32590   5.880   1.522   1.900
10564SOL    HW132591   5.927   1.472   1.826
10564SOL    HW232592   5.923   1.499   1.987
10565SOL     OW32593   6.281   1.570   4.848
10565SOL    HW132594   6.246   1.599   4.936
10565SOL    HW232595   6.373   1.607   4.835
10566SOL     OW32596   3.824   3.835   6.071
10566SOL    HW132597   3.856   3.824   5.977
10566SOL    HW232598   3.725   3.845   6.072
10567SOL     OW32599   1.884   3.731   4.114
10567SOL    HW132600   1.955   3.662   4.132
10567SOL    HW232601   1.794   3.687   4.113
10568SOL     OW32602   5.101   1.114   2.657
10568SOL    HW132603   5.108   1.048   2.731
10568SOL    HW232604   5.179   1.178   2.661
10569SOL     OW32605   5.607   2.702   4.277
10569SOL    HW132606   5.524   2.650   4.298
10569SOL    HW232607   5.594   2.798   4.302
10570SOL     OW32608   2.186   4.734   2.511
10570SOL    HW132609   2.208   4.683   2.428
10570SOL    HW232610   2.212   4.830   2.499
10571SOL     OW32611   6.375   6.066   3.125
10571SOL    HW132612   6.422   6.106   3.203
10571SOL    HW232613   6.282   6.103   3.119
10572SOL     OW32614   5.391   3.424   2.310
10572SOL    HW132615   5.350   3.341   2.274
10572SOL    HW232616   5.486   3.431   2.280
10573SOL     OW32617   6.049   5.259   4.897
10573SOL    HW132618   6.024   5.356   4.899
10573SOL    HW232619   6.108   5.238   4.974
10574SOL     OW32620   0.185   1.411   3.563
10574SOL    HW132621   0.119   1.442   3.494
10574SOL    HW232622   0.252   1.484   3.579
10575SOL     OW32623   0.930   0.377   5.193
10575SOL    HW132624   0.946   0.322   5.111
10575SOL    HW232625   1.008   0.438   5.208
10576SOL     OW32626   1.803   5.760   4.529
10576SOL    HW132627   1.882   5.717   4.486
10576SOL    HW232628   1.736   5.784   4.460
10577SOL     OW32629   1.782   3.066   6.157
10577SOL    HW132630   1.718   3.056   6.081
10577SOL    HW232631   1.875   3.059   6.123
10578SOL     OW32632   6.086   0.129   5.425
10578SOL    HW132633   6.018   0.135   5.499
10578SOL    HW232634   6.075   0.207   5.363
10579SOL     OW32635   4.523   1.894   0.292
10579SOL    HW132636   4.586   1.895   0.370
10579SOL    HW232637   4.441   1.946   0.316
10580SOL     OW32638   6.711   6.212   0.145
10580SOL    HW132639   6.784   6.271   0.111
10580SOL    HW232640   6.708   6.128   0.091
10581SOL     OW32641   5.676   0.323   3.242
10581SOL    HW132642   5.760   0.343   3.193
10581SOL    HW232643   5.689   0.242   3.299
10582SOL     OW32644   3.842   4.942   6.710
10582SOL    HW132645   3.806   4.850   6.692
10582SOL    HW232646   3.842   4.959   6.809
10583SOL     OW32647   3.987   1.382   6.923
10583SOL    HW132648   4.022   1.423   7.007
10583SOL    HW232649   3.954   1.289   6.943
10584SOL     OW32650   5.694   6.793   1.166
10584SOL    HW132651   5.600   6.770   1.142
10584SOL    HW232652   5.694   6.854   1.245
10585SOL     OW32653   0.534   3.187   6.388
10585SOL    HW132654   0.530   3.089   6.368
10585SOL    HW232655   0.480   3.206   6.470
10586SOL     OW32656   2.693   5.913   5.680
10586SOL    HW132657   2.681   5.882   5.586
10586SOL    HW232658   2.719   5.836   5.738
10587SOL     OW32659   5.791   3.371   0.884
10587SOL    HW132660   5.790   3.278   0.921
10587SOL    HW232661   5.845   3.374   0.800
10588SOL     OW32662   0.951   4.780   3.183
10588SOL    HW132663   0.959   4.687   3.220
10588SOL    HW232664   0.966   4.846   3.256
10589SOL     OW32665   5.630   2.025   3.831
10589SOL    HW132666   5.702   2.095   3.824
10589SOL    HW232667   5.650   1.950   3.768
10590SOL     OW32668   1.283   0.188   3.436
10590SOL    HW132669   1.291   0.256   3.363
10590SOL    HW232670   1.333   0.219   3.517
10591SOL     OW32671   1.065   1.919   6.544
10591SOL    HW132672   0.988   1.855   6.543
10591SOL    HW232673   1.080   1.950   6.638
10592SOL     OW32674   6.273   1.399   0.468
10592SOL    HW132675   6.288   1.474   0.404
10592SOL    HW232676   6.183   1.409   0.511
10593SOL     OW32677   1.686   5.696   1.692
10593SOL    HW132678   1.771   5.680   1.743
10593SOL    HW232679   1.663   5.793   1.696
10594SOL     OW32680   6.423   1.821   4.080
10594SOL    HW132681   6.444   1.730   4.046
10594SOL    HW232682   6.390   1.878   4.004
10595SOL     OW32683   3.915   6.627   6.271
10595SOL    HW132684   3.825   6.635   6.313
10595SOL    HW232685   3.976   6.697   6.309
10596SOL     OW32686   3.945   6.643   2.349
10596SOL    HW132687   4.003   6.724   2.354
10596SOL    HW232688   3.903   6.638   2.258
10597SOL     OW32689   1.726   1.017   4.860
10597SOL    HW132690   1.709   0.951   4.787
10597SOL    HW232691   1.647   1.079   4.868
10598SOL     OW32692   1.920   2.504   6.545
10598SOL    HW132693   1.891   2.421   6.591
10598SOL    HW232694   1.860   2.580   6.570
10599SOL     OW32695   5.815   1.273   6.880
10599SOL    HW132696   5.731   1.220   6.877
10599SOL    HW232697   5.887   1.225   6.830
10600SOL     OW32698   2.331   3.019   5.813
10600SOL    HW132699   2.385   3.002   5.730
10600SOL    HW232700   2.253   2.958   5.815
10601SOL     OW32701   3.064   6.534   6.166
10601SOL    HW132702   3.087   6.622   6.206
10601SOL    HW232703   3.099   6.529   6.072
10602SOL     OW32704   4.567   1.839   1.465
10602SOL    HW132705   4.537   1.857   1.372
10602SOL    HW232706   4.491   1.802   1.519
10603SOL     OW32707   2.071   5.478   4.000
10603SOL    HW132708   2.137   5.412   4.035
10603SOL    HW232709   2.114   5.533   3.928
10604SOL     OW32710   6.486   4.006   3.846
10604SOL    HW132711   6.467   4.013   3.944
10604SOL    HW232712   6.584   3.993   3.832
10605SOL     OW32713   1.336   5.239   6.528
10605SOL    HW132714   1.414   5.234   6.467
10605SOL    HW232715   1.251   5.232   6.475
10606SOL     OW32716   0.633   0.320   1.870
10606SOL    HW132717   0.594   0.412   1.861
10606SOL    HW232718   0.608   0.282   1.959
10607SOL     OW32719   5.072   4.421   6.964
10607SOL    HW132720   4.985   4.392   6.924
10607SOL    HW232721   5.126   4.470   6.895
10608SOL     OW32722   5.856   1.581   3.942
10608SOL    HW132723   5.867   1.489   3.978
10608SOL    HW232724   5.879   1.582   3.845
10609SOL     OW32725   4.014   6.610   0.955
10609SOL    HW132726   3.938   6.666   0.990
10609SOL    HW232727   3.981   6.518   0.936
10610SOL     OW32728   1.256   2.899   5.552
10610SOL    HW132729   1.310   2.965   5.499
10610SOL    HW232730   1.247   2.814   5.501
10611SOL     OW32731   5.615   2.680   6.028
10611SOL    HW132732   5.629   2.593   6.074
10611SOL    HW232733   5.694   2.702   5.971
10612SOL     OW32734   2.285   0.657   6.855
10612SOL    HW132735   2.188   0.645   6.834
10612SOL    HW232736   2.311   0.753   6.842
10613SOL     OW32737   0.422   6.405   5.568
10613SOL    HW132738   0.379   6.406   5.659
10613SOL    HW232739   0.438   6.310   5.540
10614SOL     OW32740   6.519   1.061   3.975
10614SOL    HW132741   6.467   1.078   4.058
10614SOL    HW232742   6.462   1.082   3.895
10615SOL     OW32743   5.248   5.428   5.177
10615SOL    HW132744   5.190   5.346   5.180
10615SOL    HW232745   5.196   5.504   5.138
10616SOL     OW32746   3.174   6.049   6.858
10616SOL    HW132747   3.090   6.012   6.817
10616SOL    HW232748   3.244   6.059   6.788
10617SOL     OW32749   2.345   2.144   0.522
10617SOL    HW132750   2.425   2.097   0.486
10617SOL    HW232751   2.374   2.229   0.565
10618SOL     OW32752   5.851   3.312   0.228
10618SOL    HW132753   5.857   3.224   0.180
10618SOL    HW232754   5.824   3.383   0.164
10619SOL     OW32755   1.061   4.222   4.282
10619SOL    HW132756   1.053   4.234   4.381
10619SOL    HW232757   1.156   4.232   4.254
10620SOL     OW32758   1.492   5.990   4.916
10620SOL    HW132759   1.395   6.007   4.937
10620SOL    HW232760   1.532   6.072   4.876
10621SOL     OW32761   1.660   6.243   0.092
10621SOL    HW132762   1.603   6.179   0.041
10621SOL    HW232763   1.712   6.300   0.028
10622SOL     OW32764   3.832   0.400   1.539
10622SOL    HW132765   3.847   0.368   1.633
10622SOL    HW232766   3.824   0.322   1.478
10623SOL     OW32767   5.795   2.568   3.848
10623SOL    HW132768   5.894   2.559   3.831
10623SOL    HW232769   5.770   2.665   3.845
10624SOL     OW32770   1.535   0.672   4.778
10624SOL    HW132771   1.458   0.735   4.787
10624SOL    HW232772   1.594   0.702   4.703
10625SOL     OW32773   0.677   3.162   0.206
10625SOL    HW132774   0.684   3.076   0.156
10625SOL    HW232775   0.642   3.145   0.298
10626SOL     OW32776   0.673   2.014   1.968
10626SOL    HW132777   0.597   2.018   1.903
10626SOL    HW232778   0.687   2.105   2.007
10627SOL     OW32779   6.398   6.477   3.766
10627SOL    HW132780   6.429   6.387   3.737
10627SOL    HW232781   6.377   6.475   3.864
10628SOL     OW32782   6.366   5.669   5.991
10628SOL    HW132783   6.320   5.757   5.987
10628SOL    HW232784   6.404   5.645   5.902
10629SOL     OW32785   2.539   5.448   5.798
10629SOL    HW132786   2.527   5.348   5.801
10629SOL    HW232787   2.474   5.488   5.734
10630SOL     OW32788   6.141   1.748   3.206
10630SOL    HW132789   6.052   1.748   3.162
10630SOL    HW232790   6.213   1.747   3.137
10631SOL     OW32791   0.900   6.922   4.082
10631SOL    HW132792   0.954   6.992   4.035
10631SOL    HW232793   0.932   6.913   4.177
10632SOL     OW32794   6.853   1.981   4.905
10632SOL    HW132795   6.925   2.050   4.905
10632SOL    HW232796   6.893   1.890   4.916
10633SOL     OW32797   2.341   5.356   1.644
10633SOL    HW132798   2.387   5.268   1.636
10633SOL    HW232799   2.310   5.369   1.738
10634SOL     OW32800   3.871   6.359   0.975
10634SOL    HW132801   3.848   6.297   0.900
10634SOL    HW232802   3.803   6.350   1.048
10635SOL     OW32803   2.202   0.916   1.140
10635SOL    HW132804   2.169   0.847   1.204
10635SOL    HW232805   2.291   0.887   1.103
10636SOL     OW32806   0.949   1.929   1.203
10636SOL    HW132807   0.992   1.899   1.288
10636SOL    HW232808   0.955   2.028   1.195
10637SOL     OW32809   3.336   4.177   4.492
10637SOL    HW132810   3.246   4.192   4.453
10637SOL    HW232811   3.405   4.184   4.420
10638SOL     OW32812   6.948   6.582   4.949
10638SOL    HW132813   6.918   6.638   4.872
10638SOL    HW232814   6.915   6.489   4.937
10639SOL     OW32815   1.809   1.048   5.231
10639SOL    HW132816   1.833   1.102   5.311
10639SOL    HW232817   1.720   1.004   5.246
10640SOL     OW32818   4.692   1.213   0.238
10640SOL    HW132819   4.682   1.148   0.314
10640SOL    HW232820   4.777   1.263   0.248
10641SOL     OW32821   5.926   1.461   0.011
10641SOL    HW132822   5.928   1.439   0.109
10641SOL    HW232823   5.881   1.387   6.984
10642SOL     OW32824   0.366   2.813   1.536
10642SOL    HW132825   0.399   2.822   1.630
10642SOL    HW232826   0.383   2.719   1.505
10643SOL     OW32827   2.460   3.572   5.355
10643SOL    HW132828   2.489   3.478   5.339
10643SOL    HW232829   2.540   3.631   5.367
10644SOL     OW32830   4.725   1.431   3.705
10644SOL    HW132831   4.717   1.444   3.804
10644SOL    HW232832   4.723   1.521   3.659
10645SOL     OW32833   2.468   0.140   4.971
10645SOL    HW132834   2.416   0.221   4.944
10645SOL    HW232835   2.438   0.061   4.918
10646SOL     OW32836   1.252   3.334   6.435
10646SOL    HW132837   1.347   3.365   6.436
10646SOL    HW232838   1.197   3.393   6.493
10647SOL     OW32839   6.869   5.171   0.824
10647SOL    HW132840   6.819   5.216   0.750
10647SOL    HW232841   6.966   5.193   0.817
10648SOL     OW32842   4.547   2.614   0.015
10648SOL    HW132843   4.532   2.706   7.001
10648SOL    HW232844   4.551   2.548   6.962
10649SOL     OW32845   6.756   4.813   5.750
10649SOL    HW132846   6.703   4.822   5.834
10649SOL    HW232847   6.852   4.793   5.773
10650SOL     OW32848   2.840   6.139   3.695
10650SOL    HW132849   2.873   6.082   3.770
10650SOL    HW232850   2.839   6.085   3.610
10651SOL     OW32851   4.585   6.198   6.326
10651SOL    HW132852   4.635   6.279   6.358
10651SOL    HW232853   4.489   6.207   6.352
10652SOL     OW32854   3.604   0.369   6.298
10652SOL    HW132855   3.550   0.332   6.222
10652SOL    HW232856   3.551   0.440   6.345
10653SOL     OW32857   5.269   3.695   3.970
10653SOL    HW132858   5.330   3.682   4.048
10653SOL    HW232859   5.193   3.629   3.975
10654SOL     OW32860   4.048   1.258   0.774
10654SOL    HW132861   4.095   1.344   0.759
10654SOL    HW232862   4.089   1.210   0.851
10655SOL     OW32863   2.858   6.181   1.123
10655SOL    HW132864   2.838   6.112   1.054
10655SOL    HW232865   2.956   6.203   1.121
10656SOL     OW32866   6.390   2.407   6.765
10656SOL    HW132867   6.445   2.400   6.848
10656SOL    HW232868   6.374   2.316   6.727
10657SOL     OW32869   6.189   0.924   1.007
10657SOL    HW132870   6.099   0.885   0.989
10657SOL    HW232871   6.178   1.009   1.058
10658SOL     OW32872   0.186   5.438   4.602
10658SOL    HW132873   0.134   5.366   4.647
10658SOL    HW232874   0.242   5.486   4.670
10659SOL     OW32875   6.093   0.530   0.353
10659SOL    HW132876   6.040   0.599   0.303
10659SOL    HW232877   6.165   0.494   0.294
10660SOL     OW32878   4.712   5.293   5.677
10660SOL    HW132879   4.789   5.327   5.622
10660SOL    HW232880   4.675   5.366   5.733
10661SOL     OW32881   0.300   6.714   2.495
10661SOL    HW132882   0.323   6.683   2.403
10661SOL    HW232883   0.252   6.640   2.543
10662SOL     OW32884   5.964   1.594   0.814
10662SOL    HW132885   6.056   1.617   0.847
10662SOL    HW232886   5.901   1.594   0.892
10663SOL     OW32887   6.785   0.293   0.226
10663SOL    HW132888   6.807   0.247   0.141
10663SOL    HW232889   6.865   0.295   0.286
10664SOL     OW32890   2.155   5.639   7.023
10664SOL    HW132891   2.192   5.712   6.966
10664SOL    HW232892   2.115   5.678   0.083
10665SOL     OW32893   6.508   1.958   1.020
10665SOL    HW132894   6.534   1.872   0.976
10665SOL    HW232895   6.465   1.939   1.107
10666SOL     OW32896   1.842   6.734   0.044
10666SOL    HW132897   1.890   6.808   7.019
10666SOL    HW232898   1.907   6.685   0.103
10667SOL     OW32899   3.199   2.003   5.491
10667SOL    HW132900   3.204   2.099   5.465
10667SOL    HW232901   3.126   1.991   5.559
10668SOL     OW32902   1.270   1.152   5.768
10668SOL    HW132903   1.222   1.138   5.681
10668SOL    HW232904   1.204   1.174   5.840
10669SOL     OW32905   1.357   6.831   0.266
10669SOL    HW132906   1.284   6.841   0.334
10669SOL    HW232907   1.388   6.922   0.237
10670SOL     OW32908   6.141   4.662   5.686
10670SOL    HW132909   6.204   4.730   5.647
10670SOL    HW232910   6.144   4.579   5.632
10671SOL     OW32911   2.043   1.019   3.596
10671SOL    HW132912   2.085   1.092   3.541
10671SOL    HW232913   2.080   0.930   3.567
10672SOL     OW32914   0.036   2.962   1.090
10672SOL    HW132915   0.006   2.943   1.183
10672SOL    HW232916   0.111   2.901   1.066
10673SOL     OW32917   2.695   3.060   5.346
10673SOL    HW132918   2.614   3.047   5.288
10673SOL    HW232919   2.681   3.137   5.408
10674SOL     OW32920   3.603   2.814   1.404
10674SOL    HW132921   3.642   2.901   1.374
10674SOL    HW232922   3.677   2.751   1.427
10675SOL     OW32923   0.332   0.386   5.624
10675SOL    HW132924   0.272   0.350   5.554
10675SOL    HW232925   0.319   0.485   5.631
10676SOL     OW32926   6.501   0.158   6.210
10676SOL    HW132927   6.553   0.075   6.230
10676SOL    HW232928   6.444   0.142   6.129
10677SOL     OW32929   0.347   0.565   0.683
10677SOL    HW132930   0.384   0.563   0.591
10677SOL    HW232931   0.302   0.653   0.699
10678SOL     OW32932   2.653   6.271   2.810
10678SOL    HW132933   2.557   6.284   2.784
10678SOL    HW232934   2.669   6.174   2.831
10679SOL     OW32935   5.528   4.715   4.649
10679SOL    HW132936   5.505   4.730   4.745
10679SOL    HW232937   5.627   4.702   4.640
10680SOL     OW32938   1.301   2.455   3.258
10680SOL    HW132939   1.379   2.464   3.196
10680SOL    HW232940   1.306   2.527   3.327
10681SOL     OW32941   6.997   1.823   6.194
10681SOL    HW132942   6.928   1.863   6.254
10681SOL    HW232943   0.039   1.770   6.249
10682SOL     OW32944   6.816   1.927   3.042
10682SOL    HW132945   6.810   1.975   3.129
10682SOL    HW232946   6.871   1.980   2.978
10683SOL     OW32947   1.931   1.160   4.766
10683SOL    HW132948   1.880   1.120   4.842
10683SOL    HW232949   1.868   1.192   4.696
10684SOL     OW32950   6.140   5.161   0.223
10684SOL    HW132951   6.142   5.085   0.287
10684SOL    HW232952   6.048   5.172   0.186
10685SOL     OW32953   0.264   2.774   2.678
10685SOL    HW132954   0.282   2.681   2.647
10685SOL    HW232955   0.301   2.786   2.770
10686SOL     OW32956   3.288   5.258   0.330
10686SOL    HW132957   3.258   5.287   0.239
10686SOL    HW232958   3.368   5.198   0.322
10687SOL     OW32959   0.175   4.496   3.024
10687SOL    HW132960   0.134   4.506   2.933
10687SOL    HW232961   0.226   4.579   3.047
10688SOL     OW32962   6.209   5.170   2.203
10688SOL    HW132963   6.162   5.158   2.116
10688SOL    HW232964   6.149   5.220   2.266
10689SOL     OW32965   0.640   1.045   2.889
10689SOL    HW132966   0.568   1.109   2.862
10689SOL    HW232967   0.717   1.053   2.825
10690SOL     OW32968   4.609   5.168   1.955
10690SOL    HW132969   4.594   5.073   1.985
10690SOL    HW232970   4.546   5.191   1.881
10691SOL     OW32971   6.939   1.460   1.843
10691SOL    HW132972   6.926   1.457   1.744
10691SOL    HW232973   6.934   1.367   1.881
10692SOL     OW32974   3.488   5.890   3.702
10692SOL    HW132975   3.544   5.893   3.785
10692SOL    HW232976   3.532   5.830   3.635
10693SOL     OW32977   6.655   2.044   1.826
10693SOL    HW132978   6.710   2.071   1.906
10693SOL    HW232979   6.715   2.026   1.749
10694SOL     OW32980   3.805   6.269   0.724
10694SOL    HW132981   3.785   6.358   0.684
10694SOL    HW232982   3.733   6.204   0.699
10695SOL     OW32983   0.026   2.786   4.032
10695SOL    HW132984   0.022   2.885   4.021
10695SOL    HW232985   6.958   2.751   4.057
10696SOL     OW32986   6.620   6.191   1.682
10696SOL    HW132987   6.682   6.247   1.737
10696SOL    HW232988   6.645   6.200   1.585
10697SOL     OW32989   2.519   5.380   3.543
10697SOL    HW132990   2.541   5.460   3.487
10697SOL    HW232991   2.567   5.387   3.631
10698SOL     OW32992   3.162   6.769   3.671
10698SOL    HW132993   3.196   6.841   3.611
10698SOL    HW232994   3.066   6.786   3.692
10699SOL     OW32995   2.469   2.207   2.994
10699SOL    HW132996   2.450   2.206   3.092
10699SOL    HW232997   2.517   2.291   2.970
10700SOL     OW32998   6.923   6.716   1.347
10700SOL    HW132999   6.854   6.727   1.276
10700SOL    HW233000   6.884   6.740   1.436
10701SOL     OW33001   3.199   6.225   0.468
10701SOL    HW133002   3.267   6.276   0.521
10701SOL    HW233003   3.115   6.217   0.521
10702SOL     OW33004   6.588   3.162   1.254
10702SOL    HW133005   6.515   3.182   1.319
10702SOL    HW233006   6.647   3.242   1.244
10703SOL     OW33007   4.066   3.678   3.860
10703SOL    HW133008   4.139   3.646   3.800
10703SOL    HW233009   4.066   3.623   3.944
10704SOL     OW33010   5.097   6.810   1.761
10704SOL    HW133011   5.004   6.821   1.794
10704SOL    HW233012   5.106   6.722   1.713
10705SOL     OW33013   0.152   2.485   6.639
10705SOL    HW133014   0.187   2.506   6.548
10705SOL    HW233015   0.213   2.421   6.685
10706SOL     OW33016   3.482   1.149   1.902
10706SOL    HW133017   3.566   1.100   1.927
10706SOL    HW233018   3.418   1.086   1.859
10707SOL     OW33019   5.983   0.066   6.197
10707SOL    HW133020   6.072   0.037   6.232
10707SOL    HW233021   5.959   0.012   6.116
10708SOL     OW33022   4.675   1.141   1.220
10708SOL    HW133023   4.661   1.121   1.317
10708SOL    HW233024   4.658   1.058   1.167
10709SOL     OW33025   0.404   5.579   6.013
10709SOL    HW133026   0.314   5.539   5.996
10709SOL    HW233027   0.466   5.508   6.048
10710SOL     OW33028   6.365   5.447   3.383
10710SOL    HW133029   6.326   5.358   3.361
10710SOL    HW233030   6.465   5.441   3.381
10711SOL     OW33031   1.661   6.227   4.494
10711SOL    HW133032   1.749   6.205   4.454
10711SOL    HW233033   1.589   6.177   4.445
10712SOL     OW33034   3.758   1.384   4.796
10712SOL    HW133035   3.737   1.458   4.733
10712SOL    HW233036   3.700   1.305   4.776
10713SOL     OW33037   0.777   5.954   1.360
10713SOL    HW133038   0.875   5.968   1.373
10713SOL    HW233039   0.761   5.870   1.308
10714SOL     OW33040   6.698   4.418   5.644
10714SOL    HW133041   6.718   4.471   5.727
10714SOL    HW233042   6.629   4.466   5.589
10715SOL     OW33043   5.830   1.536   4.458
10715SOL    HW133044   5.858   1.444   4.432
10715SOL    HW233045   5.831   1.595   4.378
10716SOL     OW33046   6.069   0.521   3.265
10716SOL    HW133047   5.997   0.496   3.330
10716SOL    HW233048   6.144   0.566   3.314
10717SOL     OW33049   6.951   6.463   1.594
10717SOL    HW133050   7.006   6.542   1.566
10717SOL    HW233051   6.972   6.385   1.536
10718SOL     OW33052   6.945   4.527   6.831
10718SOL    HW133053   6.977   4.441   6.870
10718SOL    HW233054   7.011   4.559   6.763
10719SOL     OW33055   4.627   0.826   2.188
10719SOL    HW133056   4.551   0.879   2.150
10719SOL    HW233057   4.601   0.730   2.195
10720SOL     OW33058   0.809   3.841   0.099
10720SOL    HW133059   0.719   3.842   0.142
10720SOL    HW233060   0.825   3.751   0.058
10721SOL     OW33061   4.677   2.665   4.200
10721SOL    HW133062   4.661   2.594   4.269
10721SOL    HW233063   4.634   2.637   4.114
10722SOL     OW33064   0.295   3.893   0.104
10722SOL    HW133065   0.226   3.914   0.034
10722SOL    HW233066   0.250   3.867   0.189
10723SOL     OW33067   6.435   4.023   0.168
10723SOL    HW133068   6.498   4.008   0.093
10723SOL    HW233069   6.346   3.981   0.147
10724SOL     OW33070   3.362   6.505   5.662
10724SOL    HW133071   3.354   6.409   5.689
10724SOL    HW233072   3.281   6.532   5.610
10725SOL     OW33073   6.744   6.212   4.750
10725SOL    HW133074   6.688   6.290   4.724
10725SOL    HW233075   6.692   6.152   4.811
10726SOL     OW33076   5.396   0.577   4.393
10726SOL    HW133077   5.390   0.666   4.347
10726SOL    HW233078   5.334   0.577   4.472
10727SOL     OW33079   2.255   5.881   6.889
10727SOL    HW133080   2.216   5.973   6.880
10727SOL    HW233081   2.323   5.867   6.817
10728SOL     OW33082   5.324   5.795   3.433
10728SOL    HW133083   5.287   5.815   3.524
10728SOL    HW233084   5.383   5.714   3.438
10729SOL     OW33085   6.082   3.359   3.866
10729SOL    HW133086   6.118   3.269   3.889
10729SOL    HW233087   6.158   3.419   3.839
10730SOL     OW33088   1.789   5.885   3.104
10730SOL    HW133089   1.777   5.904   3.007
10730SOL    HW233090   1.885   5.896   3.129
10731SOL     OW33091   5.264   6.372   6.795
10731SOL    HW133092   5.290   6.468   6.790
10731SOL    HW233093   5.216   6.355   6.881
10732SOL     OW33094   6.069   5.947   3.351
10732SOL    HW133095   6.027   5.883   3.416
10732SOL    HW233096   6.045   5.920   3.258
10733SOL     OW33097   0.530   0.942   6.138
10733SOL    HW133098   0.566   0.850   6.125
10733SOL    HW233099   0.439   0.948   6.097
10734SOL     OW33100   1.107   1.322   4.771
10734SOL    HW133101   1.206   1.325   4.756
10734SOL    HW233102   1.074   1.414   4.794
10735SOL     OW33103   0.628   5.812   2.034
10735SOL    HW133104   0.554   5.797   2.099
10735SOL    HW233105   0.593   5.809   1.941
10736SOL     OW33106   5.736   6.297   4.113
10736SOL    HW133107   5.640   6.317   4.128
10736SOL    HW233108   5.768   6.234   4.184
10737SOL     OW33109   6.478   0.894   2.018
10737SOL    HW133110   6.516   0.822   1.960
10737SOL    HW233111   6.379   0.897   2.006
10738SOL     OW33112   3.680   1.346   1.240
10738SOL    HW133113   3.717   1.282   1.308
10738SOL    HW233114   3.701   1.313   1.148
10739SOL     OW33115   5.840   2.785   3.545
10739SOL    HW133116   5.916   2.767   3.607
10739SOL    HW233117   5.865   2.861   3.484
10740SOL     OW33118   2.100   0.288   5.941
10740SOL    HW133119   2.138   0.236   6.017
10740SOL    HW233120   2.174   0.321   5.882
10741SOL     OW33121   2.347   2.240   3.239
10741SOL    HW133122   2.364   2.207   3.333
10741SOL    HW233123   2.296   2.326   3.243
10742SOL     OW33124   6.139   6.232   2.678
10742SOL    HW133125   6.182   6.196   2.595
10742SOL    HW233126   6.058   6.285   2.653
10743SOL     OW33127   3.029   1.018   5.699
10743SOL    HW133128   3.097   1.045   5.767
10743SOL    HW233129   3.059   1.046   5.608
10744SOL     OW33130   2.229   1.177   0.360
10744SOL    HW133131   2.254   1.081   0.347
10744SOL    HW233132   2.296   1.221   0.420
10745SOL     OW33133   1.485   4.663   2.354
10745SOL    HW133134   1.568   4.624   2.314
10745SOL    HW233135   1.484   4.762   2.339
10746SOL     OW33136   2.095   6.239   6.637
10746SOL    HW133137   2.107   6.324   6.688
10746SOL    HW233138   2.018   6.249   6.574
10747SOL     OW33139   6.242   1.376   4.676
10747SOL    HW133140   6.306   1.414   4.609
10747SOL    HW233141   6.216   1.448   4.741
10748SOL     OW33142   3.887   5.874   1.145
10748SOL    HW133143   3.909   5.888   1.049
10748SOL    HW233144   3.928   5.948   1.200
10749SOL     OW33145   5.540   4.846   1.565
10749SOL    HW133146   5.476   4.778   1.601
10749SOL    HW233147   5.543   4.925   1.626
10750SOL     OW33148   4.556   2.375   4.167
10750SOL    HW133149   4.507   2.416   4.090
10750SOL    HW233150   4.511   2.290   4.194
10751SOL     OW33151   0.328   4.621   5.272
10751SOL    HW133152   0.392   4.564   5.220
10751SOL    HW233153   0.251   4.647   5.213
10752SOL     OW33154   6.412   6.164   0.463
10752SOL    HW133155   6.454   6.239   0.411
10752SOL    HW233156   6.314   6.178   0.469
10753SOL     OW33157   5.084   6.816   4.394
10753SOL    HW133158   5.037   6.885   4.339
10753SOL    HW233159   5.166   6.857   4.434
10754SOL     OW33160   0.939   3.937   2.410
10754SOL    HW133161   0.848   3.978   2.404
10754SOL    HW233162   1.004   3.993   2.358
10755SOL     OW33163   6.962   2.812   1.322
10755SOL    HW133164   6.881   2.841   1.269
10755SOL    HW233165   6.957   2.714   1.338
10756SOL     OW33166   0.712   1.141   0.249
10756SOL    HW133167   0.746   1.232   0.228
10756SOL    HW233168   0.647   1.146   0.325
10757SOL     OW33169   6.964   4.207   2.192
10757SOL    HW133170   6.947   4.304   2.211
10757SOL    HW233171   6.902   4.151   2.247
10758SOL     OW33172   0.436   0.861   6.727
10758SOL    HW133173   0.486   0.800   6.788
10758SOL    HW233174   0.352   0.817   6.697
10759SOL     OW33175   2.956   1.978   5.973
10759SOL    HW133176   2.935   1.889   6.012
10759SOL    HW233177   3.040   2.014   6.013
10760SOL     OW33178   1.337   5.064   0.170
10760SOL    HW133179   1.383   4.983   0.205
10760SOL    HW233180   1.398   5.143   0.176
10761SOL     OW33181   0.487   1.332   6.001
10761SOL    HW133182   0.555   1.278   6.050
10761SOL    HW233183   0.519   1.426   5.993
10762SOL     OW33184   2.936   6.228   6.514
10762SOL    HW133185   2.852   6.217   6.461
10762SOL    HW233186   2.988   6.143   6.513
10763SOL     OW33187   5.024   0.048   3.725
10763SOL    HW133188   4.980   0.042   3.635
10763SOL    HW233189   4.953   0.046   3.796
10764SOL     OW33190   4.583   0.258   4.248
10764SOL    HW133191   4.531   0.342   4.231
10764SOL    HW233192   4.556   0.219   4.336
10765SOL     OW33193   0.179   2.169   2.136
10765SOL    HW133194   0.100   2.176   2.196
10765SOL    HW233195   0.182   2.077   2.095
10766SOL     OW33196   1.493   5.381   6.944
10766SOL    HW133197   1.506   5.353   0.017
10766SOL    HW233198   1.501   5.301   6.885
10767SOL     OW33199   1.415   5.052   0.486
10767SOL    HW133200   1.424   5.101   0.573
10767SOL    HW233201   1.323   5.064   0.450
10768SOL     OW33202   5.133   5.728   0.103
10768SOL    HW133203   5.144   5.628   0.103
10768SOL    HW233204   5.221   5.771   0.124
10769SOL     OW33205   3.427   2.865   4.534
10769SOL    HW133206   3.452   2.772   4.563
10769SOL    HW233207   3.455   2.930   4.604
10770SOL     OW33208   5.659   0.007   3.329
10770SOL    HW133209   5.567   7.014   3.292
10770SOL    HW233210   5.688   6.947   3.379
10771SOL     OW33211   4.893   6.175   5.585
10771SOL    HW133212   4.842   6.259   5.603
10771SOL    HW233213   4.974   6.172   5.643
10772SOL     OW33214   5.475   5.776   2.452
10772SOL    HW133215   5.567   5.746   2.426
10772SOL    HW233216   5.443   5.845   2.388
10773SOL     OW33217   0.072   3.641   1.634
10773SOL    HW133218   0.030   3.626   1.544
10773SOL    HW233219   0.171   3.628   1.627
10774SOL     OW33220   0.995   2.558   0.592
10774SOL    HW133221   1.015   2.466   0.624
10774SOL    HW233222   0.958   2.613   0.667
10775SOL     OW33223   1.371   3.877   0.436
10775SOL    HW133224   1.302   3.810   0.408
10775SOL    HW233225   1.462   3.836   0.429
10776SOL     OW33226   1.068   2.712   3.422
10776SOL    HW133227   1.164   2.683   3.421
10776SOL    HW233228   1.014   2.646   3.475
10777SOL     OW33229   3.238   1.280   1.937
10777SOL    HW133230   3.263   1.366   1.982
10777SOL    HW233231   3.318   1.220   1.931
10778SOL     OW33232   6.325   0.393   3.615
10778SOL    HW133233   6.282   0.473   3.573
10778SOL    HW233234   6.316   0.398   3.714
10779SOL     OW33235   5.440   3.797   4.855
10779SOL    HW133236   5.467   3.723   4.917
10779SOL    HW233237   5.496   3.794   4.773
10780SOL     OW33238   1.870   5.643   5.145
10780SOL    HW133239   1.860   5.736   5.110
10780SOL    HW233240   1.886   5.647   5.244
10781SOL     OW33241   5.997   2.308   5.093
10781SOL    HW133242   6.014   2.213   5.118
10781SOL    HW233243   6.006   2.318   4.994
10782SOL     OW33244   1.358   2.272   5.327
10782SOL    HW133245   1.364   2.343   5.398
10782SOL    HW233246   1.269   2.227   5.334
10783SOL     OW33247   1.344   2.699   3.469
10783SOL    HW133248   1.407   2.629   3.501
10783SOL    HW233249   1.304   2.746   3.547
10784SOL     OW33250   3.681   5.706   2.632
10784SOL    HW133251   3.634   5.769   2.694
10784SOL    HW233252   3.718   5.757   2.554
10785SOL     OW33253   1.576   5.488   2.438
10785SOL    HW133254   1.615   5.489   2.531
10785SOL    HW233255   1.648   5.463   2.373
10786SOL     OW33256   4.126   1.181   1.952
10786SOL    HW133257   4.167   1.197   2.042
10786SOL    HW233258   4.167   1.244   1.885
10787SOL     OW33259   4.370   0.730   3.109
10787SOL    HW133260   4.384   0.793   3.185
10787SOL    HW233261   4.415   0.643   3.129
10788SOL     OW33262   1.299   4.333   0.168
10788SOL    HW133263   1.312   4.268   0.244
10788SOL    HW233264   1.229   4.297   0.106
10789SOL     OW33265   6.411   1.387   1.506
10789SOL    HW133266   6.405   1.336   1.591
10789SOL    HW233267   6.507   1.391   1.476
10790SOL     OW33268   0.707   1.809   5.372
10790SOL    HW133269   0.651   1.877   5.419
10790SOL    HW233270   0.661   1.779   5.289
10791SOL     OW33271   1.053   1.977   4.241
10791SOL    HW133272   1.047   2.070   4.203
10791SOL    HW233273   0.998   1.915   4.185
10792SOL     OW33274   4.002   1.824   2.044
10792SOL    HW133275   3.914   1.787   2.075
10792SOL    HW233276   3.993   1.924   2.034
10793SOL     OW33277   4.358   1.986   4.704
10793SOL    HW133278   4.399   1.915   4.647
10793SOL    HW233279   4.430   2.042   4.746
10794SOL     OW33280   5.066   2.634   0.536
10794SOL    HW133281   5.076   2.603   0.441
10794SOL    HW233282   4.971   2.621   0.565
10795SOL     OW33283   0.467   4.016   3.290
10795SOL    HW133284   0.450   4.067   3.205
10795SOL    HW233285   0.454   3.918   3.272
10796SOL     OW33286   0.217   6.918   6.155
10796SOL    HW133287   0.302   6.970   6.163
10796SOL    HW233288   0.231   6.825   6.189
10797SOL     OW33289   4.145   4.414   6.758
10797SOL    HW133290   4.173   4.509   6.745
10797SOL    HW233291   4.220   4.363   6.801
10798SOL     OW33292   1.723   0.086   6.977
10798SOL    HW133293   1.775   0.025   6.917
10798SOL    HW233294   1.626   0.080   6.953
10799SOL     OW33295   3.315   0.897   2.999
10799SOL    HW133296   3.240   0.867   3.059
10799SOL    HW233297   3.346   0.987   3.027
10800SOL     OW33298   1.926   0.179   5.768
10800SOL    HW133299   1.966   0.088   5.757
10800SOL    HW233300   1.982   0.232   5.831
10801SOL     OW33301   2.498   6.493   5.853
10801SOL    HW133302   2.588   6.530   5.877
10801SOL    HW233303   2.494   6.478   5.754
10802SOL     OW33304   0.795   4.586   4.476
10802SOL    HW133305   0.720   4.625   4.530
10802SOL    HW233306   0.773   4.492   4.452
10803SOL     OW33307   0.379   4.139   4.675
10803SOL    HW133308   0.326   4.068   4.723
10803SOL    HW233309   0.471   4.104   4.656
10804SOL     OW33310   5.006   4.752   1.157
10804SOL    HW133311   4.939   4.790   1.221
10804SOL    HW233312   5.056   4.678   1.202
10805SOL     OW33313   3.583   6.246   0.089
10805SOL    HW133314   3.673   6.236   0.045
10805SOL    HW233315   3.579   6.187   0.169
10806SOL     OW33316   5.655   4.043   6.696
10806SOL    HW133317   5.623   3.950   6.678
10806SOL    HW233318   5.718   4.072   6.625
10807SOL     OW33319   4.859   0.148   3.487
10807SOL    HW133320   4.807   0.188   3.563
10807SOL    HW233321   4.930   0.212   3.457
10808SOL     OW33322   0.072   2.711   6.832
10808SOL    HW133323   0.052   2.638   6.768
10808SOL    HW233324   0.131   2.779   6.788
10809SOL     OW33325   3.459   0.801   2.789
10809SOL    HW133326   3.410   0.844   2.865
10809SOL    HW233327   3.395   0.744   2.737
10810SOL     OW33328   0.650   2.086   6.447
10810SOL    HW133329   0.625   2.011   6.507
10810SOL    HW233330   0.618   2.173   6.486
10811SOL     OW33331   5.243   4.587   5.457
10811SOL    HW133332   5.265   4.644   5.536
10811SOL    HW233333   5.149   4.552   5.466
10812SOL     OW33334   6.536   2.317   2.840
10812SOL    HW133335   6.551   2.414   2.824
10812SOL    HW233336   6.444   2.292   2.810
10813SOL     OW33337   2.445   5.756   2.513
10813SOL    HW133338   2.432   5.725   2.608
10813SOL    HW233339   2.489   5.846   2.514
10814SOL     OW33340   1.769   6.569   5.427
10814SOL    HW133341   1.808   6.549   5.517
10814SOL    HW233342   1.717   6.655   5.432
10815SOL     OW33343   4.545   2.575   3.083
10815SOL    HW133344   4.564   2.542   3.175
10815SOL    HW233345   4.474   2.518   3.041
10816SOL     OW33346   2.077   1.798   2.505
10816SOL    HW133347   2.079   1.732   2.431
10816SOL    HW233348   2.161   1.791   2.559
10817SOL     OW33349   5.036   6.624   2.040
10817SOL    HW133350   4.963   6.584   1.985
10817SOL    HW233351   5.053   6.718   2.009
10818SOL     OW33352   4.733   3.017   6.729
10818SOL    HW133353   4.809   3.052   6.784
10818SOL    HW233354   4.752   2.922   6.703
10819SOL     OW33355   0.480   3.890   6.138
10819SOL    HW133356   0.432   3.838   6.068
10819SOL    HW233357   0.556   3.836   6.173
10820SOL     OW33358   0.161   0.099   4.254
10820SOL    HW133359   0.216   0.176   4.286
10820SOL    HW233360   0.201   0.062   4.170
10821SOL     OW33361   0.235   0.014   0.340
10821SOL    HW133362   0.165   0.069   0.294
10821SOL    HW233363   0.241   0.040   0.436
10822SOL     OW33364   1.076   4.772   0.881
10822SOL    HW133365   1.020   4.713   0.939
10822SOL    HW233366   1.091   4.859   0.927
10823SOL     OW33367   1.438   1.470   1.828
10823SOL    HW133368   1.479   1.461   1.737
10823SOL    HW233369   1.506   1.447   1.898
10824SOL     OW33370   5.701   0.468   2.727
10824SOL    HW133371   5.683   0.369   2.725
10824SOL    HW233372   5.780   0.488   2.669
10825SOL     OW33373   3.480   1.935   1.083
10825SOL    HW133374   3.462   1.847   1.038
10825SOL    HW233375   3.462   2.009   1.018
10826SOL     OW33376   6.613   2.738   1.559
10826SOL    HW133377   6.611   2.655   1.614
10826SOL    HW233378   6.593   2.817   1.618
10827SOL     OW33379   1.060   2.504   4.249
10827SOL    HW133380   1.044   2.594   4.208
10827SOL    HW233381   1.039   2.507   4.346
10828SOL     OW33382   1.056   5.807   0.066
10828SOL    HW133383   1.101   5.787   0.153
10828SOL    HW233384   1.083   5.739   7.020
10829SOL     OW33385   2.603   3.786   1.572
10829SOL    HW133386   2.570   3.808   1.480
10829SOL    HW233387   2.529   3.744   1.624
10830SOL     OW33388   4.657   1.677   3.571
10830SOL    HW133389   4.558   1.689   3.566
10830SOL    HW233390   4.696   1.744   3.634
10831SOL     OW33391   5.356   2.686   3.572
10831SOL    HW133392   5.296   2.766   3.567
10831SOL    HW233393   5.347   2.644   3.663
10832SOL     OW33394   7.001   2.625   1.753
10832SOL    HW133395   6.965   2.709   1.714
10832SOL    HW233396   0.042   2.647   1.827
10833SOL     OW33397   3.002   6.732   4.168
10833SOL    HW133398   3.062   6.704   4.243
10833SOL    HW233399   3.042   6.706   4.081
10834SOL     OW33400   0.151   1.059   5.549
10834SOL    HW133401   0.052   1.055   5.536
10834SOL    HW233402   0.173   1.126   5.620
10835SOL     OW33403   6.767   2.112   2.099
10835SOL    HW133404   6.743   2.018   2.125
10835SOL    HW233405   6.866   2.122   2.096
10836SOL     OW33406   1.402   2.329   0.031
10836SOL    HW133407   1.340   2.324   0.109
10836SOL    HW233408   1.495   2.344   0.065
10837SOL     OW33409   0.374   6.295   1.474
10837SOL    HW133410   0.278   6.268   1.475
10837SOL    HW233411   0.384   6.384   1.519
10838SOL     OW33412   6.301   6.685   1.204
10838SOL    HW133413   6.297   6.758   1.272
10838SOL    HW233414   6.384   6.632   1.216
10839SOL     OW33415   2.360   1.738   0.660
10839SOL    HW133416   2.274   1.787   0.671
10839SOL    HW233417   2.347   1.661   0.596
10840SOL     OW33418   3.632   4.916   2.733
10840SOL    HW133419   3.663   4.901   2.827
10840SOL    HW233420   3.653   5.010   2.706
10841SOL     OW33421   5.093   4.115   5.803
10841SOL    HW133422   5.060   4.129   5.709
10841SOL    HW233423   5.065   4.025   5.835
10842SOL     OW33424   6.738   2.919   1.220
10842SOL    HW133425   6.668   2.848   1.212
10842SOL    HW233426   6.695   3.005   1.247
10843SOL     OW33427   0.288   1.157   1.607
10843SOL    HW133428   0.247   1.233   1.658
10843SOL    HW233429   0.387   1.167   1.607
10844SOL     OW33430   3.573   6.581   3.533
10844SOL    HW133431   3.562   6.547   3.627
10844SOL    HW233432   3.484   6.586   3.488
10845SOL     OW33433   1.487   2.967   0.973
10845SOL    HW133434   1.568   2.990   1.026
10845SOL    HW233435   1.420   3.041   0.979
10846SOL     OW33436   3.546   1.993   2.050
10846SOL    HW133437   3.614   2.060   2.019
10846SOL    HW233438   3.455   2.034   2.046
10847SOL     OW33439   3.825   2.705   5.584
10847SOL    HW133440   3.914   2.742   5.609
10847SOL    HW233441   3.826   2.606   5.597
10848SOL     OW33442   1.707   1.394   0.597
10848SOL    HW133443   1.769   1.468   0.575
10848SOL    HW233444   1.748   1.306   0.571
10849SOL     OW33445   2.347   4.985   4.713
10849SOL    HW133446   2.318   4.918   4.781
10849SOL    HW233447   2.404   5.055   4.758
10850SOL     OW33448   5.650   0.759   1.552
10850SOL    HW133449   5.720   0.818   1.591
10850SOL    HW233450   5.668   0.664   1.579
10851SOL     OW33451   4.252   2.305   6.420
10851SOL    HW133452   4.301   2.271   6.340
10851SOL    HW233453   4.217   2.397   6.401
10852SOL     OW33454   0.463   6.609   6.245
10852SOL    HW133455   0.500   6.606   6.152
10852SOL    HW233456   0.497   6.691   6.292
10853SOL     OW33457   2.094   1.362   4.853
10853SOL    HW133458   2.156   1.378   4.777
10853SOL    HW233459   2.020   1.301   4.824
10854SOL     OW33460   0.459   6.341   0.268
10854SOL    HW133461   0.485   6.372   0.177
10854SOL    HW233462   0.540   6.336   0.327
10855SOL     OW33463   1.390   6.119   2.020
10855SOL    HW133464   1.379   6.152   1.926
10855SOL    HW233465   1.464   6.052   2.022
10856SOL     OW33466   6.086   0.354   6.779
10856SOL    HW133467   6.154   0.280   6.773
10856SOL    HW233468   6.020   0.344   6.704
10857SOL     OW33469   6.314   0.396   4.873
10857SOL    HW133470   6.275   0.487   4.885
10857SOL    HW233471   6.400   0.403   4.824
10858SOL     OW33472   2.139   2.027   6.863
10858SOL    HW133473   2.135   2.107   6.804
10858SOL    HW233474   2.222   1.974   6.844
10859SOL     OW33475   0.793   5.209   2.304
10859SOL    HW133476   0.872   5.228   2.246
10859SOL    HW233477   0.823   5.164   2.388
10860SOL     OW33478   5.950   2.912   0.812
10860SOL    HW133479   5.890   2.841   0.846
10860SOL    HW233480   5.980   2.890   0.719
10861SOL     OW33481   3.419   2.896   1.999
10861SOL    HW133482   3.486   2.898   2.073
10861SOL    HW233483   3.432   2.814   1.943
10862SOL     OW33484   3.608   3.108   5.761
10862SOL    HW133485   3.613   3.145   5.669
10862SOL    HW233486   3.525   3.141   5.806
10863SOL     OW33487   2.558   0.972   3.098
10863SOL    HW133488   2.571   1.065   3.064
10863SOL    HW233489   2.555   0.908   3.021
10864SOL     OW33490   3.069   4.699   1.807
10864SOL    HW133491   3.025   4.609   1.804
10864SOL    HW233492   3.057   4.738   1.899
10865SOL     OW33493   3.539   1.152   2.421
10865SOL    HW133494   3.625   1.184   2.381
10865SOL    HW233495   3.477   1.124   2.348
10866SOL     OW33496   6.943   3.401   3.040
10866SOL    HW133497   6.977   3.440   2.955
10866SOL    HW233498   7.020   3.366   3.093
10867SOL     OW33499   4.288   3.355   0.541
10867SOL    HW133500   4.224   3.431   0.553
10867SOL    HW233501   4.334   3.336   0.628
10868SOL     OW33502   1.592   0.883   5.240
10868SOL    HW133503   1.560   0.824   5.315
10868SOL    HW233504   1.513   0.918   5.190
10869NA      NA33505   6.955   1.825   5.968
10870NA      NA33506   4.546   4.543   5.032
10871NA      NA33507   1.444   4.793   3.013
10872NA      NA33508   5.984   3.929   3.352
10873NA      NA33509   3.818   2.318   5.412
10874NA      NA33510   2.427   5.150   0.303
10875NA      NA33511   1.112   5.331   6.906
10876NA      NA33512   3.817   4.352   0.987
10877NA      NA33513   3.951   5.046   0.473
10878NA      NA33514   3.631   1.078   6.409
10879NA      NA33515   5.594   6.855   1.618
10880NA      NA33516   2.082   6.629   5.325
10881NA      NA33517   4.003   5.355   1.738
10882NA      NA33518   3.635   3.230   6.466
   7.02260   7.02260   7.02260
