Generated by trjconv : CNT in water t= 484.00000
33518
    1C        C    1   2.847   2.771   4.748
    1C        C    2   2.901   2.720   4.868
    1C        C    3   2.837   2.766   4.984
    1C        C    4   2.853   2.776   4.260
    1C        C    5   2.906   2.732   4.383
    1C        C    6   2.850   2.774   4.506
    1C        C    7   3.013   2.636   4.625
    1C        C    8   2.899   2.719   4.627
    1C        C    9   3.078   2.602   4.746
    1C        C   10   3.010   2.631   4.866
    1C        C   11   3.185   2.498   4.980
    1C        C   12   3.061   2.563   4.978
    1C        C   13   2.852   2.770   3.772
    1C        C   14   2.902   2.721   3.894
    1C        C   15   2.853   2.776   4.015
    1C        C   16   3.022   2.648   4.138
    1C        C   17   2.907   2.730   4.138
    1C        C   18   3.083   2.612   4.260
    1C        C   19   3.021   2.649   4.381
    1C        C   20   3.206   2.549   4.503
    1C        C   21   3.076   2.605   4.503
    1C        C   22   3.275   2.522   4.623
    1C        C   23   3.208   2.545   4.745
    1C        C   24   3.413   2.483   4.865
    1C        C   25   3.272   2.504   4.866
    1C        C   26   3.489   2.477   4.982
    1C        C   27   2.857   2.771   3.280
    1C        C   28   2.908   2.725   3.404
    1C        C   29   2.857   2.772   3.527
    1C        C   30   3.018   2.637   3.650
    1C        C   31   2.908   2.725   3.650
    1C        C   32   3.078   2.599   3.772
    1C        C   33   3.016   2.637   3.893
    1C        C   34   3.208   2.550   4.015
    1C        C   35   3.079   2.607   4.016
    1C        C   36   3.279   2.532   4.137
    1C        C   37   3.214   2.559   4.259
    1C        C   38   3.416   2.504   4.382
    1C        C   39   3.278   2.534   4.383
    1C        C   40   3.486   2.495   4.505
    1C        C   41   3.414   2.493   4.626
    1C        C   42   3.631   2.481   4.745
    1C        C   43   3.489   2.477   4.745
    1C        C   44   3.705   2.489   4.865
    1C        C   45   3.628   2.476   4.982
    1C        C   46   2.846   2.762   2.791
    1C        C   47   2.901   2.719   2.914
    1C        C   48   2.850   2.768   3.036
    1C        C   49   3.019   2.636   3.161
    1C        C   50   2.907   2.722   3.157
    1C        C   51   3.078   2.598   3.283
    1C        C   52   3.019   2.638   3.405
    1C        C   53   3.208   2.544   3.527
    1C        C   54   3.079   2.601   3.528
    1C        C   55   3.277   2.522   3.649
    1C        C   56   3.208   2.544   3.771
    1C        C   57   3.417   2.508   3.894
    1C        C   58   3.277   2.530   3.893
    1C        C   59   3.487   2.497   4.016
    1C        C   60   3.417   2.506   4.139
    1C        C   61   3.629   2.494   4.261
    1C        C   62   3.488   2.493   4.261
    1C        C   63   3.699   2.504   4.383
    1C        C   64   3.627   2.498   4.504
    1C        C   65   3.836   2.544   4.624
    1C        C   66   3.701   2.505   4.625
    1C        C   67   3.905   2.563   4.746
    1C        C   68   3.840   2.528   4.867
    1C        C   69   4.053   2.584   4.977
    1C        C   70   3.923   2.532   4.980
    1C        C   71   2.825   2.737   2.310
    1C        C   72   2.881   2.695   2.433
    1C        C   73   2.830   2.749   2.553
    1C        C   74   3.011   2.626   2.672
    1C        C   75   2.892   2.703   2.671
    1C        C   76   3.074   2.596   2.794
    1C        C   77   3.016   2.638   2.916
    1C        C   78   3.208   2.545   3.037
    1C        C   79   3.077   2.600   3.038
    1C        C   80   3.275   2.524   3.159
    1C        C   81   3.208   2.543   3.282
    1C        C   82   3.414   2.497   3.403
    1C        C   83   3.275   2.521   3.405
    1C        C   84   3.484   2.489   3.525
    1C        C   85   3.415   2.492   3.649
    1C        C   86   3.627   2.498   3.770
    1C        C   87   3.485   2.497   3.771
    1C        C   88   3.697   2.510   3.892
    1C        C   89   3.628   2.504   4.015
    1C        C   90   3.832   2.551   4.137
    1C        C   91   3.697   2.511   4.138
    1C        C   92   3.900   2.577   4.258
    1C        C   93   3.833   2.548   4.379
    1C        C   94   4.027   2.635   4.501
    1C        C   95   3.899   2.574   4.501
    1C        C   96   4.089   2.675   4.621
    1C        C   97   4.030   2.630   4.741
    1C        C   98   4.192   2.767   4.863
    1C        C   99   4.099   2.657   4.863
    1C        C  100   4.211   2.845   4.977
    1C        C  101   2.819   2.731   2.071
    1C        C  102   2.987   2.591   2.192
    1C        C  103   2.878   2.684   2.189
    1C        C  104   3.061   2.573   2.312
    1C        C  105   3.000   2.619   2.431
    1C        C  106   3.200   2.533   2.548
    1C        C  107   3.072   2.593   2.549
    1C        C  108   3.271   2.521   2.670
    1C        C  109   3.205   2.542   2.794
    1C        C  110   3.412   2.489   2.914
    1C        C  111   3.275   2.521   2.915
    1C        C  112   3.483   2.485   3.036
    1C        C  113   3.412   2.491   3.159
    1C        C  114   3.625   2.493   3.278
    1C        C  115   3.484   2.484   3.280
    1C        C  116   3.693   2.505   3.402
    1C        C  117   3.625   2.497   3.525
    1C        C  118   3.832   2.542   3.646
    1C        C  119   3.696   2.506   3.647
    1C        C  120   3.897   2.574   3.768
    1C        C  121   3.832   2.553   3.891
    1C        C  122   4.020   2.647   4.012
    1C        C  123   3.897   2.578   4.014
    1C        C  124   4.082   2.680   4.135
    1C        C  125   4.023   2.645   4.259
    1C        C  126   4.195   2.770   4.377
    1C        C  127   4.088   2.678   4.381
    1C        C  128   4.242   2.822   4.499
    1C        C  129   4.191   2.773   4.622
    1C        C  130   4.325   2.938   4.741
    1C        C  131   4.246   2.820   4.743
    1C        C  132   4.359   3.004   4.861
    1C        C  133   4.294   2.957   4.976
    1C        C  134   3.172   2.472   2.081
    1C        C  135   3.038   2.512   2.083
    1C        C  136   3.260   2.480   2.190
    1C        C  137   3.194   2.524   2.307
    1C        C  138   3.405   2.479   2.428
    1C        C  139   3.266   2.505   2.427
    1C        C  140   3.480   2.475   2.548
    1C        C  141   3.407   2.485   2.669
    1C        C  142   3.621   2.485   2.789
    1C        C  143   3.480   2.482   2.790
    1C        C  144   3.691   2.501   2.911
    1C        C  145   3.624   2.492   3.034
    1C        C  146   3.831   2.539   3.155
    1C        C  147   3.695   2.504   3.156
    1C        C  148   3.897   2.561   3.278
    1C        C  149   3.830   2.542   3.401
    1C        C  150   4.023   2.630   3.522
    1C        C  151   3.897   2.566   3.523
    1C        C  152   4.081   2.675   3.643
    1C        C  153   4.020   2.644   3.767
    1C        C  154   4.191   2.770   3.888
    1C        C  155   4.078   2.684   3.889
    1C        C  156   4.238   2.821   4.011
    1C        C  157   4.192   2.769   4.134
    1C        C  158   4.338   2.925   4.255
    1C        C  159   4.249   2.816   4.254
    1C        C  160   4.369   2.991   4.376
    1C        C  161   4.326   2.935   4.498
    1C        C  162   4.439   3.117   4.616
    1C        C  163   4.368   2.996   4.619
    1C        C  164   4.469   3.186   4.736
    1C        C  165   4.437   3.122   4.858
    1C        C  166   4.516   3.320   4.973
    1C        C  167   4.482   3.185   4.975
    1C        C  168   3.474   2.434   2.071
    1C        C  169   3.400   2.460   2.187
    1C        C  170   3.617   2.472   2.305
    1C        C  171   3.475   2.465   2.306
    1C        C  172   3.692   2.482   2.424
    1C        C  173   3.621   2.479   2.546
    1C        C  174   3.828   2.536   2.664
    1C        C  175   3.692   2.496   2.667
    1C        C  176   3.892   2.562   2.787
    1C        C  177   3.827   2.540   2.910
    1C        C  178   4.022   2.627   3.032
    1C        C  179   3.896   2.564   3.032
    1C        C  180   4.083   2.661   3.154
    1C        C  181   4.024   2.624   3.277
    1C        C  182   4.190   2.757   3.398
    1C        C  183   4.082   2.665   3.399
    1C        C  184   4.240   2.809   3.519
    1C        C  185   4.190   2.765   3.643
    1C        C  186   4.333   2.924   3.765
    1C        C  187   4.242   2.816   3.764
    1C        C  188   4.374   2.981   3.888
    1C        C  189   4.330   2.928   4.011
    1C        C  190   4.446   3.107   4.130
    1C        C  191   4.380   2.982   4.132
    1C        C  192   4.476   3.173   4.251
    1C        C  193   4.441   3.113   4.374
    1C        C  194   4.517   3.315   4.494
    1C        C  195   4.467   3.183   4.494
    1C        C  196   4.535   3.387   4.614
    1C        C  197   4.520   3.319   4.736
    1C        C  198   4.559   3.535   4.853
    1C        C  199   4.536   3.394   4.856
    1C        C  200   4.586   3.618   4.967
    1C        C  201   3.613   2.417   2.073
    1C        C  202   3.825   2.515   2.179
    1C        C  203   3.690   2.468   2.183
    1C        C  204   3.897   2.538   2.299
    1C        C  205   3.829   2.516   2.421
    1C        C  206   4.021   2.616   2.543
    1C        C  207   3.895   2.553   2.541
    1C        C  208   4.081   2.657   2.664
    1C        C  209   4.017   2.628   2.787
    1C        C  210   4.192   2.750   2.909
    1C        C  211   4.077   2.668   2.908
    1C        C  212   4.245   2.799   3.030
    1C        C  213   4.192   2.751   3.152
    1C        C  214   4.325   2.916   3.273
    1C        C  215   4.238   2.805   3.274
    1C        C  216   4.368   2.975   3.394
    1C        C  217   4.328   2.920   3.518
    1C        C  218   4.433   3.105   3.639
    1C        C  219   4.368   2.979   3.640
    1C        C  220   4.464   3.170   3.760
    1C        C  221   4.442   3.104   3.883
    1C        C  222   4.504   3.307   4.005
    1C        C  223   4.470   3.170   4.006
    1C        C  224   4.523   3.377   4.126
    1C        C  225   4.513   3.309   4.249
    1C        C  226   4.524   3.523   4.368
    1C        C  227   4.522   3.382   4.370
    1C        C  228   4.523   3.597   4.489
    1C        C  229   4.535   3.528   4.611
    1C        C  230   4.503   3.741   4.729
    1C        C  231   4.540   3.604   4.731
    1C        C  232   4.494   3.816   4.848
    1C        C  233   4.545   3.752   4.961
    1C        C  234   4.018   2.614   2.061
    1C        C  235   3.896   2.547   2.063
    1C        C  236   4.083   2.649   2.180
    1C        C  237   4.023   2.604   2.300
    1C        C  238   4.198   2.732   2.422
    1C        C  239   4.084   2.646   2.420
    1C        C  240   4.248   2.786   2.543
    1C        C  241   4.194   2.743   2.665
    1C        C  242   4.333   2.905   2.785
    1C        C  243   4.247   2.793   2.786
    1C        C  244   4.377   2.963   2.907
    1C        C  245   4.336   2.907   3.030
    1C        C  246   4.437   3.096   3.150
    1C        C  247   4.371   2.971   3.151
    1C        C  248   4.459   3.163   3.273
    1C        C  249   4.434   3.100   3.397
    1C        C  250   4.502   3.305   3.514
    1C        C  251   4.464   3.169   3.517
    1C        C  252   4.515   3.373   3.637
    1C        C  253   4.499   3.307   3.761
    1C        C  254   4.523   3.518   3.879
    1C        C  255   4.512   3.377   3.883
    1C        C  256   4.520   3.589   4.001
    1C        C  257   4.529   3.519   4.124
    1C        C  258   4.495   3.730   4.244
    1C        C  259   4.522   3.591   4.245
    1C        C  260   4.475   3.803   4.363
    1C        C  261   4.493   3.735   4.486
    1C        C  262   4.430   3.940   4.606
    1C        C  263   4.475   3.806   4.606
    1C        C  264   4.399   4.006   4.727
    1C        C  265   4.430   3.942   4.848
    1C        C  266   4.319   4.134   4.959
    1C        C  267   4.385   4.011   4.962
    1C        C  268   4.264   2.778   2.065
    1C        C  269   4.193   2.738   2.179
    1C        C  270   4.340   2.892   2.299
    1C        C  271   4.247   2.785   2.300
    1C        C  272   4.383   2.951   2.420
    1C        C  273   4.339   2.894   2.541
    1C        C  274   4.438   3.085   2.660
    1C        C  275   4.376   2.958   2.662
    1C        C  276   4.466   3.153   2.780
    1C        C  277   4.440   3.089   2.904
    1C        C  278   4.504   3.291   3.024
    1C        C  279   4.468   3.155   3.025
    1C        C  280   4.515   3.365   3.145
    1C        C  281   4.498   3.298   3.269
    1C        C  282   4.522   3.512   3.390
    1C        C  283   4.511   3.371   3.389
    1C        C  284   4.518   3.583   3.512
    1C        C  285   4.522   3.514   3.635
    1C        C  286   4.496   3.727   3.755
    1C        C  287   4.520   3.588   3.756
    1C        C  288   4.483   3.797   3.877
    1C        C  289   4.495   3.728   3.999
    1C        C  290   4.433   3.932   4.117
    1C        C  291   4.480   3.798   4.121
    1C        C  292   4.397   3.995   4.238
    1C        C  293   4.426   3.936   4.363
    1C        C  294   4.324   4.124   4.479
    1C        C  295   4.399   4.005   4.484
    1C        C  296   4.284   4.185   4.600
    1C        C  297   4.331   4.131   4.722
    1C        C  298   4.201   4.314   4.839
    1C        C  299   4.286   4.198   4.839
    1C        C  300   4.170   4.402   4.947
    1C        C  301   4.348   2.889   2.061
    1C        C  302   4.467   3.071   2.175
    1C        C  303   4.393   2.948   2.180
    1C        C  304   4.476   3.144   2.297
    1C        C  305   4.444   3.078   2.417
    1C        C  306   4.508   3.284   2.536
    1C        C  307   4.471   3.148   2.537
    1C        C  308   4.518   3.355   2.658
    1C        C  309   4.506   3.288   2.782
    1C        C  310   4.524   3.502   2.899
    1C        C  311   4.520   3.361   2.902
    1C        C  312   4.523   3.573   3.021
    1C        C  313   4.527   3.505   3.145
    1C        C  314   4.491   3.717   3.265
    1C        C  315   4.520   3.579   3.266
    1C        C  316   4.474   3.788   3.386
    1C        C  317   4.493   3.722   3.510
    1C        C  318   4.430   3.926   3.631
    1C        C  319   4.477   3.792   3.631
    1C        C  320   4.401   3.994   3.752
    1C        C  321   4.430   3.928   3.874
    1C        C  322   4.319   4.111   3.992
    1C        C  323   4.395   3.992   3.995
    1C        C  324   4.280   4.170   4.114
    1C        C  325   4.327   4.117   4.236
    1C        C  326   4.190   4.284   4.355
    1C        C  327   4.288   4.182   4.356
    1C        C  328   4.136   4.335   4.475
    1C        C  329   4.189   4.289   4.598
    1C        C  330   4.024   4.432   4.713
    1C        C  331   4.139   4.349   4.716
    1C        C  332   3.970   4.490   4.830
    1C        C  333   4.054   4.481   4.942
    1C        C  334   4.554   3.265   2.062
    1C        C  335   4.535   3.126   2.062
    1C        C  336   4.542   3.349   2.173
    1C        C  337   4.515   3.281   2.294
    1C        C  338   4.529   3.495   2.411
    1C        C  339   4.523   3.354   2.414
    1C        C  340   4.524   3.568   2.532
    1C        C  341   4.528   3.495   2.653
    1C        C  342   4.497   3.707   2.774
    1C        C  343   4.521   3.568   2.774
    1C        C  344   4.477   3.778   2.895
    1C        C  345   4.494   3.711   3.019
    1C        C  346   4.421   3.911   3.140
    1C        C  347   4.477   3.782   3.140
    1C        C  348   4.392   3.979   3.261
    1C        C  349   4.426   3.921   3.385
    1C        C  350   4.321   4.103   3.503
    1C        C  351   4.399   3.986   3.507
    1C        C  352   4.273   4.162   3.623
    1C        C  353   4.321   4.110   3.745
    1C        C  354   4.175   4.262   3.869
    1C        C  355   4.275   4.163   3.868
    1C        C  356   4.123   4.313   3.990
    1C        C  357   4.181   4.270   4.112
    1C        C  358   4.008   4.392   4.231
    1C        C  359   4.130   4.322   4.233
    1C        C  360   3.948   4.435   4.352
    1C        C  361   4.018   4.413   4.473
    1C        C  362   3.828   4.515   4.594
    1C        C  363   3.959   4.462   4.591
    1C        C  364   3.760   4.543   4.715
    1C        C  365   3.838   4.540   4.833
    1C        C  366   3.629   4.592   4.950
    1C        C  367   3.767   4.570   4.949
    1C        C  368   4.510   3.562   2.054
    1C        C  369   4.532   3.490   2.172
    1C        C  370   4.513   3.708   2.287
    1C        C  371   4.526   3.567   2.290
    1C        C  372   4.496   3.778   2.408
    1C        C  373   4.509   3.709   2.530
    1C        C  374   4.431   3.907   2.651
    1C        C  375   4.486   3.777   2.652
    1C        C  376   4.396   3.970   2.772
    1C        C  377   4.433   3.912   2.895
    1C        C  378   4.322   4.095   3.014
    1C        C  379   4.395   3.974   3.016
    1C        C  380   4.276   4.153   3.135
    1C        C  381   4.315   4.097   3.259
    1C        C  382   4.174   4.256   3.377
    1C        C  383   4.275   4.157   3.381
    1C        C  384   4.121   4.306   3.498
    1C        C  385   4.171   4.259   3.622
    1C        C  386   4.003   4.385   3.745
    1C        C  387   4.118   4.303   3.746
    1C        C  388   3.941   4.422   3.866
    1C        C  389   4.004   4.388   3.988
    1C        C  390   3.815   4.484   4.110
    1C        C  391   3.944   4.427   4.110
    1C        C  392   3.749   4.512   4.231
    1C        C  393   3.822   4.498   4.351
    1C        C  394   3.618   4.552   4.474
    1C        C  395   3.758   4.529   4.473
    1C        C  396   3.546   4.557   4.595
    1C        C  397   3.620   4.561   4.715
    1C        C  398   3.410   4.555   4.841
    1C        C  399   3.549   4.576   4.836
    1C        C  400   3.342   4.527   4.961
    1C        C  401   4.506   3.701   2.051
    1C        C  402   4.458   3.916   2.169
    1C        C  403   4.498   3.780   2.166
    1C        C  404   4.412   3.975   2.289
    1C        C  405   4.443   3.909   2.410
    1C        C  406   4.327   4.091   2.527
    1C        C  407   4.409   3.976   2.529
    1C        C  408   4.276   4.144   2.648
    1C        C  409   4.317   4.088   2.771
    1C        C  410   4.178   4.248   2.890
    1C        C  411   4.279   4.150   2.891
    1C        C  412   4.123   4.296   3.011
    1C        C  413   4.176   4.253   3.135
    1C        C  414   4.003   4.380   3.256
    1C        C  415   4.123   4.304   3.255
    1C        C  416   3.940   4.412   3.378
    1C        C  417   4.001   4.380   3.501
    1C        C  418   3.808   4.471   3.621
    1C        C  419   3.938   4.416   3.623
    1C        C  420   3.743   4.500   3.743
    1C        C  421   3.813   4.482   3.864
    1C        C  422   3.610   4.536   3.988
    1C        C  423   3.749   4.507   3.987
    1C        C  424   3.540   4.541   4.111
    1C        C  425   3.610   4.539   4.234
    1C        C  426   3.401   4.558   4.357
    1C        C  427   3.542   4.561   4.355
    1C        C  428   3.330   4.555   4.479
    1C        C  429   3.404   4.560   4.599
    1C        C  430   3.195   4.526   4.723
    1C        C  431   3.335   4.553   4.722
    1C        C  432   3.124   4.505   4.844
    1C        C  433   3.206   4.497   4.957
    1C        C  434   4.380   4.117   2.052
    1C        C  435   4.448   3.995   2.054
    1C        C  436   4.304   4.161   2.165
    1C        C  437   4.333   4.093   2.287
    1C        C  438   4.178   4.244   2.402
    1C        C  439   4.280   4.147   2.406
    1C        C  440   4.123   4.290   2.524
    1C        C  441   4.178   4.245   2.647
    1C        C  442   4.005   4.370   2.767
    1C        C  443   4.122   4.292   2.768
    1C        C  444   3.944   4.407   2.889
    1C        C  445   4.005   4.373   3.012
    1C        C  446   3.812   4.467   3.132
    1C        C  447   3.941   4.410   3.133
    1C        C  448   3.742   4.490   3.253
    1C        C  449   3.811   4.470   3.375
    1C        C  450   3.607   4.526   3.496
    1C        C  451   3.744   4.493   3.497
    1C        C  452   3.538   4.543   3.618
    1C        C  453   3.607   4.537   3.742
    1C        C  454   3.399   4.550   3.866
    1C        C  455   3.540   4.549   3.866
    1C        C  456   3.330   4.540   3.989
    1C        C  457   3.399   4.545   4.112
    1C        C  458   3.193   4.511   4.235
    1C        C  459   3.330   4.543   4.236
    1C        C  460   3.127   4.493   4.359
    1C        C  461   3.193   4.521   4.481
    1C        C  462   3.000   4.434   4.604
    1C        C  463   3.128   4.493   4.603
    1C        C  464   2.930   4.406   4.723
    1C        C  465   2.991   4.450   4.844
    1C        C  466   2.804   4.338   4.961
    1C        C  467   2.910   4.430   4.960
    1C        C  468   4.121   4.282   2.045
    1C        C  469   4.189   4.246   2.162
    1C        C  470   4.006   4.369   2.279
    1C        C  471   4.128   4.295   2.281
    1C        C  472   3.940   4.398   2.401
    1C        C  473   4.002   4.362   2.523
    1C        C  474   3.812   4.459   2.643
    1C        C  475   3.941   4.400   2.644
    1C        C  476   3.745   4.483   2.765
    1C        C  477   3.814   4.463   2.887
    1C        C  478   3.609   4.516   3.009
    1C        C  479   3.747   4.489   3.008
    1C        C  480   3.534   4.529   3.128
    1C        C  481   3.604   4.519   3.250
    1C        C  482   3.395   4.533   3.377
    1C        C  483   3.536   4.527   3.374
    1C        C  484   3.325   4.535   3.500
    1C        C  485   3.397   4.544   3.621
    1C        C  486   3.191   4.503   3.745
    1C        C  487   3.328   4.541   3.744
    1C        C  488   3.129   4.478   3.869
    1C        C  489   3.193   4.507   3.991
    1C        C  490   3.003   4.417   4.117
    1C        C  491   3.124   4.490   4.114
    1C        C  492   2.948   4.379   4.241
    1C        C  493   3.002   4.428   4.363
    1C        C  494   2.830   4.301   4.484
    1C        C  495   2.939   4.391   4.484
    1C        C  496   2.777   4.254   4.606
    1C        C  497   2.822   4.314   4.726
    1C        C  498   2.672   4.161   4.849
    1C        C  499   2.761   4.271   4.846
    1C        C  500   2.603   4.112   4.961
    1C        C  501   4.004   4.357   2.043
    1C        C  502   3.813   4.465   2.157
    1C        C  503   3.941   4.404   2.159
    1C        C  504   3.743   4.479   2.279
    1C        C  505   3.808   4.448   2.401
    1C        C  506   3.605   4.507   2.522
    1C        C  507   3.743   4.480   2.522
    1C        C  508   3.535   4.523   2.644
    1C        C  509   3.607   4.516   2.766
    1C        C  510   3.396   4.530   2.888
    1C        C  511   3.537   4.526   2.888
    1C        C  512   3.322   4.526   3.008
    1C        C  513   3.393   4.532   3.130
    1C        C  514   3.187   4.501   3.255
    1C        C  515   3.325   4.528   3.254
    1C        C  516   3.121   4.479   3.378
    1C        C  517   3.187   4.504   3.500
    1C        C  518   2.997   4.416   3.625
    1C        C  519   3.123   4.480   3.623
    1C        C  520   2.941   4.378   3.749
    1C        C  521   3.005   4.411   3.871
    1C        C  522   2.843   4.279   3.996
    1C        C  523   2.948   4.373   3.994
    1C        C  524   2.790   4.236   4.120
    1C        C  525   2.840   4.289   4.240
    1C        C  526   2.702   4.129   4.366
    1C        C  527   2.786   4.243   4.363
    1C        C  528   2.662   4.073   4.489
    1C        C  529   2.696   4.139   4.610
    1C        C  530   2.590   3.957   4.733
    1C        C  531   2.647   4.087   4.732
    1C        C  532   2.543   3.902   4.856
    1C        C  533   2.528   3.993   4.965
    1C        C  534   3.621   4.562   2.041
    1C        C  535   3.751   4.512   2.041
    1C        C  536   3.537   4.538   2.155
    1C        C  537   3.605   4.510   2.277
    1C        C  538   3.393   4.516   2.401
    1C        C  539   3.535   4.516   2.400
    1C        C  540   3.322   4.517   2.523
    1C        C  541   3.394   4.527   2.644
    1C        C  542   3.188   4.481   2.765
    1C        C  543   3.324   4.520   2.766
    1C        C  544   3.121   4.464   2.888
    1C        C  545   3.185   4.491   3.011
    1C        C  546   2.995   4.406   3.134
    1C        C  547   3.118   4.475   3.134
    1C        C  548   2.940   4.367   3.259
    1C        C  549   2.997   4.411   3.381
    1C        C  550   2.834   4.279   3.507
    1C        C  551   2.938   4.374   3.504
    1C        C  552   2.785   4.228   3.629
    1C        C  553   2.836   4.283   3.750
    1C        C  554   2.709   4.117   3.876
    1C        C  555   2.792   4.231   3.873
    1C        C  556   2.672   4.058   3.999
    1C        C  557   2.707   4.121   4.121
    1C        C  558   2.598   3.943   4.247
    1C        C  559   2.665   4.068   4.244
    1C        C  560   2.571   3.880   4.370
    1C        C  561   2.603   3.945   4.491
    1C        C  562   2.532   3.748   4.616
    1C        C  563   2.570   3.884   4.614
    1C        C  564   2.520   3.681   4.740
    1C        C  565   2.522   3.760   4.859
    1C        C  566   2.539   3.545   4.979
    1C        C  567   2.524   3.683   4.976
    1C        C  568   3.328   4.478   2.040
    1C        C  569   3.398   4.512   2.157
    1C        C  570   3.186   4.475   2.279
    1C        C  571   3.324   4.511   2.278
    1C        C  572   3.117   4.459   2.401
    1C        C  573   3.184   4.485   2.523
    1C        C  574   2.988   4.401   2.645
    1C        C  575   3.118   4.458   2.645
    1C        C  576   2.932   4.362   2.769
    1C        C  577   2.998   4.394   2.889
    1C        C  578   2.826   4.275   3.014
    1C        C  579   2.937   4.363   3.013
    1C        C  580   2.782   4.223   3.138
    1C        C  581   2.835   4.273   3.259
    1C        C  582   2.705   4.112   3.385
    1C        C  583   2.789   4.225   3.384
    1C        C  584   2.669   4.051   3.508
    1C        C  585   2.701   4.115   3.630
    1C        C  586   2.602   3.932   3.756
    1C        C  587   2.668   4.057   3.755
    1C        C  588   2.574   3.870   3.880
    1C        C  589   2.602   3.936   4.002
    1C        C  590   2.535   3.738   4.129
    1C        C  591   2.576   3.873   4.126
    1C        C  592   2.525   3.670   4.253
    1C        C  593   2.537   3.742   4.373
    1C        C  594   2.506   3.536   4.499
    1C        C  595   2.513   3.677   4.496
    1C        C  596   2.516   3.464   4.620
    1C        C  597   2.521   3.539   4.740
    1C        C  598   2.539   3.328   4.861
    1C        C  599   2.534   3.469   4.862
    1C        C  600   2.530   3.250   4.977
    1C        C  601   3.197   4.436   2.046
    1C        C  602   2.983   4.390   2.159
    1C        C  603   3.116   4.443   2.160
    1C        C  604   2.927   4.357   2.285
    1C        C  605   2.989   4.400   2.404
    1C        C  606   2.816   4.273   2.529
    1C        C  607   2.927   4.360   2.525
    1C        C  608   2.769   4.221   2.651
    1C        C  609   2.822   4.274   2.771
    1C        C  610   2.692   4.108   2.894
    1C        C  611   2.775   4.222   2.894
    1C        C  612   2.662   4.048   3.019
    1C        C  613   2.700   4.108   3.141
    1C        C  614   2.599   3.925   3.265
    1C        C  615   2.662   4.052   3.265
    1C        C  616   2.574   3.863   3.389
    1C        C  617   2.604   3.926   3.512
    1C        C  618   2.530   3.730   3.638
    1C        C  619   2.572   3.865   3.635
    1C        C  620   2.517   3.664   3.762
    1C        C  621   2.534   3.735   3.884
    1C        C  622   2.512   3.527   4.008
    1C        C  623   2.521   3.668   4.007
    1C        C  624   2.515   3.457   4.131
    1C        C  625   2.519   3.528   4.253
    1C        C  626   2.541   3.324   4.380
    1C        C  627   2.516   3.463   4.378
    1C        C  628   2.553   3.252   4.501
    1C        C  629   2.534   3.324   4.621
    1C        C  630   2.599   3.119   4.744
    1C        C  631   2.548   3.252   4.742
    1C        C  632   2.621   3.051   4.867
    1C        C  633   2.564   3.114   4.982
    1C        C  634   2.784   4.302   2.054
    1C        C  635   2.890   4.393   2.050
    1C        C  636   2.745   4.234   2.170
    1C        C  637   2.809   4.277   2.288
    1C        C  638   2.678   4.108   2.412
    1C        C  639   2.762   4.221   2.409
    1C        C  640   2.644   4.044   2.533
    1C        C  641   2.688   4.105   2.652
    1C        C  642   2.588   3.919   2.775
    1C        C  643   2.648   4.047   2.775
    1C        C  644   2.565   3.857   2.900
    1C        C  645   2.595   3.923   3.021
    1C        C  646   2.528   3.724   3.148
    1C        C  647   2.570   3.859   3.144
    1C        C  648   2.511   3.657   3.271
    1C        C  649   2.531   3.728   3.392
    1C        C  650   2.509   3.520   3.519
    1C        C  651   2.517   3.661   3.515
    1C        C  652   2.509   3.452   3.642
    1C        C  653   2.508   3.523   3.764
    1C        C  654   2.535   3.314   3.891
    1C        C  655   2.515   3.454   3.887
    1C        C  656   2.555   3.249   4.015
    1C        C  657   2.539   3.318   4.137
    1C        C  658   2.605   3.118   4.258
    1C        C  659   2.556   3.251   4.260
    1C        C  660   2.640   3.057   4.381
    1C        C  661   2.606   3.121   4.502
    1C        C  662   2.712   2.938   4.627
    1C        C  663   2.633   3.055   4.623
    1C        C  664   2.759   2.883   4.748
    1C        C  665   2.699   2.931   4.868
    1C        C  666   2.740   2.865   4.985
    1C        C  667   2.678   4.026   2.055
    1C        C  668   2.680   4.108   2.169
    1C        C  669   2.592   3.913   2.291
    1C        C  670   2.643   4.046   2.290
    1C        C  671   2.559   3.848   2.412
    1C        C  672   2.585   3.916   2.533
    1C        C  673   2.512   3.717   2.661
    1C        C  674   2.557   3.850   2.655
    1C        C  675   2.502   3.647   2.783
    1C        C  676   2.522   3.723   2.901
    1C        C  677   2.500   3.515   3.032
    1C        C  678   2.513   3.656   3.025
    1C        C  679   2.504   3.443   3.154
    1C        C  680   2.500   3.516   3.275
    1C        C  681   2.533   3.308   3.399
    1C        C  682   2.506   3.447   3.398
    1C        C  683   2.551   3.244   3.523
    1C        C  684   2.535   3.313   3.645
    1C        C  685   2.610   3.117   3.768
    1C        C  686   2.555   3.247   3.768
    1C        C  687   2.642   3.057   3.892
    1C        C  688   2.610   3.119   4.015
    1C        C  689   2.718   2.937   4.140
    1C        C  690   2.639   3.054   4.137
    1C        C  691   2.755   2.878   4.263
    1C        C  692   2.715   2.938   4.384
    1C        C  693   2.758   2.881   4.506
    1C        C  694   2.629   3.895   2.060
    1C        C  695   2.526   3.703   2.175
    1C        C  696   2.584   3.831   2.176
    1C        C  697   2.511   3.636   2.299
    1C        C  698   2.522   3.712   2.417
    1C        C  699   2.485   3.504   2.544
    1C        C  700   2.499   3.645   2.540
    1C        C  701   2.496   3.435   2.666
    1C        C  702   2.498   3.506   2.789
    1C        C  703   2.520   3.300   2.912
    1C        C  704   2.494   3.439   2.913
    1C        C  705   2.544   3.234   3.034
    1C        C  706   2.531   3.305   3.156
    1C        C  707   2.599   3.104   3.281
    1C        C  708   2.552   3.237   3.278
    1C        C  709   2.633   3.044   3.404
    1C        C  710   2.603   3.112   3.524
    1C        C  711   2.717   2.933   3.649
    1C        C  712   2.642   3.053   3.646
    1C        C  713   2.765   2.882   3.772
    1C        C  714   2.720   2.939   3.893
    1C        C  715   2.762   2.884   4.016
    1C        C  716   2.449   3.499   2.062
    1C        C  717   2.495   3.631   2.058
    1C        C  718   2.459   3.421   2.182
    1C        C  719   2.483   3.497   2.300
    1C        C  720   2.518   3.291   2.425
    1C        C  721   2.487   3.429   2.424
    1C        C  722   2.536   3.223   2.547
    1C        C  723   2.522   3.296   2.667
    1C        C  724   2.595   3.100   2.793
    1C        C  725   2.541   3.231   2.790
    1C        C  726   2.624   3.037   2.916
    1C        C  727   2.597   3.103   3.038
    1C        C  728   2.709   2.922   3.161
    1C        C  729   2.630   3.039   3.159
    1C        C  730   2.760   2.874   3.284
    1C        C  731   2.719   2.932   3.406
    1C        C  732   2.760   2.875   3.528
    1C        C  733   2.481   3.195   2.074
    1C        C  734   2.479   3.280   2.185
    1C        C  735   2.582   3.087   2.305
    1C        C  736   2.526   3.218   2.304
    1C        C  737   2.615   3.022   2.427
    1C        C  738   2.583   3.090   2.547
    1C        C  739   2.698   2.916   2.672
    1C        C  740   2.620   3.034   2.671
    1C        C  741   2.748   2.864   2.794
    1C        C  742   2.701   2.918   2.915
    1C        C  743   2.748   2.866   3.038
    1C        C  744   2.541   3.070   2.075
    1C        C  745   2.684   2.898   2.186
    1C        C  746   2.609   3.018   2.186
    1C        C  747   2.727   2.841   2.308
    1C        C  748   2.682   2.898   2.428
    1C        C  749   2.733   2.852   2.552
    1C        C  750   2.733   2.840   2.068
    1C        C  751   3.666   2.308   1.989
    1C        O  752   3.699   2.196   2.034
    1C        O  753   3.647   2.297   1.850
    1C        C  754   4.641   3.061   1.982
    1C        O  755   4.609   3.030   1.864
    1C        O  756   4.768   3.022   2.025
    1C        C  757   4.428   4.218   1.955
    1C        O  758   4.508   4.306   1.996
    1C        O  759   4.430   4.195   1.817
    1C        C  760   3.612   4.689   1.966
    1C        O  761   3.702   4.778   1.959
    1C        O  762   3.528   4.708   1.855
    1C        C  763   2.885   4.499   1.947
    1C        O  764   2.914   4.470   1.828
    1C        O  765   2.799   4.609   1.960
    1C        C  766   2.335   3.478   1.970
    1C        O  767   2.344   3.414   1.862
    1C        O  768   2.218   3.554   1.988
    1C        C  769   4.680   3.580   5.075
    1C        O  770   4.635   3.544   5.187
    1C        O  771   4.799   3.653   5.079
    1C        C  772   4.264   4.457   5.048
    1C        O  773   4.229   4.469   5.169
    1C        O  774   4.372   4.537   5.009
    1C        C  775   4.148   2.503   5.056
    1C        O  776   4.184   2.386   5.024
    1C        O  777   4.176   2.530   5.191
    1C        C  778   2.897   4.530   5.068
    1C        O  779   2.840   4.639   5.043
    1C        O  780   2.918   4.495   5.203
    1C        C  781   2.465   3.042   5.066
    1C        O  782   2.345   3.035   5.031
    1C        O  783   2.482   3.045   5.204
    1C        C  784   2.406   4.007   5.047
    1C        O  785   2.295   4.062   5.021
    1C        O  786   2.410   3.981   5.184
    1C        C  787   2.951   2.417   2.011
    1C        O  788   2.912   2.445   1.894
    1C        O  789   2.894   2.313   2.082
    1C        C  790   3.208   2.395   5.084
    1C        O  791   3.131   2.295   5.088
    1C        O  792   3.224   2.448   5.212
    1C        H  793   4.327   2.987   5.073
    1C        H  794   4.173   2.808   5.070
    1C        H  795   4.535   3.123   5.044
    1C        H  796   4.489   3.374   5.062
    1C        H  797   4.601   3.820   5.022
    1C        H  798   4.353   3.951   5.044
    1C        H  799   4.333   4.193   5.047
    1C        H  800   4.027   4.534   5.030
    1C        H  801   3.820   4.574   5.042
    1C        H  802   3.591   4.664   5.019
    1C        H  803   3.376   4.577   5.049
    1C        H  804   3.161   4.470   5.050
    1C        H  805   3.893   2.485   5.071
    1C        H  806   3.674   2.445   5.074
    1C        H  807   3.009   2.573   5.071
    1C        H  808   3.448   2.516   5.073
    1C        H  809   2.867   2.728   5.080
    1C        H  810   2.678   2.873   5.071
    1C        H  811   2.453   3.285   5.043
    1C        H  812   2.559   3.500   5.074
    1C        H  813   2.534   3.730   5.072
    1C        H  814   2.588   4.177   5.044
    1C        H  815   2.795   4.288   5.056
    1C        H  816   2.752   2.900   1.982
    1C        H  817   2.843   2.681   1.979
    1C        H  818   3.215   2.482   1.984
    1C        H  819   3.427   2.457   1.977
    1C        H  820   3.861   2.503   1.972
    1C        H  821   4.031   2.680   1.978
    1C        H  822   4.238   2.736   1.970
    1C        H  823   4.328   2.956   1.980
    1C        H  824   4.591   3.311   1.973
    1C        H  825   4.496   3.511   1.961
    1C        H  826   4.541   3.745   1.960
    1C        H  827   3.803   4.515   1.947
    1C        H  828   3.980   4.394   1.946
    1C        H  829   4.180   4.289   1.957
    1C        H  830   4.476   3.957   1.958
    1C        H  831   2.628   3.840   1.968
    1C        H  832   2.723   4.055   1.962
    1C        H  833   2.735   4.273   1.963
    1C        H  834   3.380   4.460   1.948
    1C        H  835   3.158   4.388   1.959
    1C        H  836   2.496   3.001   2.007
    1C        H  837   2.446   3.225   1.977
    1C        H  838   2.462   3.689   1.974
    2V3OU   H29  839   2.802   3.550   5.386
    2V3OU   C27  840   2.783   3.499   5.484
    2V3OU   H27  841   2.727   3.571   5.549
    2V3OU   H28  842   2.725   3.404   5.472
    2V3OU   O11  843   2.909   3.477   5.549
    2V3OU   C15  844   2.922   3.396   5.660
    2V3OU   C13  845   3.050   3.373   5.713
    2V3OU   C14  846   3.074   3.269   5.803
    2V3OU   C16  847   2.967   3.192   5.849
    2V3OU    H6  848   2.991   3.106   5.914
    2V3OU   C12  849   3.214   3.226   5.827
    2V3OU    O2  850   3.236   3.121   5.889
    2V3OU   C10  851   3.324   3.310   5.779
    2V3OU    C8  852   3.457   3.271   5.794
    2V3OU   O10  853   3.486   3.159   5.865
    2V3OU   H26  854   3.400   3.121   5.891
    2V3OU    C6  855   3.568   3.347   5.745
    2V3OU    C5  856   3.541   3.465   5.677
    2V3OU    C4  857   3.706   3.292   5.759
    2V3OU    H4  858   3.722   3.233   5.854
    2V3OU    H5  859   3.710   3.224   5.668
    2V3OU    C2  860   3.814   3.400   5.749
    2V3OU    O6  861   3.806   3.477   5.870
    2V3OU   H21  862   3.767   3.560   5.841
    2V3OU    C3  863   3.784   3.497   5.634
    2V3OU    H2  864   3.864   3.575   5.634
    2V3OU    H3  865   3.788   3.441   5.536
    2V3OU   C25  866   3.948   3.328   5.732
    2V3OU    O7  867   3.998   3.297   5.624
    2V3OU   C26  868   4.027   3.288   5.856
    2V3OU   H22  869   4.065   3.380   5.906
    2V3OU   H23  870   4.114   3.224   5.826
    2V3OU    O8  871   3.956   3.212   5.952
    2V3OU   H24  872   3.918   3.269   6.020
    2V3OU    C1  873   3.649   3.564   5.647
    2V3OU    H1  874   3.624   3.616   5.550
    2V3OU    O3  875   3.653   3.659   5.754
    2V3OU   C19  876   3.617   3.798   5.748
    2V3OU    H9  877   3.518   3.806   5.694
    2V3OU    O4  878   3.716   3.851   5.664
    2V3OU   C20  879   3.846   3.871   5.721
    2V3OU   H10  880   3.899   3.771   5.718
    2V3OU   C24  881   3.609   3.858   5.889
    2V3OU   H16  882   3.541   3.793   5.950
    2V3OU   H17  883   3.557   3.956   5.874
    2V3OU   C23  884   3.748   3.872   5.951
    2V3OU   H15  885   3.792   3.768   5.965
    2V3OU    N1  886   3.740   3.959   6.067
    2V3OU   H19  887   3.808   3.930   6.134
    2V3OU   H20  888   3.648   3.933   6.098
    2V3OU   C21  889   3.848   3.944   5.855
    2V3OU   H11  890   3.949   3.926   5.902
    2V3OU    O5  891   3.829   4.085   5.855
    2V3OU   H18  892   3.775   4.103   5.934
    2V3OU   C22  893   3.918   3.953   5.615
    2V3OU   H12  894   3.865   4.051   5.603
    2V3OU   H13  895   3.912   3.898   5.517
    2V3OU   H14  896   4.025   3.962   5.644
    2V3OU   C11  897   3.157   3.471   5.686
    2V3OU    O1  898   3.128   3.586   5.645
    2V3OU    C9  899   3.297   3.428   5.704
    2V3OU    C7  900   3.404   3.502   5.655
    2V3OU    O9  901   3.386   3.612   5.574
    2V3OU   H25  902   3.290   3.626   5.583
    2V3OU   C17  903   2.819   3.311   5.705
    2V3OU    H7  904   2.720   3.339   5.668
    2V3OU   C18  905   2.839   3.212   5.800
    2V3OU    H8  906   2.754   3.146   5.823
    3SOL     OW  907   3.680   2.971   3.937
    3SOL    HW1  908   3.672   3.031   3.857
    3SOL    HW2  909   3.591   2.930   3.956
    4SOL     OW  910   6.591   6.226   0.660
    4SOL    HW1  911   6.655   6.236   0.584
    4SOL    HW2  912   6.499   6.212   0.624
    5SOL     OW  913   5.204   1.621   0.685
    5SOL    HW1  914   5.248   1.664   0.606
    5SOL    HW2  915   5.273   1.590   0.749
    6SOL     OW  916   5.275   1.624   2.621
    6SOL    HW1  917   5.192   1.568   2.622
    6SOL    HW2  918   5.288   1.661   2.529
    7SOL     OW  919   1.905   4.009   4.124
    7SOL    HW1  920   1.858   3.922   4.141
    7SOL    HW2  921   1.965   3.999   4.045
    8SOL     OW  922   0.945   3.167   4.733
    8SOL    HW1  923   0.949   3.075   4.772
    8SOL    HW2  924   1.018   3.223   4.772
    9SOL     OW  925   6.835   0.877   6.862
    9SOL    HW1  926   6.900   0.885   6.788
    9SOL    HW2  927   6.742   0.891   6.827
   10SOL     OW  928   5.241   4.580   1.727
   10SOL    HW1  929   5.289   4.626   1.802
   10SOL    HW2  930   5.260   4.628   1.641
   11SOL     OW  931   2.341   2.409   0.206
   11SOL    HW1  932   2.311   2.315   0.223
   11SOL    HW2  933   2.352   2.456   0.293
   12SOL     OW  934   3.824   5.198   2.634
   12SOL    HW1  935   3.862   5.230   2.720
   12SOL    HW2  936   3.823   5.098   2.632
   13SOL     OW  937   5.932   6.182   1.330
   13SOL    HW1  938   5.838   6.202   1.356
   13SOL    HW2  939   5.982   6.144   1.408
   14SOL     OW  940   4.414   6.328   5.817
   14SOL    HW1  941   4.442   6.237   5.788
   14SOL    HW2  942   4.316   6.328   5.837
   15SOL     OW  943   0.857   6.536   5.898
   15SOL    HW1  944   0.859   6.590   5.982
   15SOL    HW2  945   0.810   6.587   5.826
   16SOL     OW  946   2.219   4.672   4.613
   16SOL    HW1  947   2.135   4.711   4.651
   16SOL    HW2  948   2.290   4.674   4.684
   17SOL     OW  949   6.071   1.033   5.725
   17SOL    HW1  950   5.999   0.996   5.785
   17SOL    HW2  951   6.043   1.123   5.692
   18SOL     OW  952   3.182   1.065   5.803
   18SOL    HW1  953   3.249   1.108   5.742
   18SOL    HW2  954   3.097   1.049   5.752
   19SOL     OW  955   2.705   6.835   2.787
   19SOL    HW1  956   2.643   6.905   2.820
   19SOL    HW2  957   2.797   6.874   2.776
   20SOL     OW  958   6.213   1.456   5.056
   20SOL    HW1  959   6.115   1.463   5.037
   20SOL    HW2  960   6.264   1.458   4.970
   21SOL     OW  961   2.316   4.273   2.613
   21SOL    HW1  962   2.267   4.191   2.582
   21SOL    HW2  963   2.381   4.302   2.542
   22SOL     OW  964   1.412   0.815   6.750
   22SOL    HW1  965   1.375   0.762   6.827
   22SOL    HW2  966   1.509   0.832   6.766
   23SOL     OW  967   5.631   4.807   1.376
   23SOL    HW1  968   5.567   4.858   1.319
   23SOL    HW2  969   5.720   4.853   1.376
   24SOL     OW  970   4.364   1.242   0.773
   24SOL    HW1  971   4.313   1.328   0.773
   24SOL    HW2  972   4.462   1.263   0.772
   25SOL     OW  973   1.911   0.436   4.656
   25SOL    HW1  974   1.998   0.445   4.706
   25SOL    HW2  975   1.835   0.439   4.721
   26SOL     OW  976   0.717   2.352   6.576
   26SOL    HW1  977   0.781   2.276   6.583
   26SOL    HW2  978   0.629   2.318   6.542
   27SOL     OW  979   6.421   0.716   2.099
   27SOL    HW1  980   6.505   0.665   2.079
   27SOL    HW2  981   6.342   0.663   2.069
   28SOL     OW  982   2.318   0.522   5.130
   28SOL    HW1  983   2.413   0.523   5.159
   28SOL    HW2  984   2.267   0.592   5.181
   29SOL     OW  985   0.038   6.721   1.034
   29SOL    HW1  986   0.035   6.792   1.104
   29SOL    HW2  987   0.125   6.726   0.985
   30SOL     OW  988   4.836   0.374   5.424
   30SOL    HW1  989   4.897   0.342   5.351
   30SOL    HW2  990   4.795   0.296   5.470
   31SOL     OW  991   0.579   3.732   5.031
   31SOL    HW1  992   0.538   3.641   5.025
   31SOL    HW2  993   0.535   3.783   5.105
   32SOL     OW  994   3.797   0.499   1.169
   32SOL    HW1  995   3.750   0.561   1.232
   32SOL    HW2  996   3.894   0.524   1.165
   33SOL     OW  997   1.935   5.583   6.329
   33SOL    HW1  998   1.955   5.514   6.259
   33SOL    HW2  999   1.852   5.632   6.305
   34SOL     OW 1000   3.337   5.495   5.285
   34SOL    HW1 1001   3.411   5.430   5.300
   34SOL    HW2 1002   3.298   5.480   5.194
   35SOL     OW 1003   1.707   3.568   6.930
   35SOL    HW1 1004   1.746   3.505   6.997
   35SOL    HW2 1005   1.629   3.616   6.971
   36SOL     OW 1006   4.208   1.431   3.406
   36SOL    HW1 1007   4.197   1.339   3.367
   36SOL    HW2 1008   4.199   1.427   3.505
   37SOL     OW 1009   2.391   0.066   3.943
   37SOL    HW1 1010   2.389   0.036   3.848
   37SOL    HW2 1011   2.486   0.082   3.971
   38SOL     OW 1012   1.078   3.715   2.887
   38SOL    HW1 1013   1.170   3.746   2.913
   38SOL    HW2 1014   1.084   3.620   2.855
   39SOL     OW 1015   6.617   3.891   0.884
   39SOL    HW1 1016   6.582   3.980   0.854
   39SOL    HW2 1017   6.700   3.904   0.938
   40SOL     OW 1018   4.495   1.667   0.987
   40SOL    HW1 1019   4.408   1.700   0.949
   40SOL    HW2 1020   4.498   1.686   1.085
   41SOL     OW 1021   4.997   4.402   1.555
   41SOL    HW1 1022   4.933   4.325   1.563
   41SOL    HW2 1023   5.064   4.398   1.628
   42SOL     OW 1024   2.314   4.662   6.889
   42SOL    HW1 1025   2.395   4.717   6.864
   42SOL    HW2 1026   2.321   4.633   6.984
   43SOL     OW 1027   4.369   0.105   4.677
   43SOL    HW1 1028   4.373   0.205   4.676
   43SOL    HW2 1029   4.456   0.069   4.711
   44SOL     OW 1030   6.428   1.164   5.689
   44SOL    HW1 1031   6.477   1.112   5.619
   44SOL    HW2 1032   6.467   1.143   5.779
   45SOL     OW 1033   2.426   4.693   5.888
   45SOL    HW1 1034   2.424   4.713   5.986
   45SOL    HW2 1035   2.442   4.778   5.837
   46SOL     OW 1036   1.283   3.410   4.474
   46SOL    HW1 1037   1.279   3.323   4.524
   46SOL    HW2 1038   1.377   3.443   4.474
   47SOL     OW 1039   6.024   3.986   0.535
   47SOL    HW1 1040   6.024   3.981   0.435
   47SOL    HW2 1041   6.065   4.072   0.565
   48SOL     OW 1042   6.170   3.177   0.502
   48SOL    HW1 1043   6.113   3.259   0.506
   48SOL    HW2 1044   6.245   3.185   0.568
   49SOL     OW 1045   2.893   3.649   6.878
   49SOL    HW1 1046   2.880   3.707   6.959
   49SOL    HW2 1047   2.867   3.555   6.901
   50SOL     OW 1048   5.993   2.237   0.361
   50SOL    HW1 1049   5.942   2.300   0.419
   50SOL    HW2 1050   6.083   2.275   0.341
   51SOL     OW 1051   1.383   5.333   2.411
   51SOL    HW1 1052   1.483   5.329   2.408
   51SOL    HW2 1053   1.354   5.395   2.483
   52SOL     OW 1054   5.673   2.858   1.872
   52SOL    HW1 1055   5.595   2.918   1.886
   52SOL    HW2 1056   5.642   2.771   1.833
   53SOL     OW 1057   3.811   0.792   2.100
   53SOL    HW1 1058   3.741   0.778   2.170
   53SOL    HW2 1059   3.857   0.705   2.081
   54SOL     OW 1060   5.468   0.482   6.457
   54SOL    HW1 1061   5.486   0.383   6.462
   54SOL    HW2 1062   5.411   0.502   6.377
   55SOL     OW 1063   1.167   3.697   6.205
   55SOL    HW1 1064   1.192   3.699   6.108
   55SOL    HW2 1065   1.202   3.779   6.250
   56SOL     OW 1066   0.705   2.207   6.859
   56SOL    HW1 1067   0.667   2.287   6.812
   56SOL    HW2 1068   0.766   2.157   6.798
   57SOL     OW 1069   4.161   6.384   0.697
   57SOL    HW1 1070   4.173   6.375   0.598
   57SOL    HW2 1071   4.250   6.394   0.741
   58SOL     OW 1072   1.309   0.365   0.252
   58SOL    HW1 1073   1.245   0.364   0.328
   58SOL    HW2 1074   1.286   0.292   0.188
   59SOL     OW 1075   4.470   3.136   5.410
   59SOL    HW1 1076   4.468   3.088   5.498
   59SOL    HW2 1077   4.556   3.187   5.403
   60SOL     OW 1078   5.773   2.376   1.698
   60SOL    HW1 1079   5.717   2.381   1.615
   60SOL    HW2 1080   5.742   2.446   1.763
   61SOL     OW 1081   1.405   5.973   4.594
   61SOL    HW1 1082   1.468   5.927   4.533
   61SOL    HW2 1083   1.361   5.906   4.654
   62SOL     OW 1084   6.147   3.269   2.973
   62SOL    HW1 1085   6.066   3.296   2.920
   62SOL    HW2 1086   6.169   3.174   2.953
   63SOL     OW 1087   3.892   0.564   5.990
   63SOL    HW1 1088   3.905   0.660   6.016
   63SOL    HW2 1089   3.936   0.505   6.057
   64SOL     OW 1090   1.169   3.452   5.116
   64SOL    HW1 1091   1.090   3.469   5.176
   64SOL    HW2 1092   1.244   3.512   5.142
   65SOL     OW 1093   0.924   5.465   4.616
   65SOL    HW1 1094   0.834   5.485   4.655
   65SOL    HW2 1095   0.970   5.550   4.593
   66SOL     OW 1096   3.931   1.261   1.984
   66SOL    HW1 1097   3.914   1.168   1.952
   66SOL    HW2 1098   3.850   1.294   2.033
   67SOL     OW 1099   6.842   3.404   1.293
   67SOL    HW1 1100   6.779   3.413   1.216
   67SOL    HW2 1101   6.875   3.309   1.298
   68SOL     OW 1102   6.889   1.593   6.353
   68SOL    HW1 1103   6.972   1.601   6.408
   68SOL    HW2 1104   6.825   1.531   6.398
   69SOL     OW 1105   1.341   6.073   6.808
   69SOL    HW1 1106   1.310   6.010   6.880
   69SOL    HW2 1107   1.324   6.168   6.837
   70SOL     OW 1108   5.458   3.882   3.780
   70SOL    HW1 1109   5.473   3.818   3.704
   70SOL    HW2 1110   5.372   3.931   3.765
   71SOL     OW 1111   5.423   1.996   3.766
   71SOL    HW1 1112   5.513   2.012   3.805
   71SOL    HW2 1113   5.426   2.013   3.667
   72SOL     OW 1114   0.747   1.148   3.023
   72SOL    HW1 1115   0.712   1.241   3.036
   72SOL    HW2 1116   0.716   1.113   2.935
   73SOL     OW 1117   3.270   0.271   0.367
   73SOL    HW1 1118   3.310   0.179   0.366
   73SOL    HW2 1119   3.264   0.303   0.462
   74SOL     OW 1120   2.830   2.140   0.546
   74SOL    HW1 1121   2.845   2.181   0.456
   74SOL    HW2 1122   2.888   2.186   0.613
   75SOL     OW 1123   2.636   3.350   0.347
   75SOL    HW1 1124   2.593   3.441   0.346
   75SOL    HW2 1125   2.601   3.298   0.424
   76SOL     OW 1126   3.761   4.949   5.720
   76SOL    HW1 1127   3.679   4.918   5.768
   76SOL    HW2 1128   3.803   5.024   5.770
   77SOL     OW 1129   0.885   5.344   4.299
   77SOL    HW1 1130   0.862   5.279   4.372
   77SOL    HW2 1131   0.974   5.385   4.318
   78SOL     OW 1132   4.716   1.803   1.397
   78SOL    HW1 1133   4.706   1.794   1.496
   78SOL    HW2 1134   4.732   1.899   1.373
   79SOL     OW 1135   1.378   4.643   3.148
   79SOL    HW1 1136   1.291   4.677   3.112
   79SOL    HW2 1137   1.364   4.611   3.242
   80SOL     OW 1138   3.573   1.336   4.805
   80SOL    HW1 1139   3.538   1.333   4.898
   80SOL    HW2 1140   3.637   1.260   4.791
   81SOL     OW 1141   4.279   5.105   1.433
   81SOL    HW1 1142   4.315   5.031   1.489
   81SOL    HW2 1143   4.259   5.184   1.491
   82SOL     OW 1144   2.549   5.976   2.327
   82SOL    HW1 1145   2.586   5.894   2.370
   82SOL    HW2 1146   2.460   5.955   2.287
   83SOL     OW 1147   5.075   1.314   3.837
   83SOL    HW1 1148   5.090   1.398   3.785
   83SOL    HW2 1149   5.146   1.306   3.908
   84SOL     OW 1150   5.657   2.911   2.404
   84SOL    HW1 1151   5.652   2.994   2.349
   84SOL    HW2 1152   5.588   2.916   2.477
   85SOL     OW 1153   2.619   6.858   4.171
   85SOL    HW1 1154   2.704   6.858   4.224
   85SOL    HW2 1155   2.544   6.823   4.228
   86SOL     OW 1156   5.413   6.640   6.949
   86SOL    HW1 1157   5.328   6.677   6.987
   86SOL    HW2 1158   5.412   6.540   6.957
   87SOL     OW 1159   2.061   4.056   6.330
   87SOL    HW1 1160   2.125   4.119   6.287
   87SOL    HW2 1161   1.993   4.108   6.382
   88SOL     OW 1162   3.124   3.558   1.366
   88SOL    HW1 1163   3.037   3.509   1.367
   88SOL    HW2 1164   3.109   3.654   1.387
   89SOL     OW 1165   3.236   3.517   3.644
   89SOL    HW1 1166   3.201   3.547   3.556
   89SOL    HW2 1167   3.250   3.596   3.703
   90SOL     OW 1168   5.206   3.652   1.835
   90SOL    HW1 1169   5.175   3.649   1.741
   90SOL    HW2 1170   5.142   3.705   1.891
   91SOL     OW 1171   4.731   5.760   5.750
   91SOL    HW1 1172   4.792   5.698   5.701
   91SOL    HW2 1173   4.713   5.841   5.693
   92SOL     OW 1174   5.051   4.220   6.968
   92SOL    HW1 1175   5.074   4.291   6.900
   92SOL    HW2 1176   5.004   4.145   6.922
   93SOL     OW 1177   2.817   3.480   2.077
   93SOL    HW1 1178   2.725   3.507   2.050
   93SOL    HW2 1179   2.848   3.404   2.019
   94SOL     OW 1180   2.742   2.227   4.578
   94SOL    HW1 1181   2.739   2.143   4.631
   94SOL    HW2 1182   2.817   2.223   4.512
   95SOL     OW 1183   0.157   0.105   3.718
   95SOL    HW1 1184   0.126   0.194   3.685
   95SOL    HW2 1185   0.144   0.100   3.817
   96SOL     OW 1186   6.916   5.028   7.003
   96SOL    HW1 1187   6.884   5.100   6.942
   96SOL    HW2 1188   6.890   4.939   6.965
   97SOL     OW 1189   2.561   4.448   5.617
   97SOL    HW1 1190   2.469   4.428   5.583
   97SOL    HW2 1191   2.619   4.476   5.541
   98SOL     OW 1192   0.988   1.838   3.646
   98SOL    HW1 1193   1.005   1.763   3.583
   98SOL    HW2 1194   0.945   1.914   3.597
   99SOL     OW 1195   3.466   3.948   5.063
   99SOL    HW1 1196   3.485   4.046   5.061
   99SOL    HW2 1197   3.368   3.934   5.073
  100SOL     OW 1198   0.342   0.576   4.796
  100SOL    HW1 1199   0.354   0.648   4.864
  100SOL    HW2 1200   0.382   0.604   4.709
  101SOL     OW 1201   5.521   4.117   2.490
  101SOL    HW1 1202   5.619   4.098   2.495
  101SOL    HW2 1203   5.488   4.144   2.580
  102SOL     OW 1204   4.194   0.634   0.090
  102SOL    HW1 1205   4.175   0.731   0.073
  102SOL    HW2 1206   4.112   0.580   0.071
  103SOL     OW 1207   1.883   1.412   2.072
  103SOL    HW1 1208   1.958   1.365   2.118
  103SOL    HW2 1209   1.868   1.371   1.982
  104SOL     OW 1210   6.318   4.919   2.168
  104SOL    HW1 1211   6.280   4.827   2.163
  104SOL    HW2 1212   6.251   4.986   2.136
  105SOL     OW 1213   6.892   0.967   5.655
  105SOL    HW1 1214   6.926   1.032   5.723
  105SOL    HW2 1215   6.969   0.916   5.617
  106SOL     OW 1216   4.480   2.971   1.273
  106SOL    HW1 1217   4.441   3.038   1.210
  106SOL    HW2 1218   4.481   3.009   1.365
  107SOL     OW 1219   5.724   0.189   1.708
  107SOL    HW1 1220   5.704   0.201   1.805
  107SOL    HW2 1221   5.780   0.107   1.695
  108SOL     OW 1222   2.756   1.232   4.380
  108SOL    HW1 1223   2.657   1.219   4.393
  108SOL    HW2 1224   2.791   1.294   4.450
  109SOL     OW 1225   1.772   1.339   4.651
  109SOL    HW1 1226   1.718   1.303   4.575
  109SOL    HW2 1227   1.710   1.370   4.724
  110SOL     OW 1228   3.222   4.209   5.455
  110SOL    HW1 1229   3.262   4.118   5.453
  110SOL    HW2 1230   3.138   4.210   5.400
  111SOL     OW 1231   6.085   2.587   0.360
  111SOL    HW1 1232   6.165   2.604   0.418
  111SOL    HW2 1233   6.005   2.573   0.418
  112SOL     OW 1234   5.207   6.694   6.652
  112SOL    HW1 1235   5.257   6.774   6.685
  112SOL    HW2 1236   5.272   6.623   6.626
  113SOL     OW 1237   0.177   5.403   2.473
  113SOL    HW1 1238   0.207   5.498   2.465
  113SOL    HW2 1239   0.211   5.365   2.559
  114SOL     OW 1240   6.976   2.155   1.929
  114SOL    HW1 1241   7.007   2.186   1.839
  114SOL    HW2 1242   0.026   2.106   1.974
  115SOL     OW 1243   5.671   6.929   3.619
  115SOL    HW1 1244   5.613   6.885   3.550
  115SOL    HW2 1245   5.759   6.954   3.578
  116SOL     OW 1246   0.407   4.994   0.340
  116SOL    HW1 1247   0.497   5.013   0.379
  116SOL    HW2 1248   0.361   4.926   0.396
  117SOL     OW 1249   2.409   3.027   0.105
  117SOL    HW1 1250   2.385   3.124   0.119
  117SOL    HW2 1251   2.326   2.971   0.109
  118SOL     OW 1252   0.611   2.244   2.575
  118SOL    HW1 1253   0.682   2.183   2.538
  118SOL    HW2 1254   0.561   2.286   2.500
  119SOL     OW 1255   6.127   6.551   5.190
  119SOL    HW1 1256   6.103   6.496   5.270
  119SOL    HW2 1257   6.044   6.578   5.142
  120SOL     OW 1258   5.005   1.648   4.452
  120SOL    HW1 1259   5.095   1.676   4.483
  120SOL    HW2 1260   4.987   1.686   4.361
  121SOL     OW 1261   0.636   5.115   6.888
  121SOL    HW1 1262   0.590   5.050   6.949
  121SOL    HW2 1263   0.617   5.208   6.918
  122SOL     OW 1264   6.769   4.620   6.243
  122SOL    HW1 1265   6.747   4.525   6.221
  122SOL    HW2 1266   6.837   4.622   6.316
  123SOL     OW 1267   0.651   2.483   1.362
  123SOL    HW1 1268   0.582   2.431   1.414
  123SOL    HW2 1269   0.689   2.554   1.421
  124SOL     OW 1270   1.282   2.842   6.824
  124SOL    HW1 1271   1.237   2.804   6.905
  124SOL    HW2 1272   1.320   2.767   6.769
  125SOL     OW 1273   4.774   2.982   0.671
  125SOL    HW1 1274   4.707   2.909   0.688
  125SOL    HW2 1275   4.831   2.958   0.593
  126SOL     OW 1276   3.510   2.868   4.582
  126SOL    HW1 1277   3.458   2.851   4.499
  126SOL    HW2 1278   3.458   2.836   4.661
  127SOL     OW 1279   0.606   5.584   5.888
  127SOL    HW1 1280   0.561   5.514   5.943
  127SOL    HW2 1281   0.697   5.602   5.925
  128SOL     OW 1282   4.952   3.968   6.878
  128SOL    HW1 1283   4.856   3.943   6.870
  128SOL    HW2 1284   5.002   3.895   6.925
  129SOL     OW 1285   0.989   5.258   2.467
  129SOL    HW1 1286   0.918   5.243   2.535
  129SOL    HW2 1287   1.057   5.323   2.503
  130SOL     OW 1288   6.101   3.037   4.021
  130SOL    HW1 1289   6.019   3.092   4.014
  130SOL    HW2 1290   6.142   3.049   4.112
  131SOL     OW 1291   0.569   2.318   3.317
  131SOL    HW1 1292   0.506   2.391   3.344
  131SOL    HW2 1293   0.567   2.245   3.385
  132SOL     OW 1294   3.397   2.705   1.056
  132SOL    HW1 1295   3.460   2.737   0.985
  132SOL    HW2 1296   3.331   2.777   1.076
  133SOL     OW 1297   5.892   6.325   6.292
  133SOL    HW1 1298   5.960   6.309   6.364
  133SOL    HW2 1299   5.933   6.381   6.220
  134SOL     OW 1300   5.715   1.517   1.317
  134SOL    HW1 1301   5.803   1.562   1.300
  134SOL    HW2 1302   5.641   1.580   1.293
  135SOL     OW 1303   5.020   3.697   3.887
  135SOL    HW1 1304   5.088   3.735   3.949
  135SOL    HW2 1305   5.011   3.599   3.903
  136SOL     OW 1306   3.287   0.726   6.455
  136SOL    HW1 1307   3.190   0.699   6.457
  136SOL    HW2 1308   3.333   0.677   6.382
  137SOL     OW 1309   2.704   3.895   6.231
  137SOL    HW1 1310   2.631   3.898   6.299
  137SOL    HW2 1311   2.711   3.984   6.185
  138SOL     OW 1312   1.489   5.024   6.538
  138SOL    HW1 1313   1.545   5.005   6.457
  138SOL    HW2 1314   1.397   5.050   6.509
  139SOL     OW 1315   1.229   0.229   0.930
  139SOL    HW1 1316   1.304   0.185   0.979
  139SOL    HW2 1317   1.262   0.314   0.888
  140SOL     OW 1318   3.870   0.385   1.455
  140SOL    HW1 1319   3.842   0.451   1.386
  140SOL    HW2 1320   3.800   0.314   1.464
  141SOL     OW 1321   0.629   2.958   0.645
  141SOL    HW1 1322   0.563   2.923   0.710
  141SOL    HW2 1323   0.695   3.016   0.692
  142SOL     OW 1324   2.003   3.251   0.976
  142SOL    HW1 1325   1.969   3.165   1.013
  142SOL    HW2 1326   2.046   3.234   0.887
  143SOL     OW 1327   4.298   6.397   2.306
  143SOL    HW1 1328   4.277   6.363   2.397
  143SOL    HW2 1329   4.346   6.326   2.254
  144SOL     OW 1330   3.274   5.598   3.216
  144SOL    HW1 1331   3.232   5.587   3.306
  144SOL    HW2 1332   3.369   5.566   3.221
  145SOL     OW 1333   6.950   4.580   3.870
  145SOL    HW1 1334   6.998   4.600   3.784
  145SOL    HW2 1335   7.013   4.539   3.935
  146SOL     OW 1336   4.517   1.043   6.139
  146SOL    HW1 1337   4.615   1.047   6.157
  146SOL    HW2 1338   4.499   0.979   6.065
  147SOL     OW 1339   4.757   0.544   5.038
  147SOL    HW1 1340   4.693   0.619   5.021
  147SOL    HW2 1341   4.713   0.474   5.093
  148SOL     OW 1342   1.848   6.003   1.613
  148SOL    HW1 1343   1.842   5.994   1.513
  148SOL    HW2 1344   1.920   5.944   1.648
  149SOL     OW 1345   1.994   2.341   4.700
  149SOL    HW1 1346   1.961   2.433   4.679
  149SOL    HW2 1347   2.077   2.347   4.754
  150SOL     OW 1348   4.077   1.780   4.878
  150SOL    HW1 1349   4.089   1.682   4.896
  150SOL    HW2 1350   4.125   1.805   4.794
  151SOL     OW 1351   4.768   2.526   1.008
  151SOL    HW1 1352   4.742   2.439   0.965
  151SOL    HW2 1353   4.692   2.591   0.999
  152SOL     OW 1354   0.225   2.349   1.016
  152SOL    HW1 1355   0.162   2.378   1.088
  152SOL    HW2 1356   0.197   2.259   0.982
  153SOL     OW 1357   2.292   1.279   3.745
  153SOL    HW1 1358   2.289   1.292   3.646
  153SOL    HW2 1359   2.200   1.258   3.779
  154SOL     OW 1360   6.381   2.440   2.490
  154SOL    HW1 1361   6.364   2.357   2.544
  154SOL    HW2 1362   6.387   2.416   2.393
  155SOL     OW 1363   6.908   5.613   2.966
  155SOL    HW1 1364   6.812   5.612   2.936
  155SOL    HW2 1365   6.928   5.702   3.007
  156SOL     OW 1366   5.209   2.803   0.245
  156SOL    HW1 1367   5.268   2.874   0.284
  156SOL    HW2 1368   5.169   2.837   0.160
  157SOL     OW 1369   4.933   6.067   1.265
  157SOL    HW1 1370   4.964   5.998   1.200
  157SOL    HW2 1371   4.983   6.152   1.251
  158SOL     OW 1372   0.783   2.698   3.623
  158SOL    HW1 1373   0.826   2.665   3.708
  158SOL    HW2 1374   0.822   2.649   3.545
  159SOL     OW 1375   6.371   5.912   0.505
  159SOL    HW1 1376   6.368   5.850   0.583
  159SOL    HW2 1377   6.444   5.883   0.443
  160SOL     OW 1378   5.437   0.172   1.622
  160SOL    HW1 1379   5.531   0.203   1.636
  160SOL    HW2 1380   5.373   0.245   1.647
  161SOL     OW 1381   0.077   6.479   1.162
  161SOL    HW1 1382   0.071   6.575   1.135
  161SOL    HW2 1383   0.060   6.420   1.083
  162SOL     OW 1384   4.605   6.739   6.430
  162SOL    HW1 1385   4.538   6.814   6.421
  162SOL    HW2 1386   4.694   6.771   6.399
  163SOL     OW 1387   0.911   3.921   2.885
  163SOL    HW1 1388   0.946   3.983   2.955
  163SOL    HW2 1389   0.976   3.846   2.871
  164SOL     OW 1390   2.782   1.769   3.845
  164SOL    HW1 1391   2.769   1.864   3.817
  164SOL    HW2 1392   2.771   1.761   3.944
  165SOL     OW 1393   0.378   6.749   3.723
  165SOL    HW1 1394   0.375   6.649   3.722
  165SOL    HW2 1395   0.440   6.780   3.796
  166SOL     OW 1396   6.888   4.036   3.424
  166SOL    HW1 1397   6.923   4.090   3.501
  166SOL    HW2 1398   6.942   4.056   3.342
  167SOL     OW 1399   2.846   1.822   6.401
  167SOL    HW1 1400   2.863   1.723   6.392
  167SOL    HW2 1401   2.751   1.837   6.427
  168SOL     OW 1402   3.862   3.758   1.511
  168SOL    HW1 1403   3.801   3.771   1.590
  168SOL    HW2 1404   3.951   3.799   1.531
  169SOL     OW 1405   4.597   2.017   1.179
  169SOL    HW1 1406   4.632   2.031   1.272
  169SOL    HW2 1407   4.504   1.979   1.184
  170SOL     OW 1408   6.167   5.586   1.893
  170SOL    HW1 1409   6.147   5.658   1.827
  170SOL    HW2 1410   6.086   5.570   1.950
  171SOL     OW 1411   3.514   3.207   0.876
  171SOL    HW1 1412   3.490   3.150   0.798
  171SOL    HW2 1413   3.517   3.152   0.959
  172SOL     OW 1414   0.810   1.729   6.706
  172SOL    HW1 1415   0.801   1.784   6.788
  172SOL    HW2 1416   0.780   1.782   6.627
  173SOL     OW 1417   6.512   1.267   3.872
  173SOL    HW1 1418   6.582   1.230   3.811
  173SOL    HW2 1419   6.425   1.275   3.821
  174SOL     OW 1420   5.657   4.462   4.729
  174SOL    HW1 1421   5.718   4.492   4.656
  174SOL    HW2 1422   5.589   4.399   4.693
  175SOL     OW 1423   0.243   0.094   2.458
  175SOL    HW1 1424   0.301   0.175   2.446
  175SOL    HW2 1425   0.246   0.066   2.553
  176SOL     OW 1426   5.808   4.017   2.005
  176SOL    HW1 1427   5.838   4.059   1.919
  176SOL    HW2 1428   5.714   4.045   2.024
  177SOL     OW 1429   5.667   2.105   3.866
  177SOL    HW1 1430   5.668   2.196   3.907
  177SOL    HW2 1431   5.724   2.043   3.920
  178SOL     OW 1432   2.785   6.097   5.011
  178SOL    HW1 1433   2.756   6.163   4.942
  178SOL    HW2 1434   2.753   6.006   4.986
  179SOL     OW 1435   3.262   4.224   1.622
  179SOL    HW1 1436   3.307   4.225   1.711
  179SOL    HW2 1437   3.328   4.251   1.551
  180SOL     OW 1438   3.905   1.340   0.148
  180SOL    HW1 1439   3.908   1.301   0.056
  180SOL    HW2 1440   3.823   1.307   0.195
  181SOL     OW 1441   3.185   2.075   5.511
  181SOL    HW1 1442   3.224   2.124   5.433
  181SOL    HW2 1443   3.086   2.084   5.509
  182SOL     OW 1444   3.047   2.622   6.197
  182SOL    HW1 1445   3.109   2.609   6.119
  182SOL    HW2 1446   3.078   2.700   6.251
  183SOL     OW 1447   3.066   0.044   3.410
  183SOL    HW1 1448   3.067   0.127   3.354
  183SOL    HW2 1449   3.015   6.996   3.362
  184SOL     OW 1450   5.132   5.897   3.814
  184SOL    HW1 1451   5.108   5.840   3.735
  184SOL    HW2 1452   5.111   5.992   3.793
  185SOL     OW 1453   6.931   0.478   4.482
  185SOL    HW1 1454   6.877   0.411   4.534
  185SOL    HW2 1455   6.882   0.565   4.480
  186SOL     OW 1456   4.103   6.308   4.786
  186SOL    HW1 1457   4.018   6.310   4.837
  186SOL    HW2 1458   4.179   6.293   4.849
  187SOL     OW 1459   4.287   6.330   1.541
  187SOL    HW1 1460   4.236   6.275   1.606
  187SOL    HW2 1461   4.226   6.396   1.496
  188SOL     OW 1462   1.509   3.045   2.753
  188SOL    HW1 1463   1.541   3.128   2.799
  188SOL    HW2 1464   1.513   3.059   2.654
  189SOL     OW 1465   5.777   5.087   5.792
  189SOL    HW1 1466   5.703   5.152   5.808
  189SOL    HW2 1467   5.864   5.127   5.822
  190SOL     OW 1468   5.632   0.639   0.198
  190SOL    HW1 1469   5.730   0.621   0.193
  190SOL    HW2 1470   5.598   0.615   0.289
  191SOL     OW 1471   6.995   1.140   5.842
  191SOL    HW1 1472   0.035   1.195   5.789
  191SOL    HW2 1473   6.906   1.186   5.845
  192SOL     OW 1474   0.181   5.425   1.168
  192SOL    HW1 1475   0.266   5.475   1.183
  192SOL    HW2 1476   0.183   5.380   1.079
  193SOL     OW 1477   2.596   6.285   0.363
  193SOL    HW1 1478   2.532   6.291   0.286
  193SOL    HW2 1479   2.551   6.321   0.446
  194SOL     OW 1480   4.034   5.785   2.513
  194SOL    HW1 1481   3.975   5.724   2.566
  194SOL    HW2 1482   4.109   5.817   2.571
  195SOL     OW 1483   3.513   1.264   1.366
  195SOL    HW1 1484   3.538   1.267   1.463
  195SOL    HW2 1485   3.500   1.169   1.338
  196SOL     OW 1486   2.948   2.240   0.280
  196SOL    HW1 1487   3.011   2.314   0.301
  196SOL    HW2 1488   2.871   2.276   0.227
  197SOL     OW 1489   1.883   6.294   0.257
  197SOL    HW1 1490   1.810   6.270   0.321
  197SOL    HW2 1491   1.962   6.327   0.308
  198SOL     OW 1492   4.525   0.293   0.018
  198SOL    HW1 1493   4.593   0.240   0.068
  198SOL    HW2 1494   4.469   0.345   0.082
  199SOL     OW 1495   0.389   0.373   2.591
  199SOL    HW1 1496   0.410   0.465   2.623
  199SOL    HW2 1497   0.450   0.348   2.516
  200SOL     OW 1498   0.966   4.079   3.102
  200SOL    HW1 1499   0.873   4.052   3.125
  200SOL    HW2 1500   0.981   4.174   3.128
  201SOL     OW 1501   4.819   1.203   6.633
  201SOL    HW1 1502   4.822   1.202   6.533
  201SOL    HW2 1503   4.908   1.175   6.669
  202SOL     OW 1504   3.401   1.088   2.507
  202SOL    HW1 1505   3.429   1.182   2.529
  202SOL    HW2 1506   3.309   1.072   2.542
  203SOL     OW 1507   5.486   2.849   6.971
  203SOL    HW1 1508   5.556   2.813   6.910
  203SOL    HW2 1509   5.468   2.782   0.020
  204SOL     OW 1510   2.772   6.214   1.523
  204SOL    HW1 1511   2.768   6.192   1.620
  204SOL    HW2 1512   2.775   6.130   1.469
  205SOL     OW 1513   6.229   0.792   0.443
  205SOL    HW1 1514   6.225   0.848   0.525
  205SOL    HW2 1515   6.272   0.704   0.465
  206SOL     OW 1516   0.353   4.718   1.966
  206SOL    HW1 1517   0.312   4.666   2.041
  206SOL    HW2 1518   0.349   4.816   1.987
  207SOL     OW 1519   4.864   1.229   5.404
  207SOL    HW1 1520   4.856   1.149   5.464
  207SOL    HW2 1521   4.823   1.308   5.448
  208SOL     OW 1522   3.112   4.486   6.064
  208SOL    HW1 1523   3.056   4.568   6.063
  208SOL    HW2 1524   3.197   4.505   6.114
  209SOL     OW 1525   6.519   5.537   5.788
  209SOL    HW1 1526   6.562   5.448   5.797
  209SOL    HW2 1527   6.555   5.583   5.706
  210SOL     OW 1528   3.754   2.037   2.230
  210SOL    HW1 1529   3.667   2.042   2.279
  210SOL    HW2 1530   3.749   2.094   2.148
  211SOL     OW 1531   1.196   1.876   1.768
  211SOL    HW1 1532   1.279   1.886   1.712
  211SOL    HW2 1533   1.206   1.798   1.830
  212SOL     OW 1534   0.597   4.660   3.654
  212SOL    HW1 1535   0.590   4.560   3.646
  212SOL    HW2 1536   0.507   4.699   3.672
  213SOL     OW 1537   3.686   2.352   6.983
  213SOL    HW1 1538   3.655   2.446   6.967
  213SOL    HW2 1539   3.682   2.332   0.057
  214SOL     OW 1540   1.213   6.737   2.917
  214SOL    HW1 1541   1.302   6.777   2.897
  214SOL    HW2 1542   1.206   6.646   2.874
  215SOL     OW 1543   3.411   3.528   2.745
  215SOL    HW1 1544   3.429   3.494   2.653
  215SOL    HW2 1545   3.357   3.460   2.795
  216SOL     OW 1546   1.386   6.060   5.691
  216SOL    HW1 1547   1.460   5.997   5.714
  216SOL    HW2 1548   1.305   6.036   5.743
  217SOL     OW 1549   7.020   2.774   3.809
  217SOL    HW1 1550   0.062   2.752   3.736
  217SOL    HW2 1551   6.929   2.742   3.782
  218SOL     OW 1552   1.356   3.994   5.439
  218SOL    HW1 1553   1.409   4.004   5.355
  218SOL    HW2 1554   1.274   3.940   5.421
  219SOL     OW 1555   4.599   5.391   0.521
  219SOL    HW1 1556   4.569   5.300   0.492
  219SOL    HW2 1557   4.569   5.459   0.453
  220SOL     OW 1558   1.687   4.423   0.898
  220SOL    HW1 1559   1.721   4.486   0.968
  220SOL    HW2 1560   1.597   4.454   0.866
  221SOL     OW 1561   6.812   2.584   3.697
  221SOL    HW1 1562   6.838   2.522   3.623
  221SOL    HW2 1563   6.723   2.624   3.678
  222SOL     OW 1564   1.479   6.490   5.265
  222SOL    HW1 1565   1.454   6.456   5.355
  222SOL    HW2 1566   1.550   6.431   5.226
  223SOL     OW 1567   5.838   4.124   2.257
  223SOL    HW1 1568   5.815   4.067   2.178
  223SOL    HW2 1569   5.860   4.217   2.226
  224SOL     OW 1570   3.431   2.075   2.027
  224SOL    HW1 1571   3.348   2.118   1.994
  224SOL    HW2 1572   3.511   2.126   1.994
  225SOL     OW 1573   0.387   0.346   0.647
  225SOL    HW1 1574   0.430   0.261   0.617
  225SOL    HW2 1575   0.450   0.422   0.632
  226SOL     OW 1576   0.204   5.278   0.935
  226SOL    HW1 1577   0.227   5.370   0.901
  226SOL    HW2 1578   0.243   5.209   0.875
  227SOL     OW 1579   1.697   2.812   3.377
  227SOL    HW1 1580   1.658   2.897   3.343
  227SOL    HW2 1581   1.786   2.830   3.419
  228SOL     OW 1582   3.779   0.012   2.976
  228SOL    HW1 1583   3.727   0.032   3.059
  228SOL    HW2 1584   3.776   0.090   2.914
  229SOL     OW 1585   6.069   5.793   2.811
  229SOL    HW1 1586   6.086   5.795   2.713
  229SOL    HW2 1587   6.109   5.874   2.853
  230SOL     OW 1588   1.714   4.350   5.438
  230SOL    HW1 1589   1.710   4.411   5.359
  230SOL    HW2 1590   1.747   4.260   5.409
  231SOL     OW 1591   0.598   1.797   0.100
  231SOL    HW1 1592   0.516   1.744   0.119
  231SOL    HW2 1593   0.575   1.876   0.043
  232SOL     OW 1594   2.188   5.082   6.616
  232SOL    HW1 1595   2.225   5.108   6.705
  232SOL    HW2 1596   2.264   5.065   6.552
  233SOL     OW 1597   3.070   1.004   6.267
  233SOL    HW1 1598   2.994   1.054   6.224
  233SOL    HW2 1599   3.109   0.940   6.201
  234SOL     OW 1600   3.032   5.772   0.135
  234SOL    HW1 1601   3.024   5.683   0.180
  234SOL    HW2 1602   2.990   5.842   0.194
  235SOL     OW 1603   3.535   3.096   5.088
  235SOL    HW1 1604   3.489   3.172   5.135
  235SOL    HW2 1605   3.629   3.091   5.120
  236SOL     OW 1606   6.799   2.157   5.585
  236SOL    HW1 1607   6.863   2.150   5.662
  236SOL    HW2 1608   6.706   2.167   5.620
  237SOL     OW 1609   0.250   0.168   1.860
  237SOL    HW1 1610   0.336   0.124   1.886
  237SOL    HW2 1611   0.180   0.147   1.927
  238SOL     OW 1612   6.654   2.187   2.259
  238SOL    HW1 1613   6.621   2.161   2.350
  238SOL    HW2 1614   6.622   2.120   2.192
  239SOL     OW 1615   0.550   5.255   0.627
  239SOL    HW1 1616   0.640   5.283   0.661
  239SOL    HW2 1617   0.562   5.187   0.554
  240SOL     OW 1618   6.705   3.732   5.640
  240SOL    HW1 1619   6.615   3.746   5.597
  240SOL    HW2 1620   6.774   3.785   5.591
  241SOL     OW 1621   6.427   1.585   3.783
  241SOL    HW1 1622   6.452   1.536   3.867
  241SOL    HW2 1623   6.442   1.525   3.705
  242SOL     OW 1624   2.036   2.635   3.332
  242SOL    HW1 1625   1.949   2.598   3.298
  242SOL    HW2 1626   2.019   2.687   3.416
  243SOL     OW 1627   4.487   1.033   5.334
  243SOL    HW1 1628   4.525   1.097   5.400
  243SOL    HW2 1629   4.414   0.980   5.376
  244SOL     OW 1630   0.026   0.538   5.891
  244SOL    HW1 1631   0.049   0.635   5.878
  244SOL    HW2 1632   6.992   0.507   5.816
  245SOL     OW 1633   5.608   2.516   3.566
  245SOL    HW1 1634   5.517   2.477   3.549
  245SOL    HW2 1635   5.661   2.513   3.482
  246SOL     OW 1636   4.855   3.146   3.877
  246SOL    HW1 1637   4.863   3.241   3.848
  246SOL    HW2 1638   4.945   3.103   3.874
  247SOL     OW 1639   3.213   0.567   3.611
  247SOL    HW1 1640   3.285   0.578   3.543
  247SOL    HW2 1641   3.222   0.477   3.654
  248SOL     OW 1642   5.669   1.856   2.398
  248SOL    HW1 1643   5.663   1.956   2.388
  248SOL    HW2 1644   5.648   1.831   2.492
  249SOL     OW 1645   2.411   6.460   4.033
  249SOL    HW1 1646   2.325   6.494   4.071
  249SOL    HW2 1647   2.459   6.536   3.989
  250SOL     OW 1648   5.350   3.209   6.464
  250SOL    HW1 1649   5.370   3.242   6.556
  250SOL    HW2 1650   5.269   3.255   6.429
  251SOL     OW 1651   2.082   2.608   0.713
  251SOL    HW1 1652   2.005   2.563   0.668
  251SOL    HW2 1653   2.079   2.706   0.693
  252SOL     OW 1654   0.011   1.719   6.957
  252SOL    HW1 1655   0.055   1.630   6.972
  252SOL    HW2 1656   7.009   1.759   0.020
  253SOL     OW 1657   1.813   4.182   5.043
  253SOL    HW1 1658   1.861   4.244   5.104
  253SOL    HW2 1659   1.877   4.148   4.973
  254SOL     OW 1660   5.258   3.918   5.577
  254SOL    HW1 1661   5.271   3.985   5.651
  254SOL    HW2 1662   5.236   3.829   5.617
  255SOL     OW 1663   3.330   2.046   3.220
  255SOL    HW1 1664   3.295   1.966   3.172
  255SOL    HW2 1665   3.271   2.125   3.201
  256SOL     OW 1666   6.572   5.797   0.352
  256SOL    HW1 1667   6.663   5.835   0.363
  256SOL    HW2 1668   6.568   5.743   0.268
  257SOL     OW 1669   3.308   5.359   6.497
  257SOL    HW1 1670   3.307   5.448   6.542
  257SOL    HW2 1671   3.219   5.344   6.452
  258SOL     OW 1672   5.305   3.831   4.489
  258SOL    HW1 1673   5.223   3.794   4.446
  258SOL    HW2 1674   5.332   3.771   4.565
  259SOL     OW 1675   1.085   1.987   3.366
  259SOL    HW1 1676   1.099   2.086   3.363
  259SOL    HW2 1677   1.123   1.951   3.451
  260SOL     OW 1678   6.690   6.820   5.468
  260SOL    HW1 1679   6.607   6.850   5.516
  260SOL    HW2 1680   6.770   6.863   5.511
  261SOL     OW 1681   1.262   1.614   2.838
  261SOL    HW1 1682   1.345   1.561   2.819
  261SOL    HW2 1683   1.283   1.689   2.900
  262SOL     OW 1684   1.932   4.987   1.677
  262SOL    HW1 1685   1.873   4.912   1.706
  262SOL    HW2 1686   1.875   5.065   1.650
  263SOL     OW 1687   6.784   1.823   5.595
  263SOL    HW1 1688   6.826   1.849   5.683
  263SOL    HW2 1689   6.778   1.904   5.536
  264SOL     OW 1690   3.048   3.934   6.327
  264SOL    HW1 1691   3.007   3.897   6.243
  264SOL    HW2 1692   3.039   4.033   6.328
  265SOL     OW 1693   5.624   5.474   5.689
  265SOL    HW1 1694   5.713   5.512   5.712
  265SOL    HW2 1695   5.601   5.399   5.752
  266SOL     OW 1696   3.416   2.355   6.711
  266SOL    HW1 1697   3.388   2.300   6.632
  266SOL    HW2 1698   3.408   2.301   6.794
  267SOL     OW 1699   1.257   1.577   5.964
  267SOL    HW1 1700   1.286   1.671   5.982
  267SOL    HW2 1701   1.330   1.529   5.914
  268SOL     OW 1702   3.271   5.837   3.541
  268SOL    HW1 1703   3.367   5.856   3.564
  268SOL    HW2 1704   3.212   5.906   3.583
  269SOL     OW 1705   1.672   1.320   5.341
  269SOL    HW1 1706   1.615   1.263   5.399
  269SOL    HW2 1707   1.741   1.264   5.295
  270SOL     OW 1708   5.358   6.629   4.661
  270SOL    HW1 1709   5.337   6.551   4.602
  270SOL    HW2 1710   5.338   6.604   4.756
  271SOL     OW 1711   1.414   1.567   6.849
  271SOL    HW1 1712   1.398   1.568   6.948
  271SOL    HW2 1713   1.336   1.525   6.803
  272SOL     OW 1714   4.892   5.850   2.232
  272SOL    HW1 1715   4.930   5.861   2.141
  272SOL    HW2 1716   4.959   5.878   2.300
  273SOL     OW 1717   3.144   6.674   4.735
  273SOL    HW1 1718   3.111   6.614   4.808
  273SOL    HW2 1719   3.086   6.755   4.730
  274SOL     OW 1720   5.741   1.705   0.950
  274SOL    HW1 1721   5.744   1.609   0.976
  274SOL    HW2 1722   5.667   1.719   0.884
  275SOL     OW 1723   5.597   5.823   5.417
  275SOL    HW1 1724   5.581   5.747   5.354
  275SOL    HW2 1725   5.695   5.841   5.423
  276SOL     OW 1726   0.376   6.476   3.650
  276SOL    HW1 1727   0.449   6.408   3.641
  276SOL    HW2 1728   0.294   6.443   3.605
  277SOL     OW 1729   4.854   2.191   5.527
  277SOL    HW1 1730   4.814   2.273   5.566
  277SOL    HW2 1731   4.782   2.136   5.483
  278SOL     OW 1732   5.742   3.461   2.997
  278SOL    HW1 1733   5.757   3.398   2.922
  278SOL    HW2 1734   5.829   3.482   3.042
  279SOL     OW 1735   0.745   3.894   4.372
  279SOL    HW1 1736   0.649   3.879   4.394
  279SOL    HW2 1737   0.759   3.884   4.273
  280SOL     OW 1738   3.315   0.973   3.299
  280SOL    HW1 1739   3.410   1.005   3.306
  280SOL    HW2 1740   3.279   0.994   3.209
  281SOL     OW 1741   5.625   6.189   4.523
  281SOL    HW1 1742   5.688   6.155   4.454
  281SOL    HW2 1743   5.666   6.268   4.569
  282SOL     OW 1744   1.518   2.543   0.205
  282SOL    HW1 1745   1.445   2.550   0.137
  282SOL    HW2 1746   1.558   2.452   0.201
  283SOL     OW 1747   5.909   2.497   4.530
  283SOL    HW1 1748   5.984   2.554   4.497
  283SOL    HW2 1749   5.841   2.486   4.458
  284SOL     OW 1750   4.768   5.469   2.979
  284SOL    HW1 1751   4.684   5.422   2.950
  284SOL    HW2 1752   4.845   5.431   2.929
  285SOL     OW 1753   4.588   0.368   5.702
  285SOL    HW1 1754   4.559   0.369   5.607
  285SOL    HW2 1755   4.510   0.347   5.761
  286SOL     OW 1756   2.741   5.040   5.730
  286SOL    HW1 1757   2.755   5.019   5.827
  286SOL    HW2 1758   2.792   5.123   5.706
  287SOL     OW 1759   3.352   0.609   6.711
  287SOL    HW1 1760   3.345   0.647   6.619
  287SOL    HW2 1761   3.260   0.590   6.746
  288SOL     OW 1762   4.489   1.118   0.976
  288SOL    HW1 1763   4.419   1.173   0.931
  288SOL    HW2 1764   4.563   1.177   1.008
  289SOL     OW 1765   6.524   5.687   3.605
  289SOL    HW1 1766   6.468   5.742   3.543
  289SOL    HW2 1767   6.560   5.607   3.556
  290SOL     OW 1768   3.630   0.855   6.394
  290SOL    HW1 1769   3.726   0.872   6.413
  290SOL    HW2 1770   3.579   0.847   6.479
  291SOL     OW 1771   3.617   0.533   5.495
  291SOL    HW1 1772   3.701   0.582   5.520
  291SOL    HW2 1773   3.616   0.518   5.396
  292SOL     OW 1774   4.677   0.795   4.103
  292SOL    HW1 1775   4.715   0.878   4.143
  292SOL    HW2 1776   4.581   0.786   4.131
  293SOL     OW 1777   5.942   6.677   2.306
  293SOL    HW1 1778   5.968   6.763   2.262
  293SOL    HW2 1779   5.844   6.677   2.324
  294SOL     OW 1780   5.677   1.281   6.327
  294SOL    HW1 1781   5.633   1.363   6.289
  294SOL    HW2 1782   5.774   1.283   6.306
  295SOL     OW 1783   1.585   0.617   4.938
  295SOL    HW1 1784   1.541   0.541   4.985
  295SOL    HW2 1785   1.518   0.690   4.923
  296SOL     OW 1786   0.677   2.273   1.181
  296SOL    HW1 1787   0.691   2.347   1.246
  296SOL    HW2 1788   0.651   2.190   1.230
  297SOL     OW 1789   5.152   3.514   3.335
  297SOL    HW1 1790   5.174   3.598   3.285
  297SOL    HW2 1791   5.060   3.520   3.373
  298SOL     OW 1792   4.568   0.569   6.183
  298SOL    HW1 1793   4.532   0.610   6.266
  298SOL    HW2 1794   4.608   0.640   6.125
  299SOL     OW 1795   0.941   0.396   0.104
  299SOL    HW1 1796   0.934   0.429   0.010
  299SOL    HW2 1797   0.953   0.297   0.104
  300SOL     OW 1798   3.986   0.033   3.539
  300SOL    HW1 1799   3.917   6.986   3.556
  300SOL    HW2 1800   3.967   0.112   3.598
  301SOL     OW 1801   6.679   4.966   0.256
  301SOL    HW1 1802   6.630   5.021   0.189
  301SOL    HW2 1803   6.672   5.009   0.346
  302SOL     OW 1804   0.164   5.279   2.182
  302SOL    HW1 1805   0.080   5.288   2.235
  302SOL    HW2 1806   0.231   5.226   2.234
  303SOL     OW 1807   5.333   5.871   3.307
  303SOL    HW1 1808   5.269   5.834   3.239
  303SOL    HW2 1809   5.418   5.899   3.261
  304SOL     OW 1810   2.619   5.868   4.925
  304SOL    HW1 1811   2.658   5.791   4.976
  304SOL    HW2 1812   2.520   5.869   4.935
  305SOL     OW 1813   0.900   2.729   1.759
  305SOL    HW1 1814   0.869   2.671   1.834
  305SOL    HW2 1815   0.997   2.751   1.773
  306SOL     OW 1816   0.052   6.812   3.198
  306SOL    HW1 1817   0.147   6.808   3.165
  306SOL    HW2 1818   0.005   6.889   3.155
  307SOL     OW 1819   3.413   2.879   4.854
  307SOL    HW1 1820   3.330   2.921   4.893
  307SOL    HW2 1821   3.492   2.937   4.875
  308SOL     OW 1822   5.987   2.157   3.189
  308SOL    HW1 1823   5.928   2.103   3.129
  308SOL    HW2 1824   6.083   2.137   3.168
  309SOL     OW 1825   1.852   6.005   6.522
  309SOL    HW1 1826   1.758   5.978   6.501
  309SOL    HW2 1827   1.911   5.924   6.520
  310SOL     OW 1828   5.334   6.979   5.264
  310SOL    HW1 1829   5.364   6.935   5.179
  310SOL    HW2 1830   5.320   6.909   5.334
  311SOL     OW 1831   1.450   5.662   2.477
  311SOL    HW1 1832   1.493   5.752   2.469
  311SOL    HW2 1833   1.394   5.643   2.396
  312SOL     OW 1834   3.457   0.239   3.690
  312SOL    HW1 1835   3.462   0.263   3.593
  312SOL    HW2 1836   3.428   0.319   3.743
  313SOL     OW 1837   3.271   3.836   2.896
  313SOL    HW1 1838   3.283   3.925   2.940
  313SOL    HW2 1839   3.177   3.826   2.864
  314SOL     OW 1840   3.299   5.468   6.178
  314SOL    HW1 1841   3.219   5.500   6.229
  314SOL    HW2 1842   3.381   5.517   6.209
  315SOL     OW 1843   6.504   0.749   4.399
  315SOL    HW1 1844   6.507   0.774   4.302
  315SOL    HW2 1845   6.590   0.776   4.442
  316SOL     OW 1846   4.079   1.098   6.440
  316SOL    HW1 1847   4.171   1.060   6.448
  316SOL    HW2 1848   4.080   1.175   6.376
  317SOL     OW 1849   1.327   1.836   1.070
  317SOL    HW1 1850   1.309   1.738   1.081
  317SOL    HW2 1851   1.332   1.879   1.160
  318SOL     OW 1852   0.427   0.337   4.880
  318SOL    HW1 1853   0.483   0.365   4.958
  318SOL    HW2 1854   0.396   0.418   4.831
  319SOL     OW 1855   0.984   1.295   3.509
  319SOL    HW1 1856   0.945   1.357   3.577
  319SOL    HW2 1857   0.910   1.247   3.462
  320SOL     OW 1858   5.731   2.495   6.217
  320SOL    HW1 1859   5.689   2.523   6.130
  320SOL    HW2 1860   5.808   2.434   6.199
  321SOL     OW 1861   4.755   2.705   0.480
  321SOL    HW1 1862   4.707   2.720   0.567
  321SOL    HW2 1863   4.829   2.772   0.471
  322SOL     OW 1864   3.116   3.395   6.144
  322SOL    HW1 1865   3.118   3.397   6.244
  322SOL    HW2 1866   3.022   3.400   6.112
  323SOL     OW 1867   1.617   3.824   2.286
  323SOL    HW1 1868   1.675   3.840   2.205
  323SOL    HW2 1869   1.539   3.886   2.285
  324SOL     OW 1870   1.001   0.645   3.165
  324SOL    HW1 1871   1.031   0.670   3.073
  324SOL    HW2 1872   1.046   0.560   3.193
  325SOL     OW 1873   6.691   3.985   1.250
  325SOL    HW1 1874   6.765   3.922   1.273
  325SOL    HW2 1875   6.609   3.959   1.300
  326SOL     OW 1876   0.765   6.383   6.471
  326SOL    HW1 1877   0.800   6.294   6.500
  326SOL    HW2 1878   0.839   6.435   6.428
  327SOL     OW 1879   5.061   5.358   4.622
  327SOL    HW1 1880   5.011   5.423   4.564
  327SOL    HW2 1881   5.143   5.327   4.573
  328SOL     OW 1882   1.716   4.115   3.090
  328SOL    HW1 1883   1.733   4.088   2.995
  328SOL    HW2 1884   1.770   4.058   3.151
  329SOL     OW 1885   3.113   2.857   1.823
  329SOL    HW1 1886   3.211   2.861   1.845
  329SOL    HW2 1887   3.083   2.762   1.819
  330SOL     OW 1888   2.920   4.917   0.759
  330SOL    HW1 1889   2.891   4.834   0.712
  330SOL    HW2 1890   2.839   4.966   0.793
  331SOL     OW 1891   6.578   5.142   6.338
  331SOL    HW1 1892   6.617   5.111   6.424
  331SOL    HW2 1893   6.547   5.237   6.347
  332SOL     OW 1894   5.925   2.421   3.159
  332SOL    HW1 1895   5.967   2.331   3.156
  332SOL    HW2 1896   5.917   2.457   3.066
  333SOL     OW 1897   3.473   0.744   5.272
  333SOL    HW1 1898   3.520   0.804   5.206
  333SOL    HW2 1899   3.374   0.753   5.260
  334SOL     OW 1900   3.654   3.769   3.209
  334SOL    HW1 1901   3.713   3.817   3.144
  334SOL    HW2 1902   3.712   3.723   3.278
  335SOL     OW 1903   4.072   1.652   1.144
  335SOL    HW1 1904   4.112   1.712   1.074
  335SOL    HW2 1905   3.973   1.651   1.135
  336SOL     OW 1906   2.791   1.959   4.406
  336SOL    HW1 1907   2.709   1.902   4.406
  336SOL    HW2 1908   2.866   1.911   4.452
  337SOL     OW 1909   1.125   0.866   5.470
  337SOL    HW1 1910   1.059   0.790   5.470
  337SOL    HW2 1911   1.090   0.940   5.527
  338SOL     OW 1912   4.117   1.680   1.433
  338SOL    HW1 1913   4.106   1.673   1.334
  338SOL    HW2 1914   4.211   1.658   1.457
  339SOL     OW 1915   4.083   6.300   5.538
  339SOL    HW1 1916   4.100   6.208   5.502
  339SOL    HW2 1917   4.137   6.367   5.486
  340SOL     OW 1918   5.039   2.010   4.390
  340SOL    HW1 1919   5.093   2.055   4.319
  340SOL    HW2 1920   5.081   1.922   4.413
  341SOL     OW 1921   6.272   6.658   2.975
  341SOL    HW1 1922   6.248   6.712   3.056
  341SOL    HW2 1923   6.212   6.579   2.969
  342SOL     OW 1924   4.674   2.082   2.438
  342SOL    HW1 1925   4.772   2.088   2.457
  342SOL    HW2 1926   4.624   2.127   2.512
  343SOL     OW 1927   6.624   6.435   2.479
  343SOL    HW1 1928   6.606   6.393   2.568
  343SOL    HW2 1929   6.643   6.532   2.491
  344SOL     OW 1930   0.862   1.908   0.832
  344SOL    HW1 1931   0.802   1.960   0.771
  344SOL    HW2 1932   0.949   1.956   0.841
  345SOL     OW 1933   6.478   3.211   4.091
  345SOL    HW1 1934   6.459   3.126   4.041
  345SOL    HW2 1935   6.404   3.276   4.076
  346SOL     OW 1936   1.898   6.579   3.745
  346SOL    HW1 1937   1.819   6.616   3.793
  346SOL    HW2 1938   1.868   6.530   3.663
  347SOL     OW 1939   2.278   5.116   0.568
  347SOL    HW1 1940   2.259   5.103   0.471
  347SOL    HW2 1941   2.214   5.062   0.622
  348SOL     OW 1942   4.318   5.347   1.266
  348SOL    HW1 1943   4.310   5.293   1.350
  348SOL    HW2 1944   4.257   5.308   1.196
  349SOL     OW 1945   5.725   4.373   1.684
  349SOL    HW1 1946   5.778   4.360   1.600
  349SOL    HW2 1947   5.666   4.453   1.674
  350SOL     OW 1948   3.415   2.751   0.513
  350SOL    HW1 1949   3.504   2.749   0.557
  350SOL    HW2 1950   3.422   2.800   0.426
  351SOL     OW 1951   3.084   4.503   1.116
  351SOL    HW1 1952   3.103   4.464   1.206
  351SOL    HW2 1953   2.993   4.544   1.116
  352SOL     OW 1954   4.247   0.365   2.947
  352SOL    HW1 1955   4.304   0.323   2.876
  352SOL    HW2 1956   4.202   0.293   3.000
  353SOL     OW 1957   1.895   6.650   6.129
  353SOL    HW1 1958   1.851   6.657   6.218
  353SOL    HW2 1959   1.994   6.660   6.140
  354SOL     OW 1960   0.353   2.602   0.352
  354SOL    HW1 1961   0.447   2.635   0.339
  354SOL    HW2 1962   0.354   2.522   0.412
  355SOL     OW 1963   1.593   1.712   2.902
  355SOL    HW1 1964   1.521   1.781   2.905
  355SOL    HW2 1965   1.660   1.737   2.831
  356SOL     OW 1966   1.573   0.899   5.960
  356SOL    HW1 1967   1.666   0.897   5.999
  356SOL    HW2 1968   1.516   0.831   6.006
  357SOL     OW 1969   4.998   7.023   5.280
  357SOL    HW1 1970   5.097   7.013   5.273
  357SOL    HW2 1971   4.972   0.092   5.252
  358SOL     OW 1972   3.924   5.785   6.484
  358SOL    HW1 1973   3.865   5.835   6.548
  358SOL    HW2 1974   3.867   5.740   6.415
  359SOL     OW 1975   2.067   2.114   2.670
  359SOL    HW1 1976   2.057   2.052   2.592
  359SOL    HW2 1977   2.098   2.203   2.638
  360SOL     OW 1978   1.037   4.486   4.475
  360SOL    HW1 1979   1.030   4.450   4.568
  360SOL    HW2 1980   1.131   4.518   4.459
  361SOL     OW 1981   6.440   1.764   2.862
  361SOL    HW1 1982   6.495   1.847   2.858
  361SOL    HW2 1983   6.484   1.692   2.810
  362SOL     OW 1984   3.513   4.394   0.905
  362SOL    HW1 1985   3.457   4.381   0.987
  362SOL    HW2 1986   3.497   4.485   0.868
  363SOL     OW 1987   5.225   5.535   1.619
  363SOL    HW1 1988   5.155   5.483   1.569
  363SOL    HW2 1989   5.257   5.611   1.562
  364SOL     OW 1990   1.020   6.420   6.073
  364SOL    HW1 1991   0.970   6.429   5.987
  364SOL    HW2 1992   1.112   6.459   6.063
  365SOL     OW 1993   4.553   1.812   3.578
  365SOL    HW1 1994   4.638   1.806   3.526
  365SOL    HW2 1995   4.493   1.736   3.553
  366SOL     OW 1996   5.259   1.680   6.997
  366SOL    HW1 1997   5.166   1.710   6.980
  366SOL    HW2 1998   5.300   1.735   0.046
  367SOL     OW 1999   5.407   1.507   5.590
  367SOL    HW1 2000   5.316   1.489   5.552
  367SOL    HW2 2001   5.476   1.461   5.534
  368SOL     OW 2002   6.542   2.162   5.683
  368SOL    HW1 2003   6.472   2.154   5.611
  368SOL    HW2 2004   6.535   2.084   5.744
  369SOL     OW 2005   6.780   3.360   2.100
  369SOL    HW1 2006   6.715   3.287   2.122
  369SOL    HW2 2007   6.871   3.321   2.089
  370SOL     OW 2008   1.331   3.203   3.678
  370SOL    HW1 2009   1.350   3.246   3.590
  370SOL    HW2 2010   1.260   3.134   3.668
  371SOL     OW 2011   1.046   4.840   0.077
  371SOL    HW1 2012   0.949   4.857   0.092
  371SOL    HW2 2013   1.100   4.915   0.115
  372SOL     OW 2014   3.760   6.057   6.015
  372SOL    HW1 2015   3.782   6.014   6.103
  372SOL    HW2 2016   3.844   6.071   5.963
  373SOL     OW 2017   5.437   5.306   3.632
  373SOL    HW1 2018   5.368   5.234   3.626
  373SOL    HW2 2019   5.503   5.284   3.705
  374SOL     OW 2020   3.090   1.667   3.445
  374SOL    HW1 2021   3.012   1.658   3.505
  374SOL    HW2 2022   3.127   1.760   3.452
  375SOL     OW 2023   1.244   5.280   4.511
  375SOL    HW1 2024   1.206   5.348   4.448
  375SOL    HW2 2025   1.283   5.204   4.459
  376SOL     OW 2026   2.954   0.937   3.955
  376SOL    HW1 2027   2.901   1.020   3.938
  376SOL    HW2 2028   2.891   0.861   3.971
  377SOL     OW 2029   0.759   1.492   6.583
  377SOL    HW1 2030   0.805   1.549   6.652
  377SOL    HW2 2031   0.827   1.437   6.534
  378SOL     OW 2032   3.981   0.987   2.379
  378SOL    HW1 2033   4.012   0.941   2.296
  378SOL    HW2 2034   3.940   1.075   2.356
  379SOL     OW 2035   5.830   1.579   6.415
  379SOL    HW1 2036   5.832   1.548   6.510
  379SOL    HW2 2037   5.886   1.519   6.359
  380SOL     OW 2038   4.229   2.366   0.651
  380SOL    HW1 2039   4.129   2.367   0.650
  380SOL    HW2 2040   4.261   2.413   0.733
  381SOL     OW 2041   1.695   3.768   3.040
  381SOL    HW1 2042   1.674   3.850   2.986
  381SOL    HW2 2043   1.780   3.783   3.092
  382SOL     OW 2044   4.882   0.790   0.128
  382SOL    HW1 2045   4.816   0.715   0.136
  382SOL    HW2 2046   4.846   0.859   0.065
  383SOL     OW 2047   4.658   2.333   0.732
  383SOL    HW1 2048   4.718   2.386   0.672
  383SOL    HW2 2049   4.707   2.254   0.768
  384SOL     OW 2050   5.922   3.722   4.743
  384SOL    HW1 2051   5.994   3.701   4.678
  384SOL    HW2 2052   5.834   3.724   4.695
  385SOL     OW 2053   4.583   3.661   0.530
  385SOL    HW1 2054   4.673   3.663   0.574
  385SOL    HW2 2055   4.570   3.745   0.476
  386SOL     OW 2056   3.835   6.254   3.747
  386SOL    HW1 2057   3.879   6.340   3.724
  386SOL    HW2 2058   3.812   6.204   3.663
  387SOL     OW 2059   2.584   6.605   3.680
  387SOL    HW1 2060   2.652   6.541   3.716
  387SOL    HW2 2061   2.602   6.697   3.715
  388SOL     OW 2062   1.796   4.152   6.448
  388SOL    HW1 2063   1.757   4.166   6.356
  388SOL    HW2 2064   1.788   4.237   6.500
  389SOL     OW 2065   2.950   3.776   3.231
  389SOL    HW1 2066   2.991   3.689   3.257
  389SOL    HW2 2067   3.022   3.841   3.209
  390SOL     OW 2068   2.198   1.230   4.098
  390SOL    HW1 2069   2.235   1.139   4.077
  390SOL    HW2 2070   2.098   1.225   4.105
  391SOL     OW 2071   0.921   3.436   0.014
  391SOL    HW1 2072   0.957   3.465   6.949
  391SOL    HW2 2073   0.826   3.408   0.004
  392SOL     OW 2074   2.177   5.564   2.470
  392SOL    HW1 2075   2.085   5.602   2.467
  392SOL    HW2 2076   2.224   5.597   2.552
  393SOL     OW 2077   5.964   4.453   4.957
  393SOL    HW1 2078   5.899   4.503   5.014
  393SOL    HW2 2079   6.056   4.490   4.970
  394SOL     OW 2080   2.419   0.587   6.992
  394SOL    HW1 2081   2.378   0.496   6.992
  394SOL    HW2 2082   2.347   0.656   7.006
  395SOL     OW 2083   6.202   3.666   1.197
  395SOL    HW1 2084   6.287   3.632   1.238
  395SOL    HW2 2085   6.204   3.766   1.196
  396SOL     OW 2086   3.296   3.899   4.010
  396SOL    HW1 2087   3.339   3.811   4.030
  396SOL    HW2 2088   3.197   3.893   4.026
  397SOL     OW 2089   4.397   2.340   5.968
  397SOL    HW1 2090   4.306   2.306   5.943
  397SOL    HW2 2091   4.467   2.275   5.940
  398SOL     OW 2092   0.816   5.180   2.002
  398SOL    HW1 2093   0.883   5.203   1.931
  398SOL    HW2 2094   0.863   5.169   2.089
  399SOL     OW 2095   4.835   5.305   1.754
  399SOL    HW1 2096   4.897   5.241   1.798
  399SOL    HW2 2097   4.809   5.269   1.664
  400SOL     OW 2098   1.351   5.631   5.153
  400SOL    HW1 2099   1.370   5.557   5.217
  400SOL    HW2 2100   1.253   5.637   5.137
  401SOL     OW 2101   4.891   1.399   0.015
  401SOL    HW1 2102   4.806   1.439   0.048
  401SOL    HW2 2103   4.893   1.302   0.036
  402SOL     OW 2104   5.471   4.893   1.185
  402SOL    HW1 2105   5.372   4.886   1.182
  402SOL    HW2 2106   5.506   4.916   1.094
  403SOL     OW 2107   4.892   2.621   5.998
  403SOL    HW1 2108   4.957   2.577   6.060
  403SOL    HW2 2109   4.802   2.577   6.008
  404SOL     OW 2110   0.579   0.425   4.240
  404SOL    HW1 2111   0.486   0.396   4.218
  404SOL    HW2 2112   0.593   0.416   4.339
  405SOL     OW 2113   0.450   2.251   0.711
  405SOL    HW1 2114   0.397   2.335   0.715
  405SOL    HW2 2115   0.464   2.224   0.616
  406SOL     OW 2116   1.851   3.036   3.950
  406SOL    HW1 2117   1.836   3.037   4.049
  406SOL    HW2 2118   1.948   3.049   3.931
  407SOL     OW 2119   3.025   0.695   4.685
  407SOL    HW1 2120   3.079   0.637   4.623
  407SOL    HW2 2121   3.010   0.647   4.771
  408SOL     OW 2122   1.882   0.482   3.602
  408SOL    HW1 2123   1.943   0.480   3.522
  408SOL    HW2 2124   1.790   0.508   3.574
  409SOL     OW 2125   6.340   3.307   3.399
  409SOL    HW1 2126   6.314   3.214   3.373
  409SOL    HW2 2127   6.372   3.307   3.494
  410SOL     OW 2128   2.587   0.991   6.806
  410SOL    HW1 2129   2.657   1.024   6.743
  410SOL    HW2 2130   2.588   0.892   6.811
  411SOL     OW 2131   6.147   4.576   5.529
  411SOL    HW1 2132   6.111   4.669   5.537
  411SOL    HW2 2133   6.226   4.576   5.467
  412SOL     OW 2134   3.941   0.709   2.707
  412SOL    HW1 2135   3.873   0.695   2.779
  412SOL    HW2 2136   3.995   0.791   2.727
  413SOL     OW 2137   2.745   6.659   0.500
  413SOL    HW1 2138   2.690   6.582   0.531
  413SOL    HW2 2139   2.716   6.686   0.409
  414SOL     OW 2140   3.905   3.994   0.569
  414SOL    HW1 2141   3.955   3.988   0.656
  414SOL    HW2 2142   3.818   4.041   0.584
  415SOL     OW 2143   2.293   6.816   1.129
  415SOL    HW1 2144   2.193   6.825   1.126
  415SOL    HW2 2145   2.319   6.771   1.215
  416SOL     OW 2146   4.201   5.770   4.894
  416SOL    HW1 2147   4.165   5.852   4.939
  416SOL    HW2 2148   4.171   5.689   4.944
  417SOL     OW 2149   4.430   6.190   1.749
  417SOL    HW1 2150   4.388   6.235   1.828
  417SOL    HW2 2151   4.392   6.229   1.665
  418SOL     OW 2152   5.066   5.250   1.283
  418SOL    HW1 2153   4.984   5.205   1.317
  418SOL    HW2 2154   5.041   5.313   1.208
  419SOL     OW 2155   6.687   6.705   1.216
  419SOL    HW1 2156   6.596   6.686   1.179
  419SOL    HW2 2157   6.704   6.803   1.212
  420SOL     OW 2158   4.932   4.928   0.600
  420SOL    HW1 2159   5.004   4.994   0.575
  420SOL    HW2 2160   4.845   4.977   0.612
  421SOL     OW 2161   2.269   6.363   6.373
  421SOL    HW1 2162   2.225   6.445   6.411
  421SOL    HW2 2163   2.258   6.287   6.436
  422SOL     OW 2164   5.252   4.066   6.525
  422SOL    HW1 2165   5.227   4.159   6.497
  422SOL    HW2 2166   5.350   4.064   6.545
  423SOL     OW 2167   6.920   3.195   0.094
  423SOL    HW1 2168   6.964   3.194   0.004
  423SOL    HW2 2169   6.842   3.133   0.094
  424SOL     OW 2170   3.039   4.063   0.351
  424SOL    HW1 2171   3.099   4.125   0.401
  424SOL    HW2 2172   2.968   4.116   0.305
  425SOL     OW 2173   3.241   1.648   0.502
  425SOL    HW1 2174   3.314   1.658   0.570
  425SOL    HW2 2175   3.195   1.561   0.515
  426SOL     OW 2176   5.287   4.403   5.859
  426SOL    HW1 2177   5.193   4.389   5.890
  426SOL    HW2 2178   5.324   4.485   5.903
  427SOL     OW 2179   5.342   3.722   1.058
  427SOL    HW1 2180   5.310   3.662   1.131
  427SOL    HW2 2181   5.415   3.677   1.007
  428SOL     OW 2182   3.771   0.916   5.249
  428SOL    HW1 2183   3.837   0.840   5.253
  428SOL    HW2 2184   3.757   0.953   5.340
  429SOL     OW 2185   1.570   4.703   0.126
  429SOL    HW1 2186   1.547   4.752   0.042
  429SOL    HW2 2187   1.668   4.710   0.144
  430SOL     OW 2188   1.505   0.361   5.335
  430SOL    HW1 2189   1.425   0.406   5.376
  430SOL    HW2 2190   1.578   0.356   5.403
  431SOL     OW 2191   3.389   1.604   0.745
  431SOL    HW1 2192   3.476   1.653   0.747
  431SOL    HW2 2193   3.405   1.506   0.754
  432SOL     OW 2194   0.137   1.459   1.154
  432SOL    HW1 2195   0.044   1.436   1.181
  432SOL    HW2 2196   0.178   1.382   1.105
  433SOL     OW 2197   3.140   6.501   5.323
  433SOL    HW1 2198   3.064   6.436   5.331
  433SOL    HW2 2199   3.206   6.484   5.396
  434SOL     OW 2200   6.598   3.552   1.654
  434SOL    HW1 2201   6.658   3.564   1.575
  434SOL    HW2 2202   6.523   3.618   1.648
  435SOL     OW 2203   3.033   4.553   0.007
  435SOL    HW1 2204   2.972   4.475   7.012
  435SOL    HW2 2205   3.019   4.623   6.961
  436SOL     OW 2206   1.865   0.578   0.664
  436SOL    HW1 2207   1.895   0.669   0.690
  436SOL    HW2 2208   1.936   0.511   0.690
  437SOL     OW 2209   6.802   7.007   6.478
  437SOL    HW1 2210   6.823   7.001   6.575
  437SOL    HW2 2211   6.716   0.033   6.465
  438SOL     OW 2212   1.189   2.728   1.758
  438SOL    HW1 2213   1.183   2.828   1.753
  438SOL    HW2 2214   1.258   2.696   1.693
  439SOL     OW 2215   6.339   5.030   2.988
  439SOL    HW1 2216   6.423   5.015   2.937
  439SOL    HW2 2217   6.314   5.126   2.983
  440SOL     OW 2218   1.166   2.829   4.054
  440SOL    HW1 2219   1.221   2.862   4.131
  440SOL    HW2 2220   1.207   2.745   4.019
  441SOL     OW 2221   1.200   1.569   3.270
  441SOL    HW1 2222   1.175   1.505   3.198
  441SOL    HW2 2223   1.299   1.578   3.274
  442SOL     OW 2224   0.164   3.583   0.039
  442SOL    HW1 2225   0.255   3.547   0.063
  442SOL    HW2 2226   0.094   3.531   0.087
  443SOL     OW 2227   0.837   4.077   5.372
  443SOL    HW1 2228   0.769   4.092   5.301
  443SOL    HW2 2229   0.898   4.156   5.377
  444SOL     OW 2230   4.312   2.572   6.160
  444SOL    HW1 2231   4.376   2.590   6.235
  444SOL    HW2 2232   4.333   2.483   6.120
  445SOL     OW 2233   2.348   4.330   3.463
  445SOL    HW1 2234   2.368   4.233   3.450
  445SOL    HW2 2235   2.255   4.350   3.430
  446SOL     OW 2236   4.259   4.947   4.112
  446SOL    HW1 2237   4.292   5.031   4.070
  446SOL    HW2 2238   4.210   4.968   4.196
  447SOL     OW 2239   6.794   5.420   0.555
  447SOL    HW1 2240   6.806   5.333   0.507
  447SOL    HW2 2241   6.883   5.461   0.572
  448SOL     OW 2242   4.216   0.911   4.751
  448SOL    HW1 2243   4.256   1.001   4.766
  448SOL    HW2 2244   4.202   0.896   4.653
  449SOL     OW 2245   5.671   1.205   4.422
  449SOL    HW1 2246   5.638   1.247   4.506
  449SOL    HW2 2247   5.720   1.120   4.444
  450SOL     OW 2248   0.601   6.120   3.806
  450SOL    HW1 2249   0.523   6.142   3.864
  450SOL    HW2 2250   0.595   6.024   3.777
  451SOL     OW 2251   0.496   2.054   2.762
  451SOL    HW1 2252   0.514   2.127   2.696
  451SOL    HW2 2253   0.538   2.077   2.850
  452SOL     OW 2254   0.370   4.535   6.807
  452SOL    HW1 2255   0.363   4.459   6.871
  452SOL    HW2 2256   0.465   4.549   6.781
  453SOL     OW 2257   3.373   1.529   6.622
  453SOL    HW1 2258   3.358   1.481   6.536
  453SOL    HW2 2259   3.336   1.622   6.616
  454SOL     OW 2260   1.012   6.135   6.884
  454SOL    HW1 2261   0.930   6.080   6.869
  454SOL    HW2 2262   1.074   6.086   6.945
  455SOL     OW 2263   5.978   0.798   4.972
  455SOL    HW1 2264   6.044   0.834   5.037
  455SOL    HW2 2265   6.010   0.709   4.938
  456SOL     OW 2266   4.466   5.950   6.130
  456SOL    HW1 2267   4.543   5.889   6.151
  456SOL    HW2 2268   4.404   5.953   6.209
  457SOL     OW 2269   2.446   4.817   3.093
  457SOL    HW1 2270   2.360   4.842   3.047
  457SOL    HW2 2271   2.470   4.723   3.070
  458SOL     OW 2272   6.071   5.486   5.437
  458SOL    HW1 2273   6.112   5.492   5.528
  458SOL    HW2 2274   5.997   5.419   5.438
  459SOL     OW 2275   1.756   0.731   2.276
  459SOL    HW1 2276   1.750   0.756   2.180
  459SOL    HW2 2277   1.737   0.811   2.333
  460SOL     OW 2278   6.594   1.976   2.849
  460SOL    HW1 2279   6.617   2.030   2.930
  460SOL    HW2 2280   6.608   2.031   2.767
  461SOL     OW 2281   4.841   6.633   5.261
  461SOL    HW1 2282   4.839   6.724   5.221
  461SOL    HW2 2283   4.864   6.640   5.359
  462SOL     OW 2284   3.271   3.015   6.599
  462SOL    HW1 2285   3.184   3.043   6.559
  462SOL    HW2 2286   3.262   2.924   6.639
  463SOL     OW 2287   6.954   5.091   2.795
  463SOL    HW1 2288   6.942   4.997   2.764
  463SOL    HW2 2289   6.883   5.113   2.862
  464SOL     OW 2290   1.616   1.267   6.240
  464SOL    HW1 2291   1.534   1.215   6.218
  464SOL    HW2 2292   1.697   1.215   6.213
  465SOL     OW 2293   0.109   2.325   3.987
  465SOL    HW1 2294   0.044   2.318   3.911
  465SOL    HW2 2295   0.087   2.406   4.042
  466SOL     OW 2296   1.371   6.721   4.426
  466SOL    HW1 2297   1.415   6.798   4.378
  466SOL    HW2 2298   1.418   6.636   4.403
  467SOL     OW 2299   1.771   0.659   5.744
  467SOL    HW1 2300   1.804   0.752   5.728
  467SOL    HW2 2301   1.707   0.660   5.822
  468SOL     OW 2302   3.703   5.291   1.123
  468SOL    HW1 2303   3.652   5.308   1.207
  468SOL    HW2 2304   3.655   5.334   1.046
  469SOL     OW 2305   2.202   5.768   6.781
  469SOL    HW1 2306   2.159   5.700   6.840
  469SOL    HW2 2307   2.288   5.732   6.746
  470SOL     OW 2308   4.230   0.919   2.469
  470SOL    HW1 2309   4.267   0.827   2.450
  470SOL    HW2 2310   4.134   0.921   2.443
  471SOL     OW 2311   2.101   2.906   4.712
  471SOL    HW1 2312   2.167   2.877   4.782
  471SOL    HW2 2313   2.106   2.843   4.634
  472SOL     OW 2314   4.489   5.575   6.121
  472SOL    HW1 2315   4.437   5.548   6.202
  472SOL    HW2 2316   4.427   5.608   6.050
  473SOL     OW 2317   1.187   3.191   2.500
  473SOL    HW1 2318   1.142   3.249   2.432
  473SOL    HW2 2319   1.257   3.244   2.547
  474SOL     OW 2320   3.852   5.211   4.985
  474SOL    HW1 2321   3.923   5.193   5.053
  474SOL    HW2 2322   3.780   5.267   5.026
  475SOL     OW 2323   0.088   6.842   6.083
  475SOL    HW1 2324   0.044   6.883   6.163
  475SOL    HW2 2325   0.177   6.803   6.110
  476SOL     OW 2326   6.521   5.049   2.814
  476SOL    HW1 2327   6.582   5.128   2.818
  476SOL    HW2 2328   6.460   5.057   2.736
  477SOL     OW 2329   2.205   5.254   3.807
  477SOL    HW1 2330   2.157   5.249   3.720
  477SOL    HW2 2331   2.181   5.174   3.863
  478SOL     OW 2332   3.726   5.573   3.556
  478SOL    HW1 2333   3.725   5.563   3.656
  478SOL    HW2 2334   3.725   5.670   3.532
  479SOL     OW 2335   3.230   2.564   0.535
  479SOL    HW1 2336   3.305   2.628   0.516
  479SOL    HW2 2337   3.231   2.540   0.632
  480SOL     OW 2338   0.844   6.723   2.816
  480SOL    HW1 2339   0.925   6.670   2.841
  480SOL    HW2 2340   0.783   6.729   2.896
  481SOL     OW 2341   3.176   0.179   1.437
  481SOL    HW1 2342   3.190   0.217   1.346
  481SOL    HW2 2343   3.103   0.228   1.483
  482SOL     OW 2344   5.800   4.943   2.742
  482SOL    HW1 2345   5.822   5.009   2.814
  482SOL    HW2 2346   5.864   4.866   2.748
  483SOL     OW 2347   5.660   1.844   1.856
  483SOL    HW1 2348   5.622   1.763   1.812
  483SOL    HW2 2349   5.729   1.885   1.796
  484SOL     OW 2350   0.596   3.008   4.054
  484SOL    HW1 2351   0.516   3.065   4.040
  484SOL    HW2 2352   0.645   3.037   4.137
  485SOL     OW 2353   3.437   5.086   2.027
  485SOL    HW1 2354   3.364   5.063   2.091
  485SOL    HW2 2355   3.432   5.183   2.004
  486SOL     OW 2356   0.742   0.614   0.160
  486SOL    HW1 2357   0.793   0.664   0.231
  486SOL    HW2 2358   0.801   0.543   0.121
  487SOL     OW 2359   0.768   2.404   0.182
  487SOL    HW1 2360   0.739   2.482   0.126
  487SOL    HW2 2361   0.689   2.346   0.201
  488SOL     OW 2362   6.980   1.794   2.031
  488SOL    HW1 2363   6.929   1.856   1.971
  488SOL    HW2 2364   6.997   1.707   1.983
  489SOL     OW 2365   3.232   6.258   0.044
  489SOL    HW1 2366   3.311   6.320   0.050
  489SOL    HW2 2367   3.148   6.311   0.052
  490SOL     OW 2368   6.365   6.354   4.228
  490SOL    HW1 2369   6.352   6.432   4.167
  490SOL    HW2 2370   6.428   6.289   4.186
  491SOL     OW 2371   1.094   2.745   2.476
  491SOL    HW1 2372   1.073   2.713   2.569
  491SOL    HW2 2373   1.193   2.743   2.462
  492SOL     OW 2374   2.788   0.318   6.008
  492SOL    HW1 2375   2.861   0.353   5.950
  492SOL    HW2 2376   2.825   0.248   6.069
  493SOL     OW 2377   6.387   4.259   5.371
  493SOL    HW1 2378   6.448   4.251   5.292
  493SOL    HW2 2379   6.435   4.301   5.447
  494SOL     OW 2380   0.436   0.004   0.326
  494SOL    HW1 2381   0.358   6.968   0.345
  494SOL    HW2 2382   0.417   0.060   0.246
  495SOL     OW 2383   4.713   4.597   1.789
  495SOL    HW1 2384   4.811   4.605   1.802
  495SOL    HW2 2385   4.666   4.604   1.877
  496SOL     OW 2386   5.207   3.261   2.885
  496SOL    HW1 2387   5.211   3.356   2.855
  496SOL    HW2 2388   5.293   3.236   2.929
  497SOL     OW 2389   3.558   0.888   4.577
  497SOL    HW1 2390   3.615   0.877   4.496
  497SOL    HW2 2391   3.469   0.925   4.550
  498SOL     OW 2392   0.257   2.906   2.543
  498SOL    HW1 2393   0.232   2.999   2.570
  498SOL    HW2 2394   0.350   2.906   2.506
  499SOL     OW 2395   3.743   0.568   5.073
  499SOL    HW1 2396   3.678   0.518   5.131
  499SOL    HW2 2397   3.725   0.548   4.977
  500SOL     OW 2398   0.710   3.426   2.679
  500SOL    HW1 2399   0.629   3.392   2.631
  500SOL    HW2 2400   0.728   3.369   2.759
  501SOL     OW 2401   1.722   3.258   6.543
  501SOL    HW1 2402   1.702   3.160   6.543
  501SOL    HW2 2403   1.704   3.295   6.634
  502SOL     OW 2404   4.217   5.136   6.989
  502SOL    HW1 2405   4.153   5.065   7.017
  502SOL    HW2 2406   4.224   5.137   6.889
  503SOL     OW 2407   5.746   4.688   5.421
  503SOL    HW1 2408   5.779   4.774   5.381
  503SOL    HW2 2409   5.758   4.691   5.520
  504SOL     OW 2410   2.244   6.267   4.280
  504SOL    HW1 2411   2.273   6.305   4.368
  504SOL    HW2 2412   2.198   6.180   4.295
  505SOL     OW 2413   4.837   0.220   5.828
  505SOL    HW1 2414   4.901   0.181   5.763
  505SOL    HW2 2415   4.750   0.241   5.782
  506SOL     OW 2416   1.582   4.359   4.750
  506SOL    HW1 2417   1.680   4.348   4.766
  506SOL    HW2 2418   1.541   4.269   4.735
  507SOL     OW 2419   3.582   0.237   5.024
  507SOL    HW1 2420   3.592   0.157   5.083
  507SOL    HW2 2421   3.522   0.214   4.947
  508SOL     OW 2422   6.752   3.865   2.956
  508SOL    HW1 2423   6.785   3.930   2.887
  508SOL    HW2 2424   6.811   3.784   2.955
  509SOL     OW 2425   4.768   1.105   2.000
  509SOL    HW1 2426   4.717   1.038   1.946
  509SOL    HW2 2427   4.707   1.179   2.028
  510SOL     OW 2428   6.680   4.685   5.163
  510SOL    HW1 2429   6.725   4.746   5.228
  510SOL    HW2 2430   6.732   4.684   5.077
  511SOL     OW 2431   0.633   6.239   0.279
  511SOL    HW1 2432   0.682   6.159   0.313
  511SOL    HW2 2433   0.627   6.235   0.179
  512SOL     OW 2434   1.236   3.544   6.984
  512SOL    HW1 2435   1.255   3.640   7.006
  512SOL    HW2 2436   1.313   3.487   7.014
  513SOL     OW 2437   6.596   5.849   3.812
  513SOL    HW1 2438   6.585   5.788   3.734
  513SOL    HW2 2439   6.597   5.796   3.896
  514SOL     OW 2440   6.357   1.737   4.191
  514SOL    HW1 2441   6.320   1.650   4.225
  514SOL    HW2 2442   6.455   1.726   4.172
  515SOL     OW 2443   2.082   6.710   5.658
  515SOL    HW1 2444   2.069   6.628   5.714
  515SOL    HW2 2445   2.085   6.791   5.717
  516SOL     OW 2446   2.143   4.734   1.305
  516SOL    HW1 2447   2.057   4.689   1.282
  516SOL    HW2 2448   2.126   4.811   1.366
  517SOL     OW 2449   4.567   6.960   1.607
  517SOL    HW1 2450   4.575   0.030   1.573
  517SOL    HW2 2451   4.591   6.896   1.534
  518SOL     OW 2452   2.573   2.575   1.522
  518SOL    HW1 2453   2.503   2.615   1.464
  518SOL    HW2 2454   2.536   2.495   1.570
  519SOL     OW 2455   0.386   0.243   6.143
  519SOL    HW1 2456   0.290   0.268   6.153
  519SOL    HW2 2457   0.435   0.317   6.098
  520SOL     OW 2458   5.488   5.049   5.995
  520SOL    HW1 2459   5.451   5.037   5.903
  520SOL    HW2 2460   5.520   4.961   6.030
  521SOL     OW 2461   7.023   1.914   6.605
  521SOL    HW1 2462   0.050   1.951   6.683
  521SOL    HW2 2463   0.054   1.924   6.522
  522SOL     OW 2464   3.919   3.038   4.558
  522SOL    HW1 2465   3.884   2.978   4.486
  522SOL    HW2 2466   3.844   3.061   4.620
  523SOL     OW 2467   6.795   6.875   4.310
  523SOL    HW1 2468   6.808   6.890   4.408
  523SOL    HW2 2469   6.858   6.804   4.279
  524SOL     OW 2470   2.992   0.947   6.521
  524SOL    HW1 2471   3.075   0.938   6.577
  524SOL    HW2 2472   3.017   0.943   6.424
  525SOL     OW 2473   2.725   4.059   6.654
  525SOL    HW1 2474   2.704   4.042   6.750
  525SOL    HW2 2475   2.801   4.002   6.625
  526SOL     OW 2476   3.398   5.329   4.388
  526SOL    HW1 2477   3.362   5.286   4.305
  526SOL    HW2 2478   3.425   5.423   4.367
  527SOL     OW 2479   7.000   1.470   6.785
  527SOL    HW1 2480   6.965   1.558   6.755
  527SOL    HW2 2481   6.925   1.403   6.787
  528SOL     OW 2482   2.186   1.525   4.978
  528SOL    HW1 2483   2.099   1.519   5.027
  528SOL    HW2 2484   2.227   1.615   4.996
  529SOL     OW 2485   1.181   4.874   4.355
  529SOL    HW1 2486   1.192   4.889   4.454
  529SOL    HW2 2487   1.268   4.891   4.309
  530SOL     OW 2488   2.288   3.097   5.361
  530SOL    HW1 2489   2.205   3.047   5.332
  530SOL    HW2 2490   2.365   3.068   5.304
  531SOL     OW 2491   0.806   0.345   1.231
  531SOL    HW1 2492   0.892   0.348   1.181
  531SOL    HW2 2493   0.759   0.433   1.223
  532SOL     OW 2494   0.988   1.102   5.509
  532SOL    HW1 2495   1.003   1.098   5.607
  532SOL    HW2 2496   0.918   1.172   5.489
  533SOL     OW 2497   5.750   6.482   4.907
  533SOL    HW1 2498   5.768   6.516   4.814
  533SOL    HW2 2499   5.804   6.400   4.924
  534SOL     OW 2500   4.577   5.322   2.876
  534SOL    HW1 2501   4.602   5.247   2.814
  534SOL    HW2 2502   4.481   5.314   2.901
  535SOL     OW 2503   0.255   4.149   3.675
  535SOL    HW1 2504   0.310   4.208   3.735
  535SOL    HW2 2505   0.296   4.058   3.670
  536SOL     OW 2506   1.525   5.636   1.238
  536SOL    HW1 2507   1.525   5.734   1.259
  536SOL    HW2 2508   1.518   5.583   1.323
  537SOL     OW 2509   2.099   0.118   2.135
  537SOL    HW1 2510   2.190   0.149   2.109
  537SOL    HW2 2511   2.074   0.158   2.223
  538SOL     OW 2512   0.793   6.068   2.928
  538SOL    HW1 2513   0.698   6.080   2.958
  538SOL    HW2 2514   0.847   6.031   3.004
  539SOL     OW 2515   1.657   5.115   2.163
  539SOL    HW1 2516   1.726   5.071   2.105
  539SOL    HW2 2517   1.604   5.045   2.210
  540SOL     OW 2518   1.757   2.619   2.387
  540SOL    HW1 2519   1.777   2.707   2.431
  540SOL    HW2 2520   1.713   2.558   2.453
  541SOL     OW 2521   3.144   5.764   5.823
  541SOL    HW1 2522   3.101   5.790   5.737
  541SOL    HW2 2523   3.137   5.665   5.835
  542SOL     OW 2524   6.012   5.443   6.895
  542SOL    HW1 2525   6.109   5.456   6.875
  542SOL    HW2 2526   5.971   5.530   6.922
  543SOL     OW 2527   1.171   4.754   6.883
  543SOL    HW1 2528   1.221   4.834   6.852
  543SOL    HW2 2529   1.133   4.771   6.974
  544SOL     OW 2530   0.695   4.651   0.614
  544SOL    HW1 2531   0.697   4.708   0.696
  544SOL    HW2 2532   0.733   4.561   0.635
  545SOL     OW 2533   3.684   1.330   2.988
  545SOL    HW1 2534   3.750   1.368   2.923
  545SOL    HW2 2535   3.680   1.389   3.069
  546SOL     OW 2536   1.639   3.581   0.804
  546SOL    HW1 2537   1.685   3.542   0.724
  546SOL    HW2 2538   1.605   3.507   0.862
  547SOL     OW 2539   2.602   3.289   0.068
  547SOL    HW1 2540   2.502   3.282   0.063
  547SOL    HW2 2541   2.628   3.327   0.157
  548SOL     OW 2542   3.508   2.881   4.284
  548SOL    HW1 2543   3.601   2.916   4.289
  548SOL    HW2 2544   3.487   2.855   4.189
  549SOL     OW 2545   5.795   3.465   1.357
  549SOL    HW1 2546   5.834   3.396   1.296
  549SOL    HW2 2547   5.865   3.532   1.380
  550SOL     OW 2548   6.658   3.717   2.551
  550SOL    HW1 2549   6.708   3.657   2.489
  550SOL    HW2 2550   6.710   3.729   2.635
  551SOL     OW 2551   6.412   1.788   0.638
  551SOL    HW1 2552   6.509   1.792   0.659
  551SOL    HW2 2553   6.359   1.802   0.722
  552SOL     OW 2554   3.526   5.591   0.552
  552SOL    HW1 2555   3.524   5.505   0.603
  552SOL    HW2 2556   3.594   5.652   0.592
  553SOL     OW 2557   1.928   1.128   1.524
  553SOL    HW1 2558   2.001   1.188   1.557
  553SOL    HW2 2559   1.916   1.051   1.587
  554SOL     OW 2560   6.145   6.410   5.427
  554SOL    HW1 2561   6.107   6.451   5.510
  554SOL    HW2 2562   6.230   6.457   5.403
  555SOL     OW 2563   1.540   4.565   4.223
  555SOL    HW1 2564   1.558   4.630   4.149
  555SOL    HW2 2565   1.605   4.489   4.217
  556SOL     OW 2566   5.748   2.579   3.819
  556SOL    HW1 2567   5.673   2.563   3.754
  556SOL    HW2 2568   5.835   2.574   3.771
  557SOL     OW 2569   0.221   6.685   6.325
  557SOL    HW1 2570   0.212   6.654   6.230
  557SOL    HW2 2571   0.283   6.623   6.374
  558SOL     OW 2572   4.073   4.016   5.196
  558SOL    HW1 2573   4.060   3.990   5.100
  558SOL    HW2 2574   4.013   4.094   5.218
  559SOL     OW 2575   0.062   6.301   6.365
  559SOL    HW1 2576   0.055   6.264   6.458
  559SOL    HW2 2577   0.050   6.400   6.368
  560SOL     OW 2578   4.418   0.471   0.446
  560SOL    HW1 2579   4.478   0.449   0.523
  560SOL    HW2 2580   4.333   0.511   0.481
  561SOL     OW 2581   5.748   6.953   0.535
  561SOL    HW1 2582   5.760   0.020   0.495
  561SOL    HW2 2583   5.677   6.957   0.605
  562SOL     OW 2584   5.142   1.438   5.480
  562SOL    HW1 2585   5.074   1.507   5.454
  562SOL    HW2 2586   5.215   1.436   5.411
  563SOL     OW 2587   3.311   6.475   4.349
  563SOL    HW1 2588   3.219   6.441   4.363
  563SOL    HW2 2589   3.329   6.552   4.410
  564SOL     OW 2590   6.779   1.185   6.617
  564SOL    HW1 2591   6.792   1.207   6.714
  564SOL    HW2 2592   6.748   1.267   6.569
  565SOL     OW 2593   4.606   3.944   5.285
  565SOL    HW1 2594   4.517   3.898   5.291
  565SOL    HW2 2595   4.593   4.041   5.307
  566SOL     OW 2596   5.070   4.501   2.860
  566SOL    HW1 2597   5.041   4.406   2.847
  566SOL    HW2 2598   5.072   4.548   2.772
  567SOL     OW 2599   3.422   3.213   4.616
  567SOL    HW1 2600   3.491   3.159   4.665
  567SOL    HW2 2601   3.438   3.206   4.518
  568SOL     OW 2602   2.434   1.810   0.180
  568SOL    HW1 2603   2.510   1.764   0.134
  568SOL    HW2 2604   2.470   1.871   0.250
  569SOL     OW 2605   2.164   2.948   0.900
  569SOL    HW1 2606   2.211   2.861   0.889
  569SOL    HW2 2607   2.211   3.003   0.969
  570SOL     OW 2608   0.225   6.051   1.033
  570SOL    HW1 2609   0.153   6.025   0.968
  570SOL    HW2 2610   0.188   6.048   1.126
  571SOL     OW 2611   4.316   5.265   2.924
  571SOL    HW1 2612   4.262   5.209   2.862
  571SOL    HW2 2613   4.338   5.213   3.006
  572SOL     OW 2614   1.317   3.995   4.860
  572SOL    HW1 2615   1.414   3.999   4.833
  572SOL    HW2 2616   1.310   4.011   4.958
  573SOL     OW 2617   3.676   1.817   5.615
  573SOL    HW1 2618   3.706   1.722   5.624
  573SOL    HW2 2619   3.585   1.819   5.572
  574SOL     OW 2620   2.016   1.842   4.353
  574SOL    HW1 2621   1.988   1.938   4.358
  574SOL    HW2 2622   2.116   1.837   4.350
  575SOL     OW 2623   5.603   2.406   0.135
  575SOL    HW1 2624   5.684   2.462   0.116
  575SOL    HW2 2625   5.553   2.391   0.049
  576SOL     OW 2626   1.256   1.370   2.626
  576SOL    HW1 2627   1.338   1.420   2.654
  576SOL    HW2 2628   1.177   1.430   2.630
  577SOL     OW 2629   3.172   1.911   3.506
  577SOL    HW1 2630   3.142   2.005   3.523
  577SOL    HW2 2631   3.267   1.912   3.474
  578SOL     OW 2632   0.489   3.498   3.852
  578SOL    HW1 2633   0.473   3.520   3.756
  578SOL    HW2 2634   0.572   3.443   3.861
  579SOL     OW 2635   4.509   2.467   6.580
  579SOL    HW1 2636   4.449   2.388   6.569
  579SOL    HW2 2637   4.573   2.449   6.655
  580SOL     OW 2638   1.408   5.899   6.591
  580SOL    HW1 2639   1.393   5.977   6.652
  580SOL    HW2 2640   1.458   5.828   6.638
  581SOL     OW 2641   4.158   3.449   2.677
  581SOL    HW1 2642   4.163   3.476   2.773
  581SOL    HW2 2643   4.148   3.349   2.671
  582SOL     OW 2644   5.415   3.421   2.313
  582SOL    HW1 2645   5.330   3.390   2.355
  582SOL    HW2 2646   5.415   3.396   2.216
  583SOL     OW 2647   2.581   4.207   0.447
  583SOL    HW1 2648   2.670   4.191   0.490
  583SOL    HW2 2649   2.510   4.210   0.518
  584SOL     OW 2650   6.951   4.874   4.906
  584SOL    HW1 2651   7.021   4.893   4.838
  584SOL    HW2 2652   6.893   4.955   4.917
  585SOL     OW 2653   6.887   1.702   6.725
  585SOL    HW1 2654   6.925   1.770   6.663
  585SOL    HW2 2655   6.921   1.719   6.817
  586SOL     OW 2656   2.545   6.453   0.593
  586SOL    HW1 2657   2.579   6.416   0.679
  586SOL    HW2 2658   2.478   6.525   0.612
  587SOL     OW 2659   0.939   3.530   5.273
  587SOL    HW1 2660   0.876   3.459   5.241
  587SOL    HW2 2661   0.898   3.620   5.258
  588SOL     OW 2662   3.030   6.329   1.515
  588SOL    HW1 2663   2.935   6.297   1.516
  588SOL    HW2 2664   3.044   6.395   1.589
  589SOL     OW 2665   4.254   5.107   2.708
  589SOL    HW1 2666   4.297   5.018   2.728
  589SOL    HW2 2667   4.181   5.094   2.642
  590SOL     OW 2668   0.014   1.595   1.869
  590SOL    HW1 2669   0.068   1.510   1.876
  590SOL    HW2 2670   6.986   1.593   1.784
  591SOL     OW 2671   3.506   6.778   3.158
  591SOL    HW1 2672   3.437   6.786   3.231
  591SOL    HW2 2673   3.595   6.758   3.199
  592SOL     OW 2674   5.068   0.987   0.568
  592SOL    HW1 2675   5.026   1.070   0.606
  592SOL    HW2 2676   4.996   0.927   0.533
  593SOL     OW 2677   5.037   2.506   3.839
  593SOL    HW1 2678   5.079   2.596   3.839
  593SOL    HW2 2679   5.077   2.451   3.765
  594SOL     OW 2680   3.766   3.044   1.430
  594SOL    HW1 2681   3.731   3.019   1.521
  594SOL    HW2 2682   3.786   3.141   1.428
  595SOL     OW 2683   3.878   6.499   3.398
  595SOL    HW1 2684   3.794   6.447   3.409
  595SOL    HW2 2685   3.954   6.437   3.376
  596SOL     OW 2686   1.481   4.417   3.033
  596SOL    HW1 2687   1.463   4.331   3.082
  596SOL    HW2 2688   1.437   4.492   3.082
  597SOL     OW 2689   3.515   1.559   5.351
  597SOL    HW1 2690   3.506   1.543   5.253
  597SOL    HW2 2691   3.471   1.646   5.375
  598SOL     OW 2692   3.926   4.524   0.979
  598SOL    HW1 2693   3.963   4.433   0.995
  598SOL    HW2 2694   3.889   4.529   0.886
  599SOL     OW 2695   6.336   6.440   2.420
  599SOL    HW1 2696   6.364   6.371   2.487
  599SOL    HW2 2697   6.237   6.440   2.412
  600SOL     OW 2698   1.909   6.815   0.135
  600SOL    HW1 2699   1.957   6.899   0.109
  600SOL    HW2 2700   1.944   6.738   0.081
  601SOL     OW 2701   3.312   5.511   3.919
  601SOL    HW1 2702   3.357   5.429   3.955
  601SOL    HW2 2703   3.220   5.488   3.889
  602SOL     OW 2704   2.355   0.616   0.958
  602SOL    HW1 2705   2.444   0.660   0.949
  602SOL    HW2 2706   2.286   0.673   0.913
  603SOL     OW 2707   4.224   2.298   3.345
  603SOL    HW1 2708   4.164   2.225   3.313
  603SOL    HW2 2709   4.300   2.259   3.396
  604SOL     OW 2710   0.420   4.013   6.391
  604SOL    HW1 2711   0.432   3.915   6.409
  604SOL    HW2 2712   0.354   4.050   6.456
  605SOL     OW 2713   5.836   0.412   4.331
  605SOL    HW1 2714   5.865   0.460   4.413
  605SOL    HW2 2715   5.787   0.476   4.271
  606SOL     OW 2716   3.073   6.907   3.636
  606SOL    HW1 2717   3.127   6.973   3.585
  606SOL    HW2 2718   3.111   6.896   3.728
  607SOL     OW 2719   5.190   1.052   4.234
  607SOL    HW1 2720   5.149   1.112   4.302
  607SOL    HW2 2721   5.290   1.060   4.239
  608SOL     OW 2722   4.129   1.192   1.652
  608SOL    HW1 2723   4.108   1.223   1.559
  608SOL    HW2 2724   4.169   1.268   1.704
  609SOL     OW 2725   3.884   3.994   4.661
  609SOL    HW1 2726   3.860   4.009   4.565
  609SOL    HW2 2727   3.830   4.055   4.719
  610SOL     OW 2728   5.203   2.180   4.217
  610SOL    HW1 2729   5.127   2.227   4.173
  610SOL    HW2 2730   5.276   2.165   4.150
  611SOL     OW 2731   0.757   6.989   0.694
  611SOL    HW1 2732   0.835   0.016   0.730
  611SOL    HW2 2733   0.787   6.899   0.662
  612SOL     OW 2734   3.531   5.211   5.685
  612SOL    HW1 2735   3.559   5.280   5.752
  612SOL    HW2 2736   3.551   5.120   5.720
  613SOL     OW 2737   3.246   2.095   0.140
  613SOL    HW1 2738   3.312   2.019   0.141
  613SOL    HW2 2739   3.156   2.061   0.168
  614SOL     OW 2740   4.889   4.813   1.091
  614SOL    HW1 2741   4.984   4.782   1.099
  614SOL    HW2 2742   4.842   4.759   1.022
  615SOL     OW 2743   6.385   6.921   0.817
  615SOL    HW1 2744   6.351   6.905   0.724
  615SOL    HW2 2745   6.473   6.969   0.812
  616SOL     OW 2746   5.770   1.914   4.806
  616SOL    HW1 2747   5.776   1.826   4.760
  616SOL    HW2 2748   5.832   1.979   4.761
  617SOL     OW 2749   0.370   5.179   5.810
  617SOL    HW1 2750   0.310   5.099   5.810
  617SOL    HW2 2751   0.347   5.238   5.733
  618SOL     OW 2752   6.500   3.701   0.449
  618SOL    HW1 2753   6.424   3.746   0.498
  618SOL    HW2 2754   6.585   3.749   0.469
  619SOL     OW 2755   2.412   0.335   6.801
  619SOL    HW1 2756   2.405   0.347   6.900
  619SOL    HW2 2757   2.463   0.251   6.782
  620SOL     OW 2758   6.762   1.453   2.636
  620SOL    HW1 2759   6.798   1.367   2.600
  620SOL    HW2 2760   6.776   1.526   2.569
  621SOL     OW 2761   3.347   0.940   6.889
  621SOL    HW1 2762   3.352   1.033   6.927
  621SOL    HW2 2763   3.345   0.874   6.963
  622SOL     OW 2764   0.977   1.445   5.128
  622SOL    HW1 2765   0.888   1.489   5.115
  622SOL    HW2 2766   1.022   1.486   5.208
  623SOL     OW 2767   5.997   6.763   4.554
  623SOL    HW1 2768   5.943   6.687   4.592
  623SOL    HW2 2769   6.087   6.729   4.525
  624SOL     OW 2770   6.300   0.833   6.462
  624SOL    HW1 2771   6.301   0.848   6.363
  624SOL    HW2 2772   6.213   0.867   6.499
  625SOL     OW 2773   2.163   1.495   0.713
  625SOL    HW1 2774   2.208   1.584   0.723
  625SOL    HW2 2775   2.095   1.484   0.785
  626SOL     OW 2776   0.248   5.097   3.796
  626SOL    HW1 2777   0.162   5.046   3.804
  626SOL    HW2 2778   0.316   5.059   3.858
  627SOL     OW 2779   6.619   0.181   6.898
  627SOL    HW1 2780   6.650   0.086   6.890
  627SOL    HW2 2781   6.645   0.217   6.987
  628SOL     OW 2782   4.577   4.920   5.852
  628SOL    HW1 2783   4.535   4.887   5.936
  628SOL    HW2 2784   4.620   4.844   5.804
  629SOL     OW 2785   0.591   6.610   6.183
  629SOL    HW1 2786   0.687   6.638   6.177
  629SOL    HW2 2787   0.563   6.569   6.096
  630SOL     OW 2788   6.857   0.841   1.214
  630SOL    HW1 2789   6.903   0.848   1.302
  630SOL    HW2 2790   6.902   0.771   1.158
  631SOL     OW 2791   1.967   2.606   4.773
  631SOL    HW1 2792   2.010   2.604   4.864
  631SOL    HW2 2793   1.868   2.599   4.782
  632SOL     OW 2794   3.517   3.602   6.725
  632SOL    HW1 2795   3.573   3.681   6.699
  632SOL    HW2 2796   3.505   3.601   6.824
  633SOL     OW 2797   2.162   6.338   1.263
  633SOL    HW1 2798   2.075   6.311   1.304
  633SOL    HW2 2799   2.174   6.290   1.176
  634SOL     OW 2800   3.008   3.245   4.164
  634SOL    HW1 2801   2.946   3.242   4.242
  634SOL    HW2 2802   3.078   3.174   4.174
  635SOL     OW 2803   5.355   1.120   6.757
  635SOL    HW1 2804   5.383   1.141   6.851
  635SOL    HW2 2805   5.430   1.140   6.694
  636SOL     OW 2806   2.901   0.854   6.046
  636SOL    HW1 2807   2.959   0.817   5.973
  636SOL    HW2 2808   2.857   0.778   6.095
  637SOL     OW 2809   6.371   1.235   2.586
  637SOL    HW1 2810   6.295   1.213   2.524
  637SOL    HW2 2811   6.343   1.218   2.680
  638SOL     OW 2812   6.099   3.390   4.617
  638SOL    HW1 2813   6.149   3.454   4.676
  638SOL    HW2 2814   6.084   3.432   4.528
  639SOL     OW 2815   5.418   4.681   2.469
  639SOL    HW1 2816   5.331   4.702   2.515
  639SOL    HW2 2817   5.487   4.748   2.497
  640SOL     OW 2818   0.740   2.022   1.792
  640SOL    HW1 2819   0.710   2.086   1.863
  640SOL    HW2 2820   0.695   2.044   1.706
  641SOL     OW 2821   2.162   5.366   4.542
  641SOL    HW1 2822   2.227   5.373   4.467
  641SOL    HW2 2823   2.107   5.284   4.531
  642SOL     OW 2824   0.667   3.874   4.833
  642SOL    HW1 2825   0.717   3.818   4.767
  642SOL    HW2 2826   0.647   3.820   4.915
  643SOL     OW 2827   5.076   5.496   0.116
  643SOL    HW1 2828   5.068   5.420   0.052
  643SOL    HW2 2829   4.998   5.495   0.179
  644SOL     OW 2830   6.883   6.676   5.078
  644SOL    HW1 2831   6.854   6.771   5.093
  644SOL    HW2 2832   6.945   6.673   4.999
  645SOL     OW 2833   3.755   5.268   1.825
  645SOL    HW1 2834   3.769   5.320   1.909
  645SOL    HW2 2835   3.724   5.176   1.848
  646SOL     OW 2836   3.699   1.346   5.074
  646SOL    HW1 2837   3.724   1.442   5.077
  646SOL    HW2 2838   3.768   1.293   5.124
  647SOL     OW 2839   4.284   2.733   5.926
  647SOL    HW1 2840   4.368   2.729   5.873
  647SOL    HW2 2841   4.288   2.669   6.003
  648SOL     OW 2842   5.780   1.345   3.112
  648SOL    HW1 2843   5.707   1.304   3.167
  648SOL    HW2 2844   5.861   1.357   3.169
  649SOL     OW 2845   2.419   5.989   0.546
  649SOL    HW1 2846   2.405   5.895   0.514
  649SOL    HW2 2847   2.406   6.053   0.470
  650SOL     OW 2848   0.304   4.298   1.010
  650SOL    HW1 2849   0.208   4.293   1.036
  650SOL    HW2 2850   0.328   4.221   0.951
  651SOL     OW 2851   1.614   0.011   4.901
  651SOL    HW1 2852   1.518   7.020   4.921
  651SOL    HW2 2853   1.633   0.110   4.899
  652SOL     OW 2854   3.654   6.340   2.214
  652SOL    HW1 2855   3.625   6.285   2.135
  652SOL    HW2 2856   3.617   6.300   2.298
  653SOL     OW 2857   1.195   6.693   1.984
  653SOL    HW1 2858   1.199   6.691   2.083
  653SOL    HW2 2859   1.270   6.639   1.946
  654SOL     OW 2860   0.271   0.034   4.680
  654SOL    HW1 2861   0.304   0.125   4.654
  654SOL    HW2 2862   0.348   6.997   4.695
  655SOL     OW 2863   6.653   3.917   2.314
  655SOL    HW1 2864   6.574   3.978   2.304
  655SOL    HW2 2865   6.645   3.866   2.400
  656SOL     OW 2866   3.671   6.193   0.364
  656SOL    HW1 2867   3.707   6.105   0.334
  656SOL    HW2 2868   3.618   6.234   0.290
  657SOL     OW 2869   3.740   3.133   2.014
  657SOL    HW1 2870   3.700   3.223   2.033
  657SOL    HW2 2871   3.693   3.064   2.069
  658SOL     OW 2872   1.592   2.814   4.617
  658SOL    HW1 2873   1.639   2.830   4.703
  658SOL    HW2 2874   1.500   2.779   4.636
  659SOL     OW 2875   2.215   6.043   6.089
  659SOL    HW1 2876   2.250   5.978   6.157
  659SOL    HW2 2877   2.137   6.092   6.128
  660SOL     OW 2878   5.115   4.364   2.491
  660SOL    HW1 2879   5.203   4.411   2.499
  660SOL    HW2 2880   5.078   4.346   2.583
  661SOL     OW 2881   4.794   4.397   4.167
  661SOL    HW1 2882   4.779   4.365   4.261
  661SOL    HW2 2883   4.787   4.319   4.104
  662SOL     OW 2884   4.846   3.545   0.244
  662SOL    HW1 2885   4.756   3.503   0.249
  662SOL    HW2 2886   4.857   3.592   0.157
  663SOL     OW 2887   0.795   4.157   0.485
  663SOL    HW1 2888   0.698   4.144   0.465
  663SOL    HW2 2889   0.849   4.087   0.440
  664SOL     OW 2890   2.085   6.660   6.986
  664SOL    HW1 2891   2.088   6.563   6.959
  664SOL    HW2 2892   2.176   6.700   6.975
  665SOL     OW 2893   3.996   4.966   1.406
  665SOL    HW1 2894   4.011   4.961   1.307
  665SOL    HW2 2895   4.064   5.026   1.448
  666SOL     OW 2896   3.003   1.387   0.201
  666SOL    HW1 2897   3.088   1.440   0.197
  666SOL    HW2 2898   2.925   1.450   0.210
  667SOL     OW 2899   1.078   3.208   3.058
  667SOL    HW1 2900   1.130   3.244   2.981
  667SOL    HW2 2901   1.034   3.122   3.032
  668SOL     OW 2902   5.186   6.916   0.554
  668SOL    HW1 2903   5.270   6.970   0.554
  668SOL    HW2 2904   5.107   6.977   0.549
  669SOL     OW 2905   1.832   6.069   3.138
  669SOL    HW1 2906   1.838   6.068   3.237
  669SOL    HW2 2907   1.827   5.976   3.103
  670SOL     OW 2908   3.332   2.889   3.384
  670SOL    HW1 2909   3.295   2.859   3.296
  670SOL    HW2 2910   3.306   2.984   3.400
  671SOL     OW 2911   1.697   0.413   6.068
  671SOL    HW1 2912   1.619   0.469   6.039
  671SOL    HW2 2913   1.664   0.332   6.116
  672SOL     OW 2914   2.558   2.351   3.791
  672SOL    HW1 2915   2.497   2.429   3.803
  672SOL    HW2 2916   2.623   2.347   3.867
  673SOL     OW 2917   6.194   0.069   1.193
  673SOL    HW1 2918   6.160   0.080   1.286
  673SOL    HW2 2919   6.211   0.159   1.153
  674SOL     OW 2920   0.487   2.014   3.775
  674SOL    HW1 2921   0.462   1.987   3.682
  674SOL    HW2 2922   0.519   2.109   3.775
  675SOL     OW 2923   6.123   2.826   5.025
  675SOL    HW1 2924   6.028   2.796   5.034
  675SOL    HW2 2925   6.184   2.750   5.044
  676SOL     OW 2926   2.037   4.514   4.297
  676SOL    HW1 2927   2.111   4.483   4.356
  676SOL    HW2 2928   1.977   4.576   4.347
  677SOL     OW 2929   6.195   6.909   0.622
  677SOL    HW1 2930   6.137   6.991   0.624
  677SOL    HW2 2931   6.151   6.836   0.673
  678SOL     OW 2932   2.419   1.410   6.659
  678SOL    HW1 2933   2.350   1.388   6.729
  678SOL    HW2 2934   2.446   1.327   6.611
  679SOL     OW 2935   5.439   0.162   2.773
  679SOL    HW1 2936   5.400   0.182   2.683
  679SOL    HW2 2937   5.501   0.235   2.800
  680SOL     OW 2938   4.765   4.287   5.161
  680SOL    HW1 2939   4.777   4.241   5.073
  680SOL    HW2 2940   4.681   4.255   5.205
  681SOL     OW 2941   0.845   6.941   2.086
  681SOL    HW1 2942   0.921   6.908   2.029
  681SOL    HW2 2943   0.867   0.008   2.121
  682SOL     OW 2944   1.766   5.947   1.020
  682SOL    HW1 2945   1.778   5.857   1.063
  682SOL    HW2 2946   1.815   5.948   0.933
  683SOL     OW 2947   5.266   1.348   0.576
  683SOL    HW1 2948   5.231   1.435   0.612
  683SOL    HW2 2949   5.210   1.319   0.499
  684SOL     OW 2950   7.019   6.101   6.182
  684SOL    HW1 2951   6.963   6.057   6.252
  684SOL    HW2 2952   0.034   6.185   6.219
  685SOL     OW 2953   6.112   0.573   5.675
  685SOL    HW1 2954   6.098   0.600   5.771
  685SOL    HW2 2955   6.137   0.653   5.621
  686SOL     OW 2956   5.521   4.967   2.616
  686SOL    HW1 2957   5.603   4.992   2.666
  686SOL    HW2 2958   5.510   5.029   2.538
  687SOL     OW 2959   6.573   3.403   5.454
  687SOL    HW1 2960   6.512   3.434   5.381
  687SOL    HW2 2961   6.560   3.305   5.469
  688SOL     OW 2962   0.004   4.288   5.328
  688SOL    HW1 2963   7.000   4.367   5.273
  688SOL    HW2 2964   6.994   4.298   5.421
  689SOL     OW 2965   5.786   4.258   5.943
  689SOL    HW1 2966   5.816   4.304   6.026
  689SOL    HW2 2967   5.812   4.162   5.946
  690SOL     OW 2968   1.206   1.823   3.175
  690SOL    HW1 2969   1.152   1.875   3.241
  690SOL    HW2 2970   1.204   1.726   3.200
  691SOL     OW 2971   0.632   3.026   6.259
  691SOL    HW1 2972   0.659   3.010   6.354
  691SOL    HW2 2973   0.637   2.940   6.208
  692SOL     OW 2974   1.954   0.195   3.177
  692SOL    HW1 2975   1.873   0.242   3.141
  692SOL    HW2 2976   2.011   0.165   3.100
  693SOL     OW 2977   6.972   1.759   2.328
  693SOL    HW1 2978   0.027   1.706   2.359
  693SOL    HW2 2979   6.982   1.780   2.231
  694SOL     OW 2980   1.798   0.259   1.283
  694SOL    HW1 2981   1.709   0.237   1.323
  694SOL    HW2 2982   1.869   0.247   1.352
  695SOL     OW 2983   4.406   6.602   5.799
  695SOL    HW1 2984   4.400   6.505   5.824
  695SOL    HW2 2985   4.400   6.658   5.882
  696SOL     OW 2986   4.191   5.550   2.272
  696SOL    HW1 2987   4.200   5.573   2.369
  696SOL    HW2 2988   4.134   5.469   2.262
  697SOL     OW 2989   1.268   4.147   3.741
  697SOL    HW1 2990   1.355   4.121   3.699
  697SOL    HW2 2991   1.229   4.224   3.691
  698SOL     OW 2992   4.677   0.183   3.630
  698SOL    HW1 2993   4.761   0.130   3.625
  698SOL    HW2 2994   4.653   0.198   3.726
  699SOL     OW 2995   1.902   4.649   0.834
  699SOL    HW1 2996   1.806   4.662   0.810
  699SOL    HW2 2997   1.926   4.553   0.826
  700SOL     OW 2998   2.028   1.251   4.821
  700SOL    HW1 2999   2.107   1.222   4.767
  700SOL    HW2 3000   1.945   1.235   4.768
  701SOL     OW 3001   0.100   4.157   6.029
  701SOL    HW1 3002   0.148   4.207   5.957
  701SOL    HW2 3003   0.159   4.148   6.109
  702SOL     OW 3004   5.708   5.595   4.670
  702SOL    HW1 3005   5.663   5.572   4.756
  702SOL    HW2 3006   5.803   5.563   4.672
  703SOL     OW 3007   3.938   3.731   6.675
  703SOL    HW1 3008   3.894   3.654   6.719
  703SOL    HW2 3009   3.921   3.727   6.576
  704SOL     OW 3010   2.305   0.086   7.003
  704SOL    HW1 3011   2.372   0.052   0.045
  704SOL    HW2 3012   2.314   0.035   6.917
  705SOL     OW 3013   5.938   2.526   2.202
  705SOL    HW1 3014   6.005   2.453   2.213
  705SOL    HW2 3015   5.969   2.608   2.251
  706SOL     OW 3016   3.724   1.905   3.989
  706SOL    HW1 3017   3.648   1.845   3.965
  706SOL    HW2 3018   3.798   1.893   3.923
  707SOL     OW 3019   5.116   0.767   1.649
  707SOL    HW1 3020   5.149   0.838   1.711
  707SOL    HW2 3021   5.024   0.790   1.618
  708SOL     OW 3022   4.134   0.784   1.856
  708SOL    HW1 3023   4.088   0.845   1.792
  708SOL    HW2 3024   4.225   0.762   1.822
  709SOL     OW 3025   0.773   4.908   0.193
  709SOL    HW1 3026   0.762   4.875   0.286
  709SOL    HW2 3027   0.684   4.917   0.149
  710SOL     OW 3028   3.056   3.909   2.667
  710SOL    HW1 3029   3.079   3.826   2.617
  710SOL    HW2 3030   3.109   3.986   2.630
  711SOL     OW 3031   0.347   0.606   3.997
  711SOL    HW1 3032   0.431   0.614   3.944
  711SOL    HW2 3033   0.327   0.693   4.042
  712SOL     OW 3034   1.728   3.940   1.606
  712SOL    HW1 3035   1.770   4.008   1.666
  712SOL    HW2 3036   1.657   3.891   1.656
  713SOL     OW 3037   4.012   3.159   2.730
  713SOL    HW1 3038   3.927   3.205   2.757
  713SOL    HW2 3039   3.990   3.067   2.696
  714SOL     OW 3040   4.638   5.217   5.020
  714SOL    HW1 3041   4.539   5.208   5.028
  714SOL    HW2 3042   4.661   5.257   4.931
  715SOL     OW 3043   4.396   0.238   6.378
  715SOL    HW1 3044   4.422   0.309   6.443
  715SOL    HW2 3045   4.425   0.265   6.286
  716SOL     OW 3046   0.067   4.691   1.641
  716SOL    HW1 3047   7.007   4.639   1.653
  716SOL    HW2 3048   0.089   4.739   1.725
  717SOL     OW 3049   6.270   2.274   0.240
  717SOL    HW1 3050   6.247   2.350   0.180
  717SOL    HW2 3051   6.367   2.252   0.232
  718SOL     OW 3052   3.862   3.703   6.404
  718SOL    HW1 3053   3.946   3.735   6.361
  718SOL    HW2 3054   3.785   3.758   6.372
  719SOL     OW 3055   5.680   4.091   0.885
  719SOL    HW1 3056   5.707   4.107   0.980
  719SOL    HW2 3057   5.648   3.997   0.875
  720SOL     OW 3058   2.662   1.168   6.347
  720SOL    HW1 3059   2.736   1.164   6.280
  720SOL    HW2 3060   2.579   1.202   6.303
  721SOL     OW 3061   1.549   0.049   5.820
  721SOL    HW1 3062   1.496   0.123   5.863
  721SOL    HW2 3063   1.489   7.022   5.758
  722SOL     OW 3064   4.066   0.088   4.839
  722SOL    HW1 3065   4.044   0.162   4.903
  722SOL    HW2 3066   4.137   0.030   4.878
  723SOL     OW 3067   1.049   3.085   2.004
  723SOL    HW1 3068   1.022   3.041   2.089
  723SOL    HW2 3069   0.977   3.147   1.974
  724SOL     OW 3070   0.135   1.192   5.089
  724SOL    HW1 3071   0.170   1.243   5.011
  724SOL    HW2 3072   0.205   1.187   5.160
  725SOL     OW 3073   2.259   5.060   1.381
  725SOL    HW1 3074   2.233   5.028   1.472
  725SOL    HW2 3075   2.312   5.144   1.389
  726SOL     OW 3076   4.138   0.128   6.695
  726SOL    HW1 3077   4.048   0.166   6.676
  726SOL    HW2 3078   4.200   0.202   6.723
  727SOL     OW 3079   3.096   5.132   4.272
  727SOL    HW1 3080   3.090   5.176   4.183
  727SOL    HW2 3081   3.181   5.080   4.279
  728SOL     OW 3082   6.852   3.729   5.067
  728SOL    HW1 3083   6.927   3.787   5.099
  728SOL    HW2 3084   6.824   3.668   5.142
  729SOL     OW 3085   2.713   0.008   1.473
  729SOL    HW1 3086   2.650   0.001   1.396
  729SOL    HW2 3087   2.727   6.941   1.513
  730SOL     OW 3088   5.703   0.469   4.076
  730SOL    HW1 3089   5.653   0.542   4.030
  730SOL    HW2 3090   5.641   0.395   4.100
  731SOL     OW 3091   5.682   3.553   3.758
  731SOL    HW1 3092   5.663   3.544   3.856
  731SOL    HW2 3093   5.748   3.627   3.743
  732SOL     OW 3094   6.438   2.633   1.385
  732SOL    HW1 3095   6.442   2.558   1.451
  732SOL    HW2 3096   6.355   2.687   1.402
  733SOL     OW 3097   4.812   4.187   3.996
  733SOL    HW1 3098   4.718   4.171   3.965
  733SOL    HW2 3099   4.852   4.101   4.027
  734SOL     OW 3100   6.453   4.574   0.866
  734SOL    HW1 3101   6.542   4.548   0.905
  734SOL    HW2 3102   6.411   4.495   0.822
  735SOL     OW 3103   1.680   4.473   6.324
  735SOL    HW1 3104   1.598   4.418   6.343
  735SOL    HW2 3105   1.711   4.453   6.231
  736SOL     OW 3106   6.318   1.227   3.530
  736SOL    HW1 3107   6.312   1.128   3.518
  736SOL    HW2 3108   6.272   1.273   3.454
  737SOL     OW 3109   5.097   3.138   0.639
  737SOL    HW1 3110   5.102   3.237   0.647
  737SOL    HW2 3111   5.006   3.106   0.664
  738SOL     OW 3112   0.997   3.867   4.115
  738SOL    HW1 3113   0.901   3.867   4.088
  738SOL    HW2 3114   1.050   3.920   4.048
  739SOL     OW 3115   4.412   6.183   6.473
  739SOL    HW1 3116   4.372   6.274   6.470
  739SOL    HW2 3117   4.437   6.160   6.567
  740SOL     OW 3118   6.205   6.653   1.638
  740SOL    HW1 3119   6.286   6.627   1.689
  740SOL    HW2 3120   6.208   6.612   1.547
  741SOL     OW 3121   2.140   0.378   2.377
  741SOL    HW1 3122   2.212   0.402   2.442
  741SOL    HW2 3123   2.133   0.449   2.307
  742SOL     OW 3124   1.010   6.855   3.547
  742SOL    HW1 3125   1.099   6.885   3.583
  742SOL    HW2 3126   0.982   6.917   3.473
  743SOL     OW 3127   2.243   4.169   4.596
  743SOL    HW1 3128   2.195   4.147   4.511
  743SOL    HW2 3129   2.335   4.129   4.593
  744SOL     OW 3130   0.138   5.319   0.430
  744SOL    HW1 3131   0.204   5.356   0.496
  744SOL    HW2 3132   0.101   5.393   0.374
  745SOL     OW 3133   1.453   5.936   2.500
  745SOL    HW1 3134   1.463   6.011   2.435
  745SOL    HW2 3135   1.417   5.972   2.587
  746SOL     OW 3136   1.589   0.983   5.328
  746SOL    HW1 3137   1.601   0.883   5.324
  746SOL    HW2 3138   1.675   1.027   5.302
  747SOL     OW 3139   5.124   4.879   2.984
  747SOL    HW1 3140   5.047   4.922   2.937
  747SOL    HW2 3141   5.145   4.931   3.067
  748SOL     OW 3142   4.623   3.350   1.529
  748SOL    HW1 3143   4.679   3.413   1.476
  748SOL    HW2 3144   4.681   3.297   1.591
  749SOL     OW 3145   6.571   1.653   5.614
  749SOL    HW1 3146   6.565   1.639   5.515
  749SOL    HW2 3147   6.649   1.710   5.636
  750SOL     OW 3148   2.392   4.273   0.660
  750SOL    HW1 3149   2.306   4.221   0.657
  750SOL    HW2 3150   2.429   4.271   0.753
  751SOL     OW 3151   4.295   1.006   0.202
  751SOL    HW1 3152   4.238   1.085   0.226
  751SOL    HW2 3153   4.363   0.992   0.273
  752SOL     OW 3154   4.897   2.212   1.828
  752SOL    HW1 3155   4.907   2.256   1.917
  752SOL    HW2 3156   4.910   2.280   1.755
  753SOL     OW 3157   1.928   2.580   4.158
  753SOL    HW1 3158   2.008   2.538   4.115
  753SOL    HW2 3159   1.919   2.675   4.128
  754SOL     OW 3160   4.200   5.773   6.933
  754SOL    HW1 3161   4.194   5.797   0.006
  754SOL    HW2 3162   4.155   5.685   6.918
  755SOL     OW 3163   0.183   6.014   0.475
  755SOL    HW1 3164   0.162   5.919   0.496
  755SOL    HW2 3165   0.282   6.026   0.468
  756SOL     OW 3166   4.773   0.642   2.927
  756SOL    HW1 3167   4.806   0.710   2.993
  756SOL    HW2 3168   4.683   0.668   2.893
  757SOL     OW 3169   0.173   6.825   3.898
  757SOL    HW1 3170   0.256   6.852   3.850
  757SOL    HW2 3171   0.114   6.772   3.837
  758SOL     OW 3172   3.632   2.349   0.944
  758SOL    HW1 3173   3.624   2.377   1.040
  758SOL    HW2 3174   3.584   2.263   0.931
  759SOL     OW 3175   1.361   1.180   6.992
  759SOL    HW1 3176   1.416   1.250   0.014
  759SOL    HW2 3177   1.324   1.117   0.037
  760SOL     OW 3178   4.847   1.557   5.824
  760SOL    HW1 3179   4.823   1.542   5.920
  760SOL    HW2 3180   4.922   1.495   5.799
  761SOL     OW 3181   5.750   2.391   6.738
  761SOL    HW1 3182   5.732   2.295   6.715
  761SOL    HW2 3183   5.754   2.401   6.837
  762SOL     OW 3184   2.397   6.758   4.308
  762SOL    HW1 3185   2.335   6.793   4.236
  762SOL    HW2 3186   2.343   6.736   4.389
  763SOL     OW 3187   3.779   5.977   6.649
  763SOL    HW1 3188   3.702   5.931   6.691
  763SOL    HW2 3189   3.860   5.969   6.707
  764SOL     OW 3190   4.065   1.367   2.313
  764SOL    HW1 3191   4.083   1.466   2.311
  764SOL    HW2 3192   4.106   1.324   2.233
  765SOL     OW 3193   6.928   0.061   3.174
  765SOL    HW1 3194   6.935   0.111   3.261
  765SOL    HW2 3195   6.989   0.103   3.107
  766SOL     OW 3196   0.210   6.144   0.173
  766SOL    HW1 3197   0.247   6.195   0.251
  766SOL    HW2 3198   0.196   6.207   0.096
  767SOL     OW 3199   5.948   6.792   2.831
  767SOL    HW1 3200   5.975   6.695   2.834
  767SOL    HW2 3201   6.030   6.849   2.843
  768SOL     OW 3202   2.729   6.273   2.825
  768SOL    HW1 3203   2.652   6.270   2.889
  768SOL    HW2 3204   2.776   6.361   2.832
  769SOL     OW 3205   4.207   0.932   5.427
  769SOL    HW1 3206   4.157   1.003   5.475
  769SOL    HW2 3207   4.206   0.951   5.329
  770SOL     OW 3208   3.271   4.994   4.060
  770SOL    HW1 3209   3.294   4.954   4.149
  770SOL    HW2 3210   3.356   5.015   4.011
  771SOL     OW 3211   0.807   5.533   3.107
  771SOL    HW1 3212   0.885   5.591   3.084
  771SOL    HW2 3213   0.839   5.439   3.123
  772SOL     OW 3214   0.156   3.698   6.249
  772SOL    HW1 3215   0.061   3.669   6.251
  772SOL    HW2 3216   0.215   3.619   6.231
  773SOL     OW 3217   0.285   3.863   2.197
  773SOL    HW1 3218   0.268   3.806   2.117
  773SOL    HW2 3219   0.339   3.812   2.264
  774SOL     OW 3220   1.608   1.112   1.267
  774SOL    HW1 3221   1.554   1.091   1.348
  774SOL    HW2 3222   1.653   1.201   1.279
  775SOL     OW 3223   1.452   2.386   4.654
  775SOL    HW1 3224   1.532   2.343   4.612
  775SOL    HW2 3225   1.440   2.350   4.747
  776SOL     OW 3226   2.453   0.442   5.903
  776SOL    HW1 3227   2.466   0.496   5.986
  776SOL    HW2 3228   2.391   0.365   5.922
  777SOL     OW 3229   4.213   1.431   1.235
  777SOL    HW1 3230   4.146   1.499   1.206
  777SOL    HW2 3231   4.298   1.444   1.182
  778SOL     OW 3232   4.334   6.442   4.001
  778SOL    HW1 3233   4.371   6.494   3.924
  778SOL    HW2 3234   4.409   6.419   4.063
  779SOL     OW 3235   1.272   1.362   2.165
  779SOL    HW1 3236   1.365   1.388   2.142
  779SOL    HW2 3237   1.273   1.303   2.246
  780SOL     OW 3238   6.153   3.509   5.108
  780SOL    HW1 3239   6.145   3.410   5.116
  780SOL    HW2 3240   6.067   3.547   5.074
  781SOL     OW 3241   6.811   0.816   5.904
  781SOL    HW1 3242   6.753   0.736   5.887
  781SOL    HW2 3243   6.855   0.843   5.819
  782SOL     OW 3244   6.675   2.972   0.899
  782SOL    HW1 3245   6.711   2.906   0.833
  782SOL    HW2 3246   6.684   2.934   0.991
  783SOL     OW 3247   2.719   5.151   0.427
  783SOL    HW1 3248   2.784   5.075   0.433
  783SOL    HW2 3249   2.768   5.237   0.438
  784SOL     OW 3250   4.761   0.857   5.260
  784SOL    HW1 3251   4.717   0.944   5.279
  784SOL    HW2 3252   4.753   0.797   5.340
  785SOL     OW 3253   6.558   1.965   3.292
  785SOL    HW1 3254   6.510   1.901   3.352
  785SOL    HW2 3255   6.621   2.021   3.345
  786SOL     OW 3256   0.066   6.623   0.054
  786SOL    HW1 3257   7.016   6.656   7.020
  786SOL    HW2 3258   0.028   6.574   0.133
  787SOL     OW 3259   2.969   2.225   6.248
  787SOL    HW1 3260   2.925   2.250   6.162
  787SOL    HW2 3261   3.046   2.164   6.230
  788SOL     OW 3262   1.349   3.661   4.148
  788SOL    HW1 3263   1.291   3.642   4.069
  788SOL    HW2 3264   1.294   3.658   4.231
  789SOL     OW 3265   5.347   4.225   1.572
  789SOL    HW1 3266   5.317   4.286   1.499
  789SOL    HW2 3267   5.294   4.140   1.569
  790SOL     OW 3268   2.885   1.213   3.733
  790SOL    HW1 3269   2.838   1.195   3.819
  790SOL    HW2 3270   2.921   1.306   3.733
  791SOL     OW 3271   3.079   1.473   4.284
  791SOL    HW1 3272   3.101   1.472   4.186
  791SOL    HW2 3273   2.981   1.489   4.296
  792SOL     OW 3274   5.561   0.665   3.522
  792SOL    HW1 3275   5.501   0.647   3.444
  792SOL    HW2 3276   5.637   0.723   3.493
  793SOL     OW 3277   5.460   0.150   6.930
  793SOL    HW1 3278   5.477   0.222   6.997
  793SOL    HW2 3279   5.400   0.080   6.970
  794SOL     OW 3280   2.240   5.397   6.027
  794SOL    HW1 3281   2.331   5.395   5.987
  794SOL    HW2 3282   2.200   5.488   6.015
  795SOL     OW 3283   4.614   4.341   6.441
  795SOL    HW1 3284   4.522   4.302   6.428
  795SOL    HW2 3285   4.614   4.436   6.409
  796SOL     OW 3286   0.300   2.356   6.790
  796SOL    HW1 3287   0.206   2.345   6.820
  796SOL    HW2 3288   0.334   2.269   6.754
  797SOL     OW 3289   5.940   2.826   3.867
  797SOL    HW1 3290   5.949   2.898   3.936
  797SOL    HW2 3291   5.951   2.865   3.776
  798SOL     OW 3292   4.976   1.286   6.254
  798SOL    HW1 3293   5.019   1.219   6.313
  798SOL    HW2 3294   5.026   1.291   6.167
  799SOL     OW 3295   6.910   2.678   2.644
  799SOL    HW1 3296   6.919   2.579   2.639
  799SOL    HW2 3297   6.879   2.704   2.736
  800SOL     OW 3298   6.154   1.238   2.413
  800SOL    HW1 3299   6.092   1.193   2.478
  800SOL    HW2 3300   6.123   1.220   2.320
  801SOL     OW 3301   0.229   2.704   2.933
  801SOL    HW1 3302   0.142   2.743   2.904
  801SOL    HW2 3303   0.256   2.744   3.021
  802SOL     OW 3304   5.473   1.067   0.524
  802SOL    HW1 3305   5.527   1.116   0.455
  802SOL    HW2 3306   5.388   1.034   0.483
  803SOL     OW 3307   6.588   6.238   4.573
  803SOL    HW1 3308   6.505   6.289   4.553
  803SOL    HW2 3309   6.654   6.250   4.498
  804SOL     OW 3310   0.664   6.649   0.116
  804SOL    HW1 3311   0.711   6.702   0.045
  804SOL    HW2 3312   0.657   6.703   0.200
  805SOL     OW 3313   2.716   3.177   6.208
  805SOL    HW1 3314   2.739   3.218   6.297
  805SOL    HW2 3315   2.780   3.211   6.139
  806SOL     OW 3316   5.248   0.966   0.362
  806SOL    HW1 3317   5.174   0.985   0.426
  806SOL    HW2 3318   5.253   1.039   0.294
  807SOL     OW 3319   1.394   0.455   3.477
  807SOL    HW1 3320   1.365   0.363   3.452
  807SOL    HW2 3321   1.323   0.498   3.533
  808SOL     OW 3322   5.323   3.290   5.526
  808SOL    HW1 3323   5.283   3.215   5.473
  808SOL    HW2 3324   5.301   3.377   5.482
  809SOL     OW 3325   0.250   4.109   6.553
  809SOL    HW1 3326   0.186   4.048   6.600
  809SOL    HW2 3327   0.214   4.202   6.554
  810SOL     OW 3328   5.706   3.955   0.225
  810SOL    HW1 3329   5.753   3.959   0.137
  810SOL    HW2 3330   5.649   3.874   0.229
  811SOL     OW 3331   5.293   4.899   3.875
  811SOL    HW1 3332   5.361   4.828   3.856
  811SOL    HW2 3333   5.308   4.935   3.967
  812SOL     OW 3334   0.205   0.008   1.572
  812SOL    HW1 3335   0.149   0.090   1.574
  812SOL    HW2 3336   0.258   0.002   1.657
  813SOL     OW 3337   4.927   5.073   2.346
  813SOL    HW1 3338   4.869   5.145   2.384
  813SOL    HW2 3339   4.873   4.989   2.338
  814SOL     OW 3340   5.902   6.147   1.896
  814SOL    HW1 3341   5.989   6.195   1.898
  814SOL    HW2 3342   5.836   6.193   1.955
  815SOL     OW 3343   6.592   2.033   1.062
  815SOL    HW1 3344   6.670   2.004   1.006
  815SOL    HW2 3345   6.579   2.132   1.053
  816SOL     OW 3346   6.577   6.165   0.923
  816SOL    HW1 3347   6.583   6.205   0.831
  816SOL    HW2 3348   6.481   6.148   0.945
  817SOL     OW 3349   1.808   3.054   2.377
  817SOL    HW1 3350   1.895   3.009   2.397
  817SOL    HW2 3351   1.779   3.030   2.284
  818SOL     OW 3352   6.117   0.971   0.975
  818SOL    HW1 3353   6.189   0.932   0.918
  818SOL    HW2 3354   6.152   1.053   1.020
  819SOL     OW 3355   6.912   3.530   3.859
  819SOL    HW1 3356   6.860   3.478   3.928
  819SOL    HW2 3357   6.849   3.563   3.788
  820SOL     OW 3358   1.150   3.338   4.840
  820SOL    HW1 3359   1.088   3.396   4.787
  820SOL    HW2 3360   1.147   3.366   4.936
  821SOL     OW 3361   1.365   3.307   0.061
  821SOL    HW1 3362   1.425   3.230   0.038
  821SOL    HW2 3363   1.286   3.273   0.113
  822SOL     OW 3364   1.593   3.689   4.744
  822SOL    HW1 3365   1.638   3.714   4.658
  822SOL    HW2 3366   1.603   3.763   4.810
  823SOL     OW 3367   3.942   4.068   6.978
  823SOL    HW1 3368   3.977   4.122   0.031
  823SOL    HW2 3369   4.010   4.000   6.951
  824SOL     OW 3370   5.239   2.428   5.434
  824SOL    HW1 3371   5.239   2.386   5.525
  824SOL    HW2 3372   5.196   2.365   5.369
  825SOL     OW 3373   2.176   3.789   2.733
  825SOL    HW1 3374   2.186   3.886   2.713
  825SOL    HW2 3375   2.167   3.738   2.647
  826SOL     OW 3376   6.836   3.608   6.768
  826SOL    HW1 3377   6.825   3.682   6.701
  826SOL    HW2 3378   6.750   3.593   6.816
  827SOL     OW 3379   3.396   6.050   0.122
  827SOL    HW1 3380   3.341   6.122   0.079
  827SOL    HW2 3381   3.491   6.058   0.091
  828SOL     OW 3382   5.552   0.248   5.850
  828SOL    HW1 3383   5.575   0.152   5.836
  828SOL    HW2 3384   5.607   0.305   5.788
  829SOL     OW 3385   3.204   3.007   4.546
  829SOL    HW1 3386   3.203   2.917   4.588
  829SOL    HW2 3387   3.278   3.062   4.584
  830SOL     OW 3388   4.547   4.223   5.323
  830SOL    HW1 3389   4.579   4.310   5.362
  830SOL    HW2 3390   4.449   4.213   5.340
  831SOL     OW 3391   7.005   1.184   5.372
  831SOL    HW1 3392   6.950   1.134   5.438
  831SOL    HW2 3393   6.977   1.160   5.279
  832SOL     OW 3394   2.384   1.649   6.504
  832SOL    HW1 3395   2.301   1.702   6.520
  832SOL    HW2 3396   2.378   1.561   6.550
  833SOL     OW 3397   6.733   6.850   6.233
  833SOL    HW1 3398   6.728   6.949   6.220
  833SOL    HW2 3399   6.756   6.806   6.146
  834SOL     OW 3400   3.003   3.769   4.338
  834SOL    HW1 3401   3.097   3.802   4.346
  834SOL    HW2 3402   2.975   3.725   4.423
  835SOL     OW 3403   3.353   6.826   3.374
  835SOL    HW1 3404   3.343   6.922   3.346
  835SOL    HW2 3405   3.440   6.814   3.422
  836SOL     OW 3406   3.078   1.041   0.648
  836SOL    HW1 3407   2.990   1.033   0.693
  836SOL    HW2 3408   3.134   0.961   0.669
  837SOL     OW 3409   5.054   1.420   5.762
  837SOL    HW1 3410   5.064   1.440   5.665
  837SOL    HW2 3411   5.140   1.441   5.809
  838SOL     OW 3412   2.069   5.611   3.414
  838SOL    HW1 3413   2.001   5.538   3.425
  838SOL    HW2 3414   2.092   5.621   3.317
  839SOL     OW 3415   2.727   1.951   2.830
  839SOL    HW1 3416   2.807   2.010   2.848
  839SOL    HW2 3417   2.755   1.874   2.773
  840SOL     OW 3418   0.860   1.236   0.151
  840SOL    HW1 3419   0.850   1.250   0.249
  840SOL    HW2 3420   0.863   1.324   0.104
  841SOL     OW 3421   0.697   3.313   6.601
  841SOL    HW1 3422   0.731   3.393   6.651
  841SOL    HW2 3423   0.708   3.328   6.503
  842SOL     OW 3424   3.723   4.855   2.879
  842SOL    HW1 3425   3.778   4.835   2.960
  842SOL    HW2 3426   3.629   4.824   2.895
  843SOL     OW 3427   6.579   1.946   2.083
  843SOL    HW1 3428   6.582   1.855   2.124
  843SOL    HW2 3429   6.488   1.963   2.046
  844SOL     OW 3430   4.787   6.140   0.873
  844SOL    HW1 3431   4.868   6.089   0.904
  844SOL    HW2 3432   4.813   6.233   0.849
  845SOL     OW 3433   0.580   4.818   5.227
  845SOL    HW1 3434   0.644   4.743   5.243
  845SOL    HW2 3435   0.491   4.796   5.267
  846SOL     OW 3436   6.262   1.465   6.491
  846SOL    HW1 3437   6.361   1.457   6.506
  846SOL    HW2 3438   6.235   1.561   6.497
  847SOL     OW 3439   4.916   3.647   2.158
  847SOL    HW1 3440   4.866   3.673   2.076
  847SOL    HW2 3441   4.980   3.573   2.137
  848SOL     OW 3442   6.000   0.938   5.995
  848SOL    HW1 3443   6.040   1.027   6.019
  848SOL    HW2 3444   5.961   0.896   6.077
  849SOL     OW 3445   0.603   5.157   4.921
  849SOL    HW1 3446   0.651   5.157   4.834
  849SOL    HW2 3447   0.525   5.096   4.916
  850SOL     OW 3448   3.727   1.061   2.978
  850SOL    HW1 3449   3.692   1.154   2.991
  850SOL    HW2 3450   3.676   1.016   2.906
  851SOL     OW 3451   1.710   0.252   6.942
  851SOL    HW1 3452   1.707   0.173   7.003
  851SOL    HW2 3453   1.621   0.265   6.900
  852SOL     OW 3454   1.767   3.732   6.363
  852SOL    HW1 3455   1.806   3.777   6.443
  852SOL    HW2 3456   1.717   3.650   6.391
  853SOL     OW 3457   1.025   3.861   1.676
  853SOL    HW1 3458   0.968   3.783   1.651
  853SOL    HW2 3459   1.048   3.913   1.593
  854SOL     OW 3460   5.092   5.516   1.880
  854SOL    HW1 3461   5.118   5.541   1.787
  854SOL    HW2 3462   5.076   5.418   1.885
  855SOL     OW 3463   5.307   6.959   1.916
  855SOL    HW1 3464   5.272   6.909   1.995
  855SOL    HW2 3465   5.402   6.932   1.898
  856SOL     OW 3466   2.417   6.609   5.240
  856SOL    HW1 3467   2.362   6.655   5.171
  856SOL    HW2 3468   2.440   6.517   5.208
  857SOL     OW 3469   6.264   3.245   1.587
  857SOL    HW1 3470   6.330   3.255   1.661
  857SOL    HW2 3471   6.172   3.267   1.621
  858SOL     OW 3472   3.112   4.435   1.379
  858SOL    HW1 3473   3.056   4.352   1.381
  858SOL    HW2 3474   3.164   4.442   1.464
  859SOL     OW 3475   6.715   4.691   6.952
  859SOL    HW1 3476   6.787   4.655   7.011
  859SOL    HW2 3477   6.732   4.662   6.858
  860SOL     OW 3478   1.955   4.889   1.029
  860SOL    HW1 3479   2.017   4.856   0.959
  860SOL    HW2 3480   2.006   4.942   1.097
  861SOL     OW 3481   3.702   5.540   5.664
  861SOL    HW1 3482   3.786   5.496   5.633
  861SOL    HW2 3483   3.682   5.512   5.758
  862SOL     OW 3484   4.757   4.190   4.420
  862SOL    HW1 3485   4.739   4.127   4.495
  862SOL    HW2 3486   4.730   4.147   4.334
  863SOL     OW 3487   5.738   1.241   1.235
  863SOL    HW1 3488   5.746   1.340   1.250
  863SOL    HW2 3489   5.680   1.224   1.156
  864SOL     OW 3490   6.040   3.889   2.552
  864SOL    HW1 3491   6.056   3.916   2.647
  864SOL    HW2 3492   6.038   3.789   2.546
  865SOL     OW 3493   1.808   6.379   4.594
  865SOL    HW1 3494   1.855   6.448   4.539
  865SOL    HW2 3495   1.736   6.336   4.539
  866SOL     OW 3496   3.077   1.932   1.928
  866SOL    HW1 3497   3.121   1.881   2.002
  866SOL    HW2 3498   3.127   1.916   1.843
  867SOL     OW 3499   2.049   3.001   6.142
  867SOL    HW1 3500   1.989   3.048   6.206
  867SOL    HW2 3501   2.000   2.924   6.101
  868SOL     OW 3502   5.329   2.519   3.455
  868SOL    HW1 3503   5.260   2.532   3.384
  868SOL    HW2 3504   5.374   2.606   3.474
  869SOL     OW 3505   6.096   5.272   2.697
  869SOL    HW1 3506   6.060   5.196   2.751
  869SOL    HW2 3507   6.063   5.358   2.734
  870SOL     OW 3508   6.959   1.132   1.216
  870SOL    HW1 3509   6.925   1.074   1.142
  870SOL    HW2 3510   0.033   1.117   1.228
  871SOL     OW 3511   6.091   2.490   0.990
  871SOL    HW1 3512   6.087   2.391   0.975
  871SOL    HW2 3513   6.023   2.535   0.933
  872SOL     OW 3514   5.946   2.160   3.476
  872SOL    HW1 3515   5.852   2.176   3.509
  872SOL    HW2 3516   5.952   2.185   3.380
  873SOL     OW 3517   4.548   6.880   5.378
  873SOL    HW1 3518   4.568   6.830   5.462
  873SOL    HW2 3519   4.518   6.817   5.308
  874SOL     OW 3520   0.785   3.416   5.590
  874SOL    HW1 3521   0.879   3.434   5.559
  874SOL    HW2 3522   0.723   3.422   5.512
  875SOL     OW 3523   6.374   4.457   6.998
  875SOL    HW1 3524   6.321   4.541   6.998
  875SOL    HW2 3525   6.449   4.465   0.040
  876SOL     OW 3526   0.449   3.194   1.968
  876SOL    HW1 3527   0.369   3.197   1.909
  876SOL    HW2 3528   0.522   3.248   1.927
  877SOL     OW 3529   5.913   5.924   0.757
  877SOL    HW1 3530   5.973   5.922   0.837
  877SOL    HW2 3531   5.943   5.855   0.691
  878SOL     OW 3532   2.876   4.851   0.271
  878SOL    HW1 3533   2.882   4.929   0.333
  878SOL    HW2 3534   2.956   4.792   0.283
  879SOL     OW 3535   4.676   2.467   2.107
  879SOL    HW1 3536   4.658   2.560   2.074
  879SOL    HW2 3537   4.761   2.466   2.159
  880SOL     OW 3538   3.879   5.329   0.406
  880SOL    HW1 3539   3.875   5.279   0.493
  880SOL    HW2 3540   3.789   5.365   0.384
  881SOL     OW 3541   4.087   5.150   5.128
  881SOL    HW1 3542   4.161   5.137   5.061
  881SOL    HW2 3543   4.109   5.101   5.212
  882SOL     OW 3544   1.351   1.062   4.799
  882SOL    HW1 3545   1.316   1.004   4.726
  882SOL    HW2 3546   1.296   1.146   4.805
  883SOL     OW 3547   3.088   5.299   6.350
  883SOL    HW1 3548   3.086   5.219   6.291
  883SOL    HW2 3549   3.068   5.381   6.297
  884SOL     OW 3550   4.535   3.716   1.491
  884SOL    HW1 3551   4.537   3.666   1.405
  884SOL    HW2 3552   4.486   3.802   1.479
  885SOL     OW 3553   4.427   6.286   0.179
  885SOL    HW1 3554   4.387   6.220   0.243
  885SOL    HW2 3555   4.526   6.275   0.178
  886SOL     OW 3556   4.380   1.959   6.019
  886SOL    HW1 3557   4.428   2.020   6.082
  886SOL    HW2 3558   4.294   1.929   6.061
  887SOL     OW 3559   4.430   0.541   6.650
  887SOL    HW1 3560   4.515   0.491   6.639
  887SOL    HW2 3561   4.428   0.585   6.739
  888SOL     OW 3562   6.231   6.039   3.143
  888SOL    HW1 3563   6.247   6.135   3.117
  888SOL    HW2 3564   6.282   5.979   3.082
  889SOL     OW 3565   0.707   6.718   4.800
  889SOL    HW1 3566   0.774   6.762   4.740
  889SOL    HW2 3567   0.630   6.780   4.815
  890SOL     OW 3568   2.574   4.608   2.143
  890SOL    HW1 3569   2.483   4.594   2.105
  890SOL    HW2 3570   2.639   4.623   2.068
  891SOL     OW 3571   5.067   3.333   6.820
  891SOL    HW1 3572   5.031   3.241   6.837
  891SOL    HW2 3573   5.000   3.386   6.769
  892SOL     OW 3574   2.218   4.465   1.382
  892SOL    HW1 3575   2.206   4.485   1.479
  892SOL    HW2 3576   2.205   4.549   1.329
  893SOL     OW 3577   1.630   0.063   0.311
  893SOL    HW1 3578   1.642   0.162   0.299
  893SOL    HW2 3579   1.675   0.034   0.396
  894SOL     OW 3580   0.881   5.667   3.667
  894SOL    HW1 3581   0.975   5.688   3.694
  894SOL    HW2 3582   0.863   5.569   3.680
  895SOL     OW 3583   2.688   6.594   5.262
  895SOL    HW1 3584   2.597   6.634   5.253
  895SOL    HW2 3585   2.754   6.665   5.288
  896SOL     OW 3586   5.586   6.848   3.104
  896SOL    HW1 3587   5.523   6.899   3.163
  896SOL    HW2 3588   5.680   6.874   3.127
  897SOL     OW 3589   5.390   2.420   5.845
  897SOL    HW1 3590   5.475   2.456   5.882
  897SOL    HW2 3591   5.313   2.477   5.875
  898SOL     OW 3592   5.889   6.479   3.971
  898SOL    HW1 3593   5.968   6.500   3.913
  898SOL    HW2 3594   5.835   6.562   3.985
  899SOL     OW 3595   0.910   4.734   5.648
  899SOL    HW1 3596   0.921   4.642   5.684
  899SOL    HW2 3597   0.891   4.797   5.724
  900SOL     OW 3598   0.522   5.894   3.439
  900SOL    HW1 3599   0.584   5.816   3.447
  900SOL    HW2 3600   0.474   5.907   3.525
  901SOL     OW 3601   6.185   2.260   3.503
  901SOL    HW1 3602   6.246   2.229   3.576
  901SOL    HW2 3603   6.094   2.221   3.517
  902SOL     OW 3604   0.251   6.316   6.970
  902SOL    HW1 3605   0.282   6.364   0.029
  902SOL    HW2 3606   0.226   6.384   6.901
  903SOL     OW 3607   1.433   5.182   0.666
  903SOL    HW1 3608   1.507   5.214   0.725
  903SOL    HW2 3609   1.465   5.104   0.611
  904SOL     OW 3610   1.948   1.287   3.374
  904SOL    HW1 3611   1.875   1.312   3.310
  904SOL    HW2 3612   1.913   1.294   3.468
  905SOL     OW 3613   5.388   2.191   4.985
  905SOL    HW1 3614   5.420   2.244   4.906
  905SOL    HW2 3615   5.390   2.249   5.067
  906SOL     OW 3616   5.904   4.281   5.467
  906SOL    HW1 3617   5.829   4.314   5.408
  906SOL    HW2 3618   5.991   4.300   5.422
  907SOL     OW 3619   6.596   3.185   2.208
  907SOL    HW1 3620   6.611   3.086   2.198
  907SOL    HW2 3621   6.499   3.205   2.191
  908SOL     OW 3622   2.101   0.626   4.219
  908SOL    HW1 3623   2.009   0.587   4.214
  908SOL    HW2 3624   2.094   0.723   4.244
  909SOL     OW 3625   3.324   1.181   1.835
  909SOL    HW1 3626   3.306   1.263   1.889
  909SOL    HW2 3627   3.349   1.106   1.897
  910SOL     OW 3628   2.081   2.083   1.298
  910SOL    HW1 3629   2.035   2.170   1.319
  910SOL    HW2 3630   2.175   2.087   1.332
  911SOL     OW 3631   0.027   4.348   1.104
  911SOL    HW1 3632   0.020   4.410   1.182
  911SOL    HW2 3633   6.985   4.273   1.115
  912SOL     OW 3634   1.311   0.285   5.734
  912SOL    HW1 3635   1.275   0.229   5.660
  912SOL    HW2 3636   1.238   0.305   5.800
  913SOL     OW 3637   2.774   1.182   1.825
  913SOL    HW1 3638   2.871   1.169   1.804
  913SOL    HW2 3639   2.759   1.163   1.922
  914SOL     OW 3640   3.172   6.328   2.821
  914SOL    HW1 3641   3.094   6.292   2.771
  914SOL    HW2 3642   3.252   6.331   2.762
  915SOL     OW 3643   1.070   2.468   0.217
  915SOL    HW1 3644   1.114   2.555   0.239
  915SOL    HW2 3645   0.971   2.478   0.226
  916SOL     OW 3646   2.205   3.073   3.089
  916SOL    HW1 3647   2.206   3.173   3.082
  916SOL    HW2 3648   2.177   3.033   3.002
  917SOL     OW 3649   3.363   2.145   6.908
  917SOL    HW1 3650   3.329   2.151   7.002
  917SOL    HW2 3651   3.289   2.116   6.848
  918SOL     OW 3652   1.255   0.723   6.265
  918SOL    HW1 3653   1.256   0.717   6.165
  918SOL    HW2 3654   1.212   0.641   6.303
  919SOL     OW 3655   2.305   6.002   2.173
  919SOL    HW1 3656   2.303   6.087   2.225
  919SOL    HW2 3657   2.243   5.936   2.215
  920SOL     OW 3658   2.291   0.351   3.983
  920SOL    HW1 3659   2.316   0.256   3.964
  920SOL    HW2 3660   2.327   0.378   4.073
  921SOL     OW 3661   5.336   4.835   5.435
  921SOL    HW1 3662   5.342   4.935   5.441
  921SOL    HW2 3663   5.291   4.810   5.350
  922SOL     OW 3664   2.153   3.857   0.029
  922SOL    HW1 3665   2.212   3.813   0.096
  922SOL    HW2 3666   2.128   3.792   6.981
  923SOL     OW 3667   4.039   0.463   6.784
  923SOL    HW1 3668   4.037   0.463   6.884
  923SOL    HW2 3669   4.133   0.451   6.753
  924SOL     OW 3670   5.947   3.389   3.158
  924SOL    HW1 3671   5.944   3.319   3.230
  924SOL    HW2 3672   6.023   3.452   3.176
  925SOL     OW 3673   6.558   1.625   3.130
  925SOL    HW1 3674   6.518   1.624   3.038
  925SOL    HW2 3675   6.649   1.666   3.126
  926SOL     OW 3676   5.260   6.419   1.110
  926SOL    HW1 3677   5.226   6.428   1.016
  926SOL    HW2 3678   5.295   6.506   1.141
  927SOL     OW 3679   4.029   5.156   5.484
  927SOL    HW1 3680   4.102   5.096   5.452
  927SOL    HW2 3681   4.038   5.168   5.583
  928SOL     OW 3682   0.497   1.141   1.413
  928SOL    HW1 3683   0.513   1.148   1.315
  928SOL    HW2 3684   0.441   1.218   1.444
  929SOL     OW 3685   1.057   2.547   2.113
  929SOL    HW1 3686   1.095   2.639   2.103
  929SOL    HW2 3687   1.092   2.504   2.196
  930SOL     OW 3688   4.625   6.383   3.885
  930SOL    HW1 3689   4.721   6.365   3.907
  930SOL    HW2 3690   4.608   6.360   3.789
  931SOL     OW 3691   1.129   3.038   1.751
  931SOL    HW1 3692   1.084   3.094   1.681
  931SOL    HW2 3693   1.114   3.079   1.841
  932SOL     OW 3694   4.663   6.666   1.399
  932SOL    HW1 3695   4.637   6.645   1.493
  932SOL    HW2 3696   4.719   6.749   1.398
  933SOL     OW 3697   2.160   6.232   2.798
  933SOL    HW1 3698   2.119   6.146   2.827
  933SOL    HW2 3699   2.259   6.220   2.787
  934SOL     OW 3700   3.017   1.366   5.350
  934SOL    HW1 3701   3.031   1.459   5.318
  934SOL    HW2 3702   2.959   1.367   5.431
  935SOL     OW 3703   3.158   3.471   6.401
  935SOL    HW1 3704   3.151   3.563   6.439
  935SOL    HW2 3705   3.225   3.418   6.454
  936SOL     OW 3706   0.375   1.365   1.476
  936SOL    HW1 3707   0.414   1.408   1.394
  936SOL    HW2 3708   0.369   1.432   1.549
  937SOL     OW 3709   4.673   2.374   4.193
  937SOL    HW1 3710   4.602   2.334   4.135
  937SOL    HW2 3711   4.651   2.355   4.289
  938SOL     OW 3712   0.197   2.701   0.114
  938SOL    HW1 3713   0.212   2.688   0.212
  938SOL    HW2 3714   0.279   2.741   0.073
  939SOL     OW 3715   6.125   1.179   6.098
  939SOL    HW1 3716   6.151   1.226   6.014
  939SOL    HW2 3717   6.137   1.241   6.176
  940SOL     OW 3718   0.567   1.071   4.320
  940SOL    HW1 3719   0.618   1.023   4.390
  940SOL    HW2 3720   0.621   1.076   4.236
  941SOL     OW 3721   5.556   2.972   4.924
  941SOL    HW1 3722   5.533   3.065   4.954
  941SOL    HW2 3723   5.559   2.911   5.003
  942SOL     OW 3724   5.422   6.841   4.995
  942SOL    HW1 3725   5.402   6.883   4.907
  942SOL    HW2 3726   5.505   6.881   5.033
  943SOL     OW 3727   5.044   1.910   0.778
  943SOL    HW1 3728   5.071   1.814   0.786
  943SOL    HW2 3729   5.121   1.964   0.743
  944SOL     OW 3730   6.179   3.858   5.114
  944SOL    HW1 3731   6.112   3.845   5.186
  944SOL    HW2 3732   6.134   3.897   5.033
  945SOL     OW 3733   5.308   4.399   4.863
  945SOL    HW1 3734   5.308   4.446   4.952
  945SOL    HW2 3735   5.370   4.321   4.867
  946SOL     OW 3736   5.525   2.585   5.524
  946SOL    HW1 3737   5.513   2.607   5.621
  946SOL    HW2 3738   5.460   2.638   5.469
  947SOL     OW 3739   1.922   3.303   5.633
  947SOL    HW1 3740   1.906   3.227   5.571
  947SOL    HW2 3741   1.951   3.383   5.581
  948SOL     OW 3742   3.382   1.776   0.137
  948SOL    HW1 3743   3.433   1.765   0.223
  948SOL    HW2 3744   3.348   1.687   0.107
  949SOL     OW 3745   5.624   6.201   6.224
  949SOL    HW1 3746   5.582   6.278   6.176
  949SOL    HW2 3747   5.703   6.234   6.276
  950SOL     OW 3748   3.823   5.271   1.392
  950SOL    HW1 3749   3.854   5.346   1.335
  950SOL    HW2 3750   3.725   5.255   1.378
  951SOL     OW 3751   1.246   2.150   3.099
  951SOL    HW1 3752   1.203   2.080   3.041
  951SOL    HW2 3753   1.178   2.187   3.162
  952SOL     OW 3754   5.098   2.010   1.857
  952SOL    HW1 3755   5.074   1.914   1.844
  952SOL    HW2 3756   5.022   2.068   1.827
  953SOL     OW 3757   3.916   6.869   6.686
  953SOL    HW1 3758   3.899   6.840   6.780
  953SOL    HW2 3759   3.948   6.964   6.685
  954SOL     OW 3760   6.314   6.180   0.551
  954SOL    HW1 3761   6.222   6.202   0.585
  954SOL    HW2 3762   6.321   6.081   0.536
  955SOL     OW 3763   6.662   6.699   2.519
  955SOL    HW1 3764   6.639   6.678   2.614
  955SOL    HW2 3765   6.626   6.789   2.495
  956SOL     OW 3766   0.695   2.251   0.832
  956SOL    HW1 3767   0.604   2.247   0.790
  956SOL    HW2 3768   0.685   2.241   0.931
  957SOL     OW 3769   2.456   6.169   5.042
  957SOL    HW1 3770   2.380   6.184   4.979
  957SOL    HW2 3771   2.533   6.131   4.992
  958SOL     OW 3772   5.433   2.550   0.665
  958SOL    HW1 3773   5.366   2.548   0.591
  958SOL    HW2 3774   5.509   2.489   0.643
  959SOL     OW 3775   1.689   4.459   2.560
  959SOL    HW1 3776   1.612   4.502   2.608
  959SOL    HW2 3777   1.741   4.529   2.512
  960SOL     OW 3778   1.651   5.628   5.152
  960SOL    HW1 3779   1.600   5.592   5.231
  960SOL    HW2 3780   1.610   5.591   5.068
  961SOL     OW 3781   3.664   6.948   2.032
  961SOL    HW1 3782   3.758   6.973   2.009
  961SOL    HW2 3783   3.655   6.942   2.132
  962SOL     OW 3784   1.571   6.822   4.714
  962SOL    HW1 3785   1.565   6.849   4.618
  962SOL    HW2 3786   1.587   6.904   4.770
  963SOL     OW 3787   6.622   6.766   0.910
  963SOL    HW1 3788   6.548   6.828   0.886
  963SOL    HW2 3789   6.588   6.697   0.975
  964SOL     OW 3790   5.411   4.300   1.861
  964SOL    HW1 3791   5.443   4.394   1.871
  964SOL    HW2 3792   5.422   4.271   1.766
  965SOL     OW 3793   0.448   2.021   0.891
  965SOL    HW1 3794   0.361   1.977   0.915
  965SOL    HW2 3795   0.431   2.098   0.830
  966SOL     OW 3796   0.231   2.147   2.021
  966SOL    HW1 3797   0.240   2.208   2.101
  966SOL    HW2 3798   0.249   2.053   2.049
  967SOL     OW 3799   0.787   6.067   1.850
  967SOL    HW1 3800   0.750   6.147   1.897
  967SOL    HW2 3801   0.712   6.004   1.828
  968SOL     OW 3802   5.492   3.169   2.757
  968SOL    HW1 3803   5.493   3.192   2.854
  968SOL    HW2 3804   5.497   3.253   2.702
  969SOL     OW 3805   4.659   5.907   5.514
  969SOL    HW1 3806   4.683   5.813   5.490
  969SOL    HW2 3807   4.696   5.970   5.445
  970SOL     OW 3808   4.265   2.146   5.231
  970SOL    HW1 3809   4.263   2.067   5.170
  970SOL    HW2 3810   4.252   2.116   5.326
  971SOL     OW 3811   6.608   1.857   1.675
  971SOL    HW1 3812   6.688   1.863   1.735
  971SOL    HW2 3813   6.546   1.934   1.694
  972SOL     OW 3814   6.692   5.197   0.776
  972SOL    HW1 3815   6.780   5.149   0.786
  972SOL    HW2 3816   6.705   5.294   0.797
  973SOL     OW 3817   5.584   4.146   5.747
  973SOL    HW1 3818   5.641   4.104   5.676
  973SOL    HW2 3819   5.629   4.227   5.783
  974SOL     OW 3820   2.791   1.491   4.162
  974SOL    HW1 3821   2.830   1.581   4.141
  974SOL    HW2 3822   2.694   1.491   4.138
  975SOL     OW 3823   3.842   6.739   5.763
  975SOL    HW1 3824   3.862   6.641   5.763
  975SOL    HW2 3825   3.844   6.773   5.857
  976SOL     OW 3826   0.077   4.880   3.812
  976SOL    HW1 3827   7.002   4.892   3.819
  976SOL    HW2 3828   0.112   4.843   3.898
  977SOL     OW 3829   1.905   1.206   4.036
  977SOL    HW1 3830   1.860   1.293   4.056
  977SOL    HW2 3831   1.837   1.133   4.035
  978SOL     OW 3832   6.164   3.146   4.265
  978SOL    HW1 3833   6.071   3.176   4.286
  978SOL    HW2 3834   6.228   3.182   4.334
  979SOL     OW 3835   5.844   0.766   3.707
  979SOL    HW1 3836   5.809   0.673   3.697
  979SOL    HW2 3837   5.937   0.762   3.745
  980SOL     OW 3838   6.432   0.950   4.707
  980SOL    HW1 3839   6.521   0.982   4.739
  980SOL    HW2 3840   6.407   0.998   4.623
  981SOL     OW 3841   6.932   2.570   5.808
  981SOL    HW1 3842   6.856   2.557   5.872
  981SOL    HW2 3843   7.007   2.617   5.853
  982SOL     OW 3844   1.844   2.661   1.133
  982SOL    HW1 3845   1.801   2.751   1.124
  982SOL    HW2 3846   1.800   2.597   1.070
  983SOL     OW 3847   5.407   1.578   2.870
  983SOL    HW1 3848   5.505   1.560   2.872
  983SOL    HW2 3849   5.380   1.607   2.778
  984SOL     OW 3850   4.809   1.239   4.685
  984SOL    HW1 3851   4.843   1.185   4.762
  984SOL    HW2 3852   4.776   1.179   4.613
  985SOL     OW 3853   3.235   5.463   0.419
  985SOL    HW1 3854   3.308   5.409   0.377
  985SOL    HW2 3855   3.247   5.559   0.395
  986SOL     OW 3856   4.508   4.969   6.555
  986SOL    HW1 3857   4.501   4.966   6.455
  986SOL    HW2 3858   4.439   4.910   6.595
  987SOL     OW 3859   4.124   0.009   2.760
  987SOL    HW1 3860   4.055   0.079   2.780
  987SOL    HW2 3861   4.158   6.995   2.846
  988SOL     OW 3862   3.303   3.660   1.823
  988SOL    HW1 3863   3.287   3.723   1.746
  988SOL    HW2 3864   3.241   3.582   1.815
  989SOL     OW 3865   0.388   6.800   5.847
  989SOL    HW1 3866   0.439   6.770   5.766
  989SOL    HW2 3867   0.293   6.819   5.820
  990SOL     OW 3868   4.637   6.720   3.914
  990SOL    HW1 3869   4.569   6.786   3.946
  990SOL    HW2 3870   4.727   6.745   3.948
  991SOL     OW 3871   6.398   1.431   4.824
  991SOL    HW1 3872   6.428   1.527   4.829
  991SOL    HW2 3873   6.393   1.402   4.729
  992SOL     OW 3874   0.885   3.390   0.534
  992SOL    HW1 3875   0.852   3.462   0.594
  992SOL    HW2 3876   0.930   3.319   0.589
  993SOL     OW 3877   3.246   5.189   3.210
  993SOL    HW1 3878   3.228   5.091   3.209
  993SOL    HW2 3879   3.323   5.209   3.149
  994SOL     OW 3880   3.000   3.430   2.999
  994SOL    HW1 3881   3.085   3.480   2.988
  994SOL    HW2 3882   2.936   3.484   3.054
  995SOL     OW 3883   1.125   1.683   4.845
  995SOL    HW1 3884   1.076   1.757   4.892
  995SOL    HW2 3885   1.223   1.693   4.860
  996SOL     OW 3886   1.669   3.840   2.563
  996SOL    HW1 3887   1.655   3.847   2.464
  996SOL    HW2 3888   1.583   3.855   2.611
  997SOL     OW 3889   6.628   0.871   1.349
  997SOL    HW1 3890   6.713   0.868   1.296
  997SOL    HW2 3891   6.642   0.925   1.432
  998SOL     OW 3892   5.115   0.454   3.091
  998SOL    HW1 3893   5.172   0.411   3.021
  998SOL    HW2 3894   5.019   0.432   3.074
  999SOL     OW 3895   0.314   4.977   1.556
  999SOL    HW1 3896   0.397   4.938   1.596
  999SOL    HW2 3897   0.326   4.984   1.457
 1000SOL     OW 3898   3.750   1.548   4.054
 1000SOL    HW1 3899   3.826   1.598   4.097
 1000SOL    HW2 3900   3.663   1.588   4.082
 1001SOL     OW 3901   4.992   0.579   5.530
 1001SOL    HW1 3902   4.932   0.502   5.510
 1001SOL    HW2 3903   5.086   0.546   5.541
 1002SOL     OW 3904   6.507   1.176   1.103
 1002SOL    HW1 3905   6.535   1.151   1.010
 1002SOL    HW2 3906   6.502   1.275   1.111
 1003SOL     OW 3907   3.863   5.554   2.648
 1003SOL    HW1 3908   3.897   5.471   2.604
 1003SOL    HW2 3909   3.811   5.529   2.730
 1004SOL     OW 3910   6.002   6.277   0.104
 1004SOL    HW1 3911   6.060   6.240   0.031
 1004SOL    HW2 3912   5.978   6.372   0.082
 1005SOL     OW 3913   0.038   6.566   3.363
 1005SOL    HW1 3914   0.091   6.494   3.319
 1005SOL    HW2 3915   0.012   6.634   3.296
 1006SOL     OW 3916   2.177   4.738   0.823
 1006SOL    HW1 3917   2.083   4.704   0.832
 1006SOL    HW2 3918   2.233   4.666   0.781
 1007SOL     OW 3919   0.057   1.023   3.602
 1007SOL    HW1 3920   0.098   1.114   3.603
 1007SOL    HW2 3921   0.127   0.955   3.585
 1008SOL     OW 3922   2.042   3.171   3.343
 1008SOL    HW1 3923   2.105   3.226   3.288
 1008SOL    HW2 3924   1.978   3.124   3.283
 1009SOL     OW 3925   1.393   6.245   5.473
 1009SOL    HW1 3926   1.382   6.178   5.547
 1009SOL    HW2 3927   1.337   6.326   5.493
 1010SOL     OW 3928   4.741   1.935   0.021
 1010SOL    HW1 3929   4.681   2.008   7.011
 1010SOL    HW2 3930   4.691   1.848   0.019
 1011SOL     OW 3931   3.370   6.164   3.298
 1011SOL    HW1 3932   3.303   6.214   3.243
 1011SOL    HW2 3933   3.414   6.094   3.242
 1012SOL     OW 3934   5.165   5.877   6.741
 1012SOL    HW1 3935   5.128   5.790   6.710
 1012SOL    HW2 3936   5.200   5.868   6.834
 1013SOL     OW 3937   0.732   1.164   1.563
 1013SOL    HW1 3938   0.638   1.129   1.571
 1013SOL    HW2 3939   0.736   1.232   1.489
 1014SOL     OW 3940   4.834   0.039   6.009
 1014SOL    HW1 3941   4.839   0.123   5.954
 1014SOL    HW2 3942   4.922   7.016   6.006
 1015SOL     OW 3943   3.399   5.759   3.930
 1015SOL    HW1 3944   3.358   5.814   3.857
 1015SOL    HW2 3945   3.364   5.666   3.926
 1016SOL     OW 3946   3.874   2.454   1.236
 1016SOL    HW1 3947   3.810   2.441   1.312
 1016SOL    HW2 3948   3.869   2.375   1.175
 1017SOL     OW 3949   4.277   1.988   6.569
 1017SOL    HW1 3950   4.186   1.980   6.609
 1017SOL    HW2 3951   4.320   1.898   6.566
 1018SOL     OW 3952   1.790   3.524   2.925
 1018SOL    HW1 3953   1.773   3.535   2.827
 1018SOL    HW2 3954   1.742   3.596   2.976
 1019SOL     OW 3955   6.630   1.284   0.077
 1019SOL    HW1 3956   6.544   1.291   0.028
 1019SOL    HW2 3957   6.627   1.342   0.159
 1020SOL     OW 3958   2.717   1.765   1.551
 1020SOL    HW1 3959   2.728   1.809   1.640
 1020SOL    HW2 3960   2.649   1.815   1.498
 1021SOL     OW 3961   6.589   1.505   1.101
 1021SOL    HW1 3962   6.672   1.470   1.146
 1021SOL    HW2 3963   6.611   1.535   1.008
 1022SOL     OW 3964   4.195   3.398   6.604
 1022SOL    HW1 3965   4.191   3.345   6.689
 1022SOL    HW2 3966   4.107   3.394   6.557
 1023SOL     OW 3967   5.443   1.173   2.844
 1023SOL    HW1 3968   5.386   1.122   2.779
 1023SOL    HW2 3969   5.454   1.120   2.927
 1024SOL     OW 3970   6.491   1.438   3.564
 1024SOL    HW1 3971   6.451   1.347   3.558
 1024SOL    HW2 3972   6.509   1.472   3.471
 1025SOL     OW 3973   2.986   4.871   1.259
 1025SOL    HW1 3974   2.973   4.804   1.332
 1025SOL    HW2 3975   2.914   4.940   1.264
 1026SOL     OW 3976   1.340   2.440   0.456
 1026SOL    HW1 3977   1.421   2.459   0.400
 1026SOL    HW2 3978   1.261   2.488   0.417
 1027SOL     OW 3979   2.714   4.626   2.405
 1027SOL    HW1 3980   2.689   4.644   2.310
 1027SOL    HW2 3981   2.785   4.555   2.408
 1028SOL     OW 3982   1.546   6.190   0.935
 1028SOL    HW1 3983   1.594   6.198   1.023
 1028SOL    HW2 3984   1.512   6.097   0.923
 1029SOL     OW 3985   2.574   0.507   6.490
 1029SOL    HW1 3986   2.536   0.448   6.419
 1029SOL    HW2 3987   2.672   0.490   6.499
 1030SOL     OW 3988   4.017   3.916   4.929
 1030SOL    HW1 3989   4.011   3.844   4.859
 1030SOL    HW2 3990   4.000   4.005   4.887
 1031SOL     OW 3991   2.474   5.651   2.000
 1031SOL    HW1 3992   2.394   5.592   2.001
 1031SOL    HW2 3993   2.456   5.732   1.945
 1032SOL     OW 3994   1.979   0.674   4.531
 1032SOL    HW1 3995   1.962   0.583   4.568
 1032SOL    HW2 3996   1.907   0.698   4.465
 1033SOL     OW 3997   2.700   5.787   2.450
 1033SOL    HW1 3998   2.786   5.756   2.410
 1033SOL    HW2 3999   2.645   5.707   2.474
 1034SOL     OW 4000   1.254   4.598   3.862
 1034SOL    HW1 4001   1.326   4.586   3.793
 1034SOL    HW2 4002   1.267   4.530   3.935
 1035SOL     OW 4003   2.382   1.357   4.673
 1035SOL    HW1 4004   2.327   1.274   4.671
 1035SOL    HW2 4005   2.464   1.342   4.729
 1036SOL     OW 4006   4.403   2.280   0.443
 1036SOL    HW1 4007   4.344   2.225   0.384
 1036SOL    HW2 4008   4.357   2.298   0.530
 1037SOL     OW 4009   2.187   1.998   6.779
 1037SOL    HW1 4010   2.235   2.045   6.704
 1037SOL    HW2 4011   2.188   2.056   6.860
 1038SOL     OW 4012   1.910   0.910   4.831
 1038SOL    HW1 4013   2.002   0.881   4.858
 1038SOL    HW2 4014   1.877   0.849   4.758
 1039SOL     OW 4015   3.813   1.791   3.386
 1039SOL    HW1 4016   3.766   1.846   3.317
 1039SOL    HW2 4017   3.748   1.727   3.428
 1040SOL     OW 4018   6.599   4.262   3.049
 1040SOL    HW1 4019   6.590   4.347   3.102
 1040SOL    HW2 4020   6.510   4.217   3.043
 1041SOL     OW 4021   1.162   0.721   4.430
 1041SOL    HW1 4022   1.094   0.791   4.408
 1041SOL    HW2 4023   1.117   0.634   4.447
 1042SOL     OW 4024   5.411   4.595   1.089
 1042SOL    HW1 4025   5.500   4.554   1.070
 1042SOL    HW2 4026   5.342   4.522   1.097
 1043SOL     OW 4027   2.890   1.559   6.360
 1043SOL    HW1 4028   2.797   1.527   6.376
 1043SOL    HW2 4029   2.936   1.498   6.295
 1044SOL     OW 4030   4.304   3.343   1.780
 1044SOL    HW1 4031   4.228   3.367   1.841
 1044SOL    HW2 4032   4.307   3.244   1.768
 1045SOL     OW 4033   3.008   1.454   3.245
 1045SOL    HW1 4034   2.909   1.452   3.231
 1045SOL    HW2 4035   3.033   1.537   3.295
 1046SOL     OW 4036   4.239   0.483   1.836
 1046SOL    HW1 4037   4.192   0.396   1.827
 1046SOL    HW2 4038   4.317   0.486   1.772
 1047SOL     OW 4039   1.141   4.674   2.680
 1047SOL    HW1 4040   1.194   4.753   2.712
 1047SOL    HW2 4041   1.183   4.590   2.715
 1048SOL     OW 4042   4.939   4.514   5.393
 1048SOL    HW1 4043   4.928   4.430   5.447
 1048SOL    HW2 4044   4.950   4.489   5.296
 1049SOL     OW 4045   0.319   3.300   4.685
 1049SOL    HW1 4046   0.367   3.214   4.701
 1049SOL    HW2 4047   0.267   3.294   4.599
 1050SOL     OW 4048   3.258   0.753   0.407
 1050SOL    HW1 4049   3.184   0.753   0.341
 1050SOL    HW2 4050   3.324   0.682   0.383
 1051SOL     OW 4051   4.726   4.062   1.341
 1051SOL    HW1 4052   4.719   4.158   1.315
 1051SOL    HW2 4053   4.675   4.046   1.426
 1052SOL     OW 4054   3.702   0.317   4.657
 1052SOL    HW1 4055   3.646   0.370   4.721
 1052SOL    HW2 4056   3.744   0.240   4.705
 1053SOL     OW 4057   4.322   4.747   3.603
 1053SOL    HW1 4058   4.361   4.837   3.623
 1053SOL    HW2 4059   4.359   4.713   3.517
 1054SOL     OW 4060   3.427   6.100   4.261
 1054SOL    HW1 4061   3.511   6.120   4.311
 1054SOL    HW2 4062   3.348   6.111   4.321
 1055SOL     OW 4063   4.272   5.428   4.836
 1055SOL    HW1 4064   4.194   5.420   4.775
 1055SOL    HW2 4065   4.354   5.451   4.783
 1056SOL     OW 4066   1.908   6.335   5.302
 1056SOL    HW1 4067   1.836   6.353   5.236
 1056SOL    HW2 4068   1.986   6.292   5.256
 1057SOL     OW 4069   3.263   3.930   2.057
 1057SOL    HW1 4070   3.304   3.926   1.965
 1057SOL    HW2 4071   3.170   3.893   2.054
 1058SOL     OW 4072   3.867   1.020   1.936
 1058SOL    HW1 4073   3.892   0.979   1.849
 1058SOL    HW2 4074   3.834   0.949   1.998
 1059SOL     OW 4075   3.502   1.820   1.019
 1059SOL    HW1 4076   3.433   1.845   0.951
 1059SOL    HW2 4077   3.476   1.856   1.108
 1060SOL     OW 4078   2.405   2.171   5.497
 1060SOL    HW1 4079   2.329   2.236   5.506
 1060SOL    HW2 4080   2.491   2.218   5.519
 1061SOL     OW 4081   2.830   5.705   1.628
 1061SOL    HW1 4082   2.810   5.612   1.597
 1061SOL    HW2 4083   2.880   5.701   1.715
 1062SOL     OW 4084   5.847   4.993   4.599
 1062SOL    HW1 4085   5.836   4.979   4.698
 1062SOL    HW2 4086   5.781   5.061   4.567
 1063SOL     OW 4087   2.081   2.469   6.539
 1063SOL    HW1 4088   2.070   2.398   6.470
 1063SOL    HW2 4089   2.053   2.434   6.628
 1064SOL     OW 4090   6.757   3.016   1.481
 1064SOL    HW1 4091   6.818   2.944   1.515
 1064SOL    HW2 4092   6.663   2.985   1.488
 1065SOL     OW 4093   6.454   6.423   4.987
 1065SOL    HW1 4094   6.455   6.484   5.066
 1065SOL    HW2 4095   6.545   6.422   4.944
 1066SOL     OW 4096   3.869   0.453   3.393
 1066SOL    HW1 4097   3.825   0.517   3.330
 1066SOL    HW2 4098   3.960   0.430   3.360
 1067SOL     OW 4099   1.703   3.363   1.149
 1067SOL    HW1 4100   1.619   3.418   1.152
 1067SOL    HW2 4101   1.714   3.324   1.058
 1068SOL     OW 4102   0.719   3.798   1.969
 1068SOL    HW1 4103   0.646   3.866   1.974
 1068SOL    HW2 4104   0.685   3.716   1.924
 1069SOL     OW 4105   3.810   3.907   1.232
 1069SOL    HW1 4106   3.823   3.969   1.309
 1069SOL    HW2 4107   3.802   3.813   1.266
 1070SOL     OW 4108   2.240   0.798   0.036
 1070SOL    HW1 4109   2.252   0.897   0.041
 1070SOL    HW2 4110   2.217   0.762   0.126
 1071SOL     OW 4111   4.161   6.748   3.233
 1071SOL    HW1 4112   4.119   6.665   3.272
 1071SOL    HW2 4113   4.233   6.780   3.293
 1072SOL     OW 4114   3.845   5.773   3.201
 1072SOL    HW1 4115   3.823   5.684   3.240
 1072SOL    HW2 4116   3.789   5.844   3.245
 1073SOL     OW 4117   2.360   4.714   2.730
 1073SOL    HW1 4118   2.279   4.703   2.674
 1073SOL    HW2 4119   2.391   4.625   2.763
 1074SOL     OW 4120   1.351   5.591   1.910
 1074SOL    HW1 4121   1.272   5.634   1.953
 1074SOL    HW2 4122   1.398   5.533   1.977
 1075SOL     OW 4123   0.009   4.333   4.203
 1075SOL    HW1 4124   0.063   4.276   4.141
 1075SOL    HW2 4125   6.963   4.277   4.247
 1076SOL     OW 4126   6.975   4.629   3.587
 1076SOL    HW1 4127   6.901   4.696   3.596
 1076SOL    HW2 4128   0.037   4.677   3.568
 1077SOL     OW 4129   4.785   0.260   0.485
 1077SOL    HW1 4130   4.703   0.230   0.533
 1077SOL    HW2 4131   4.787   0.360   0.482
 1078SOL     OW 4132   0.648   2.010   1.240
 1078SOL    HW1 4133   0.647   1.947   1.163
 1078SOL    HW2 4134   0.738   2.009   1.283
 1079SOL     OW 4135   2.723   5.439   3.060
 1079SOL    HW1 4136   2.746   5.369   3.127
 1079SOL    HW2 4137   2.672   5.399   2.984
 1080SOL     OW 4138   1.920   5.387   4.298
 1080SOL    HW1 4139   1.945   5.360   4.205
 1080SOL    HW2 4140   2.003   5.389   4.355
 1081SOL     OW 4141   1.809   0.581   6.888
 1081SOL    HW1 4142   1.803   0.522   6.968
 1081SOL    HW2 4143   1.806   0.526   6.805
 1082SOL     OW 4144   2.251   6.868   5.978
 1082SOL    HW1 4145   2.275   6.772   5.987
 1082SOL    HW2 4146   2.226   6.905   6.067
 1083SOL     OW 4147   4.175   3.161   1.349
 1083SOL    HW1 4148   4.223   3.231   1.295
 1083SOL    HW2 4149   4.134   3.203   1.430
 1084SOL     OW 4150   6.274   3.826   0.570
 1084SOL    HW1 4151   6.176   3.847   0.577
 1084SOL    HW2 4152   6.305   3.786   0.656
 1085SOL     OW 4153   2.142   3.870   4.000
 1085SOL    HW1 4154   2.205   3.907   3.932
 1085SOL    HW2 4155   2.134   3.771   3.987
 1086SOL     OW 4156   4.082   4.739   2.034
 1086SOL    HW1 4157   4.095   4.697   1.945
 1086SOL    HW2 4158   3.997   4.792   2.034
 1087SOL     OW 4159   4.426   2.897   5.303
 1087SOL    HW1 4160   4.360   2.849   5.360
 1087SOL    HW2 4161   4.439   2.990   5.338
 1088SOL     OW 4162   4.851   3.643   3.254
 1088SOL    HW1 4163   4.911   3.722   3.266
 1088SOL    HW2 4164   4.865   3.604   3.163
 1089SOL     OW 4165   6.466   0.249   3.235
 1089SOL    HW1 4166   6.498   0.297   3.317
 1089SOL    HW2 4167   6.416   0.167   3.263
 1090SOL     OW 4168   0.523   1.814   5.651
 1090SOL    HW1 4169   0.482   1.867   5.725
 1090SOL    HW2 4170   0.599   1.760   5.686
 1091SOL     OW 4171   0.773   1.583   5.022
 1091SOL    HW1 4172   0.701   1.591   4.953
 1091SOL    HW2 4173   0.831   1.664   5.020
 1092SOL     OW 4174   2.031   4.291   1.200
 1092SOL    HW1 4175   2.083   4.289   1.115
 1092SOL    HW2 4176   2.089   4.328   1.273
 1093SOL     OW 4177   0.818   1.902   2.202
 1093SOL    HW1 4178   0.819   1.863   2.294
 1093SOL    HW2 4179   0.773   1.838   2.139
 1094SOL     OW 4180   0.357   6.396   1.882
 1094SOL    HW1 4181   0.259   6.377   1.875
 1094SOL    HW2 4182   0.407   6.310   1.881
 1095SOL     OW 4183   5.655   3.934   6.356
 1095SOL    HW1 4184   5.627   3.968   6.446
 1095SOL    HW2 4185   5.650   3.835   6.355
 1096SOL     OW 4186   3.375   4.535   1.700
 1096SOL    HW1 4187   3.278   4.560   1.703
 1096SOL    HW2 4188   3.427   4.594   1.762
 1097SOL     OW 4189   1.804   5.130   5.723
 1097SOL    HW1 4190   1.805   5.202   5.653
 1097SOL    HW2 4191   1.860   5.157   5.800
 1098SOL     OW 4192   4.382   1.916   2.605
 1098SOL    HW1 4193   4.444   1.893   2.530
 1098SOL    HW2 4194   4.422   1.887   2.692
 1099SOL     OW 4195   3.477   1.812   2.969
 1099SOL    HW1 4196   3.490   1.908   2.991
 1099SOL    HW2 4197   3.562   1.762   2.987
 1100SOL     OW 4198   1.046   0.472   0.371
 1100SOL    HW1 4199   1.037   0.461   0.272
 1100SOL    HW2 4200   1.049   0.382   0.415
 1101SOL     OW 4201   5.553   2.834   0.687
 1101SOL    HW1 4202   5.462   2.861   0.718
 1101SOL    HW2 4203   5.556   2.735   0.674
 1102SOL     OW 4204   0.817   4.881   3.425
 1102SOL    HW1 4205   0.876   4.800   3.431
 1102SOL    HW2 4206   0.805   4.920   3.517
 1103SOL     OW 4207   0.281   2.963   1.136
 1103SOL    HW1 4208   0.314   2.874   1.104
 1103SOL    HW2 4209   0.264   2.959   1.234
 1104SOL     OW 4210   2.688   5.111   6.074
 1104SOL    HW1 4211   2.782   5.134   6.048
 1104SOL    HW2 4212   2.645   5.190   6.117
 1105SOL     OW 4213   4.296   5.444   0.123
 1105SOL    HW1 4214   4.273   5.351   0.150
 1105SOL    HW2 4215   4.385   5.444   0.077
 1106SOL     OW 4216   0.539   2.021   6.971
 1106SOL    HW1 4217   0.602   2.091   6.937
 1106SOL    HW2 4218   0.445   2.055   6.963
 1107SOL     OW 4219   1.571   0.618   1.056
 1107SOL    HW1 4220   1.577   0.615   0.956
 1107SOL    HW2 4221   1.479   0.591   1.085
 1108SOL     OW 4222   0.592   2.200   5.062
 1108SOL    HW1 4223   0.655   2.251   5.003
 1108SOL    HW2 4224   0.586   2.245   5.151
 1109SOL     OW 4225   5.221   0.944   3.946
 1109SOL    HW1 4226   5.319   0.924   3.948
 1109SOL    HW2 4227   5.190   0.973   4.037
 1110SOL     OW 4228   3.658   2.896   2.126
 1110SOL    HW1 4229   3.740   2.907   2.182
 1110SOL    HW2 4230   3.580   2.877   2.185
 1111SOL     OW 4231   5.591   6.890   6.892
 1111SOL    HW1 4232   5.527   6.820   6.923
 1111SOL    HW2 4233   5.541   6.963   6.845
 1112SOL     OW 4234   6.188   0.786   2.570
 1112SOL    HW1 4235   6.095   0.760   2.542
 1112SOL    HW2 4236   6.226   0.851   2.504
 1113SOL     OW 4237   6.577   3.793   2.006
 1113SOL    HW1 4238   6.605   3.703   1.972
 1113SOL    HW2 4239   6.656   3.854   2.007
 1114SOL     OW 4240   4.868   1.039   4.918
 1114SOL    HW1 4241   4.892   1.071   5.010
 1114SOL    HW2 4242   4.906   0.947   4.904
 1115SOL     OW 4243   2.545   3.161   0.881
 1115SOL    HW1 4244   2.635   3.199   0.904
 1115SOL    HW2 4245   2.493   3.227   0.828
 1116SOL     OW 4246   4.774   6.354   4.344
 1116SOL    HW1 4247   4.738   6.409   4.420
 1116SOL    HW2 4248   4.753   6.399   4.258
 1117SOL     OW 4249   2.655   3.276   1.351
 1117SOL    HW1 4250   2.565   3.255   1.389
 1117SOL    HW2 4251   2.682   3.204   1.287
 1118SOL     OW 4252   2.086   3.761   3.679
 1118SOL    HW1 4253   1.996   3.804   3.686
 1118SOL    HW2 4254   2.094   3.690   3.749
 1119SOL     OW 4255   3.808   3.992   2.037
 1119SOL    HW1 4256   3.805   4.033   2.128
 1119SOL    HW2 4257   3.899   3.953   2.021
 1120SOL     OW 4258   4.421   0.726   4.216
 1120SOL    HW1 4259   4.321   0.733   4.212
 1120SOL    HW2 4260   4.449   0.633   4.194
 1121SOL     OW 4261   5.476   3.309   2.061
 1121SOL    HW1 4262   5.480   3.397   2.015
 1121SOL    HW2 4263   5.453   3.238   1.995
 1122SOL     OW 4264   5.115   4.417   6.768
 1122SOL    HW1 4265   5.097   4.368   6.682
 1122SOL    HW2 4266   5.087   4.512   6.758
 1123SOL     OW 4267   3.178   0.717   2.501
 1123SOL    HW1 4268   3.193   0.720   2.402
 1123SOL    HW2 4269   3.202   0.806   2.541
 1124SOL     OW 4270   0.657   4.396   4.730
 1124SOL    HW1 4271   0.724   4.329   4.763
 1124SOL    HW2 4272   0.675   4.417   4.634
 1125SOL     OW 4273   3.714   3.359   5.059
 1125SOL    HW1 4274   3.770   3.283   5.091
 1125SOL    HW2 4275   3.702   3.353   4.960
 1126SOL     OW 4276   5.683   6.595   2.058
 1126SOL    HW1 4277   5.708   6.680   2.012
 1126SOL    HW2 4278   5.671   6.612   2.156
 1127SOL     OW 4279   1.550   5.036   0.100
 1127SOL    HW1 4280   1.645   5.018   0.074
 1127SOL    HW2 4281   1.547   5.109   0.168
 1128SOL     OW 4282   2.685   1.957   4.768
 1128SOL    HW1 4283   2.626   1.966   4.688
 1128SOL    HW2 4284   2.643   2.004   4.846
 1129SOL     OW 4285   5.708   0.373   6.802
 1129SOL    HW1 4286   5.765   0.422   6.736
 1129SOL    HW2 4287   5.757   0.293   6.836
 1130SOL     OW 4288   6.649   4.245   6.592
 1130SOL    HW1 4289   6.636   4.343   6.575
 1130SOL    HW2 4290   6.647   4.228   6.691
 1131SOL     OW 4291   0.756   5.110   6.352
 1131SOL    HW1 4292   0.769   5.115   6.451
 1131SOL    HW2 4293   0.781   5.197   6.310
 1132SOL     OW 4294   5.115   0.096   5.749
 1132SOL    HW1 4295   5.163   0.182   5.764
 1132SOL    HW2 4296   5.116   0.043   5.834
 1133SOL     OW 4297   0.356   3.445   1.699
 1133SOL    HW1 4298   0.278   3.385   1.682
 1133SOL    HW2 4299   0.353   3.522   1.636
 1134SOL     OW 4300   5.568   3.229   6.019
 1134SOL    HW1 4301   5.585   3.133   6.041
 1134SOL    HW2 4302   5.488   3.261   6.070
 1135SOL     OW 4303   3.776   2.063   3.011
 1135SOL    HW1 4304   3.826   1.978   3.026
 1135SOL    HW2 4305   3.840   2.135   2.983
 1136SOL     OW 4306   3.762   4.973   4.046
 1136SOL    HW1 4307   3.846   4.920   4.062
 1136SOL    HW2 4308   3.785   5.069   4.034
 1137SOL     OW 4309   1.813   1.246   5.780
 1137SOL    HW1 4310   1.822   1.275   5.876
 1137SOL    HW2 4311   1.801   1.326   5.722
 1138SOL     OW 4312   1.044   4.316   5.353
 1138SOL    HW1 4313   1.129   4.287   5.398
 1138SOL    HW2 4314   1.059   4.318   5.254
 1139SOL     OW 4315   1.468   6.275   1.642
 1139SOL    HW1 4316   1.383   6.294   1.690
 1139SOL    HW2 4317   1.497   6.357   1.592
 1140SOL     OW 4318   3.449   1.850   3.538
 1140SOL    HW1 4319   3.409   1.773   3.489
 1140SOL    HW2 4320   3.488   1.817   3.624
 1141SOL     OW 4321   6.828   5.631   5.643
 1141SOL    HW1 4322   6.869   5.714   5.680
 1141SOL    HW2 4323   6.872   5.551   5.684
 1142SOL     OW 4324   6.457   0.825   4.129
 1142SOL    HW1 4325   6.467   0.801   4.032
 1142SOL    HW2 4326   6.462   0.924   4.140
 1143SOL     OW 4327   4.132   2.037   3.149
 1143SOL    HW1 4328   4.055   1.978   3.121
 1143SOL    HW2 4329   4.188   2.058   3.069
 1144SOL     OW 4330   0.115   6.112   5.147
 1144SOL    HW1 4331   0.020   6.083   5.152
 1144SOL    HW2 4332   0.130   6.165   5.063
 1145SOL     OW 4333   0.855   5.338   5.084
 1145SOL    HW1 4334   0.879   5.408   5.016
 1145SOL    HW2 4335   0.839   5.251   5.037
 1146SOL     OW 4336   5.605   2.195   0.621
 1146SOL    HW1 4337   5.645   2.103   0.623
 1146SOL    HW2 4338   5.581   2.218   0.527
 1147SOL     OW 4339   6.413   2.398   1.516
 1147SOL    HW1 4340   6.318   2.370   1.513
 1147SOL    HW2 4341   6.470   2.320   1.542
 1148SOL     OW 4342   3.942   0.359   0.712
 1148SOL    HW1 4343   3.854   0.398   0.738
 1148SOL    HW2 4344   3.929   0.266   0.679
 1149SOL     OW 4345   6.770   3.560   2.351
 1149SOL    HW1 4346   6.836   3.558   2.275
 1149SOL    HW2 4347   6.740   3.467   2.371
 1150SOL     OW 4348   1.450   4.662   6.490
 1150SOL    HW1 4349   1.542   4.697   6.473
 1150SOL    HW2 4350   1.395   4.673   6.407
 1151SOL     OW 4351   4.726   5.156   0.109
 1151SOL    HW1 4352   4.784   5.121   0.036
 1151SOL    HW2 4353   4.782   5.196   0.180
 1152SOL     OW 4354   0.588   0.166   4.720
 1152SOL    HW1 4355   0.538   0.212   4.793
 1152SOL    HW2 4356   0.650   0.098   4.760
 1153SOL     OW 4357   2.239   5.305   2.345
 1153SOL    HW1 4358   2.320   5.249   2.362
 1153SOL    HW2 4359   2.248   5.391   2.395
 1154SOL     OW 4360   1.578   5.211   1.441
 1154SOL    HW1 4361   1.665   5.183   1.482
 1154SOL    HW2 4362   1.551   5.300   1.477
 1155SOL     OW 4363   3.512   5.818   2.058
 1155SOL    HW1 4364   3.549   5.858   2.141
 1155SOL    HW2 4365   3.456   5.885   2.010
 1156SOL     OW 4366   2.386   0.517   4.474
 1156SOL    HW1 4367   2.381   0.504   4.375
 1156SOL    HW2 4368   2.347   0.606   4.498
 1157SOL     OW 4369   0.951   2.922   3.838
 1157SOL    HW1 4370   0.991   2.891   3.924
 1157SOL    HW2 4371   0.857   2.890   3.831
 1158SOL     OW 4372   4.717   5.419   5.205
 1158SOL    HW1 4373   4.722   5.346   5.137
 1158SOL    HW2 4374   4.645   5.399   5.271
 1159SOL     OW 4375   5.127   4.976   3.252
 1159SOL    HW1 4376   5.113   5.068   3.288
 1159SOL    HW2 4377   5.222   4.967   3.221
 1160SOL     OW 4378   3.123   3.618   0.289
 1160SOL    HW1 4379   3.193   3.564   0.241
 1160SOL    HW2 4380   3.094   3.568   0.371
 1161SOL     OW 4381   5.040   0.326   3.908
 1161SOL    HW1 4382   5.124   0.298   3.861
 1161SOL    HW2 4383   5.044   0.424   3.928
 1162SOL     OW 4384   3.660   4.202   1.840
 1162SOL    HW1 4385   3.654   4.268   1.915
 1162SOL    HW2 4386   3.695   4.115   1.875
 1163SOL     OW 4387   4.926   2.660   2.919
 1163SOL    HW1 4388   4.932   2.585   2.852
 1163SOL    HW2 4389   4.853   2.722   2.892
 1164SOL     OW 4390   5.845   3.200   3.517
 1164SOL    HW1 4391   5.902   3.277   3.544
 1164SOL    HW2 4392   5.864   3.177   3.421
 1165SOL     OW 4393   1.265   5.083   2.264
 1165SOL    HW1 4394   1.313   5.159   2.308
 1165SOL    HW2 4395   1.328   5.005   2.254
 1166SOL     OW 4396   3.892   2.999   6.783
 1166SOL    HW1 4397   3.966   2.941   6.817
 1166SOL    HW2 4398   3.813   2.943   6.758
 1167SOL     OW 4399   4.933   1.206   5.152
 1167SOL    HW1 4400   4.919   1.189   5.249
 1167SOL    HW2 4401   5.013   1.266   5.139
 1168SOL     OW 4402   5.828   6.209   3.697
 1168SOL    HW1 4403   5.813   6.126   3.751
 1168SOL    HW2 4404   5.925   6.216   3.673
 1169SOL     OW 4405   1.036   3.522   1.918
 1169SOL    HW1 4406   1.124   3.563   1.895
 1169SOL    HW2 4407   0.991   3.577   1.988
 1170SOL     OW 4408   2.971   0.270   1.105
 1170SOL    HW1 4409   2.955   0.181   1.062
 1170SOL    HW2 4410   2.907   0.282   1.180
 1171SOL     OW 4411   2.059   6.419   0.394
 1171SOL    HW1 4412   1.993   6.471   0.447
 1171SOL    HW2 4413   2.124   6.375   0.456
 1172SOL     OW 4414   3.044   3.540   5.288
 1172SOL    HW1 4415   3.029   3.562   5.385
 1172SOL    HW2 4416   2.990   3.460   5.263
 1173SOL     OW 4417   4.249   0.726   6.222
 1173SOL    HW1 4418   4.244   0.825   6.235
 1173SOL    HW2 4419   4.309   0.686   6.292
 1174SOL     OW 4420   3.233   6.209   0.830
 1174SOL    HW1 4421   3.180   6.279   0.782
 1174SOL    HW2 4422   3.226   6.122   0.780
 1175SOL     OW 4423   6.131   4.771   5.855
 1175SOL    HW1 4424   6.081   4.702   5.908
 1175SOL    HW2 4425   6.087   4.783   5.766
 1176SOL     OW 4426   6.081   4.184   0.757
 1176SOL    HW1 4427   6.103   4.123   0.833
 1176SOL    HW2 4428   6.153   4.253   0.748
 1177SOL     OW 4429   6.190   2.484   6.752
 1177SOL    HW1 4430   6.128   2.456   6.679
 1177SOL    HW2 4431   6.170   2.578   6.779
 1178SOL     OW 4432   5.473   4.558   1.945
 1178SOL    HW1 4433   5.531   4.635   1.920
 1178SOL    HW2 4434   5.456   4.561   2.044
 1179SOL     OW 4435   2.732   5.900   6.263
 1179SOL    HW1 4436   2.719   5.857   6.353
 1179SOL    HW2 4437   2.830   5.917   6.249
 1180SOL     OW 4438   2.306   1.799   4.318
 1180SOL    HW1 4439   2.381   1.817   4.254
 1180SOL    HW2 4440   2.333   1.728   4.382
 1181SOL     OW 4441   2.399   4.447   2.834
 1181SOL    HW1 4442   2.338   4.406   2.902
 1181SOL    HW2 4443   2.397   4.393   2.751
 1182SOL     OW 4444   1.493   4.170   3.241
 1182SOL    HW1 4445   1.555   4.129   3.174
 1182SOL    HW2 4446   1.417   4.108   3.259
 1183SOL     OW 4447   4.772   5.898   1.453
 1183SOL    HW1 4448   4.826   5.834   1.507
 1183SOL    HW2 4449   4.743   5.853   1.368
 1184SOL     OW 4450   3.076   3.039   5.268
 1184SOL    HW1 4451   3.023   2.971   5.318
 1184SOL    HW2 4452   3.151   2.994   5.221
 1185SOL     OW 4453   1.992   1.272   6.601
 1185SOL    HW1 4454   2.031   1.217   6.675
 1185SOL    HW2 4455   1.975   1.365   6.634
 1186SOL     OW 4456   4.373   1.548   4.915
 1186SOL    HW1 4457   4.397   1.595   4.829
 1186SOL    HW2 4458   4.429   1.467   4.925
 1187SOL     OW 4459   6.979   0.790   5.333
 1187SOL    HW1 4460   6.917   0.733   5.387
 1187SOL    HW2 4461   6.992   0.749   5.243
 1188SOL     OW 4462   1.132   7.023   5.787
 1188SOL    HW1 4463   1.224   6.984   5.788
 1188SOL    HW2 4464   1.115   0.045   5.700
 1189SOL     OW 4465   6.061   1.176   1.568
 1189SOL    HW1 4466   6.009   1.139   1.644
 1189SOL    HW2 4467   6.152   1.134   1.567
 1190SOL     OW 4468   4.162   5.047   3.212
 1190SOL    HW1 4469   4.118   5.089   3.291
 1190SOL    HW2 4470   4.096   5.040   3.137
 1191SOL     OW 4471   3.521   5.238   6.702
 1191SOL    HW1 4472   3.585   5.290   6.758
 1191SOL    HW2 4473   3.491   5.294   6.625
 1192SOL     OW 4474   4.891   5.240   2.593
 1192SOL    HW1 4475   4.903   5.267   2.688
 1192SOL    HW2 4476   4.793   5.235   2.572
 1193SOL     OW 4477   4.294   0.338   3.560
 1193SOL    HW1 4478   4.386   0.379   3.556
 1193SOL    HW2 4479   4.256   0.353   3.651
 1194SOL     OW 4480   5.981   0.348   0.792
 1194SOL    HW1 4481   5.967   0.250   0.805
 1194SOL    HW2 4482   5.932   0.399   0.862
 1195SOL     OW 4483   4.436   0.686   6.410
 1195SOL    HW1 4484   4.397   0.629   6.482
 1195SOL    HW2 4485   4.428   0.783   6.435
 1196SOL     OW 4486   0.582   5.331   2.467
 1196SOL    HW1 4487   0.501   5.313   2.411
 1196SOL    HW2 4488   0.642   5.251   2.465
 1197SOL     OW 4489   3.041   5.031   6.192
 1197SOL    HW1 4490   3.103   4.958   6.163
 1197SOL    HW2 4491   2.968   4.993   6.248
 1198SOL     OW 4492   3.027   1.723   2.822
 1198SOL    HW1 4493   3.045   1.775   2.906
 1198SOL    HW2 4494   3.022   1.625   2.843
 1199SOL     OW 4495   3.796   3.852   2.971
 1199SOL    HW1 4496   3.725   3.820   2.908
 1199SOL    HW2 4497   3.885   3.815   2.943
 1200SOL     OW 4498   3.245   4.365   6.963
 1200SOL    HW1 4499   3.212   4.454   6.995
 1200SOL    HW2 4500   3.340   4.374   6.933
 1201SOL     OW 4501   1.270   0.622   5.156
 1201SOL    HW1 4502   1.176   0.609   5.186
 1201SOL    HW2 4503   1.304   0.710   5.189
 1202SOL     OW 4504   6.057   6.778   4.846
 1202SOL    HW1 4505   6.103   6.690   4.860
 1202SOL    HW2 4506   6.062   6.803   4.749
 1203SOL     OW 4507   6.036   0.182   1.799
 1203SOL    HW1 4508   6.130   0.175   1.833
 1203SOL    HW2 4509   6.016   0.277   1.776
 1204SOL     OW 4510   3.072   0.140   0.664
 1204SOL    HW1 4511   3.099   0.231   0.634
 1204SOL    HW2 4512   2.992   0.147   0.723
 1205SOL     OW 4513   0.600   2.736   5.717
 1205SOL    HW1 4514   0.621   2.781   5.630
 1205SOL    HW2 4515   0.673   2.672   5.740
 1206SOL     OW 4516   1.281   1.327   4.628
 1206SOL    HW1 4517   1.200   1.375   4.660
 1206SOL    HW2 4518   1.361   1.386   4.640
 1207SOL     OW 4519   5.662   6.484   6.741
 1207SOL    HW1 4520   5.676   6.416   6.669
 1207SOL    HW2 4521   5.730   6.557   6.733
 1208SOL     OW 4522   3.893   3.101   3.583
 1208SOL    HW1 4523   3.828   3.161   3.629
 1208SOL    HW2 4524   3.844   3.033   3.529
 1209SOL     OW 4525   6.150   5.320   4.350
 1209SOL    HW1 4526   6.121   5.258   4.423
 1209SOL    HW2 4527   6.163   5.268   4.265
 1210SOL     OW 4528   3.443   6.839   2.631
 1210SOL    HW1 4529   3.522   6.842   2.692
 1210SOL    HW2 4530   3.415   6.933   2.609
 1211SOL     OW 4531   0.873   4.022   4.755
 1211SOL    HW1 4532   0.802   3.964   4.796
 1211SOL    HW2 4533   0.932   4.058   4.826
 1212SOL     OW 4534   2.156   3.927   4.532
 1212SOL    HW1 4535   2.219   3.910   4.456
 1212SOL    HW2 4536   2.062   3.920   4.500
 1213SOL     OW 4537   5.791   2.515   5.440
 1213SOL    HW1 4538   5.700   2.507   5.399
 1213SOL    HW2 4539   5.792   2.591   5.506
 1214SOL     OW 4540   2.313   2.607   3.384
 1214SOL    HW1 4541   2.302   2.700   3.350
 1214SOL    HW2 4542   2.225   2.559   3.381
 1215SOL     OW 4543   0.663   4.996   1.858
 1215SOL    HW1 4544   0.665   5.034   1.766
 1215SOL    HW2 4545   0.721   5.051   1.918
 1216SOL     OW 4546   2.681   0.098   2.110
 1216SOL    HW1 4547   2.640   0.189   2.114
 1216SOL    HW2 4548   2.780   0.107   2.107
 1217SOL     OW 4549   1.341   0.815   2.285
 1217SOL    HW1 4550   1.286   0.822   2.202
 1217SOL    HW2 4551   1.281   0.794   2.363
 1218SOL     OW 4552   0.674   3.590   3.523
 1218SOL    HW1 4553   0.692   3.614   3.428
 1218SOL    HW2 4554   0.587   3.542   3.530
 1219SOL     OW 4555   3.142   6.253   2.446
 1219SOL    HW1 4556   3.086   6.226   2.524
 1219SOL    HW2 4557   3.095   6.324   2.394
 1220SOL     OW 4558   6.425   3.345   2.817
 1220SOL    HW1 4559   6.514   3.351   2.862
 1220SOL    HW2 4560   6.358   3.400   2.867
 1221SOL     OW 4561   4.697   3.166   0.215
 1221SOL    HW1 4562   4.647   3.252   0.202
 1221SOL    HW2 4563   4.663   3.120   0.297
 1222SOL     OW 4564   6.633   6.054   1.258
 1222SOL    HW1 4565   6.616   6.133   1.200
 1222SOL    HW2 4566   6.669   5.979   1.203
 1223SOL     OW 4567   6.116   6.206   5.205
 1223SOL    HW1 4568   6.080   6.128   5.257
 1223SOL    HW2 4569   6.118   6.287   5.263
 1224SOL     OW 4570   5.681   5.168   1.872
 1224SOL    HW1 4571   5.760   5.209   1.826
 1224SOL    HW2 4572   5.597   5.193   1.823
 1225SOL     OW 4573   5.056   1.848   6.886
 1225SOL    HW1 4574   5.017   1.911   6.953
 1225SOL    HW2 4575   5.095   1.900   6.810
 1226SOL     OW 4576   5.506   5.185   0.775
 1226SOL    HW1 4577   5.472   5.274   0.807
 1226SOL    HW2 4578   5.565   5.198   0.696
 1227SOL     OW 4579   4.875   4.065   6.541
 1227SOL    HW1 4580   4.934   4.023   6.610
 1227SOL    HW2 4581   4.836   4.149   6.577
 1228SOL     OW 4582   3.789   3.395   3.394
 1228SOL    HW1 4583   3.869   3.427   3.343
 1228SOL    HW2 4584   3.816   3.320   3.454
 1229SOL     OW 4585   1.913   5.444   2.858
 1229SOL    HW1 4586   1.950   5.380   2.925
 1229SOL    HW2 4587   1.978   5.519   2.844
 1230SOL     OW 4588   5.685   4.650   1.637
 1230SOL    HW1 4589   5.683   4.678   1.541
 1230SOL    HW2 4590   5.773   4.674   1.677
 1231SOL     OW 4591   1.795   1.808   6.531
 1231SOL    HW1 4592   1.868   1.877   6.529
 1231SOL    HW2 4593   1.802   1.756   6.616
 1232SOL     OW 4594   3.091   0.592   5.616
 1232SOL    HW1 4595   3.053   0.506   5.651
 1232SOL    HW2 4596   3.191   0.584   5.609
 1233SOL     OW 4597   1.217   5.550   5.422
 1233SOL    HW1 4598   1.150   5.492   5.376
 1233SOL    HW2 4599   1.279   5.493   5.476
 1234SOL     OW 4600   0.438   3.345   0.541
 1234SOL    HW1 4601   0.349   3.319   0.503
 1234SOL    HW2 4602   0.436   3.334   0.640
 1235SOL     OW 4603   6.214   4.696   1.244
 1235SOL    HW1 4604   6.238   4.610   1.199
 1235SOL    HW2 4605   6.207   4.769   1.176
 1236SOL     OW 4606   1.910   1.345   2.642
 1236SOL    HW1 4607   1.839   1.278   2.619
 1236SOL    HW2 4608   1.998   1.300   2.651
 1237SOL     OW 4609   0.454   0.083   5.136
 1237SOL    HW1 4610   0.505   0.136   5.204
 1237SOL    HW2 4611   0.379   0.138   5.099
 1238SOL     OW 4612   0.323   0.617   4.329
 1238SOL    HW1 4613   0.287   0.559   4.402
 1238SOL    HW2 4614   0.303   0.574   4.240
 1239SOL     OW 4615   5.372   5.215   4.956
 1239SOL    HW1 4616   5.376   5.178   4.863
 1239SOL    HW2 4617   5.337   5.145   5.018
 1240SOL     OW 4618   6.905   4.141   2.682
 1240SOL    HW1 4619   6.812   4.133   2.718
 1240SOL    HW2 4620   6.938   4.234   2.696
 1241SOL     OW 4621   4.931   4.844   5.180
 1241SOL    HW1 4622   4.918   4.942   5.163
 1241SOL    HW2 4623   4.857   4.792   5.137
 1242SOL     OW 4624   1.286   5.060   0.056
 1242SOL    HW1 4625   1.383   5.055   0.078
 1242SOL    HW2 4626   1.272   5.127   7.008
 1243SOL     OW 4627   1.235   4.201   4.717
 1243SOL    HW1 4628   1.257   4.123   4.775
 1243SOL    HW2 4629   1.179   4.267   4.767
 1244SOL     OW 4630   5.952   0.208   5.381
 1244SOL    HW1 4631   5.985   0.114   5.373
 1244SOL    HW2 4632   5.952   0.252   5.291
 1245SOL     OW 4633   4.784   6.919   0.662
 1245SOL    HW1 4634   4.687   6.920   0.638
 1245SOL    HW2 4635   4.833   6.986   0.607
 1246SOL     OW 4636   5.154   0.810   0.054
 1246SOL    HW1 4637   5.129   0.819   6.981
 1246SOL    HW2 4638   5.071   0.799   0.108
 1247SOL     OW 4639   6.671   0.064   3.142
 1247SOL    HW1 4640   6.765   0.082   3.172
 1247SOL    HW2 4641   6.626   0.151   3.122
 1248SOL     OW 4642   1.391   6.538   4.230
 1248SOL    HW1 4643   1.355   6.584   4.149
 1248SOL    HW2 4644   1.336   6.456   4.249
 1249SOL     OW 4645   5.619   5.692   6.915
 1249SOL    HW1 4646   5.591   5.663   7.007
 1249SOL    HW2 4647   5.571   5.637   6.847
 1250SOL     OW 4648   6.759   3.127   4.992
 1250SOL    HW1 4649   6.834   3.096   4.934
 1250SOL    HW2 4650   6.783   3.116   5.088
 1251SOL     OW 4651   3.039   0.703   2.766
 1251SOL    HW1 4652   2.970   0.775   2.755
 1251SOL    HW2 4653   3.089   0.692   2.680
 1252SOL     OW 4654   1.810   6.302   6.580
 1252SOL    HW1 4655   1.814   6.357   6.496
 1252SOL    HW2 4656   1.817   6.205   6.556
 1253SOL     OW 4657   3.235   0.835   0.682
 1253SOL    HW1 4658   3.243   0.801   0.588
 1253SOL    HW2 4659   3.286   0.776   0.744
 1254SOL     OW 4660   5.940   0.680   2.514
 1254SOL    HW1 4661   5.884   0.745   2.566
 1254SOL    HW2 4662   5.970   0.606   2.574
 1255SOL     OW 4663   5.775   1.588   5.590
 1255SOL    HW1 4664   5.873   1.581   5.569
 1255SOL    HW2 4665   5.722   1.547   5.516
 1256SOL     OW 4666   1.176   5.284   4.041
 1256SOL    HW1 4667   1.248   5.221   4.013
 1256SOL    HW2 4668   1.103   5.233   4.086
 1257SOL     OW 4669   0.808   6.616   4.232
 1257SOL    HW1 4670   0.902   6.648   4.237
 1257SOL    HW2 4671   0.766   6.620   4.323
 1258SOL     OW 4672   4.529   6.453   4.767
 1258SOL    HW1 4673   4.563   6.473   4.675
 1258SOL    HW2 4674   4.442   6.500   4.782
 1259SOL     OW 4675   6.240   0.255   4.373
 1259SOL    HW1 4676   6.199   0.330   4.321
 1259SOL    HW2 4677   6.340   0.262   4.368
 1260SOL     OW 4678   2.363   0.932   1.731
 1260SOL    HW1 4679   2.463   0.927   1.738
 1260SOL    HW2 4680   2.339   0.963   1.639
 1261SOL     OW 4681   6.177   4.128   6.069
 1261SOL    HW1 4682   6.106   4.184   6.025
 1261SOL    HW2 4683   6.264   4.141   6.020
 1262SOL     OW 4684   4.230   5.017   0.654
 1262SOL    HW1 4685   4.146   4.962   0.659
 1262SOL    HW2 4686   4.276   5.000   0.567
 1263SOL     OW 4687   6.699   2.138   1.331
 1263SOL    HW1 4688   6.730   2.052   1.290
 1263SOL    HW2 4689   6.777   2.198   1.347
 1264SOL     OW 4690   0.435   3.469   3.576
 1264SOL    HW1 4691   0.364   3.434   3.638
 1264SOL    HW2 4692   0.410   3.446   3.481
 1265SOL     OW 4693   6.715   5.501   4.769
 1265SOL    HW1 4694   6.742   5.437   4.841
 1265SOL    HW2 4695   6.794   5.525   4.713
 1266SOL     OW 4696   1.949   1.847   4.658
 1266SOL    HW1 4697   2.007   1.765   4.650
 1266SOL    HW2 4698   1.938   1.888   4.568
 1267SOL     OW 4699   0.015   5.172   2.464
 1267SOL    HW1 4700   0.022   5.128   2.554
 1267SOL    HW2 4701   0.090   5.237   2.453
 1268SOL     OW 4702   6.521   3.257   0.135
 1268SOL    HW1 4703   6.562   3.329   0.191
 1268SOL    HW2 4704   6.435   3.227   0.176
 1269SOL     OW 4705   0.015   5.884   5.615
 1269SOL    HW1 4706   6.966   5.926   5.561
 1269SOL    HW2 4707   0.091   5.949   5.623
 1270SOL     OW 4708   1.742   3.194   4.619
 1270SOL    HW1 4709   1.752   3.228   4.526
 1270SOL    HW2 4710   1.669   3.246   4.665
 1271SOL     OW 4711   4.886   0.883   3.174
 1271SOL    HW1 4712   4.864   0.941   3.252
 1271SOL    HW2 4713   4.884   0.787   3.203
 1272SOL     OW 4714   0.645   6.420   1.574
 1272SOL    HW1 4715   0.577   6.465   1.632
 1272SOL    HW2 4716   0.732   6.412   1.623
 1273SOL     OW 4717   2.899   6.550   6.201
 1273SOL    HW1 4718   2.887   6.484   6.127
 1273SOL    HW2 4719   2.838   6.527   6.277
 1274SOL     OW 4720   0.131   2.442   1.696
 1274SOL    HW1 4721   0.170   2.486   1.616
 1274SOL    HW2 4722   0.083   2.510   1.751
 1275SOL     OW 4723   3.194   2.132   4.250
 1275SOL    HW1 4724   3.260   2.132   4.325
 1275SOL    HW2 4725   3.239   2.159   4.165
 1276SOL     OW 4726   6.579   0.280   3.512
 1276SOL    HW1 4727   6.528   0.366   3.516
 1276SOL    HW2 4728   6.645   0.277   3.587
 1277SOL     OW 4729   0.346   0.800   4.945
 1277SOL    HW1 4730   0.373   0.839   5.033
 1277SOL    HW2 4731   0.339   0.874   4.877
 1278SOL     OW 4732   1.978   1.621   5.986
 1278SOL    HW1 4733   1.970   1.692   6.055
 1278SOL    HW2 4734   2.064   1.571   5.999
 1279SOL     OW 4735   2.703   5.556   6.866
 1279SOL    HW1 4736   2.797   5.588   6.874
 1279SOL    HW2 4737   2.657   5.566   6.954
 1280SOL     OW 4738   1.920   0.066   3.429
 1280SOL    HW1 4739   1.934   0.123   3.348
 1280SOL    HW2 4740   1.979   7.009   3.423
 1281SOL     OW 4741   1.157   6.116   3.437
 1281SOL    HW1 4742   1.072   6.065   3.421
 1281SOL    HW2 4743   1.136   6.204   3.480
 1282SOL     OW 4744   0.396   0.583   1.913
 1282SOL    HW1 4745   0.400   0.564   2.011
 1282SOL    HW2 4746   0.397   0.497   1.862
 1283SOL     OW 4747   5.380   5.463   6.198
 1283SOL    HW1 4748   5.334   5.377   6.221
 1283SOL    HW2 4749   5.356   5.532   6.265
 1284SOL     OW 4750   2.655   2.320   1.918
 1284SOL    HW1 4751   2.600   2.339   1.999
 1284SOL    HW2 4752   2.724   2.390   1.906
 1285SOL     OW 4753   4.394   2.371   5.464
 1285SOL    HW1 4754   4.305   2.375   5.509
 1285SOL    HW2 4755   4.458   2.431   5.512
 1286SOL     OW 4756   6.233   5.175   1.631
 1286SOL    HW1 4757   6.179   5.133   1.704
 1286SOL    HW2 4758   6.302   5.110   1.600
 1287SOL     OW 4759   6.999   5.310   6.694
 1287SOL    HW1 4760   6.948   5.306   6.780
 1287SOL    HW2 4761   6.964   5.386   6.639
 1288SOL     OW 4762   6.336   3.270   2.184
 1288SOL    HW1 4763   6.244   3.298   2.210
 1288SOL    HW2 4764   6.379   3.341   2.129
 1289SOL     OW 4765   0.630   5.861   2.529
 1289SOL    HW1 4766   0.701   5.906   2.584
 1289SOL    HW2 4767   0.558   5.826   2.589
 1290SOL     OW 4768   0.723   6.333   1.331
 1290SOL    HW1 4769   0.683   6.359   1.418
 1290SOL    HW2 4770   0.775   6.410   1.294
 1291SOL     OW 4771   2.352   6.224   6.751
 1291SOL    HW1 4772   2.413   6.180   6.817
 1291SOL    HW2 4773   2.286   6.157   6.717
 1292SOL     OW 4774   0.997   6.033   0.545
 1292SOL    HW1 4775   0.978   6.113   0.602
 1292SOL    HW2 4776   1.095   6.028   0.525
 1293SOL     OW 4777   7.019   2.163   6.287
 1293SOL    HW1 4778   0.073   2.226   6.290
 1293SOL    HW2 4779   7.004   2.133   6.193
 1294SOL     OW 4780   1.072   2.207   2.185
 1294SOL    HW1 4781   0.974   2.192   2.196
 1294SOL    HW2 4782   1.105   2.264   2.260
 1295SOL     OW 4783   6.360   3.095   1.303
 1295SOL    HW1 4784   6.423   3.062   1.373
 1295SOL    HW2 4785   6.346   3.193   1.314
 1296SOL     OW 4786   3.551   1.880   5.846
 1296SOL    HW1 4787   3.599   1.863   5.932
 1296SOL    HW2 4788   3.615   1.874   5.770
 1297SOL     OW 4789   6.184   1.373   5.914
 1297SOL    HW1 4790   6.242   1.420   5.848
 1297SOL    HW2 4791   6.095   1.353   5.873
 1298SOL     OW 4792   5.329   2.938   2.980
 1298SOL    HW1 4793   5.345   3.032   3.010
 1298SOL    HW2 4794   5.238   2.909   3.008
 1299SOL     OW 4795   0.833   4.180   4.091
 1299SOL    HW1 4796   0.863   4.231   4.172
 1299SOL    HW2 4797   0.911   4.135   4.048
 1300SOL     OW 4798   3.067   3.278   1.476
 1300SOL    HW1 4799   3.002   3.211   1.510
 1300SOL    HW2 4800   3.154   3.269   1.525
 1301SOL     OW 4801   1.247   0.245   3.387
 1301SOL    HW1 4802   1.239   0.156   3.342
 1301SOL    HW2 4803   1.210   0.240   3.480
 1302SOL     OW 4804   3.246   6.234   5.106
 1302SOL    HW1 4805   3.181   6.184   5.163
 1302SOL    HW2 4806   3.264   6.181   5.023
 1303SOL     OW 4807   3.806   1.712   1.072
 1303SOL    HW1 4808   3.726   1.654   1.058
 1303SOL    HW2 4809   3.780   1.791   1.127
 1304SOL     OW 4810   3.118   0.704   0.158
 1304SOL    HW1 4811   3.043   0.729   0.096
 1304SOL    HW2 4812   3.108   0.609   0.186
 1305SOL     OW 4813   4.606   6.859   5.002
 1305SOL    HW1 4814   4.575   6.773   5.043
 1305SOL    HW2 4815   4.699   6.879   5.034
 1306SOL     OW 4816   0.655   4.499   4.442
 1306SOL    HW1 4817   0.561   4.469   4.424
 1306SOL    HW2 4818   0.718   4.426   4.416
 1307SOL     OW 4819   1.254   2.195   4.628
 1307SOL    HW1 4820   1.310   2.266   4.584
 1307SOL    HW2 4821   1.297   2.106   4.616
 1308SOL     OW 4822   4.773   5.861   3.298
 1308SOL    HW1 4823   4.823   5.857   3.384
 1308SOL    HW2 4824   4.733   5.952   3.287
 1309SOL     OW 4825   6.282   2.647   4.467
 1309SOL    HW1 4826   6.229   2.616   4.546
 1309SOL    HW2 4827   6.380   2.635   4.485
 1310SOL     OW 4828   5.200   3.571   4.976
 1310SOL    HW1 4829   5.196   3.512   5.057
 1310SOL    HW2 4830   5.121   3.553   4.918
 1311SOL     OW 4831   6.176   5.780   5.207
 1311SOL    HW1 4832   6.099   5.744   5.154
 1311SOL    HW2 4833   6.145   5.860   5.259
 1312SOL     OW 4834   0.661   6.451   0.445
 1312SOL    HW1 4835   0.752   6.475   0.410
 1312SOL    HW2 4836   0.630   6.368   0.399
 1313SOL     OW 4837   3.487   5.277   4.835
 1313SOL    HW1 4838   3.425   5.275   4.756
 1313SOL    HW2 4839   3.536   5.364   4.837
 1314SOL     OW 4840   0.198   1.847   4.987
 1314SOL    HW1 4841   0.151   1.882   5.068
 1314SOL    HW2 4842   0.275   1.907   4.965
 1315SOL     OW 4843   2.459   1.383   2.582
 1315SOL    HW1 4844   2.497   1.475   2.590
 1315SOL    HW2 4845   2.528   1.320   2.547
 1316SOL     OW 4846   3.066   6.534   3.041
 1316SOL    HW1 4847   2.990   6.478   3.074
 1316SOL    HW2 4848   3.075   6.523   2.942
 1317SOL     OW 4849   7.008   5.712   3.854
 1317SOL    HW1 4850   6.974   5.623   3.822
 1317SOL    HW2 4851   0.084   5.709   3.857
 1318SOL     OW 4852   0.286   6.573   0.461
 1318SOL    HW1 4853   0.304   6.540   0.554
 1318SOL    HW2 4854   0.305   6.671   0.456
 1319SOL     OW 4855   6.363   1.140   6.544
 1319SOL    HW1 4856   6.286   1.181   6.594
 1319SOL    HW2 4857   6.333   1.057   6.498
 1320SOL     OW 4858   5.323   5.644   6.411
 1320SOL    HW1 4859   5.251   5.629   6.478
 1320SOL    HW2 4860   5.314   5.736   6.372
 1321SOL     OW 4861   3.321   2.720   6.767
 1321SOL    HW1 4862   3.271   2.644   6.808
 1321SOL    HW2 4863   3.375   2.767   6.837
 1322SOL     OW 4864   6.251   1.451   4.212
 1322SOL    HW1 4865   6.330   1.391   4.228
 1322SOL    HW2 4866   6.223   1.445   4.117
 1323SOL     OW 4867   6.561   1.692   4.954
 1323SOL    HW1 4868   6.540   1.779   4.908
 1323SOL    HW2 4869   6.485   1.667   5.013
 1324SOL     OW 4870   1.560   3.577   1.199
 1324SOL    HW1 4871   1.467   3.609   1.215
 1324SOL    HW2 4872   1.625   3.642   1.239
 1325SOL     OW 4873   2.987   5.897   2.320
 1325SOL    HW1 4874   3.059   5.835   2.291
 1325SOL    HW2 4875   2.994   5.912   2.419
 1326SOL     OW 4876   5.440   3.420   4.835
 1326SOL    HW1 4877   5.363   3.356   4.843
 1326SOL    HW2 4878   5.409   3.512   4.857
 1327SOL     OW 4879   3.818   5.323   3.104
 1327SOL    HW1 4880   3.808   5.241   3.161
 1327SOL    HW2 4881   3.837   5.402   3.163
 1328SOL     OW 4882   2.196   2.732   6.541
 1328SOL    HW1 4883   2.219   2.744   6.638
 1328SOL    HW2 4884   2.155   2.643   6.527
 1329SOL     OW 4885   0.620   0.528   0.598
 1329SOL    HW1 4886   0.696   0.589   0.619
 1329SOL    HW2 4887   0.551   0.578   0.546
 1330SOL     OW 4888   5.817   6.650   1.306
 1330SOL    HW1 4889   5.804   6.693   1.396
 1330SOL    HW2 4890   5.906   6.606   1.303
 1331SOL     OW 4891   5.541   0.148   2.408
 1331SOL    HW1 4892   5.592   0.066   2.436
 1331SOL    HW2 4893   5.467   0.165   2.473
 1332SOL     OW 4894   4.429   1.293   1.362
 1332SOL    HW1 4895   4.489   1.336   1.294
 1332SOL    HW2 4896   4.339   1.336   1.358
 1333SOL     OW 4897   3.826   4.282   5.305
 1333SOL    HW1 4898   3.783   4.372   5.308
 1333SOL    HW2 4899   3.882   4.269   5.386
 1334SOL     OW 4900   0.055   3.945   4.454
 1334SOL    HW1 4901   0.082   4.040   4.469
 1334SOL    HW2 4902   0.106   3.886   4.518
 1335SOL     OW 4903   2.684   4.930   3.145
 1335SOL    HW1 4904   2.593   4.900   3.117
 1335SOL    HW2 4905   2.744   4.850   3.156
 1336SOL     OW 4906   0.631   0.440   5.032
 1336SOL    HW1 4907   0.651   0.467   5.126
 1336SOL    HW2 4908   0.642   0.519   4.971
 1337SOL     OW 4909   2.261   1.853   6.246
 1337SOL    HW1 4910   2.340   1.794   6.225
 1337SOL    HW2 4911   2.234   1.840   6.342
 1338SOL     OW 4912   3.914   5.591   0.512
 1338SOL    HW1 4913   3.912   5.520   0.441
 1338SOL    HW2 4914   4.009   5.608   0.539
 1339SOL     OW 4915   6.782   4.067   5.404
 1339SOL    HW1 4916   6.858   4.026   5.355
 1339SOL    HW2 4917   6.702   4.006   5.397
 1340SOL     OW 4918   1.511   1.822   6.825
 1340SOL    HW1 4919   1.464   1.735   6.807
 1340SOL    HW2 4920   1.507   1.842   6.923
 1341SOL     OW 4921   3.566   1.060   3.831
 1341SOL    HW1 4922   3.612   1.002   3.899
 1341SOL    HW2 4923   3.585   1.156   3.850
 1342SOL     OW 4924   0.320   6.294   0.937
 1342SOL    HW1 4925   0.294   6.197   0.934
 1342SOL    HW2 4926   0.379   6.310   1.016
 1343SOL     OW 4927   4.307   5.250   3.465
 1343SOL    HW1 4928   4.223   5.197   3.454
 1343SOL    HW2 4929   4.316   5.313   3.388
 1344SOL     OW 4930   6.249   1.528   2.913
 1344SOL    HW1 4931   6.157   1.560   2.888
 1344SOL    HW2 4932   6.317   1.591   2.876
 1345SOL     OW 4933   0.205   0.361   3.302
 1345SOL    HW1 4934   0.161   0.448   3.276
 1345SOL    HW2 4935   0.135   0.295   3.326
 1346SOL     OW 4936   0.367   0.921   4.068
 1346SOL    HW1 4937   0.455   0.877   4.048
 1346SOL    HW2 4938   0.314   0.930   3.984
 1347SOL     OW 4939   6.073   0.372   3.244
 1347SOL    HW1 4940   6.135   0.359   3.322
 1347SOL    HW2 4941   5.988   0.415   3.277
 1348SOL     OW 4942   5.509   4.676   5.055
 1348SOL    HW1 4943   5.447   4.650   5.130
 1348SOL    HW2 4944   5.570   4.599   5.035
 1349SOL     OW 4945   3.885   3.258   6.814
 1349SOL    HW1 4946   3.876   3.158   6.818
 1349SOL    HW2 4947   3.809   3.296   6.762
 1350SOL     OW 4948   3.012   0.669   6.442
 1350SOL    HW1 4949   2.969   0.759   6.433
 1350SOL    HW2 4950   2.946   0.605   6.482
 1351SOL     OW 4951   0.621   0.690   4.284
 1351SOL    HW1 4952   0.604   0.593   4.268
 1351SOL    HW2 4953   0.543   0.730   4.333
 1352SOL     OW 4954   0.298   0.882   3.570
 1352SOL    HW1 4955   0.352   0.845   3.646
 1352SOL    HW2 4956   0.359   0.904   3.494
 1353SOL     OW 4957   1.334   4.200   4.002
 1353SOL    HW1 4958   1.279   4.274   4.040
 1353SOL    HW2 4959   1.302   4.180   3.909
 1354SOL     OW 4960   0.415   6.505   2.259
 1354SOL    HW1 4961   0.339   6.554   2.218
 1354SOL    HW2 4962   0.479   6.570   2.299
 1355SOL     OW 4963   4.490   2.762   6.914
 1355SOL    HW1 4964   4.493   2.851   6.960
 1355SOL    HW2 4965   4.553   2.762   6.836
 1356SOL     OW 4966   2.987   3.904   2.911
 1356SOL    HW1 4967   3.003   3.922   2.814
 1356SOL    HW2 4968   2.892   3.880   2.926
 1357SOL     OW 4969   2.761   3.060   5.457
 1357SOL    HW1 4970   2.844   3.041   5.509
 1357SOL    HW2 4971   2.704   2.978   5.455
 1358SOL     OW 4972   1.974   1.828   6.169
 1358SOL    HW1 4973   1.927   1.914   6.151
 1358SOL    HW2 4974   2.054   1.845   6.226
 1359SOL     OW 4975   6.024   1.494   0.078
 1359SOL    HW1 4976   6.089   1.558   0.037
 1359SOL    HW2 4977   5.999   1.527   0.169
 1360SOL     OW 4978   3.728   3.767   4.110
 1360SOL    HW1 4979   3.711   3.812   4.022
 1360SOL    HW2 4980   3.681   3.679   4.113
 1361SOL     OW 4981   0.764   6.031   0.385
 1361SOL    HW1 4982   0.831   5.996   0.450
 1361SOL    HW2 4983   0.675   6.041   0.431
 1362SOL     OW 4984   2.485   3.306   6.093
 1362SOL    HW1 4985   2.531   3.265   6.172
 1362SOL    HW2 4986   2.552   3.359   6.040
 1363SOL     OW 4987   5.743   6.321   2.039
 1363SOL    HW1 4988   5.719   6.418   2.034
 1363SOL    HW2 4989   5.675   6.272   2.094
 1364SOL     OW 4990   6.877   3.275   1.767
 1364SOL    HW1 4991   6.784   3.258   1.797
 1364SOL    HW2 4992   6.941   3.234   1.832
 1365SOL     OW 4993   0.797   4.108   6.092
 1365SOL    HW1 4994   0.741   4.116   6.175
 1365SOL    HW2 4995   0.828   4.013   6.082
 1366SOL     OW 4996   6.151   0.984   0.633
 1366SOL    HW1 4997   6.054   0.983   0.658
 1366SOL    HW2 4998   6.204   1.022   0.709
 1367SOL     OW 4999   1.081   5.668   4.536
 1367SOL    HW1 5000   1.135   5.717   4.605
 1367SOL    HW2 5001   1.138   5.651   4.456
 1368SOL     OW 5002   0.786   6.155   5.370
 1368SOL    HW1 5003   0.765   6.252   5.354
 1368SOL    HW2 5004   0.767   6.103   5.286
 1369SOL     OW 5005   2.654   6.601   3.116
 1369SOL    HW1 5006   2.634   6.643   3.204
 1369SOL    HW2 5007   2.735   6.542   3.124
 1370SOL     OW 5008   6.396   2.215   2.916
 1370SOL    HW1 5009   6.467   2.282   2.937
 1370SOL    HW2 5010   6.393   2.198   2.818
 1371SOL     OW 5011   6.212   1.871   5.024
 1371SOL    HW1 5012   6.193   1.966   5.003
 1371SOL    HW2 5013   6.247   1.825   4.943
 1372SOL     OW 5014   6.778   2.389   0.133
 1372SOL    HW1 5015   6.863   2.407   0.183
 1372SOL    HW2 5016   6.773   2.450   0.054
 1373SOL     OW 5017   4.927   2.408   1.536
 1373SOL    HW1 5018   5.003   2.403   1.600
 1373SOL    HW2 5019   4.927   2.328   1.476
 1374SOL     OW 5020   4.204   4.353   6.970
 1374SOL    HW1 5021   4.185   4.401   0.031
 1374SOL    HW2 5022   4.284   4.295   6.981
 1375SOL     OW 5023   5.579   5.703   4.216
 1375SOL    HW1 5024   5.519   5.639   4.170
 1375SOL    HW2 5025   5.558   5.705   4.314
 1376SOL     OW 5026   2.461   5.346   5.855
 1376SOL    HW1 5027   2.408   5.380   5.777
 1376SOL    HW2 5028   2.546   5.399   5.862
 1377SOL     OW 5029   1.457   1.305   3.011
 1377SOL    HW1 5030   1.425   1.222   2.965
 1377SOL    HW2 5031   1.488   1.371   2.943
 1378SOL     OW 5032   4.841   2.457   4.677
 1378SOL    HW1 5033   4.856   2.460   4.578
 1378SOL    HW2 5034   4.771   2.388   4.698
 1379SOL     OW 5035   4.976   5.473   1.453
 1379SOL    HW1 5036   4.965   5.470   1.354
 1379SOL    HW2 5037   4.902   5.420   1.495
 1380SOL     OW 5038   0.059   5.545   1.827
 1380SOL    HW1 5039   0.069   5.448   1.852
 1380SOL    HW2 5040   0.120   5.566   1.750
 1381SOL     OW 5041   5.896   2.478   5.763
 1381SOL    HW1 5042   5.967   2.546   5.744
 1381SOL    HW2 5043   5.871   2.482   5.860
 1382SOL     OW 5044   4.435   2.507   0.311
 1382SOL    HW1 5045   4.418   2.412   0.339
 1382SOL    HW2 5046   4.406   2.568   0.384
 1383SOL     OW 5047   0.150   0.946   2.036
 1383SOL    HW1 5048   0.060   0.956   2.079
 1383SOL    HW2 5049   0.207   1.025   2.058
 1384SOL     OW 5050   5.743   0.875   1.831
 1384SOL    HW1 5051   5.722   0.915   1.743
 1384SOL    HW2 5052   5.676   0.905   1.899
 1385SOL     OW 5053   0.981   5.654   1.918
 1385SOL    HW1 5054   0.913   5.721   1.948
 1385SOL    HW2 5055   0.998   5.588   1.991
 1386SOL     OW 5056   3.108   5.875   4.234
 1386SOL    HW1 5057   3.018   5.838   4.253
 1386SOL    HW2 5058   3.171   5.801   4.212
 1387SOL     OW 5059   3.328   5.600   2.082
 1387SOL    HW1 5060   3.404   5.663   2.069
 1387SOL    HW2 5061   3.292   5.571   1.993
 1388SOL     OW 5062   6.342   0.108   1.476
 1388SOL    HW1 5063   6.356   0.025   1.421
 1388SOL    HW2 5064   6.251   0.104   1.518
 1389SOL     OW 5065   5.970   1.216   2.971
 1389SOL    HW1 5066   5.993   1.119   2.966
 1389SOL    HW2 5067   5.894   1.229   3.035
 1390SOL     OW 5068   6.702   1.809   6.351
 1390SOL    HW1 5069   6.689   1.863   6.268
 1390SOL    HW2 5070   6.789   1.759   6.344
 1391SOL     OW 5071   0.614   2.687   2.992
 1391SOL    HW1 5072   0.633   2.601   2.946
 1391SOL    HW2 5073   0.588   2.756   2.924
 1392SOL     OW 5074   4.970   5.032   5.419
 1392SOL    HW1 5075   4.938   5.046   5.325
 1392SOL    HW2 5076   4.978   4.934   5.438
 1393SOL     OW 5077   4.375   7.009   5.827
 1393SOL    HW1 5078   4.317   6.951   5.768
 1393SOL    HW2 5079   4.466   6.969   5.832
 1394SOL     OW 5080   3.005   5.847   5.598
 1394SOL    HW1 5081   3.078   5.885   5.541
 1394SOL    HW2 5082   2.922   5.836   5.543
 1395SOL     OW 5083   3.745   4.606   5.831
 1395SOL    HW1 5084   3.686   4.549   5.775
 1395SOL    HW2 5085   3.690   4.676   5.878
 1396SOL     OW 5086   5.810   5.903   4.346
 1396SOL    HW1 5087   5.865   5.862   4.418
 1396SOL    HW2 5088   5.730   5.845   4.328
 1397SOL     OW 5089   4.883   6.225   4.569
 1397SOL    HW1 5090   4.802   6.273   4.603
 1397SOL    HW2 5091   4.893   6.243   4.471
 1398SOL     OW 5092   1.305   1.311   5.170
 1398SOL    HW1 5093   1.270   1.277   5.258
 1398SOL    HW2 5094   1.234   1.304   5.101
 1399SOL     OW 5095   3.216   6.137   1.711
 1399SOL    HW1 5096   3.146   6.193   1.668
 1399SOL    HW2 5097   3.178   6.092   1.792
 1400SOL     OW 5098   0.499   0.308   2.119
 1400SOL    HW1 5099   0.431   0.287   2.049
 1400SOL    HW2 5100   0.590   0.308   2.077
 1401SOL     OW 5101   0.284   1.203   4.622
 1401SOL    HW1 5102   0.224   1.147   4.566
 1401SOL    HW2 5103   0.326   1.274   4.565
 1402SOL     OW 5104   6.860   2.845   0.594
 1402SOL    HW1 5105   6.881   2.762   0.542
 1402SOL    HW2 5106   6.762   2.848   0.613
 1403SOL     OW 5107   2.548   6.984   2.292
 1403SOL    HW1 5108   2.590   6.894   2.300
 1403SOL    HW2 5109   2.601   0.017   2.228
 1404SOL     OW 5110   5.553   0.453   7.006
 1404SOL    HW1 5111   5.594   0.435   6.917
 1404SOL    HW2 5112   5.590   0.539   0.019
 1405SOL     OW 5113   1.983   3.812   0.646
 1405SOL    HW1 5114   1.941   3.866   0.718
 1405SOL    HW2 5115   2.022   3.873   0.577
 1406SOL     OW 5116   1.082   4.014   1.464
 1406SOL    HW1 5117   1.166   3.978   1.423
 1406SOL    HW2 5118   1.078   4.113   1.450
 1407SOL     OW 5119   6.606   1.727   2.242
 1407SOL    HW1 5120   6.683   1.663   2.250
 1407SOL    HW2 5121   6.551   1.723   2.326
 1408SOL     OW 5122   5.307   0.873   6.193
 1408SOL    HW1 5123   5.372   0.945   6.216
 1408SOL    HW2 5124   5.256   0.846   6.275
 1409SOL     OW 5125   0.339   0.895   4.388
 1409SOL    HW1 5126   0.323   0.808   4.342
 1409SOL    HW2 5127   0.391   0.956   4.328
 1410SOL     OW 5128   0.662   2.978   6.545
 1410SOL    HW1 5129   0.734   2.957   6.611
 1410SOL    HW2 5130   0.580   3.010   6.593
 1411SOL     OW 5131   1.821   6.768   2.394
 1411SOL    HW1 5132   1.736   6.767   2.446
 1411SOL    HW2 5133   1.863   6.859   2.400
 1412SOL     OW 5134   1.467   2.827   0.323
 1412SOL    HW1 5135   1.491   2.893   0.252
 1412SOL    HW2 5136   1.490   2.735   0.293
 1413SOL     OW 5137   2.354   0.501   4.201
 1413SOL    HW1 5138   2.392   0.593   4.216
 1413SOL    HW2 5139   2.255   0.507   4.196
 1414SOL     OW 5140   2.409   1.766   1.807
 1414SOL    HW1 5141   2.501   1.806   1.809
 1414SOL    HW2 5142   2.414   1.670   1.782
 1415SOL     OW 5143   4.281   6.577   5.086
 1415SOL    HW1 5144   4.191   6.587   5.043
 1415SOL    HW2 5145   4.270   6.550   5.182
 1416SOL     OW 5146   4.299   4.668   2.180
 1416SOL    HW1 5147   4.308   4.755   2.227
 1416SOL    HW2 5148   4.207   4.660   2.142
 1417SOL     OW 5149   2.396   1.814   6.817
 1417SOL    HW1 5150   2.311   1.864   6.801
 1417SOL    HW2 5151   2.470   1.879   6.832
 1418SOL     OW 5152   3.347   4.115   3.022
 1418SOL    HW1 5153   3.356   4.212   3.003
 1418SOL    HW2 5154   3.412   4.089   3.094
 1419SOL     OW 5155   3.752   6.695   4.923
 1419SOL    HW1 5156   3.663   6.650   4.922
 1419SOL    HW2 5157   3.787   6.701   4.830
 1420SOL     OW 5158   1.203   5.885   2.090
 1420SOL    HW1 5159   1.129   5.929   2.140
 1420SOL    HW2 5160   1.218   5.933   2.004
 1421SOL     OW 5161   2.857   2.292   2.481
 1421SOL    HW1 5162   2.794   2.308   2.405
 1421SOL    HW2 5163   2.807   2.301   2.567
 1422SOL     OW 5164   2.155   5.068   1.127
 1422SOL    HW1 5165   2.187   5.088   1.219
 1422SOL    HW2 5166   2.168   5.148   1.069
 1423SOL     OW 5167   4.852   6.814   2.733
 1423SOL    HW1 5168   4.805   6.896   2.765
 1423SOL    HW2 5169   4.799   6.733   2.759
 1424SOL     OW 5170   6.340   4.862   5.265
 1424SOL    HW1 5171   6.307   4.885   5.174
 1424SOL    HW2 5172   6.340   4.944   5.322
 1425SOL     OW 5173   2.013   6.823   4.276
 1425SOL    HW1 5174   2.081   6.894   4.261
 1425SOL    HW2 5175   1.922   6.857   4.251
 1426SOL     OW 5176   1.224   1.478   5.552
 1426SOL    HW1 5177   1.323   1.472   5.559
 1426SOL    HW2 5178   1.182   1.406   5.609
 1427SOL     OW 5179   6.291   0.585   3.733
 1427SOL    HW1 5180   6.273   0.491   3.762
 1427SOL    HW2 5181   6.231   0.647   3.782
 1428SOL     OW 5182   5.593   2.071   7.008
 1428SOL    HW1 5183   5.600   1.971   7.012
 1428SOL    HW2 5184   5.684   2.112   7.017
 1429SOL     OW 5185   6.737   0.552   0.792
 1429SOL    HW1 5186   6.778   0.480   0.849
 1429SOL    HW2 5187   6.644   0.570   0.823
 1430SOL     OW 5188   1.923   4.622   3.790
 1430SOL    HW1 5189   1.935   4.683   3.868
 1430SOL    HW2 5190   2.009   4.573   3.773
 1431SOL     OW 5191   2.655   0.967   1.685
 1431SOL    HW1 5192   2.704   1.047   1.719
 1431SOL    HW2 5193   2.711   0.885   1.699
 1432SOL     OW 5194   2.224   0.698   2.711
 1432SOL    HW1 5195   2.182   0.608   2.726
 1432SOL    HW2 5196   2.255   0.735   2.798
 1433SOL     OW 5197   4.429   0.722   3.920
 1433SOL    HW1 5198   4.453   0.628   3.894
 1433SOL    HW2 5199   4.338   0.724   3.960
 1434SOL     OW 5200   0.468   0.891   5.593
 1434SOL    HW1 5201   0.440   0.873   5.688
 1434SOL    HW2 5202   0.425   0.824   5.533
 1435SOL     OW 5203   5.721   1.599   2.643
 1435SOL    HW1 5204   5.691   1.693   2.621
 1435SOL    HW2 5205   5.697   1.578   2.737
 1436SOL     OW 5206   4.156   3.783   0.391
 1436SOL    HW1 5207   4.217   3.770   0.469
 1436SOL    HW2 5208   4.061   3.777   0.421
 1437SOL     OW 5209   2.825   1.278   2.998
 1437SOL    HW1 5210   2.897   1.338   2.963
 1437SOL    HW2 5211   2.736   1.315   2.973
 1438SOL     OW 5212   3.150   6.865   0.951
 1438SOL    HW1 5213   3.175   6.781   0.999
 1438SOL    HW2 5214   3.069   6.905   0.994
 1439SOL     OW 5215   0.030   5.940   2.189
 1439SOL    HW1 5216   0.064   5.875   2.122
 1439SOL    HW2 5217   0.082   6.025   2.185
 1440SOL     OW 5218   3.054   3.975   0.694
 1440SOL    HW1 5219   3.065   3.885   0.736
 1440SOL    HW2 5220   2.965   3.981   0.649
 1441SOL     OW 5221   5.928   6.674   1.040
 1441SOL    HW1 5222   5.967   6.765   1.052
 1441SOL    HW2 5223   5.862   6.655   1.113
 1442SOL     OW 5224   5.640   5.663   0.361
 1442SOL    HW1 5225   5.648   5.739   0.424
 1442SOL    HW2 5226   5.658   5.577   0.409
 1443SOL     OW 5227   1.338   2.653   2.947
 1443SOL    HW1 5228   1.248   2.633   2.987
 1443SOL    HW2 5229   1.409   2.639   3.016
 1444SOL     OW 5230   6.183   6.150   6.995
 1444SOL    HW1 5231   6.217   6.114   0.058
 1444SOL    HW2 5232   6.245   6.125   6.921
 1445SOL     OW 5233   0.701   3.451   2.284
 1445SOL    HW1 5234   0.752   3.366   2.300
 1445SOL    HW2 5235   0.750   3.528   2.325
 1446SOL     OW 5236   6.540   6.875   6.398
 1446SOL    HW1 5237   6.535   6.799   6.463
 1446SOL    HW2 5238   6.616   6.859   6.334
 1447SOL     OW 5239   6.389   5.023   4.454
 1447SOL    HW1 5240   6.399   5.040   4.356
 1447SOL    HW2 5241   6.321   4.951   4.469
 1448SOL     OW 5242   0.911   2.634   5.653
 1448SOL    HW1 5243   0.976   2.604   5.584
 1448SOL    HW2 5244   0.892   2.731   5.642
 1449SOL     OW 5245   1.731   3.739   4.486
 1449SOL    HW1 5246   1.809   3.800   4.469
 1449SOL    HW2 5247   1.646   3.790   4.475
 1450SOL     OW 5248   1.873   2.109   5.114
 1450SOL    HW1 5249   1.839   2.163   5.191
 1450SOL    HW2 5250   1.890   2.015   5.144
 1451SOL     OW 5251   2.690   6.526   1.920
 1451SOL    HW1 5252   2.770   6.548   1.864
 1451SOL    HW2 5253   2.641   6.449   1.881
 1452SOL     OW 5254   4.784   3.504   5.873
 1452SOL    HW1 5255   4.823   3.468   5.958
 1452SOL    HW2 5256   4.718   3.577   5.894
 1453SOL     OW 5257   0.526   4.159   5.564
 1453SOL    HW1 5258   0.616   4.121   5.543
 1453SOL    HW2 5259   0.523   4.188   5.660
 1454SOL     OW 5260   2.830   2.000   3.611
 1454SOL    HW1 5261   2.732   2.001   3.590
 1454SOL    HW2 5262   2.881   1.973   3.529
 1455SOL     OW 5263   1.275   5.691   2.258
 1455SOL    HW1 5264   1.220   5.680   2.341
 1455SOL    HW2 5265   1.244   5.770   2.207
 1456SOL     OW 5266   6.295   5.405   5.986
 1456SOL    HW1 5267   6.346   5.438   5.906
 1456SOL    HW2 5268   6.330   5.315   6.013
 1457SOL     OW 5269   0.683   4.131   6.470
 1457SOL    HW1 5270   0.588   4.120   6.498
 1457SOL    HW2 5271   0.739   4.059   6.511
 1458SOL     OW 5272   6.013   5.074   5.497
 1458SOL    HW1 5273   5.961   5.159   5.510
 1458SOL    HW2 5274   6.110   5.092   5.510
 1459SOL     OW 5275   4.705   6.571   4.990
 1459SOL    HW1 5276   4.640   6.535   4.922
 1459SOL    HW2 5277   4.654   6.613   5.065
 1460SOL     OW 5278   2.175   5.968   5.353
 1460SOL    HW1 5279   2.157   5.971   5.452
 1460SOL    HW2 5280   2.175   5.873   5.323
 1461SOL     OW 5281   0.084   2.721   2.094
 1461SOL    HW1 5282   0.109   2.653   2.025
 1461SOL    HW2 5283   0.134   2.703   2.179
 1462SOL     OW 5284   0.700   6.899   0.966
 1462SOL    HW1 5285   0.727   6.982   1.016
 1462SOL    HW2 5286   0.693   6.919   0.869
 1463SOL     OW 5287   1.615   6.019   0.099
 1463SOL    HW1 5288   1.527   6.059   0.124
 1463SOL    HW2 5289   1.662   5.987   0.181
 1464SOL     OW 5290   6.894   4.205   4.655
 1464SOL    HW1 5291   6.907   4.134   4.724
 1464SOL    HW2 5292   6.960   4.191   4.581
 1465SOL     OW 5293   1.488   1.503   3.355
 1465SOL    HW1 5294   1.544   1.568   3.305
 1465SOL    HW2 5295   1.529   1.485   3.444
 1466SOL     OW 5296   4.162   2.286   1.577
 1466SOL    HW1 5297   4.153   2.207   1.516
 1466SOL    HW2 5298   4.099   2.276   1.654
 1467SOL     OW 5299   1.417   0.664   3.995
 1467SOL    HW1 5300   1.404   0.643   4.092
 1467SOL    HW2 5301   1.344   0.622   3.942
 1468SOL     OW 5302   2.589   6.323   2.167
 1468SOL    HW1 5303   2.633   6.234   2.179
 1468SOL    HW2 5304   2.642   6.378   2.103
 1469SOL     OW 5305   6.274   5.787   3.493
 1469SOL    HW1 5306   6.205   5.795   3.421
 1469SOL    HW2 5307   6.245   5.839   3.574
 1470SOL     OW 5308   6.351   2.473   0.808
 1470SOL    HW1 5309   6.267   2.527   0.803
 1470SOL    HW2 5310   6.373   2.436   0.718
 1471SOL     OW 5311   5.760   6.810   1.563
 1471SOL    HW1 5312   5.836   6.859   1.604
 1471SOL    HW2 5313   5.702   6.874   1.512
 1472SOL     OW 5314   2.169   6.975   5.750
 1472SOL    HW1 5315   2.202   6.904   5.812
 1472SOL    HW2 5316   2.128   0.025   5.804
 1473SOL     OW 5317   3.199   4.886   4.657
 1473SOL    HW1 5318   3.231   4.935   4.739
 1473SOL    HW2 5319   3.247   4.798   4.650
 1474SOL     OW 5320   4.313   4.396   1.163
 1474SOL    HW1 5321   4.342   4.407   1.259
 1474SOL    HW2 5322   4.235   4.456   1.146
 1475SOL     OW 5323   5.168   0.451   0.482
 1475SOL    HW1 5324   5.188   0.549   0.472
 1475SOL    HW2 5325   5.140   0.414   0.393
 1476SOL     OW 5326   4.318   1.044   1.798
 1476SOL    HW1 5327   4.256   1.109   1.754
 1476SOL    HW2 5328   4.305   1.048   1.897
 1477SOL     OW 5329   4.553   5.355   1.076
 1477SOL    HW1 5330   4.542   5.321   0.983
 1477SOL    HW2 5331   4.471   5.335   1.129
 1478SOL     OW 5332   5.098   5.816   5.528
 1478SOL    HW1 5333   5.150   5.814   5.613
 1478SOL    HW2 5334   5.008   5.774   5.544
 1479SOL     OW 5335   3.649   3.414   1.281
 1479SOL    HW1 5336   3.725   3.357   1.250
 1479SOL    HW2 5337   3.567   3.357   1.292
 1480SOL     OW 5338   2.985   0.692   5.056
 1480SOL    HW1 5339   3.010   0.785   5.029
 1480SOL    HW2 5340   2.995   0.631   4.977
 1481SOL     OW 5341   4.920   2.379   5.104
 1481SOL    HW1 5342   4.900   2.281   5.112
 1481SOL    HW2 5343   4.878   2.428   5.181
 1482SOL     OW 5344   4.445   0.839   0.482
 1482SOL    HW1 5345   4.401   0.909   0.538
 1482SOL    HW2 5346   4.375   0.776   0.447
 1483SOL     OW 5347   4.275   0.995   6.230
 1483SOL    HW1 5348   4.370   1.017   6.210
 1483SOL    HW2 5349   4.218   1.076   6.218
 1484SOL     OW 5350   2.901   5.740   4.325
 1484SOL    HW1 5351   2.823   5.800   4.344
 1484SOL    HW2 5352   2.950   5.721   4.410
 1485SOL     OW 5353   5.416   2.668   2.621
 1485SOL    HW1 5354   5.477   2.744   2.643
 1485SOL    HW2 5355   5.335   2.702   2.574
 1486SOL     OW 5356   5.037   6.578   3.824
 1486SOL    HW1 5357   5.092   6.613   3.747
 1486SOL    HW2 5358   5.070   6.488   3.850
 1487SOL     OW 5359   6.850   0.224   0.489
 1487SOL    HW1 5360   6.781   0.193   0.423
 1487SOL    HW2 5361   6.855   0.159   0.565
 1488SOL     OW 5362   6.344   1.032   3.161
 1488SOL    HW1 5363   6.379   0.985   3.080
 1488SOL    HW2 5364   6.322   1.127   3.138
 1489SOL     OW 5365   4.218   5.080   6.673
 1489SOL    HW1 5366   4.239   5.125   6.587
 1489SOL    HW2 5367   4.254   4.986   6.672
 1490SOL     OW 5368   0.674   2.238   1.926
 1490SOL    HW1 5369   0.727   2.293   1.861
 1490SOL    HW2 5370   0.597   2.291   1.960
 1491SOL     OW 5371   0.151   2.900   1.925
 1491SOL    HW1 5372   0.097   2.902   1.841
 1491SOL    HW2 5373   0.105   2.843   1.993
 1492SOL     OW 5374   6.279   1.394   3.318
 1492SOL    HW1 5375   6.286   1.494   3.312
 1492SOL    HW2 5376   6.307   1.353   3.231
 1493SOL     OW 5377   4.588   2.188   5.830
 1493SOL    HW1 5378   4.512   2.134   5.794
 1493SOL    HW2 5379   4.672   2.134   5.826
 1494SOL     OW 5380   5.962   3.427   6.002
 1494SOL    HW1 5381   6.057   3.403   5.984
 1494SOL    HW2 5382   5.948   3.433   6.101
 1495SOL     OW 5383   5.992   3.779   3.963
 1495SOL    HW1 5384   6.067   3.827   4.008
 1495SOL    HW2 5385   5.910   3.784   4.019
 1496SOL     OW 5386   0.143   5.908   6.875
 1496SOL    HW1 5387   0.207   5.984   6.874
 1496SOL    HW2 5388   0.112   5.892   6.969
 1497SOL     OW 5389   5.442   2.999   2.533
 1497SOL    HW1 5390   5.437   3.074   2.599
 1497SOL    HW2 5391   5.355   2.993   2.483
 1498SOL     OW 5392   3.224   4.839   1.120
 1498SOL    HW1 5393   3.214   4.773   1.046
 1498SOL    HW2 5394   3.136   4.850   1.167
 1499SOL     OW 5395   0.331   3.934   5.525
 1499SOL    HW1 5396   0.278   3.947   5.609
 1499SOL    HW2 5397   0.419   3.981   5.534
 1500SOL     OW 5398   0.510   5.350   1.037
 1500SOL    HW1 5399   0.528   5.267   1.089
 1500SOL    HW2 5400   0.423   5.341   0.989
 1501SOL     OW 5401   5.389   1.817   6.011
 1501SOL    HW1 5402   5.350   1.879   5.943
 1501SOL    HW2 5403   5.405   1.727   5.970
 1502SOL     OW 5404   6.534   0.430   6.448
 1502SOL    HW1 5405   6.517   0.371   6.369
 1502SOL    HW2 5406   6.559   0.374   6.527
 1503SOL     OW 5407   0.704   4.041   2.256
 1503SOL    HW1 5408   0.765   3.974   2.298
 1503SOL    HW2 5409   0.664   4.003   2.173
 1504SOL     OW 5410   0.689   0.744   3.342
 1504SOL    HW1 5411   0.656   0.653   3.316
 1504SOL    HW2 5412   0.743   0.782   3.267
 1505SOL     OW 5413   5.762   6.200   5.047
 1505SOL    HW1 5414   5.843   6.143   5.032
 1505SOL    HW2 5415   5.702   6.194   4.967
 1506SOL     OW 5416   1.409   1.328   0.384
 1506SOL    HW1 5417   1.500   1.321   0.424
 1506SOL    HW2 5418   1.370   1.418   0.405
 1507SOL     OW 5419   1.631   2.595   4.470
 1507SOL    HW1 5420   1.550   2.603   4.412
 1507SOL    HW2 5421   1.634   2.670   4.535
 1508SOL     OW 5422   0.901   0.713   0.383
 1508SOL    HW1 5423   0.983   0.656   0.391
 1508SOL    HW2 5424   0.926   0.802   0.346
 1509SOL     OW 5425   5.230   0.514   4.401
 1509SOL    HW1 5426   5.246   0.610   4.378
 1509SOL    HW2 5427   5.155   0.478   4.345
 1510SOL     OW 5428   3.901   6.253   4.009
 1510SOL    HW1 5429   3.885   6.166   4.054
 1510SOL    HW2 5430   3.863   6.250   3.916
 1511SOL     OW 5431   3.888   3.441   4.280
 1511SOL    HW1 5432   3.898   3.449   4.379
 1511SOL    HW2 5433   3.953   3.503   4.235
 1512SOL     OW 5434   6.432   5.761   1.212
 1512SOL    HW1 5435   6.479   5.737   1.297
 1512SOL    HW2 5436   6.496   5.751   1.135
 1513SOL     OW 5437   3.084   0.295   5.914
 1513SOL    HW1 5438   3.080   0.208   5.865
 1513SOL    HW2 5439   3.177   0.331   5.911
 1514SOL     OW 5440   3.846   2.241   5.320
 1514SOL    HW1 5441   3.838   2.145   5.293
 1514SOL    HW2 5442   3.754   2.278   5.337
 1515SOL     OW 5443   6.494   1.985   2.387
 1515SOL    HW1 5444   6.442   1.935   2.456
 1515SOL    HW2 5445   6.533   1.921   2.322
 1516SOL     OW 5446   6.015   6.349   4.802
 1516SOL    HW1 5447   6.087   6.378   4.864
 1516SOL    HW2 5448   6.045   6.267   4.753
 1517SOL     OW 5449   4.279   6.551   3.462
 1517SOL    HW1 5450   4.225   6.470   3.437
 1517SOL    HW2 5451   4.281   6.560   3.561
 1518SOL     OW 5452   0.244   2.441   0.760
 1518SOL    HW1 5453   0.217   2.531   0.726
 1518SOL    HW2 5454   0.248   2.443   0.860
 1519SOL     OW 5455   6.839   4.074   0.568
 1519SOL    HW1 5456   6.767   4.123   0.617
 1519SOL    HW2 5457   6.856   3.986   0.613
 1520SOL     OW 5458   0.181   5.495   1.564
 1520SOL    HW1 5459   0.150   5.410   1.520
 1520SOL    HW2 5460   0.247   5.540   1.505
 1521SOL     OW 5461   2.266   5.167   6.219
 1521SOL    HW1 5462   2.189   5.116   6.182
 1521SOL    HW2 5463   2.319   5.207   6.144
 1522SOL     OW 5464   5.052   5.315   4.884
 1522SOL    HW1 5465   5.048   5.218   4.861
 1522SOL    HW2 5466   5.061   5.369   4.801
 1523SOL     OW 5467   3.261   6.262   6.728
 1523SOL    HW1 5468   3.331   6.230   6.663
 1523SOL    HW2 5469   3.228   6.184   6.782
 1524SOL     OW 5470   2.051   1.976   2.412
 1524SOL    HW1 5471   1.994   1.916   2.355
 1524SOL    HW2 5472   2.141   1.987   2.368
 1525SOL     OW 5473   5.295   2.954   0.747
 1525SOL    HW1 5474   5.268   3.032   0.690
 1525SOL    HW2 5475   5.213   2.910   0.785
 1526SOL     OW 5476   1.064   1.329   0.597
 1526SOL    HW1 5477   1.014   1.364   0.676
 1526SOL    HW2 5478   1.118   1.402   0.556
 1527SOL     OW 5479   3.716   1.186   4.428
 1527SOL    HW1 5480   3.707   1.175   4.527
 1527SOL    HW2 5481   3.625   1.179   4.386
 1528SOL     OW 5482   4.676   3.769   0.933
 1528SOL    HW1 5483   4.589   3.810   0.960
 1528SOL    HW2 5484   4.686   3.680   0.976
 1529SOL     OW 5485   4.730   1.393   6.323
 1529SOL    HW1 5486   4.820   1.378   6.281
 1529SOL    HW2 5487   4.740   1.453   6.403
 1530SOL     OW 5488   3.760   6.871   1.430
 1530SOL    HW1 5489   3.856   6.880   1.457
 1530SOL    HW2 5490   3.702   6.895   1.508
 1531SOL     OW 5491   3.691   6.861   4.086
 1531SOL    HW1 5492   3.651   6.940   4.040
 1531SOL    HW2 5493   3.788   6.854   4.062
 1532SOL     OW 5494   2.943   5.218   6.039
 1532SOL    HW1 5495   2.974   5.175   5.954
 1532SOL    HW2 5496   2.967   5.160   6.117
 1533SOL     OW 5497   5.570   5.562   1.464
 1533SOL    HW1 5498   5.531   5.507   1.391
 1533SOL    HW2 5499   5.584   5.505   1.545
 1534SOL     OW 5500   3.796   6.136   6.412
 1534SOL    HW1 5501   3.781   6.090   6.499
 1534SOL    HW2 5502   3.885   6.182   6.413
 1535SOL     OW 5503   6.272   6.701   4.515
 1535SOL    HW1 5504   6.301   6.796   4.508
 1535SOL    HW2 5505   6.346   6.646   4.554
 1536SOL     OW 5506   4.175   4.211   6.450
 1536SOL    HW1 5507   4.144   4.134   6.506
 1536SOL    HW2 5508   4.258   4.186   6.402
 1537SOL     OW 5509   3.525   5.207   3.428
 1537SOL    HW1 5510   3.443   5.185   3.374
 1537SOL    HW2 5511   3.508   5.289   3.482
 1538SOL     OW 5512   3.554   1.463   0.243
 1538SOL    HW1 5513   3.551   1.553   0.288
 1538SOL    HW2 5514   3.573   1.476   0.145
 1539SOL     OW 5515   5.594   3.273   1.214
 1539SOL    HW1 5516   5.604   3.352   1.275
 1539SOL    HW2 5517   5.674   3.214   1.222
 1540SOL     OW 5518   2.705   0.106   4.658
 1540SOL    HW1 5519   2.716   0.145   4.749
 1540SOL    HW2 5520   2.679   0.178   4.594
 1541SOL     OW 5521   3.289   2.974   5.079
 1541SOL    HW1 5522   3.379   3.016   5.077
 1541SOL    HW2 5523   3.298   2.875   5.081
 1542SOL     OW 5524   6.631   0.252   2.429
 1542SOL    HW1 5525   6.637   0.157   2.398
 1542SOL    HW2 5526   6.692   0.266   2.507
 1543SOL     OW 5527   3.058   5.114   6.552
 1543SOL    HW1 5528   3.047   5.189   6.487
 1543SOL    HW2 5529   3.048   5.148   6.645
 1544SOL     OW 5530   3.783   2.901   3.412
 1544SOL    HW1 5531   3.832   2.814   3.409
 1544SOL    HW2 5532   3.713   2.902   3.341
 1545SOL     OW 5533   6.228   0.042   2.398
 1545SOL    HW1 5534   6.160   0.095   2.449
 1545SOL    HW2 5535   6.274   7.003   2.460
 1546SOL     OW 5536   5.166   6.422   5.790
 1546SOL    HW1 5537   5.240   6.457   5.847
 1546SOL    HW2 5538   5.109   6.498   5.758
 1547SOL     OW 5539   1.544   4.244   0.255
 1547SOL    HW1 5540   1.463   4.188   0.239
 1547SOL    HW2 5541   1.518   4.341   0.252
 1548SOL     OW 5542   6.044   2.021   0.035
 1548SOL    HW1 5543   6.025   2.010   0.132
 1548SOL    HW2 5544   6.139   2.048   0.022
 1549SOL     OW 5545   4.075   1.288   4.504
 1549SOL    HW1 5546   4.059   1.292   4.603
 1549SOL    HW2 5547   4.173   1.273   4.487
 1550SOL     OW 5548   3.492   3.397   2.526
 1550SOL    HW1 5549   3.536   3.432   2.443
 1550SOL    HW2 5550   3.401   3.364   2.503
 1551SOL     OW 5551   0.776   5.164   6.636
 1551SOL    HW1 5552   0.706   5.174   6.706
 1551SOL    HW2 5553   0.866   5.163   6.678
 1552SOL     OW 5554   2.622   4.278   1.740
 1552SOL    HW1 5555   2.568   4.310   1.818
 1552SOL    HW2 5556   2.719   4.293   1.760
 1553SOL     OW 5557   6.664   1.787   5.928
 1553SOL    HW1 5558   6.737   1.855   5.917
 1553SOL    HW2 5559   6.704   1.695   5.927
 1554SOL     OW 5560   2.938   1.961   3.331
 1554SOL    HW1 5561   3.030   1.928   3.350
 1554SOL    HW2 5562   2.877   1.883   3.317
 1555SOL     OW 5563   6.631   3.364   6.002
 1555SOL    HW1 5564   6.663   3.326   6.089
 1555SOL    HW2 5565   6.553   3.424   6.020
 1556SOL     OW 5566   2.105   1.094   5.736
 1556SOL    HW1 5567   2.006   1.079   5.735
 1556SOL    HW2 5568   2.125   1.188   5.761
 1557SOL     OW 5569   1.290   3.305   6.786
 1557SOL    HW1 5570   1.264   3.339   6.876
 1557SOL    HW2 5571   1.225   3.337   6.717
 1558SOL     OW 5572   0.207   0.205   5.095
 1558SOL    HW1 5573   0.164   0.114   5.091
 1558SOL    HW2 5574   0.168   0.263   5.023
 1559SOL     OW 5575   0.511   2.238   6.067
 1559SOL    HW1 5576   0.460   2.262   6.149
 1559SOL    HW2 5577   0.469   2.281   5.987
 1560SOL     OW 5578   0.286   0.788   6.692
 1560SOL    HW1 5579   0.283   0.713   6.757
 1560SOL    HW2 5580   0.226   0.767   6.614
 1561SOL     OW 5581   4.969   6.113   2.860
 1561SOL    HW1 5582   4.954   6.211   2.870
 1561SOL    HW2 5583   5.065   6.096   2.839
 1562SOL     OW 5584   5.292   0.308   2.962
 1562SOL    HW1 5585   5.346   0.279   2.883
 1562SOL    HW2 5586   5.321   0.257   3.043
 1563SOL     OW 5587   3.315   1.422   6.371
 1563SOL    HW1 5588   3.371   1.381   6.298
 1563SOL    HW2 5589   3.268   1.349   6.421
 1564SOL     OW 5590   1.806   2.077   1.948
 1564SOL    HW1 5591   1.801   2.009   2.021
 1564SOL    HW2 5592   1.877   2.144   1.970
 1565SOL     OW 5593   4.835   3.688   1.874
 1565SOL    HW1 5594   4.748   3.724   1.839
 1565SOL    HW2 5595   4.842   3.591   1.852
 1566SOL     OW 5596   5.543   3.980   3.453
 1566SOL    HW1 5597   5.641   3.999   3.453
 1566SOL    HW2 5598   5.525   3.899   3.509
 1567SOL     OW 5599   6.634   5.573   6.047
 1567SOL    HW1 5600   6.614   5.550   5.952
 1567SOL    HW2 5601   6.551   5.565   6.102
 1568SOL     OW 5602   1.107   0.546   0.632
 1568SOL    HW1 5603   1.095   0.644   0.641
 1568SOL    HW2 5604   1.101   0.520   0.535
 1569SOL     OW 5605   3.903   6.265   5.018
 1569SOL    HW1 5606   3.909   6.168   5.042
 1569SOL    HW2 5607   3.807   6.293   5.017
 1570SOL     OW 5608   3.065   1.820   1.473
 1570SOL    HW1 5609   2.995   1.887   1.497
 1570SOL    HW2 5610   3.078   1.820   1.374
 1571SOL     OW 5611   6.457   3.647   1.347
 1571SOL    HW1 5612   6.439   3.558   1.389
 1571SOL    HW2 5613   6.414   3.719   1.402
 1572SOL     OW 5614   0.626   0.399   1.827
 1572SOL    HW1 5615   0.704   0.373   1.770
 1572SOL    HW2 5616   0.652   0.393   1.924
 1573SOL     OW 5617   4.655   0.237   1.825
 1573SOL    HW1 5618   4.636   0.292   1.906
 1573SOL    HW2 5619   4.730   0.173   1.845
 1574SOL     OW 5620   6.628   2.436   1.871
 1574SOL    HW1 5621   6.629   2.535   1.853
 1574SOL    HW2 5622   6.695   2.414   1.941
 1575SOL     OW 5623   1.883   2.184   0.230
 1575SOL    HW1 5624   1.944   2.129   0.173
 1575SOL    HW2 5625   1.825   2.123   0.284
 1576SOL     OW 5626   5.736   6.253   4.013
 1576SOL    HW1 5627   5.780   6.328   3.964
 1576SOL    HW2 5628   5.755   6.166   3.966
 1577SOL     OW 5629   2.934   0.361   5.466
 1577SOL    HW1 5630   3.028   0.326   5.468
 1577SOL    HW2 5631   2.932   0.448   5.416
 1578SOL     OW 5632   5.107   4.288   5.439
 1578SOL    HW1 5633   5.100   4.270   5.341
 1578SOL    HW2 5634   5.196   4.256   5.472
 1579SOL     OW 5635   1.031   0.882   3.895
 1579SOL    HW1 5636   1.071   0.802   3.941
 1579SOL    HW2 5637   1.104   0.932   3.848
 1580SOL     OW 5638   2.993   4.247   5.264
 1580SOL    HW1 5639   2.910   4.190   5.270
 1580SOL    HW2 5640   2.972   4.330   5.213
 1581SOL     OW 5641   6.919   3.971   4.840
 1581SOL    HW1 5642   6.976   3.895   4.810
 1581SOL    HW2 5643   6.826   3.959   4.804
 1582SOL     OW 5644   0.626   4.914   4.150
 1582SOL    HW1 5645   0.718   4.939   4.181
 1582SOL    HW2 5646   0.610   4.817   4.167
 1583SOL     OW 5647   1.860   2.348   3.539
 1583SOL    HW1 5648   1.914   2.334   3.456
 1583SOL    HW2 5649   1.805   2.266   3.557
 1584SOL     OW 5650   2.469   0.319   5.474
 1584SOL    HW1 5651   2.438   0.228   5.502
 1584SOL    HW2 5652   2.557   0.340   5.517
 1585SOL     OW 5653   5.530   1.206   3.935
 1585SOL    HW1 5654   5.571   1.263   3.864
 1585SOL    HW2 5655   5.596   1.189   4.007
 1586SOL     OW 5656   4.047   3.862   2.444
 1586SOL    HW1 5657   4.068   3.937   2.382
 1586SOL    HW2 5658   4.078   3.776   2.404
 1587SOL     OW 5659   3.394   6.535   6.992
 1587SOL    HW1 5660   3.324   6.596   0.006
 1587SOL    HW2 5661   3.379   6.524   6.894
 1588SOL     OW 5662   5.605   2.561   1.455
 1588SOL    HW1 5663   5.669   2.580   1.380
 1588SOL    HW2 5664   5.559   2.474   1.437
 1589SOL     OW 5665   6.239   4.535   4.728
 1589SOL    HW1 5666   6.336   4.546   4.705
 1589SOL    HW2 5667   6.228   4.539   4.828
 1590SOL     OW 5668   1.925   0.281   6.451
 1590SOL    HW1 5669   1.980   0.358   6.417
 1590SOL    HW2 5670   1.955   0.196   6.408
 1591SOL     OW 5671   1.106   4.410   2.326
 1591SOL    HW1 5672   1.120   4.508   2.340
 1591SOL    HW2 5673   1.034   4.396   2.258
 1592SOL     OW 5674   3.176   3.682   2.598
 1592SOL    HW1 5675   3.186   3.653   2.502
 1592SOL    HW2 5676   3.098   3.635   2.639
 1593SOL     OW 5677   1.249   5.677   4.328
 1593SOL    HW1 5678   1.229   5.768   4.291
 1593SOL    HW2 5679   1.337   5.678   4.374
 1594SOL     OW 5680   6.596   5.298   2.727
 1594SOL    HW1 5681   6.628   5.296   2.632
 1594SOL    HW2 5682   6.496   5.297   2.729
 1595SOL     OW 5683   6.534   4.702   6.396
 1595SOL    HW1 5684   6.448   4.672   6.353
 1595SOL    HW2 5685   6.607   4.701   6.327
 1596SOL     OW 5686   2.591   5.316   6.225
 1596SOL    HW1 5687   2.650   5.298   6.304
 1596SOL    HW2 5688   2.516   5.377   6.251
 1597SOL     OW 5689   2.655   6.465   1.456
 1597SOL    HW1 5690   2.606   6.489   1.373
 1597SOL    HW2 5691   2.707   6.381   1.442
 1598SOL     OW 5692   0.225   4.742   0.972
 1598SOL    HW1 5693   0.300   4.724   1.036
 1598SOL    HW2 5694   0.171   4.819   1.006
 1599SOL     OW 5695   3.767   5.217   6.801
 1599SOL    HW1 5696   3.836   5.150   6.773
 1599SOL    HW2 5697   3.707   5.176   6.870
 1600SOL     OW 5698   4.518   1.323   4.237
 1600SOL    HW1 5699   4.588   1.254   4.221
 1600SOL    HW2 5700   4.559   1.414   4.233
 1601SOL     OW 5701   1.399   5.175   4.299
 1601SOL    HW1 5702   1.454   5.094   4.315
 1601SOL    HW2 5703   1.394   5.194   4.201
 1602SOL     OW 5704   1.035   5.106   3.665
 1602SOL    HW1 5705   1.096   5.185   3.663
 1602SOL    HW2 5706   1.018   5.075   3.572
 1603SOL     OW 5707   0.013   6.530   2.176
 1603SOL    HW1 5708   0.072   6.605   2.149
 1603SOL    HW2 5709   0.027   6.507   2.272
 1604SOL     OW 5710   6.942   4.759   6.503
 1604SOL    HW1 5711   6.882   4.738   6.580
 1604SOL    HW2 5712   6.972   4.854   6.509
 1605SOL     OW 5713   5.912   6.651   3.221
 1605SOL    HW1 5714   5.984   6.585   3.239
 1605SOL    HW2 5715   5.834   6.605   3.180
 1606SOL     OW 5716   5.029   6.983   6.384
 1606SOL    HW1 5717   5.009   0.018   6.462
 1606SOL    HW2 5718   5.037   0.015   6.301
 1607SOL     OW 5719   4.094   2.505   0.976
 1607SOL    HW1 5720   4.116   2.593   0.934
 1607SOL    HW2 5721   4.004   2.510   1.019
 1608SOL     OW 5722   2.148   6.868   0.511
 1608SOL    HW1 5723   2.174   6.834   0.421
 1608SOL    HW2 5724   2.057   6.833   0.535
 1609SOL     OW 5725   4.469   2.101   5.424
 1609SOL    HW1 5726   4.395   2.067   5.481
 1609SOL    HW2 5727   4.474   2.201   5.431
 1610SOL     OW 5728   6.290   5.768   4.369
 1610SOL    HW1 5729   6.387   5.762   4.346
 1610SOL    HW2 5730   6.280   5.810   4.459
 1611SOL     OW 5731   3.171   3.427   1.792
 1611SOL    HW1 5732   3.160   3.343   1.844
 1611SOL    HW2 5733   3.204   3.406   1.700
 1612SOL     OW 5734   2.561   0.778   4.675
 1612SOL    HW1 5735   2.473   0.765   4.630
 1612SOL    HW2 5736   2.563   0.728   4.761
 1613SOL     OW 5737   2.641   5.977   0.214
 1613SOL    HW1 5738   2.732   5.984   0.253
 1613SOL    HW2 5739   2.613   6.066   0.179
 1614SOL     OW 5740   5.858   2.164   6.932
 1614SOL    HW1 5741   5.929   2.103   6.966
 1614SOL    HW2 5742   5.835   2.140   6.837
 1615SOL     OW 5743   6.902   4.198   0.121
 1615SOL    HW1 5744   6.989   4.244   0.101
 1615SOL    HW2 5745   6.920   4.117   0.176
 1616SOL     OW 5746   3.319   2.026   5.840
 1616SOL    HW1 5747   3.351   2.118   5.861
 1616SOL    HW2 5748   3.398   1.965   5.829
 1617SOL     OW 5749   4.918   0.367   3.544
 1617SOL    HW1 5750   4.983   0.442   3.554
 1617SOL    HW2 5751   4.897   0.353   3.448
 1618SOL     OW 5752   5.758   2.844   0.491
 1618SOL    HW1 5753   5.841   2.898   0.482
 1618SOL    HW2 5754   5.716   2.860   0.580
 1619SOL     OW 5755   2.053   3.513   4.542
 1619SOL    HW1 5756   1.973   3.506   4.600
 1619SOL    HW2 5757   2.128   3.459   4.580
 1620SOL     OW 5758   2.576   5.198   1.479
 1620SOL    HW1 5759   2.630   5.149   1.411
 1620SOL    HW2 5760   2.506   5.253   1.433
 1621SOL     OW 5761   1.500   0.956   1.070
 1621SOL    HW1 5762   1.544   0.999   1.148
 1621SOL    HW2 5763   1.562   0.889   1.029
 1622SOL     OW 5764   2.183   1.895   4.979
 1622SOL    HW1 5765   2.112   1.876   5.047
 1622SOL    HW2 5766   2.159   1.978   4.929
 1623SOL     OW 5767   2.650   2.367   5.337
 1623SOL    HW1 5768   2.560   2.348   5.298
 1623SOL    HW2 5769   2.717   2.377   5.263
 1624SOL     OW 5770   2.703   1.084   0.012
 1624SOL    HW1 5771   2.666   1.042   6.953
 1624SOL    HW2 5772   2.671   1.178   0.020
 1625SOL     OW 5773   0.717   5.050   2.462
 1625SOL    HW1 5774   0.745   5.096   2.546
 1625SOL    HW2 5775   0.638   4.991   2.479
 1626SOL     OW 5776   1.658   2.718   6.419
 1626SOL    HW1 5777   1.729   2.749   6.356
 1626SOL    HW2 5778   1.603   2.647   6.375
 1627SOL     OW 5779   5.861   2.852   3.313
 1627SOL    HW1 5780   5.853   2.831   3.411
 1627SOL    HW2 5781   5.786   2.910   3.284
 1628SOL     OW 5782   3.178   4.266   0.448
 1628SOL    HW1 5783   3.251   4.262   0.517
 1628SOL    HW2 5784   3.154   4.361   0.431
 1629SOL     OW 5785   3.547   2.113   4.012
 1629SOL    HW1 5786   3.543   2.167   3.928
 1629SOL    HW2 5787   3.625   2.050   4.007
 1630SOL     OW 5788   0.287   4.501   5.322
 1630SOL    HW1 5789   0.334   4.588   5.338
 1630SOL    HW2 5790   0.342   4.445   5.260
 1631SOL     OW 5791   6.989   0.149   5.824
 1631SOL    HW1 5792   6.916   0.081   5.820
 1631SOL    HW2 5793   7.014   0.166   5.919
 1632SOL     OW 5794   6.406   0.958   1.221
 1632SOL    HW1 5795   6.455   1.027   1.168
 1632SOL    HW2 5796   6.461   0.931   1.300
 1633SOL     OW 5797   5.700   2.352   3.981
 1633SOL    HW1 5798   5.718   2.438   3.933
 1633SOL    HW2 5799   5.774   2.334   4.046
 1634SOL     OW 5800   3.396   0.751   0.066
 1634SOL    HW1 5801   3.410   0.827   0.130
 1634SOL    HW2 5802   3.309   0.706   0.085
 1635SOL     OW 5803   0.485   5.412   4.820
 1635SOL    HW1 5804   0.544   5.367   4.887
 1635SOL    HW2 5805   0.530   5.495   4.787
 1636SOL     OW 5806   2.238   6.057   1.342
 1636SOL    HW1 5807   2.203   6.112   1.418
 1636SOL    HW2 5808   2.317   6.103   1.301
 1637SOL     OW 5809   6.620   3.154   1.876
 1637SOL    HW1 5810   6.544   3.216   1.855
 1637SOL    HW2 5811   6.584   3.063   1.895
 1638SOL     OW 5812   0.075   3.334   4.966
 1638SOL    HW1 5813   0.021   3.282   4.900
 1638SOL    HW2 5814   0.159   3.283   4.987
 1639SOL     OW 5815   5.068   5.390   2.255
 1639SOL    HW1 5816   5.069   5.322   2.182
 1639SOL    HW2 5817   4.979   5.435   2.257
 1640SOL     OW 5818   6.458   0.047   1.120
 1640SOL    HW1 5819   6.501   0.136   1.104
 1640SOL    HW2 5820   6.359   0.058   1.126
 1641SOL     OW 5821   5.571   2.818   5.148
 1641SOL    HW1 5822   5.600   2.857   5.235
 1641SOL    HW2 5823   5.517   2.735   5.165
 1642SOL     OW 5824   0.080   2.053   1.279
 1642SOL    HW1 5825   0.157   2.061   1.216
 1642SOL    HW2 5826   0.105   1.992   1.355
 1643SOL     OW 5827   4.275   6.902   5.541
 1643SOL    HW1 5828   4.239   6.809   5.545
 1643SOL    HW2 5829   4.374   6.898   5.531
 1644SOL     OW 5830   2.884   0.874   1.477
 1644SOL    HW1 5831   2.972   0.826   1.469
 1644SOL    HW2 5832   2.884   0.931   1.559
 1645SOL     OW 5833   2.696   6.478   6.398
 1645SOL    HW1 5834   2.649   6.413   6.457
 1645SOL    HW2 5835   2.647   6.565   6.399
 1646SOL     OW 5836   1.105   4.050   1.045
 1646SOL    HW1 5837   1.204   4.044   1.058
 1646SOL    HW2 5838   1.069   3.961   1.018
 1647SOL     OW 5839   5.988   2.576   3.641
 1647SOL    HW1 5840   6.020   2.513   3.711
 1647SOL    HW2 5841   5.990   2.530   3.552
 1648SOL     OW 5842   4.214   0.088   2.211
 1648SOL    HW1 5843   4.294   0.069   2.154
 1648SOL    HW2 5844   4.240   0.086   2.307
 1649SOL     OW 5845   3.388   0.725   3.831
 1649SOL    HW1 5846   3.305   0.776   3.808
 1649SOL    HW2 5847   3.454   0.733   3.757
 1650SOL     OW 5848   2.909   6.802   4.155
 1650SOL    HW1 5849   2.973   6.869   4.118
 1650SOL    HW2 5850   2.959   6.737   4.213
 1651SOL     OW 5851   1.303   6.949   0.805
 1651SOL    HW1 5852   1.209   6.921   0.829
 1651SOL    HW2 5853   1.302   7.000   0.720
 1652SOL     OW 5854   2.933   2.271   1.677
 1652SOL    HW1 5855   2.910   2.305   1.769
 1652SOL    HW2 5856   2.930   2.346   1.612
 1653SOL     OW 5857   0.973   5.468   1.109
 1653SOL    HW1 5858   0.920   5.521   1.176
 1653SOL    HW2 5859   1.022   5.395   1.156
 1654SOL     OW 5860   6.880   3.714   2.709
 1654SOL    HW1 5861   6.911   3.638   2.766
 1654SOL    HW2 5862   6.924   3.709   2.619
 1655SOL     OW 5863   4.979   4.706   6.583
 1655SOL    HW1 5864   4.988   4.698   6.484
 1655SOL    HW2 5865   4.900   4.763   6.605
 1656SOL     OW 5866   1.073   4.842   3.692
 1656SOL    HW1 5867   1.139   4.815   3.622
 1656SOL    HW2 5868   1.069   4.942   3.696
 1657SOL     OW 5869   1.511   0.635   5.555
 1657SOL    HW1 5870   1.571   0.596   5.624
 1657SOL    HW2 5871   1.439   0.570   5.532
 1658SOL     OW 5872   5.911   6.371   3.367
 1658SOL    HW1 5873   5.907   6.292   3.306
 1658SOL    HW2 5874   5.818   6.401   3.389
 1659SOL     OW 5875   3.714   2.701   6.075
 1659SOL    HW1 5876   3.699   2.752   6.160
 1659SOL    HW2 5877   3.795   2.644   6.086
 1660SOL     OW 5878   1.795   5.770   3.593
 1660SOL    HW1 5879   1.796   5.778   3.493
 1660SOL    HW2 5880   1.878   5.812   3.631
 1661SOL     OW 5881   3.276   0.438   2.370
 1661SOL    HW1 5882   3.215   0.444   2.450
 1661SOL    HW2 5883   3.290   0.530   2.333
 1662SOL     OW 5884   0.853   0.575   3.759
 1662SOL    HW1 5885   0.799   0.599   3.839
 1662SOL    HW2 5886   0.828   0.635   3.682
 1663SOL     OW 5887   2.595   0.110   2.652
 1663SOL    HW1 5888   2.662   0.085   2.582
 1663SOL    HW2 5889   2.589   0.210   2.658
 1664SOL     OW 5890   2.089   5.807   3.668
 1664SOL    HW1 5891   2.097   5.708   3.677
 1664SOL    HW2 5892   2.076   5.848   3.758
 1665SOL     OW 5893   6.757   0.317   3.708
 1665SOL    HW1 5894   6.825   0.253   3.673
 1665SOL    HW2 5895   6.776   0.337   3.804
 1666SOL     OW 5896   5.860   3.077   6.217
 1666SOL    HW1 5897   5.818   3.003   6.268
 1666SOL    HW2 5898   5.874   3.049   6.122
 1667SOL     OW 5899   0.146   0.450   6.116
 1667SOL    HW1 5900   0.201   0.526   6.150
 1667SOL    HW2 5901   0.106   0.474   6.028
 1668SOL     OW 5902   4.148   0.606   5.261
 1668SOL    HW1 5903   4.192   0.587   5.349
 1668SOL    HW2 5904   4.213   0.587   5.187
 1669SOL     OW 5905   5.791   6.760   5.580
 1669SOL    HW1 5906   5.802   6.793   5.487
 1669SOL    HW2 5907   5.806   6.835   5.644
 1670SOL     OW 5908   5.348   4.648   5.954
 1670SOL    HW1 5909   5.354   4.709   6.033
 1670SOL    HW2 5910   5.342   4.703   5.871
 1671SOL     OW 5911   4.526   3.038   0.024
 1671SOL    HW1 5912   4.518   3.101   6.971
 1671SOL    HW2 5913   4.569   3.084   0.101
 1672SOL     OW 5914   1.635   5.325   2.447
 1672SOL    HW1 5915   1.662   5.412   2.406
 1672SOL    HW2 5916   1.716   5.268   2.459
 1673SOL     OW 5917   6.885   3.377   4.290
 1673SOL    HW1 5918   6.828   3.385   4.372
 1673SOL    HW2 5919   6.928   3.465   4.271
 1674SOL     OW 5920   0.597   4.233   6.804
 1674SOL    HW1 5921   0.598   4.289   6.721
 1674SOL    HW2 5922   0.684   4.245   6.853
 1675SOL     OW 5923   4.406   1.753   6.572
 1675SOL    HW1 5924   4.485   1.739   6.513
 1675SOL    HW2 5925   4.372   1.665   6.604
 1676SOL     OW 5926   1.454   0.318   2.878
 1676SOL    HW1 5927   1.508   0.384   2.930
 1676SOL    HW2 5928   1.424   0.359   2.793
 1677SOL     OW 5929   5.925   2.075   4.995
 1677SOL    HW1 5930   5.929   2.045   4.900
 1677SOL    HW2 5931   5.896   2.171   4.999
 1678SOL     OW 5932   5.255   0.347   1.692
 1678SOL    HW1 5933   5.220   0.361   1.599
 1678SOL    HW2 5934   5.268   0.436   1.736
 1679SOL     OW 5935   0.570   3.592   6.345
 1679SOL    HW1 5936   0.629   3.640   6.279
 1679SOL    HW2 5937   0.626   3.535   6.404
 1680SOL     OW 5938   1.150   2.216   4.126
 1680SOL    HW1 5939   1.154   2.121   4.098
 1680SOL    HW2 5940   1.180   2.223   4.222
 1681SOL     OW 5941   6.418   5.513   0.834
 1681SOL    HW1 5942   6.514   5.510   0.805
 1681SOL    HW2 5943   6.386   5.420   0.851
 1682SOL     OW 5944   6.794   3.492   5.781
 1682SOL    HW1 5945   6.768   3.562   5.714
 1682SOL    HW2 5946   6.717   3.474   5.842
 1683SOL     OW 5947   5.427   6.455   1.425
 1683SOL    HW1 5948   5.457   6.504   1.507
 1683SOL    HW2 5949   5.361   6.385   1.451
 1684SOL     OW 5950   0.764   5.864   5.070
 1684SOL    HW1 5951   0.855   5.897   5.097
 1684SOL    HW2 5952   0.729   5.803   5.140
 1685SOL     OW 5953   1.520   0.892   0.048
 1685SOL    HW1 5954   1.544   0.837   0.128
 1685SOL    HW2 5955   1.572   0.861   6.992
 1686SOL     OW 5956   1.396   6.643   0.113
 1686SOL    HW1 5957   1.420   6.634   0.016
 1686SOL    HW2 5958   1.304   6.680   0.122
 1687SOL     OW 5959   1.727   6.252   2.002
 1687SOL    HW1 5960   1.811   6.287   1.961
 1687SOL    HW2 5961   1.742   6.237   2.100
 1688SOL     OW 5962   1.385   1.878   2.994
 1688SOL    HW1 5963   1.323   1.863   3.071
 1688SOL    HW2 5964   1.472   1.912   3.027
 1689SOL     OW 5965   2.026   1.813   3.020
 1689SOL    HW1 5966   2.080   1.843   3.099
 1689SOL    HW2 5967   1.990   1.893   2.972
 1690SOL     OW 5968   1.408   1.342   1.218
 1690SOL    HW1 5969   1.503   1.316   1.201
 1690SOL    HW2 5970   1.383   1.417   1.157
 1691SOL     OW 5971   5.371   4.171   2.715
 1691SOL    HW1 5972   5.397   4.145   2.808
 1691SOL    HW2 5973   5.280   4.135   2.694
 1692SOL     OW 5974   1.296   0.341   1.948
 1692SOL    HW1 5975   1.301   0.373   2.042
 1692SOL    HW2 5976   1.230   0.266   1.941
 1693SOL     OW 5977   2.812   2.200   3.314
 1693SOL    HW1 5978   2.844   2.108   3.336
 1693SOL    HW2 5979   2.769   2.240   3.394
 1694SOL     OW 5980   5.426   5.578   4.856
 1694SOL    HW1 5981   5.397   5.662   4.810
 1694SOL    HW2 5982   5.372   5.565   4.939
 1695SOL     OW 5983   3.078   2.515   5.652
 1695SOL    HW1 5984   3.024   2.595   5.678
 1695SOL    HW2 5985   3.069   2.500   5.553
 1696SOL     OW 5986   4.475   6.237   0.766
 1696SOL    HW1 5987   4.481   6.326   0.721
 1696SOL    HW2 5988   4.485   6.248   0.865
 1697SOL     OW 5989   0.988   1.355   2.052
 1697SOL    HW1 5990   0.981   1.376   1.954
 1697SOL    HW2 5991   1.082   1.371   2.082
 1698SOL     OW 5992   4.509   2.112   1.710
 1698SOL    HW1 5993   4.451   2.114   1.629
 1698SOL    HW2 5994   4.511   2.202   1.752
 1699SOL     OW 5995   2.246   3.318   1.159
 1699SOL    HW1 5996   2.316   3.382   1.126
 1699SOL    HW2 5997   2.177   3.305   1.088
 1700SOL     OW 5998   6.577   3.066   3.038
 1700SOL    HW1 5999   6.611   3.038   3.128
 1700SOL    HW2 6000   6.483   3.033   3.026
 1701SOL     OW 6001   5.942   3.266   3.943
 1701SOL    HW1 6002   5.872   3.201   3.913
 1701SOL    HW2 6003   5.994   3.297   3.863
 1702SOL     OW 6004   4.682   4.030   0.736
 1702SOL    HW1 6005   4.649   3.968   0.665
 1702SOL    HW2 6006   4.739   3.980   0.801
 1703SOL     OW 6007   1.976   3.720   0.338
 1703SOL    HW1 6008   1.909   3.690   0.405
 1703SOL    HW2 6009   1.967   3.665   0.254
 1704SOL     OW 6010   0.592   0.903   1.644
 1704SOL    HW1 6011   0.543   0.981   1.684
 1704SOL    HW2 6012   0.687   0.929   1.628
 1705SOL     OW 6013   4.365   3.082   1.722
 1705SOL    HW1 6014   4.298   3.008   1.715
 1705SOL    HW2 6015   4.431   3.060   1.794
 1706SOL     OW 6016   3.604   0.446   0.780
 1706SOL    HW1 6017   3.545   0.473   0.856
 1706SOL    HW2 6018   3.628   0.349   0.790
 1707SOL     OW 6019   5.230   2.331   3.117
 1707SOL    HW1 6020   5.329   2.344   3.131
 1707SOL    HW2 6021   5.214   2.300   3.023
 1708SOL     OW 6022   7.007   5.100   3.406
 1708SOL    HW1 6023   0.076   5.134   3.392
 1708SOL    HW2 6024   6.991   5.022   3.345
 1709SOL     OW 6025   2.983   6.128   2.140
 1709SOL    HW1 6026   2.993   6.219   2.182
 1709SOL    HW2 6027   2.980   6.059   2.212
 1710SOL     OW 6028   0.677   5.563   4.458
 1710SOL    HW1 6029   0.585   5.555   4.419
 1710SOL    HW2 6030   0.736   5.492   4.420
 1711SOL     OW 6031   1.357   4.655   5.327
 1711SOL    HW1 6032   1.289   4.634   5.397
 1711SOL    HW2 6033   1.313   4.657   5.238
 1712SOL     OW 6034   0.358   4.197   0.605
 1712SOL    HW1 6035   0.276   4.182   0.550
 1712SOL    HW2 6036   0.382   4.294   0.603
 1713SOL     OW 6037   1.241   2.290   1.103
 1713SOL    HW1 6038   1.284   2.366   1.055
 1713SOL    HW2 6039   1.146   2.312   1.123
 1714SOL     OW 6040   3.158   1.729   0.857
 1714SOL    HW1 6041   3.070   1.682   0.859
 1714SOL    HW2 6042   3.231   1.662   0.844
 1715SOL     OW 6043   0.115   3.170   2.615
 1715SOL    HW1 6044   0.034   3.223   2.638
 1715SOL    HW2 6045   0.130   3.174   2.516
 1716SOL     OW 6046   0.237   5.631   7.015
 1716SOL    HW1 6047   0.189   5.656   0.076
 1716SOL    HW2 6048   0.333   5.658   7.023
 1717SOL     OW 6049   2.811   0.382   6.856
 1717SOL    HW1 6050   2.887   0.367   6.920
 1717SOL    HW2 6051   2.770   0.472   6.874
 1718SOL     OW 6052   1.187   4.471   6.415
 1718SOL    HW1 6053   1.213   4.556   6.369
 1718SOL    HW2 6054   1.145   4.493   6.503
 1719SOL     OW 6055   2.273   3.563   1.371
 1719SOL    HW1 6056   2.316   3.634   1.316
 1719SOL    HW2 6057   2.339   3.489   1.387
 1720SOL     OW 6058   6.612   0.809   0.594
 1720SOL    HW1 6059   6.693   0.754   0.614
 1720SOL    HW2 6060   6.532   0.749   0.587
 1721SOL     OW 6061   2.387   6.527   3.339
 1721SOL    HW1 6062   2.339   6.543   3.253
 1721SOL    HW2 6063   2.465   6.589   3.346
 1722SOL     OW 6064   5.676   6.586   2.355
 1722SOL    HW1 6065   5.658   6.489   2.372
 1722SOL    HW2 6066   5.630   6.641   2.424
 1723SOL     OW 6067   6.442   1.692   2.479
 1723SOL    HW1 6068   6.372   1.622   2.460
 1723SOL    HW2 6069   6.490   1.669   2.564
 1724SOL     OW 6070   4.895   1.070   0.274
 1724SOL    HW1 6071   4.910   1.062   0.175
 1724SOL    HW2 6072   4.856   0.985   0.309
 1725SOL     OW 6073   4.002   4.385   1.641
 1725SOL    HW1 6074   3.902   4.389   1.643
 1725SOL    HW2 6075   4.033   4.365   1.548
 1726SOL     OW 6076   0.322   3.990   4.534
 1726SOL    HW1 6077   0.376   4.056   4.587
 1726SOL    HW2 6078   0.381   3.914   4.505
 1727SOL     OW 6079   3.764   3.944   5.185
 1727SOL    HW1 6080   3.673   3.919   5.153
 1727SOL    HW2 6081   3.816   3.861   5.209
 1728SOL     OW 6082   4.348   4.625   3.162
 1728SOL    HW1 6083   4.386   4.541   3.122
 1728SOL    HW2 6084   4.271   4.656   3.106
 1729SOL     OW 6085   2.053   3.441   2.914
 1729SOL    HW1 6086   2.080   3.391   2.831
 1729SOL    HW2 6087   1.954   3.447   2.918
 1730SOL     OW 6088   6.238   2.512   5.376
 1730SOL    HW1 6089   6.303   2.440   5.351
 1730SOL    HW2 6090   6.272   2.561   5.456
 1731SOL     OW 6091   2.020   5.255   0.715
 1731SOL    HW1 6092   2.061   5.169   0.746
 1731SOL    HW2 6093   1.940   5.235   0.659
 1732SOL     OW 6094   0.362   4.310   6.940
 1732SOL    HW1 6095   0.448   4.276   6.901
 1732SOL    HW2 6096   0.308   4.234   6.975
 1733SOL     OW 6097   1.714   3.206   0.929
 1733SOL    HW1 6098   1.735   3.125   0.983
 1733SOL    HW2 6099   1.632   3.188   0.874
 1734SOL     OW 6100   4.769   2.304   1.307
 1734SOL    HW1 6101   4.744   2.290   1.211
 1734SOL    HW2 6102   4.777   2.216   1.353
 1735SOL     OW 6103   6.175   5.396   1.489
 1735SOL    HW1 6104   6.156   5.363   1.397
 1735SOL    HW2 6105   6.199   5.319   1.548
 1736SOL     OW 6106   3.719   3.144   0.266
 1736SOL    HW1 6107   3.807   3.103   0.242
 1736SOL    HW2 6108   3.723   3.181   0.358
 1737SOL     OW 6109   2.072   6.766   3.623
 1737SOL    HW1 6110   2.031   6.687   3.668
 1737SOL    HW2 6111   2.171   6.753   3.616
 1738SOL     OW 6112   2.115   3.175   2.137
 1738SOL    HW1 6113   2.210   3.152   2.157
 1738SOL    HW2 6114   2.084   3.125   2.057
 1739SOL     OW 6115   4.521   1.872   5.038
 1739SOL    HW1 6116   4.466   1.791   5.014
 1739SOL    HW2 6117   4.553   1.916   4.954
 1740SOL     OW 6118   0.436   0.937   5.862
 1740SOL    HW1 6119   0.343   0.966   5.883
 1740SOL    HW2 6120   0.500   1.010   5.887
 1741SOL     OW 6121   1.285   0.107   2.817
 1741SOL    HW1 6122   1.228   0.065   2.888
 1741SOL    HW2 6123   1.334   0.185   2.856
 1742SOL     OW 6124   6.266   0.655   4.480
 1742SOL    HW1 6125   6.262   0.576   4.541
 1742SOL    HW2 6126   6.360   0.689   4.475
 1743SOL     OW 6127   3.793   1.409   1.319
 1743SOL    HW1 6128   3.782   1.506   1.343
 1743SOL    HW2 6129   3.706   1.362   1.331
 1744SOL     OW 6130   2.660   0.561   1.608
 1744SOL    HW1 6131   2.598   0.617   1.553
 1744SOL    HW2 6132   2.645   0.465   1.589
 1745SOL     OW 6133   6.968   2.385   2.651
 1745SOL    HW1 6134   6.899   2.362   2.583
 1745SOL    HW2 6135   6.925   2.389   2.741
 1746SOL     OW 6136   3.080   0.800   5.830
 1746SOL    HW1 6137   3.014   0.855   5.779
 1746SOL    HW2 6138   3.101   0.716   5.779
 1747SOL     OW 6139   3.183   0.275   1.959
 1747SOL    HW1 6140   3.248   0.350   1.970
 1747SOL    HW2 6141   3.214   0.214   1.886
 1748SOL     OW 6142   5.309   2.278   2.408
 1748SOL    HW1 6143   5.304   2.180   2.389
 1748SOL    HW2 6144   5.404   2.308   2.406
 1749SOL     OW 6145   4.460   6.999   6.380
 1749SOL    HW1 6146   4.530   7.013   6.311
 1749SOL    HW2 6147   4.415   0.063   6.400
 1750SOL     OW 6148   4.620   1.601   2.951
 1750SOL    HW1 6149   4.700   1.560   2.905
 1750SOL    HW2 6150   4.592   1.542   3.027
 1751SOL     OW 6151   1.666   5.162   3.780
 1751SOL    HW1 6152   1.596   5.222   3.742
 1751SOL    HW2 6153   1.746   5.216   3.808
 1752SOL     OW 6154   6.115   1.377   0.521
 1752SOL    HW1 6155   6.163   1.305   0.471
 1752SOL    HW2 6156   6.095   1.346   0.614
 1753SOL     OW 6157   1.099   0.253   1.368
 1753SOL    HW1 6158   1.088   0.285   1.274
 1753SOL    HW2 6159   1.013   0.213   1.400
 1754SOL     OW 6160   4.083   3.312   0.785
 1754SOL    HW1 6161   4.009   3.264   0.832
 1754SOL    HW2 6162   4.078   3.410   0.806
 1755SOL     OW 6163   5.263   3.959   0.685
 1755SOL    HW1 6164   5.335   4.021   0.652
 1755SOL    HW2 6165   5.285   3.929   0.778
 1756SOL     OW 6166   6.923   5.498   4.169
 1756SOL    HW1 6167   6.848   5.507   4.105
 1756SOL    HW2 6168   7.010   5.518   4.123
 1757SOL     OW 6169   3.506   6.586   4.892
 1757SOL    HW1 6170   3.425   6.629   4.852
 1757SOL    HW2 6171   3.487   6.490   4.911
 1758SOL     OW 6172   2.231   0.553   3.099
 1758SOL    HW1 6173   2.270   0.461   3.089
 1758SOL    HW2 6174   2.169   0.554   3.178
 1759SOL     OW 6175   0.576   5.455   6.451
 1759SOL    HW1 6176   0.669   5.485   6.470
 1759SOL    HW2 6177   0.525   5.450   6.537
 1760SOL     OW 6178   6.489   0.770   2.609
 1760SOL    HW1 6179   6.390   0.766   2.598
 1760SOL    HW2 6180   6.533   0.766   2.519
 1761SOL     OW 6181   6.020   1.171   1.197
 1761SOL    HW1 6182   5.921   1.179   1.195
 1761SOL    HW2 6183   6.059   1.251   1.241
 1762SOL     OW 6184   5.832   1.611   6.082
 1762SOL    HW1 6185   5.883   1.539   6.129
 1762SOL    HW2 6186   5.853   1.700   6.123
 1763SOL     OW 6187   1.807   3.770   4.166
 1763SOL    HW1 6188   1.740   3.782   4.239
 1763SOL    HW2 6189   1.890   3.729   4.203
 1764SOL     OW 6190   0.438   3.436   3.327
 1764SOL    HW1 6191   0.517   3.383   3.298
 1764SOL    HW2 6192   0.358   3.411   3.273
 1765SOL     OW 6193   2.580   2.032   6.856
 1765SOL    HW1 6194   2.567   2.055   6.759
 1765SOL    HW2 6195   2.677   2.021   6.875
 1766SOL     OW 6196   5.651   2.978   5.368
 1766SOL    HW1 6197   5.637   3.003   5.464
 1766SOL    HW2 6198   5.749   2.961   5.352
 1767SOL     OW 6199   5.638   3.146   2.254
 1767SOL    HW1 6200   5.659   3.224   2.313
 1767SOL    HW2 6201   5.584   3.177   2.177
 1768SOL     OW 6202   4.804   6.629   3.703
 1768SOL    HW1 6203   4.740   6.626   3.780
 1768SOL    HW2 6204   4.898   6.623   3.737
 1769SOL     OW 6205   3.554   1.837   2.530
 1769SOL    HW1 6206   3.468   1.852   2.580
 1769SOL    HW2 6207   3.567   1.911   2.464
 1770SOL     OW 6208   2.743   5.933   5.518
 1770SOL    HW1 6209   2.764   5.957   5.613
 1770SOL    HW2 6210   2.729   6.016   5.465
 1771SOL     OW 6211   3.785   5.580   6.380
 1771SOL    HW1 6212   3.785   5.503   6.444
 1771SOL    HW2 6213   3.700   5.579   6.327
 1772SOL     OW 6214   2.980   6.835   3.133
 1772SOL    HW1 6215   2.944   6.841   3.039
 1772SOL    HW2 6216   3.022   6.745   3.147
 1773SOL     OW 6217   1.446   5.449   6.313
 1773SOL    HW1 6218   1.427   5.419   6.219
 1773SOL    HW2 6219   1.542   5.434   6.334
 1774SOL     OW 6220   4.326   5.722   1.238
 1774SOL    HW1 6221   4.402   5.665   1.267
 1774SOL    HW2 6222   4.361   5.805   1.193
 1775SOL     OW 6223   1.068   4.069   2.331
 1775SOL    HW1 6224   1.032   4.090   2.241
 1775SOL    HW2 6225   1.140   4.134   2.355
 1776SOL     OW 6226   3.914   6.383   4.604
 1776SOL    HW1 6227   3.893   6.481   4.605
 1776SOL    HW2 6228   4.005   6.368   4.643
 1777SOL     OW 6229   4.345   6.040   0.582
 1777SOL    HW1 6230   4.373   6.106   0.652
 1777SOL    HW2 6231   4.251   6.011   0.600
 1778SOL     OW 6232   5.019   3.916   5.970
 1778SOL    HW1 6233   5.115   3.893   5.980
 1778SOL    HW2 6234   4.990   3.975   6.045
 1779SOL     OW 6235   3.825   0.763   4.815
 1779SOL    HW1 6236   3.839   0.685   4.754
 1779SOL    HW2 6237   3.742   0.749   4.869
 1780SOL     OW 6238   3.022   3.090   6.462
 1780SOL    HW1 6239   3.060   3.100   6.370
 1780SOL    HW2 6240   2.938   3.036   6.458
 1781SOL     OW 6241   4.178   5.700   3.059
 1781SOL    HW1 6242   4.137   5.782   3.098
 1781SOL    HW2 6243   4.275   5.716   3.041
 1782SOL     OW 6244   2.710   0.863   3.335
 1782SOL    HW1 6245   2.788   0.921   3.308
 1782SOL    HW2 6246   2.676   0.893   3.424
 1783SOL     OW 6247   2.824   5.534   6.291
 1783SOL    HW1 6248   2.798   5.575   6.204
 1783SOL    HW2 6249   2.745   5.487   6.331
 1784SOL     OW 6250   3.427   0.108   6.337
 1784SOL    HW1 6251   3.335   0.108   6.298
 1784SOL    HW2 6252   3.421   0.117   6.436
 1785SOL     OW 6253   5.937   3.294   2.577
 1785SOL    HW1 6254   6.024   3.338   2.555
 1785SOL    HW2 6255   5.868   3.320   2.510
 1786SOL     OW 6256   2.343   2.850   0.346
 1786SOL    HW1 6257   2.281   2.854   0.267
 1786SOL    HW2 6258   2.337   2.936   0.397
 1787SOL     OW 6259   3.271   1.593   5.678
 1787SOL    HW1 6260   3.289   1.638   5.765
 1787SOL    HW2 6261   3.340   1.523   5.660
 1788SOL     OW 6262   1.810   5.145   5.298
 1788SOL    HW1 6263   1.861   5.200   5.232
 1788SOL    HW2 6264   1.873   5.106   5.365
 1789SOL     OW 6265   5.708   1.700   0.244
 1789SOL    HW1 6266   5.803   1.714   0.273
 1789SOL    HW2 6267   5.694   1.603   0.222
 1790SOL     OW 6268   3.967   6.570   3.682
 1790SOL    HW1 6269   3.966   6.669   3.697
 1790SOL    HW2 6270   3.974   6.551   3.584
 1791SOL     OW 6271   0.120   0.369   2.645
 1791SOL    HW1 6272   0.102   0.276   2.676
 1791SOL    HW2 6273   0.215   0.378   2.617
 1792SOL     OW 6274   0.861   3.810   5.353
 1792SOL    HW1 6275   0.783   3.765   5.396
 1792SOL    HW2 6276   0.856   3.909   5.370
 1793SOL     OW 6277   6.719   0.824   3.188
 1793SOL    HW1 6278   6.814   0.800   3.210
 1793SOL    HW2 6279   6.701   0.804   3.092
 1794SOL     OW 6280   4.958   5.698   6.071
 1794SOL    HW1 6281   4.871   5.661   6.037
 1794SOL    HW2 6282   4.950   5.797   6.080
 1795SOL     OW 6283   6.938   2.669   0.917
 1795SOL    HW1 6284   6.921   2.571   0.925
 1795SOL    HW2 6285   6.915   2.700   0.824
 1796SOL     OW 6286   2.134   0.784   5.573
 1796SOL    HW1 6287   2.167   0.869   5.532
 1796SOL    HW2 6288   2.203   0.748   5.635
 1797SOL     OW 6289   1.136   6.528   0.819
 1797SOL    HW1 6290   1.126   6.618   0.862
 1797SOL    HW2 6291   1.164   6.461   0.888
 1798SOL     OW 6292   4.758   2.467   3.807
 1798SOL    HW1 6293   4.713   2.518   3.880
 1798SOL    HW2 6294   4.857   2.465   3.822
 1799SOL     OW 6295   0.228   2.164   5.881
 1799SOL    HW1 6296   0.299   2.233   5.871
 1799SOL    HW2 6297   0.153   2.183   5.817
 1800SOL     OW 6298   4.029   4.400   1.356
 1800SOL    HW1 6299   4.010   4.357   1.267
 1800SOL    HW2 6300   4.030   4.499   1.345
 1801SOL     OW 6301   6.744   0.413   2.231
 1801SOL    HW1 6302   6.682   0.388   2.306
 1801SOL    HW2 6303   6.833   0.372   2.247
 1802SOL     OW 6304   6.575   5.738   4.307
 1802SOL    HW1 6305   6.651   5.673   4.298
 1802SOL    HW2 6306   6.608   5.820   4.353
 1803SOL     OW 6307   7.001   5.476   0.275
 1803SOL    HW1 6308   0.016   5.427   0.196
 1803SOL    HW2 6309   6.904   5.450   0.285
 1804SOL     OW 6310   3.248   3.740   5.263
 1804SOL    HW1 6311   3.337   3.696   5.253
 1804SOL    HW2 6312   3.176   3.671   5.258
 1805SOL     OW 6313   5.297   3.850   6.053
 1805SOL    HW1 6314   5.368   3.915   6.026
 1805SOL    HW2 6315   5.300   3.836   6.152
 1806SOL     OW 6316   1.291   0.064   1.404
 1806SOL    HW1 6317   1.270   7.023   1.331
 1806SOL    HW2 6318   1.212   0.123   1.420
 1807SOL     OW 6319   6.330   1.749   4.789
 1807SOL    HW1 6320   6.393   1.780   4.717
 1807SOL    HW2 6321   6.244   1.721   4.748
 1808SOL     OW 6322   0.251   5.231   4.809
 1808SOL    HW1 6323   0.203   5.219   4.722
 1808SOL    HW2 6324   0.322   5.300   4.799
 1809SOL     OW 6325   2.896   2.047   5.968
 1809SOL    HW1 6326   2.909   1.989   6.048
 1809SOL    HW2 6327   2.931   2.000   5.887
 1810SOL     OW 6328   3.050   6.465   3.686
 1810SOL    HW1 6329   3.099   6.378   3.688
 1810SOL    HW2 6330   3.068   6.512   3.599
 1811SOL     OW 6331   5.706   5.481   3.230
 1811SOL    HW1 6332   5.636   5.465   3.300
 1811SOL    HW2 6333   5.671   5.547   3.163
 1812SOL     OW 6334   4.398   5.657   5.393
 1812SOL    HW1 6335   4.430   5.643   5.299
 1812SOL    HW2 6336   4.385   5.568   5.437
 1813SOL     OW 6337   5.685   4.397   0.088
 1813SOL    HW1 6338   5.745   4.347   0.151
 1813SOL    HW2 6339   5.702   4.495   0.097
 1814SOL     OW 6340   4.547   6.968   2.562
 1814SOL    HW1 6341   4.646   6.982   2.559
 1814SOL    HW2 6342   4.522   6.893   2.500
 1815SOL     OW 6343   0.207   1.204   3.373
 1815SOL    HW1 6344   0.180   1.116   3.333
 1815SOL    HW2 6345   0.140   1.274   3.348
 1816SOL     OW 6346   1.731   3.377   0.368
 1816SOL    HW1 6347   1.788   3.418   0.298
 1816SOL    HW2 6348   1.666   3.314   0.326
 1817SOL     OW 6349   1.978   5.802   2.614
 1817SOL    HW1 6350   1.913   5.774   2.543
 1817SOL    HW2 6351   1.977   5.902   2.622
 1818SOL     OW 6352   1.731   0.239   3.033
 1818SOL    HW1 6353   1.762   0.229   2.939
 1818SOL    HW2 6354   1.680   0.325   3.042
 1819SOL     OW 6355   1.323   3.928   1.360
 1819SOL    HW1 6356   1.382   3.960   1.434
 1819SOL    HW2 6357   1.341   3.983   1.278
 1820SOL     OW 6358   4.604   0.668   2.409
 1820SOL    HW1 6359   4.569   0.602   2.343
 1820SOL    HW2 6360   4.627   0.753   2.361
 1821SOL     OW 6361   2.282   1.458   2.976
 1821SOL    HW1 6362   2.213   1.515   2.931
 1821SOL    HW2 6363   2.371   1.473   2.933
 1822SOL     OW 6364   3.368   2.620   1.719
 1822SOL    HW1 6365   3.271   2.613   1.743
 1822SOL    HW2 6366   3.388   2.557   1.644
 1823SOL     OW 6367   4.412   6.612   2.571
 1823SOL    HW1 6368   4.318   6.643   2.585
 1823SOL    HW2 6369   4.429   6.531   2.627
 1824SOL     OW 6370   4.430   2.682   1.279
 1824SOL    HW1 6371   4.461   2.776   1.290
 1824SOL    HW2 6372   4.508   2.620   1.291
 1825SOL     OW 6373   0.819   0.599   1.501
 1825SOL    HW1 6374   0.841   0.694   1.478
 1825SOL    HW2 6375   0.722   0.591   1.524
 1826SOL     OW 6376   3.209   0.397   0.623
 1826SOL    HW1 6377   3.134   0.463   0.623
 1826SOL    HW2 6378   3.295   0.444   0.642
 1827SOL     OW 6379   6.619   5.530   1.689
 1827SOL    HW1 6380   6.704   5.548   1.641
 1827SOL    HW2 6381   6.622   5.439   1.731
 1828SOL     OW 6382   0.636   2.611   6.629
 1828SOL    HW1 6383   0.642   2.519   6.589
 1828SOL    HW2 6384   0.726   2.652   6.632
 1829SOL     OW 6385   4.896   5.689   3.102
 1829SOL    HW1 6386   4.855   5.760   3.159
 1829SOL    HW2 6387   4.839   5.607   3.105
 1830SOL     OW 6388   4.407   6.492   3.101
 1830SOL    HW1 6389   4.366   6.567   3.153
 1830SOL    HW2 6390   4.404   6.408   3.156
 1831SOL     OW 6391   5.202   6.116   1.927
 1831SOL    HW1 6392   5.234   6.091   2.018
 1831SOL    HW2 6393   5.278   6.109   1.862
 1832SOL     OW 6394   4.435   2.518   1.054
 1832SOL    HW1 6395   4.379   2.448   1.098
 1832SOL    HW2 6396   4.430   2.603   1.106
 1833SOL     OW 6397   5.181   0.503   4.860
 1833SOL    HW1 6398   5.126   0.529   4.939
 1833SOL    HW2 6399   5.233   0.420   4.881
 1834SOL     OW 6400   3.829   3.636   1.280
 1834SOL    HW1 6401   3.835   3.665   1.376
 1834SOL    HW2 6402   3.786   3.546   1.276
 1835SOL     OW 6403   1.821   5.048   0.822
 1835SOL    HW1 6404   1.872   5.000   0.894
 1835SOL    HW2 6405   1.826   4.996   0.737
 1836SOL     OW 6406   0.536   0.300   0.318
 1836SOL    HW1 6407   0.520   0.216   0.369
 1836SOL    HW2 6408   0.624   0.339   0.345
 1837SOL     OW 6409   1.068   2.496   4.478
 1837SOL    HW1 6410   1.021   2.515   4.564
 1837SOL    HW2 6411   1.128   2.573   4.456
 1838SOL     OW 6412   0.014   2.877   4.103
 1838SOL    HW1 6413   0.106   2.838   4.096
 1838SOL    HW2 6414   0.020   2.970   4.138
 1839SOL     OW 6415   6.514   2.886   5.233
 1839SOL    HW1 6416   6.469   2.975   5.243
 1839SOL    HW2 6417   6.513   2.839   5.321
 1840SOL     OW 6418   2.877   5.760   0.704
 1840SOL    HW1 6419   2.861   5.679   0.760
 1840SOL    HW2 6420   2.972   5.760   0.672
 1841SOL     OW 6421   2.130   3.169   3.934
 1841SOL    HW1 6422   2.119   3.254   3.986
 1841SOL    HW2 6423   2.151   3.191   3.839
 1842SOL     OW 6424   0.589   4.369   1.291
 1842SOL    HW1 6425   0.611   4.273   1.306
 1842SOL    HW2 6426   0.664   4.426   1.325
 1843SOL     OW 6427   2.395   1.482   5.338
 1843SOL    HW1 6428   2.416   1.475   5.435
 1843SOL    HW2 6429   2.478   1.506   5.288
 1844SOL     OW 6430   4.129   2.254   4.044
 1844SOL    HW1 6431   4.113   2.156   4.055
 1844SOL    HW2 6432   4.042   2.301   4.033
 1845SOL     OW 6433   3.784   0.314   0.391
 1845SOL    HW1 6434   3.873   0.285   0.354
 1845SOL    HW2 6435   3.793   0.405   0.431
 1846SOL     OW 6436   2.867   2.185   6.496
 1846SOL    HW1 6437   2.927   2.130   6.555
 1846SOL    HW2 6438   2.907   2.192   6.405
 1847SOL     OW 6439   0.764   0.072   1.157
 1847SOL    HW1 6440   0.743   0.169   1.175
 1847SOL    HW2 6441   0.863   0.060   1.152
 1848SOL     OW 6442   3.359   6.615   2.032
 1848SOL    HW1 6443   3.444   6.587   1.988
 1848SOL    HW2 6444   3.349   6.714   2.027
 1849SOL     OW 6445   3.033   1.831   6.835
 1849SOL    HW1 6446   3.107   1.833   6.901
 1849SOL    HW2 6447   2.951   1.873   6.875
 1850SOL     OW 6448   6.097   2.500   2.723
 1850SOL    HW1 6449   6.093   2.410   2.768
 1850SOL    HW2 6450   6.061   2.492   2.630
 1851SOL     OW 6451   0.265   2.318   2.257
 1851SOL    HW1 6452   0.335   2.385   2.232
 1851SOL    HW2 6453   0.208   2.354   2.330
 1852SOL     OW 6454   4.512   3.127   0.423
 1852SOL    HW1 6455   4.435   3.106   0.362
 1852SOL    HW2 6456   4.503   3.220   0.457
 1853SOL     OW 6457   0.811   3.862   1.337
 1853SOL    HW1 6458   0.716   3.894   1.334
 1853SOL    HW2 6459   0.872   3.940   1.331
 1854SOL     OW 6460   2.947   6.012   4.726
 1854SOL    HW1 6461   2.858   5.972   4.705
 1854SOL    HW2 6462   2.959   6.096   4.672
 1855SOL     OW 6463   5.301   5.365   0.841
 1855SOL    HW1 6464   5.308   5.455   0.884
 1855SOL    HW2 6465   5.236   5.370   0.765
 1856SOL     OW 6466   5.373   2.495   4.820
 1856SOL    HW1 6467   5.282   2.463   4.793
 1856SOL    HW2 6468   5.424   2.521   4.738
 1857SOL     OW 6469   4.092   0.982   4.213
 1857SOL    HW1 6470   4.072   1.067   4.166
 1857SOL    HW2 6471   4.139   0.919   4.151
 1858SOL     OW 6472   5.327   2.794   3.839
 1858SOL    HW1 6473   5.234   2.795   3.801
 1858SOL    HW2 6474   5.338   2.714   3.898
 1859SOL     OW 6475   4.497   2.509   3.380
 1859SOL    HW1 6476   4.555   2.488   3.302
 1859SOL    HW2 6477   4.508   2.605   3.405
 1860SOL     OW 6478   6.149   0.982   4.353
 1860SOL    HW1 6479   6.121   0.897   4.399
 1860SOL    HW2 6480   6.098   1.059   4.392
 1861SOL     OW 6481   5.366   6.518   2.989
 1861SOL    HW1 6482   5.373   6.501   3.088
 1861SOL    HW2 6483   5.407   6.442   2.939
 1862SOL     OW 6484   1.965   0.983   0.050
 1862SOL    HW1 6485   1.885   0.965   0.107
 1862SOL    HW2 6486   2.046   0.991   0.109
 1863SOL     OW 6487   2.918   2.705   1.429
 1863SOL    HW1 6488   2.878   2.767   1.496
 1863SOL    HW2 6489   2.993   2.751   1.381
 1864SOL     OW 6490   1.042   6.309   4.771
 1864SOL    HW1 6491   1.051   6.234   4.706
 1864SOL    HW2 6492   1.005   6.275   4.857
 1865SOL     OW 6493   4.078   1.775   5.715
 1865SOL    HW1 6494   4.030   1.751   5.799
 1865SOL    HW2 6495   4.176   1.756   5.726
 1866SOL     OW 6496   4.610   4.359   2.219
 1866SOL    HW1 6497   4.569   4.340   2.130
 1866SOL    HW2 6498   4.639   4.273   2.261
 1867SOL     OW 6499   6.809   3.882   6.947
 1867SOL    HW1 6500   6.905   3.879   6.974
 1867SOL    HW2 6501   6.763   3.798   6.978
 1868SOL     OW 6502   5.998   4.763   6.125
 1868SOL    HW1 6503   5.981   4.665   6.132
 1868SOL    HW2 6504   5.942   4.801   6.051
 1869SOL     OW 6505   6.328   1.246   5.274
 1869SOL    HW1 6506   6.268   1.284   5.204
 1869SOL    HW2 6507   6.409   1.207   5.231
 1870SOL     OW 6508   1.725   5.254   4.684
 1870SOL    HW1 6509   1.817   5.286   4.662
 1870SOL    HW2 6510   1.673   5.328   4.726
 1871SOL     OW 6511   2.097   0.153   0.599
 1871SOL    HW1 6512   2.024   0.122   0.659
 1871SOL    HW2 6513   2.175   0.090   0.605
 1872SOL     OW 6514   1.992   4.378   0.459
 1872SOL    HW1 6515   2.087   4.409   0.465
 1872SOL    HW2 6516   1.975   4.309   0.530
 1873SOL     OW 6517   4.136   1.273   6.249
 1873SOL    HW1 6518   4.197   1.323   6.187
 1873SOL    HW2 6519   4.043   1.276   6.212
 1874SOL     OW 6520   1.957   1.686   1.972
 1874SOL    HW1 6521   1.935   1.588   1.976
 1874SOL    HW2 6522   1.910   1.734   2.045
 1875SOL     OW 6523   0.325   6.910   6.499
 1875SOL    HW1 6524   0.318   6.837   6.431
 1875SOL    HW2 6525   0.326   6.999   6.452
 1876SOL     OW 6526   3.078   0.052   4.493
 1876SOL    HW1 6527   3.024   0.112   4.433
 1876SOL    HW2 6528   3.061   0.077   4.589
 1877SOL     OW 6529   0.929   0.210   4.010
 1877SOL    HW1 6530   0.968   0.243   3.924
 1877SOL    HW2 6531   0.908   0.288   4.069
 1878SOL     OW 6532   6.779   2.441   4.293
 1878SOL    HW1 6533   6.833   2.511   4.246
 1878SOL    HW2 6534   6.682   2.463   4.284
 1879SOL     OW 6535   0.974   4.080   4.990
 1879SOL    HW1 6536   0.927   4.001   5.030
 1879SOL    HW2 6537   0.958   4.160   5.047
 1880SOL     OW 6538   6.372   1.684   5.184
 1880SOL    HW1 6539   6.309   1.761   5.179
 1880SOL    HW2 6540   6.328   1.602   5.147
 1881SOL     OW 6541   6.358   1.841   0.377
 1881SOL    HW1 6542   6.379   1.815   0.471
 1881SOL    HW2 6543   6.272   1.892   0.375
 1882SOL     OW 6544   1.048   4.219   6.150
 1882SOL    HW1 6545   0.950   4.202   6.139
 1882SOL    HW2 6546   1.097   4.187   6.069
 1883SOL     OW 6547   7.019   2.834   2.857
 1883SOL    HW1 6548   0.010   2.924   2.899
 1883SOL    HW2 6549   7.014   2.845   2.758
 1884SOL     OW 6550   0.246   1.995   1.493
 1884SOL    HW1 6551   0.256   1.919   1.558
 1884SOL    HW2 6552   0.200   2.072   1.537
 1885SOL     OW 6553   2.122   2.160   5.729
 1885SOL    HW1 6554   2.149   2.070   5.765
 1885SOL    HW2 6555   2.203   2.206   5.692
 1886SOL     OW 6556   1.427   6.741   3.181
 1886SOL    HW1 6557   1.512   6.770   3.226
 1886SOL    HW2 6558   1.416   6.792   3.096
 1887SOL     OW 6559   1.240   6.164   6.430
 1887SOL    HW1 6560   1.284   6.080   6.400
 1887SOL    HW2 6561   1.158   6.143   6.481
 1888SOL     OW 6562   2.612   1.315   1.056
 1888SOL    HW1 6563   2.590   1.394   1.114
 1888SOL    HW2 6564   2.581   1.334   0.962
 1889SOL     OW 6565   1.400   3.646   3.538
 1889SOL    HW1 6566   1.392   3.550   3.563
 1889SOL    HW2 6567   1.438   3.654   3.446
 1890SOL     OW 6568   0.926   5.870   3.931
 1890SOL    HW1 6569   0.944   5.850   4.027
 1890SOL    HW2 6570   0.997   5.829   3.875
 1891SOL     OW 6571   4.087   3.591   2.384
 1891SOL    HW1 6572   4.098   3.557   2.290
 1891SOL    HW2 6573   4.177   3.604   2.425
 1892SOL     OW 6574   6.873   0.230   1.718
 1892SOL    HW1 6575   6.796   0.245   1.781
 1892SOL    HW2 6576   6.846   0.164   1.648
 1893SOL     OW 6577   3.546   3.455   3.342
 1893SOL    HW1 6578   3.644   3.438   3.345
 1893SOL    HW2 6579   3.508   3.418   3.257
 1894SOL     OW 6580   3.633   3.845   4.365
 1894SOL    HW1 6581   3.614   3.773   4.299
 1894SOL    HW2 6582   3.562   3.846   4.435
 1895SOL     OW 6583   4.411   0.144   0.316
 1895SOL    HW1 6584   4.386   0.155   0.412
 1895SOL    HW2 6585   4.473   0.219   0.289
 1896SOL     OW 6586   5.191   1.788   1.065
 1896SOL    HW1 6587   5.226   1.840   0.988
 1896SOL    HW2 6588   5.137   1.849   1.124
 1897SOL     OW 6589   2.415   4.977   3.336
 1897SOL    HW1 6590   2.493   5.034   3.363
 1897SOL    HW2 6591   2.445   4.912   3.265
 1898SOL     OW 6592   1.279   5.884   3.494
 1898SOL    HW1 6593   1.375   5.866   3.478
 1898SOL    HW2 6594   1.258   5.979   3.472
 1899SOL     OW 6595   0.032   0.147   2.075
 1899SOL    HW1 6596   0.017   0.230   2.022
 1899SOL    HW2 6597   6.976   0.128   2.131
 1900SOL     OW 6598   2.979   0.280   0.017
 1900SOL    HW1 6599   2.997   0.182   0.020
 1900SOL    HW2 6600   3.003   0.320   0.106
 1901SOL     OW 6601   3.165   3.801   1.051
 1901SOL    HW1 6602   3.104   3.825   1.126
 1901SOL    HW2 6603   3.223   3.724   1.078
 1902SOL     OW 6604   1.734   6.405   5.088
 1902SOL    HW1 6605   1.680   6.327   5.056
 1902SOL    HW2 6606   1.798   6.433   5.016
 1903SOL     OW 6607   1.020   3.103   4.117
 1903SOL    HW1 6608   1.057   3.171   4.054
 1903SOL    HW2 6609   1.054   3.012   4.093
 1904SOL     OW 6610   5.561   5.507   2.618
 1904SOL    HW1 6611   5.599   5.426   2.573
 1904SOL    HW2 6612   5.485   5.543   2.563
 1905SOL     OW 6613   0.523   0.823   3.733
 1905SOL    HW1 6614   0.579   0.837   3.815
 1905SOL    HW2 6615   0.578   0.776   3.664
 1906SOL     OW 6616   2.679   0.391   5.612
 1906SOL    HW1 6617   2.678   0.470   5.673
 1906SOL    HW2 6618   2.772   0.374   5.581
 1907SOL     OW 6619   4.783   2.610   6.994
 1907SOL    HW1 6620   4.750   2.562   0.052
 1907SOL    HW2 6621   4.782   2.709   7.011
 1908SOL     OW 6622   3.616   1.267   0.975
 1908SOL    HW1 6623   3.621   1.167   0.979
 1908SOL    HW2 6624   3.534   1.298   1.022
 1909SOL     OW 6625   0.047   4.756   5.140
 1909SOL    HW1 6626   0.002   4.815   5.072
 1909SOL    HW2 6627   0.129   4.716   5.100
 1910SOL     OW 6628   6.627   6.274   6.115
 1910SOL    HW1 6629   6.587   6.188   6.081
 1910SOL    HW2 6630   6.677   6.256   6.199
 1911SOL     OW 6631   0.281   5.169   4.192
 1911SOL    HW1 6632   0.223   5.218   4.257
 1911SOL    HW2 6633   0.376   5.169   4.225
 1912SOL     OW 6634   2.471   4.980   2.822
 1912SOL    HW1 6635   2.546   5.016   2.767
 1912SOL    HW2 6636   2.435   4.898   2.779
 1913SOL     OW 6637   2.702   4.732   5.274
 1913SOL    HW1 6638   2.785   4.702   5.227
 1913SOL    HW2 6639   2.640   4.655   5.283
 1914SOL     OW 6640   2.458   4.511   6.259
 1914SOL    HW1 6641   2.493   4.549   6.345
 1914SOL    HW2 6642   2.448   4.412   6.268
 1915SOL     OW 6643   5.060   2.558   6.206
 1915SOL    HW1 6644   5.087   2.653   6.191
 1915SOL    HW2 6645   5.046   2.542   6.304
 1916SOL     OW 6646   3.977   0.600   1.967
 1916SOL    HW1 6647   4.032   0.664   1.914
 1916SOL    HW2 6648   4.030   0.567   2.045
 1917SOL     OW 6649   2.473   4.456   1.261
 1917SOL    HW1 6650   2.534   4.529   1.294
 1917SOL    HW2 6651   2.382   4.468   1.300
 1918SOL     OW 6652   6.696   1.611   4.539
 1918SOL    HW1 6653   6.730   1.703   4.521
 1918SOL    HW2 6654   6.741   1.547   4.476
 1919SOL     OW 6655   1.142   2.003   0.900
 1919SOL    HW1 6656   1.101   2.070   0.962
 1919SOL    HW2 6657   1.189   1.933   0.953
 1920SOL     OW 6658   5.391   2.520   0.924
 1920SOL    HW1 6659   5.322   2.588   0.946
 1920SOL    HW2 6660   5.415   2.526   0.827
 1921SOL     OW 6661   1.967   3.188   6.809
 1921SOL    HW1 6662   2.016   3.241   6.740
 1921SOL    HW2 6663   1.955   3.094   6.777
 1922SOL     OW 6664   2.841   3.525   2.350
 1922SOL    HW1 6665   2.756   3.566   2.382
 1922SOL    HW2 6666   2.834   3.505   2.252
 1923SOL     OW 6667   4.492   0.319   5.418
 1923SOL    HW1 6668   4.411   0.261   5.421
 1923SOL    HW2 6669   4.515   0.339   5.323
 1924SOL     OW 6670   4.624   6.895   0.898
 1924SOL    HW1 6671   4.578   6.807   0.892
 1924SOL    HW2 6672   4.687   6.906   0.821
 1925SOL     OW 6673   0.864   4.212   1.117
 1925SOL    HW1 6674   0.883   4.259   1.203
 1925SOL    HW2 6675   0.936   4.145   1.099
 1926SOL     OW 6676   3.498   0.004   2.288
 1926SOL    HW1 6677   3.516   6.930   2.290
 1926SOL    HW2 6678   3.419   0.024   2.346
 1927SOL     OW 6679   1.924   5.138   1.376
 1927SOL    HW1 6680   1.865   5.076   1.325
 1927SOL    HW2 6681   1.968   5.089   1.451
 1928SOL     OW 6682   4.750   4.229   2.855
 1928SOL    HW1 6683   4.673   4.289   2.879
 1928SOL    HW2 6684   4.732   4.184   2.768
 1929SOL     OW 6685   2.983   0.745   3.081
 1929SOL    HW1 6686   2.905   0.800   3.111
 1929SOL    HW2 6687   2.992   0.751   2.981
 1930SOL     OW 6688   4.628   2.738   6.664
 1930SOL    HW1 6689   4.723   2.764   6.647
 1930SOL    HW2 6690   4.613   2.645   6.629
 1931SOL     OW 6691   0.816   1.350   4.817
 1931SOL    HW1 6692   0.882   1.402   4.762
 1931SOL    HW2 6693   0.769   1.411   4.879
 1932SOL     OW 6694   4.606   2.390   2.438
 1932SOL    HW1 6695   4.702   2.371   2.417
 1932SOL    HW2 6696   4.549   2.365   2.359
 1933SOL     OW 6697   0.910   1.260   1.096
 1933SOL    HW1 6698   0.997   1.241   1.140
 1933SOL    HW2 6699   0.900   1.358   1.082
 1934SOL     OW 6700   0.398   0.060   5.751
 1934SOL    HW1 6701   0.406   0.034   5.655
 1934SOL    HW2 6702   0.356   7.009   5.803
 1935SOL     OW 6703   0.060   4.956   4.240
 1935SOL    HW1 6704   7.020   4.881   4.258
 1935SOL    HW2 6705   0.106   4.941   4.153
 1936SOL     OW 6706   4.752   2.937   5.124
 1936SOL    HW1 6707   4.678   2.988   5.168
 1936SOL    HW2 6708   4.714   2.877   5.053
 1937SOL     OW 6709   5.099   5.261   6.970
 1937SOL    HW1 6710   5.026   5.213   6.922
 1937SOL    HW2 6711   5.171   5.286   6.906
 1938SOL     OW 6712   0.781   2.701   6.303
 1938SOL    HW1 6713   0.804   2.610   6.268
 1938SOL    HW2 6714   0.736   2.754   6.231
 1939SOL     OW 6715   1.283   0.093   4.742
 1939SOL    HW1 6716   1.288   0.193   4.747
 1939SOL    HW2 6717   1.325   0.053   4.823
 1940SOL     OW 6718   6.675   4.699   1.372
 1940SOL    HW1 6719   6.633   4.779   1.416
 1940SOL    HW2 6720   6.608   4.625   1.365
 1941SOL     OW 6721   0.030   2.584   4.094
 1941SOL    HW1 6722   0.099   2.576   4.167
 1941SOL    HW2 6723   7.016   2.677   4.094
 1942SOL     OW 6724   5.502   3.406   2.599
 1942SOL    HW1 6725   5.514   3.497   2.638
 1942SOL    HW2 6726   5.473   3.414   2.504
 1943SOL     OW 6727   1.074   1.569   2.650
 1943SOL    HW1 6728   1.077   1.639   2.578
 1943SOL    HW2 6729   1.145   1.588   2.718
 1944SOL     OW 6730   6.984   2.601   1.827
 1944SOL    HW1 6731   6.916   2.574   1.896
 1944SOL    HW2 6732   6.975   2.699   1.808
 1945SOL     OW 6733   4.925   0.420   1.996
 1945SOL    HW1 6734   5.001   0.367   1.960
 1945SOL    HW2 6735   4.896   0.382   2.084
 1946SOL     OW 6736   5.989   5.550   1.645
 1946SOL    HW1 6737   5.930   5.615   1.598
 1946SOL    HW2 6738   6.075   5.541   1.596
 1947SOL     OW 6739   6.135   4.709   4.301
 1947SOL    HW1 6740   6.221   4.705   4.249
 1947SOL    HW2 6741   6.059   4.693   4.239
 1948SOL     OW 6742   4.905   3.477   3.466
 1948SOL    HW1 6743   4.908   3.390   3.416
 1948SOL    HW2 6744   4.858   3.545   3.410
 1949SOL     OW 6745   3.767   4.940   6.514
 1949SOL    HW1 6746   3.777   5.001   6.593
 1949SOL    HW2 6747   3.672   4.908   6.509
 1950SOL     OW 6748   3.618   4.082   4.120
 1950SOL    HW1 6749   3.579   4.020   4.188
 1950SOL    HW2 6750   3.616   4.176   4.155
 1951SOL     OW 6751   6.322   4.465   5.705
 1951SOL    HW1 6752   6.393   4.440   5.640
 1951SOL    HW2 6753   6.242   4.500   5.655
 1952SOL     OW 6754   5.563   4.874   7.023
 1952SOL    HW1 6755   5.527   4.821   6.946
 1952SOL    HW2 6756   5.644   4.829   0.037
 1953SOL     OW 6757   0.328   1.333   6.591
 1953SOL    HW1 6758   0.411   1.319   6.645
 1953SOL    HW2 6759   0.262   1.260   6.611
 1954SOL     OW 6760   4.333   0.153   1.827
 1954SOL    HW1 6761   4.346   0.116   1.919
 1954SOL    HW2 6762   4.422   0.171   1.785
 1955SOL     OW 6763   1.075   1.882   2.509
 1955SOL    HW1 6764   1.030   1.861   2.596
 1955SOL    HW2 6765   1.174   1.871   2.519
 1956SOL     OW 6766   5.909   0.458   2.150
 1956SOL    HW1 6767   5.837   0.429   2.087
 1956SOL    HW2 6768   5.868   0.487   2.237
 1957SOL     OW 6769   5.211   1.711   4.057
 1957SOL    HW1 6770   5.215   1.738   3.961
 1957SOL    HW2 6771   5.273   1.768   4.110
 1958SOL     OW 6772   4.402   1.779   1.214
 1958SOL    HW1 6773   4.321   1.836   1.228
 1958SOL    HW2 6774   4.409   1.712   1.289
 1959SOL     OW 6775   0.325   0.270   4.509
 1959SOL    HW1 6776   0.401   0.328   4.538
 1959SOL    HW2 6777   0.242   0.326   4.502
 1960SOL     OW 6778   5.975   4.271   3.638
 1960SOL    HW1 6779   5.901   4.333   3.666
 1960SOL    HW2 6780   6.053   4.325   3.606
 1961SOL     OW 6781   6.595   3.880   4.989
 1961SOL    HW1 6782   6.579   3.970   4.950
 1961SOL    HW2 6783   6.693   3.859   4.985
 1962SOL     OW 6784   0.985   0.383   2.638
 1962SOL    HW1 6785   1.079   0.417   2.638
 1962SOL    HW2 6786   0.986   0.284   2.648
 1963SOL     OW 6787   0.823   1.736   1.968
 1963SOL    HW1 6788   0.852   1.771   1.879
 1963SOL    HW2 6789   0.901   1.737   2.031
 1964SOL     OW 6790   5.317   4.197   0.983
 1964SOL    HW1 6791   5.242   4.258   1.008
 1964SOL    HW2 6792   5.376   4.242   0.916
 1965SOL     OW 6793   0.376   4.581   4.042
 1965SOL    HW1 6794   0.300   4.546   4.095
 1965SOL    HW2 6795   0.455   4.597   4.102
 1966SOL     OW 6796   1.800   4.829   6.870
 1966SOL    HW1 6797   1.714   4.778   6.871
 1966SOL    HW2 6798   1.804   4.886   6.787
 1967SOL     OW 6799   5.582   3.155   3.377
 1967SOL    HW1 6800   5.644   3.174   3.454
 1967SOL    HW2 6801   5.632   3.165   3.291
 1968SOL     OW 6802   2.601   1.541   5.180
 1968SOL    HW1 6803   2.659   1.459   5.186
 1968SOL    HW2 6804   2.658   1.623   5.189
 1969SOL     OW 6805   3.176   6.732   0.386
 1969SOL    HW1 6806   3.169   6.637   0.417
 1969SOL    HW2 6807   3.103   6.786   0.428
 1970SOL     OW 6808   5.971   5.686   5.078
 1970SOL    HW1 6809   5.914   5.759   5.041
 1970SOL    HW2 6810   5.916   5.626   5.136
 1971SOL     OW 6811   1.568   6.065   5.352
 1971SOL    HW1 6812   1.525   6.032   5.268
 1971SOL    HW2 6813   1.498   6.108   5.410
 1972SOL     OW 6814   6.060   2.732   2.339
 1972SOL    HW1 6815   6.151   2.724   2.379
 1972SOL    HW2 6816   6.038   2.829   2.324
 1973SOL     OW 6817   1.876   4.276   6.946
 1973SOL    HW1 6818   1.908   4.352   6.890
 1973SOL    HW2 6819   1.937   4.197   6.933
 1974SOL     OW 6820   3.647   6.326   5.030
 1974SOL    HW1 6821   3.614   6.231   5.034
 1974SOL    HW2 6822   3.596   6.381   5.097
 1975SOL     OW 6823   1.553   2.121   3.485
 1975SOL    HW1 6824   1.591   2.166   3.565
 1975SOL    HW2 6825   1.540   2.189   3.412
 1976SOL     OW 6826   0.005   6.977   6.300
 1976SOL    HW1 6827   0.053   0.011   6.366
 1976SOL    HW2 6828   6.948   6.937   6.343
 1977SOL     OW 6829   2.209   4.677   5.630
 1977SOL    HW1 6830   2.160   4.589   5.632
 1977SOL    HW2 6831   2.239   4.700   5.722
 1978SOL     OW 6832   2.689   6.932   1.814
 1978SOL    HW1 6833   2.775   6.895   1.778
 1978SOL    HW2 6834   2.668   6.890   1.902
 1979SOL     OW 6835   0.205   4.762   6.693
 1979SOL    HW1 6836   0.260   4.689   6.734
 1979SOL    HW2 6837   0.256   4.801   6.615
 1980SOL     OW 6838   3.565   1.567   1.088
 1980SOL    HW1 6839   3.492   1.523   1.139
 1980SOL    HW2 6840   3.527   1.635   1.025
 1981SOL     OW 6841   4.366   2.356   3.081
 1981SOL    HW1 6842   4.339   2.264   3.053
 1981SOL    HW2 6843   4.327   2.377   3.170
 1982SOL     OW 6844   6.724   2.544   5.338
 1982SOL    HW1 6845   6.642   2.487   5.344
 1982SOL    HW2 6846   6.720   2.600   5.255
 1983SOL     OW 6847   0.089   0.271   1.574
 1983SOL    HW1 6848   0.012   0.259   1.636
 1983SOL    HW2 6849   0.108   0.368   1.562
 1984SOL     OW 6850   4.995   2.827   5.254
 1984SOL    HW1 6851   5.026   2.848   5.346
 1984SOL    HW2 6852   4.909   2.874   5.236
 1985SOL     OW 6853   6.038   3.600   2.612
 1985SOL    HW1 6854   6.095   3.519   2.618
 1985SOL    HW2 6855   5.944   3.578   2.639
 1986SOL     OW 6856   3.696   2.420   1.455
 1986SOL    HW1 6857   3.625   2.360   1.492
 1986SOL    HW2 6858   3.737   2.472   1.530
 1987SOL     OW 6859   2.453   0.909   2.186
 1987SOL    HW1 6860   2.394   0.931   2.108
 1987SOL    HW2 6861   2.399   0.863   2.256
 1988SOL     OW 6862   6.821   1.964   0.926
 1988SOL    HW1 6863   6.880   1.892   0.964
 1988SOL    HW2 6864   6.870   2.010   0.852
 1989SOL     OW 6865   3.128   4.934   5.003
 1989SOL    HW1 6866   3.191   4.992   4.952
 1989SOL    HW2 6867   3.167   4.911   5.092
 1990SOL     OW 6868   3.801   0.635   0.876
 1990SOL    HW1 6869   3.762   0.558   0.825
 1990SOL    HW2 6870   3.820   0.608   0.970
 1991SOL     OW 6871   3.052   5.370   0.633
 1991SOL    HW1 6872   3.079   5.406   0.722
 1991SOL    HW2 6873   3.111   5.409   0.562
 1992SOL     OW 6874   0.575   5.629   0.943
 1992SOL    HW1 6875   0.668   5.665   0.936
 1992SOL    HW2 6876   0.578   5.529   0.942
 1993SOL     OW 6877   2.130   3.382   4.143
 1993SOL    HW1 6878   2.194   3.328   4.197
 1993SOL    HW2 6879   2.050   3.403   4.199
 1994SOL     OW 6880   2.840   3.159   0.265
 1994SOL    HW1 6881   2.786   3.227   0.315
 1994SOL    HW2 6882   2.884   3.203   0.187
 1995SOL     OW 6883   5.611   2.468   5.037
 1995SOL    HW1 6884   5.598   2.431   4.945
 1995SOL    HW2 6885   5.524   2.466   5.086
 1996SOL     OW 6886   3.627   1.739   0.791
 1996SOL    HW1 6887   3.684   1.809   0.747
 1996SOL    HW2 6888   3.594   1.774   0.879
 1997SOL     OW 6889   3.963   0.803   3.357
 1997SOL    HW1 6890   3.881   0.746   3.348
 1997SOL    HW2 6891   4.012   0.779   3.440
 1998SOL     OW 6892   1.961   3.000   1.173
 1998SOL    HW1 6893   1.866   2.995   1.203
 1998SOL    HW2 6894   2.022   2.993   1.253
 1999SOL     OW 6895   1.942   6.960   6.413
 1999SOL    HW1 6896   1.875   6.912   6.355
 1999SOL    HW2 6897   1.919   6.945   6.509
 2000SOL     OW 6898   3.898   4.314   5.642
 2000SOL    HW1 6899   3.881   4.233   5.698
 2000SOL    HW2 6900   3.927   4.390   5.700
 2001SOL     OW 6901   2.201   1.581   7.017
 2001SOL    HW1 6902   2.137   1.536   0.055
 2001SOL    HW2 6903   2.206   1.678   0.015
 2002SOL     OW 6904   0.137   4.121   0.500
 2002SOL    HW1 6905   0.068   4.116   0.572
 2002SOL    HW2 6906   0.106   4.182   0.427
 2003SOL     OW 6907   6.746   5.561   1.992
 2003SOL    HW1 6908   6.780   5.636   2.049
 2003SOL    HW2 6909   6.715   5.597   1.904
 2004SOL     OW 6910   3.171   0.009   3.106
 2004SOL    HW1 6911   3.112   6.953   3.119
 2004SOL    HW2 6912   3.167   0.039   3.011
 2005SOL     OW 6913   1.679   6.163   1.159
 2005SOL    HW1 6914   1.675   6.153   1.258
 2005SOL    HW2 6915   1.698   6.074   1.117
 2006SOL     OW 6916   5.733   0.164   2.881
 2006SOL    HW1 6917   5.718   0.198   2.973
 2006SOL    HW2 6918   5.826   0.187   2.852
 2007SOL     OW 6919   5.960   4.706   7.015
 2007SOL    HW1 6920   5.965   4.800   0.025
 2007SOL    HW2 6921   5.867   4.671   0.003
 2008SOL     OW 6922   1.858   3.383   3.681
 2008SOL    HW1 6923   1.793   3.320   3.723
 2008SOL    HW2 6924   1.809   3.457   3.634
 2009SOL     OW 6925   6.027   6.926   2.206
 2009SOL    HW1 6926   6.097   6.954   2.271
 2009SOL    HW2 6927   5.982   7.008   2.169
 2010SOL     OW 6928   1.298   1.502   1.693
 2010SOL    HW1 6929   1.254   1.575   1.641
 2010SOL    HW2 6930   1.364   1.455   1.634
 2011SOL     OW 6931   0.836   6.906   5.791
 2011SOL    HW1 6932   0.764   6.973   5.807
 2011SOL    HW2 6933   0.796   6.821   5.757
 2012SOL     OW 6934   1.361   3.296   1.842
 2012SOL    HW1 6935   1.381   3.261   1.934
 2012SOL    HW2 6936   1.325   3.389   1.849
 2013SOL     OW 6937   0.408   3.474   2.669
 2013SOL    HW1 6938   0.377   3.387   2.709
 2013SOL    HW2 6939   0.329   3.521   2.629
 2014SOL     OW 6940   3.790   0.448   4.257
 2014SOL    HW1 6941   3.804   0.531   4.311
 2014SOL    HW2 6942   3.735   0.383   4.309
 2015SOL     OW 6943   4.445   0.458   1.666
 2015SOL    HW1 6944   4.468   0.533   1.605
 2015SOL    HW2 6945   4.432   0.374   1.613
 2016SOL     OW 6946   1.528   0.426   5.756
 2016SOL    HW1 6947   1.443   0.376   5.742
 2016SOL    HW2 6948   1.532   0.461   5.850
 2017SOL     OW 6949   4.121   6.291   2.848
 2017SOL    HW1 6950   4.031   6.271   2.809
 2017SOL    HW2 6951   4.124   6.388   2.876
 2018SOL     OW 6952   1.253   1.034   3.795
 2018SOL    HW1 6953   1.244   1.071   3.703
 2018SOL    HW2 6954   1.330   0.971   3.799
 2019SOL     OW 6955   6.280   5.095   6.370
 2019SOL    HW1 6956   6.365   5.116   6.419
 2019SOL    HW2 6957   6.251   5.176   6.319
 2020SOL     OW 6958   2.490   6.028   6.239
 2020SOL    HW1 6959   2.461   6.031   6.143
 2020SOL    HW2 6960   2.581   5.988   6.245
 2021SOL     OW 6961   0.176   6.031   3.789
 2021SOL    HW1 6962   0.252   6.077   3.835
 2021SOL    HW2 6963   0.096   6.031   3.850
 2022SOL     OW 6964   1.856   3.961   4.860
 2022SOL    HW1 6965   1.941   3.911   4.876
 2022SOL    HW2 6966   1.869   4.023   4.783
 2023SOL     OW 6967   0.071   6.500   0.321
 2023SOL    HW1 6968   7.006   6.534   0.352
 2023SOL    HW2 6969   0.141   6.529   0.386
 2024SOL     OW 6970   1.162   5.976   4.330
 2024SOL    HW1 6971   1.190   6.059   4.378
 2024SOL    HW2 6972   1.071   5.948   4.362
 2025SOL     OW 6973   1.388   6.643   4.861
 2025SOL    HW1 6974   1.417   6.656   4.956
 2025SOL    HW2 6975   1.435   6.709   4.802
 2026SOL     OW 6976   0.050   0.180   6.067
 2026SOL    HW1 6977   0.050   0.275   6.099
 2026SOL    HW2 6978   0.040   0.119   6.146
 2027SOL     OW 6979   7.013   5.938   2.495
 2027SOL    HW1 6980   0.031   6.023   2.526
 2027SOL    HW2 6981   0.038   5.904   2.414
 2028SOL     OW 6982   3.637   4.921   4.283
 2028SOL    HW1 6983   3.649   4.959   4.191
 2028SOL    HW2 6984   3.700   4.845   4.297
 2029SOL     OW 6985   6.027   2.377   6.560
 2029SOL    HW1 6986   5.984   2.292   6.590
 2029SOL    HW2 6987   5.959   2.450   6.557
 2030SOL     OW 6988   2.408   6.764   2.514
 2030SOL    HW1 6989   2.395   6.860   2.537
 2030SOL    HW2 6990   2.320   6.724   2.486
 2031SOL     OW 6991   0.150   6.077   3.522
 2031SOL    HW1 6992   0.148   6.067   3.621
 2031SOL    HW2 6993   0.155   5.987   3.479
 2032SOL     OW 6994   2.677   2.313   6.056
 2032SOL    HW1 6995   2.638   2.235   6.007
 2032SOL    HW2 6996   2.748   2.356   5.999
 2033SOL     OW 6997   2.017   2.136   0.516
 2033SOL    HW1 6998   2.113   2.136   0.544
 2033SOL    HW2 6999   1.987   2.042   0.501
 2034SOL     OW 7000   6.957   4.484   5.158
 2034SOL    HW1 7001   6.992   4.577   5.170
 2034SOL    HW2 7002   6.887   4.484   5.087
 2035SOL     OW 7003   5.708   0.351   3.095
 2035SOL    HW1 7004   5.757   0.310   3.172
 2035SOL    HW2 7005   5.740   0.445   3.082
 2036SOL     OW 7006   1.277   4.178   2.035
 2036SOL    HW1 7007   1.188   4.132   2.044
 2036SOL    HW2 7008   1.311   4.202   2.125
 2037SOL     OW 7009   0.297   3.021   0.132
 2037SOL    HW1 7010   0.351   3.083   0.188
 2037SOL    HW2 7011   0.356   2.949   0.095
 2038SOL     OW 7012   1.684   1.421   6.440
 2038SOL    HW1 7013   1.721   1.497   6.385
 2038SOL    HW2 7014   1.645   1.352   6.379
 2039SOL     OW 7015   5.770   6.094   2.916
 2039SOL    HW1 7016   5.733   6.025   2.854
 2039SOL    HW2 7017   5.695   6.140   2.963
 2040SOL     OW 7018   1.961   2.811   0.557
 2040SOL    HW1 7019   1.916   2.759   0.484
 2040SOL    HW2 7020   1.907   2.805   0.641
 2041SOL     OW 7021   2.314   0.151   6.400
 2041SOL    HW1 7022   2.372   0.230   6.378
 2041SOL    HW2 7023   2.274   0.164   6.491
 2042SOL     OW 7024   5.087   0.901   5.593
 2042SOL    HW1 7025   5.155   0.841   5.634
 2042SOL    HW2 7026   5.133   0.977   5.547
 2043SOL     OW 7027   6.942   4.026   1.459
 2043SOL    HW1 7028   6.858   4.022   1.514
 2043SOL    HW2 7029   6.920   4.056   1.367
 2044SOL     OW 7030   4.546   0.289   1.097
 2044SOL    HW1 7031   4.628   0.278   1.041
 2044SOL    HW2 7032   4.521   0.385   1.101
 2045SOL     OW 7033   0.955   6.508   6.331
 2045SOL    HW1 7034   1.041   6.521   6.381
 2045SOL    HW2 7035   0.967   6.437   6.262
 2046SOL     OW 7036   1.152   2.127   4.886
 2046SOL    HW1 7037   1.095   2.200   4.922
 2046SOL    HW2 7038   1.228   2.166   4.833
 2047SOL     OW 7039   0.129   0.402   0.892
 2047SOL    HW1 7040   0.222   0.409   0.927
 2047SOL    HW2 7041   0.124   0.445   0.802
 2048SOL     OW 7042   0.805   1.876   4.718
 2048SOL    HW1 7043   0.829   1.877   4.621
 2048SOL    HW2 7044   0.739   1.948   4.737
 2049SOL     OW 7045   4.945   1.530   4.923
 2049SOL    HW1 7046   5.021   1.503   4.982
 2049SOL    HW2 7047   4.965   1.503   4.829
 2050SOL     OW 7048   0.911   1.398   4.063
 2050SOL    HW1 7049   0.977   1.350   4.005
 2050SOL    HW2 7050   0.854   1.457   4.006
 2051SOL     OW 7051   2.754   6.436   0.194
 2051SOL    HW1 7052   2.681   6.406   0.256
 2051SOL    HW2 7053   2.733   6.407   0.101
 2052SOL     OW 7054   1.004   4.540   6.603
 2052SOL    HW1 7055   0.938   4.495   6.543
 2052SOL    HW2 7056   0.969   4.631   6.628
 2053SOL     OW 7057   0.331   5.500   3.597
 2053SOL    HW1 7058   0.362   5.441   3.523
 2053SOL    HW2 7059   0.287   5.581   3.559
 2054SOL     OW 7060   3.263   3.124   3.915
 2054SOL    HW1 7061   3.251   3.099   3.819
 2054SOL    HW2 7062   3.187   3.183   3.944
 2055SOL     OW 7063   3.281   2.325   5.635
 2055SOL    HW1 7064   3.209   2.394   5.649
 2055SOL    HW2 7065   3.243   2.246   5.589
 2056SOL     OW 7066   4.048   4.770   0.897
 2056SOL    HW1 7067   4.146   4.751   0.899
 2056SOL    HW2 7068   3.998   4.690   0.930
 2057SOL     OW 7069   5.764   2.141   4.486
 2057SOL    HW1 7070   5.811   2.071   4.539
 2057SOL    HW2 7071   5.666   2.139   4.506
 2058SOL     OW 7072   6.986   6.177   2.969
 2058SOL    HW1 7073   7.005   6.275   2.958
 2058SOL    HW2 7074   0.048   6.126   2.961
 2059SOL     OW 7075   2.035   0.489   6.322
 2059SOL    HW1 7076   1.979   0.572   6.316
 2059SOL    HW2 7077   2.130   0.513   6.339
 2060SOL     OW 7078   1.393   3.181   6.489
 2060SOL    HW1 7079   1.414   3.156   6.584
 2060SOL    HW2 7080   1.300   3.151   6.467
 2061SOL     OW 7081   1.975   2.893   2.154
 2061SOL    HW1 7082   1.886   2.923   2.119
 2061SOL    HW2 7083   2.013   2.963   2.214
 2062SOL     OW 7084   0.207   4.985   4.471
 2062SOL    HW1 7085   0.171   5.054   4.535
 2062SOL    HW2 7086   0.153   4.985   4.387
 2063SOL     OW 7087   0.646   0.673   4.903
 2063SOL    HW1 7088   0.667   0.719   4.990
 2063SOL    HW2 7089   0.650   0.740   4.828
 2064SOL     OW 7090   0.701   2.991   3.279
 2064SOL    HW1 7091   0.772   3.034   3.335
 2064SOL    HW2 7092   0.641   3.062   3.242
 2065SOL     OW 7093   4.100   3.004   5.603
 2065SOL    HW1 7094   4.038   3.080   5.585
 2065SOL    HW2 7095   4.076   2.927   5.543
 2066SOL     OW 7096   6.810   3.051   5.245
 2066SOL    HW1 7097   6.828   3.107   5.326
 2066SOL    HW2 7098   6.765   2.966   5.273
 2067SOL     OW 7099   6.243   5.226   1.259
 2067SOL    HW1 7100   6.338   5.256   1.270
 2067SOL    HW2 7101   6.242   5.131   1.228
 2068SOL     OW 7102   4.134   0.666   4.546
 2068SOL    HW1 7103   4.183   0.579   4.535
 2068SOL    HW2 7104   4.079   0.684   4.465
 2069SOL     OW 7105   0.621   2.933   3.623
 2069SOL    HW1 7106   0.683   2.890   3.557
 2069SOL    HW2 7107   0.649   2.908   3.716
 2070SOL     OW 7108   0.891   4.810   0.825
 2070SOL    HW1 7109   0.962   4.742   0.803
 2070SOL    HW2 7110   0.934   4.899   0.840
 2071SOL     OW 7111   6.802   1.513   5.988
 2071SOL    HW1 7112   6.863   1.466   6.051
 2071SOL    HW2 7113   6.853   1.539   5.905
 2072SOL     OW 7114   4.264   4.568   5.419
 2072SOL    HW1 7115   4.237   4.528   5.331
 2072SOL    HW2 7116   4.198   4.542   5.489
 2073SOL     OW 7117   3.078   5.627   6.278
 2073SOL    HW1 7118   3.055   5.720   6.249
 2073SOL    HW2 7119   2.995   5.581   6.310
 2074SOL     OW 7120   0.875   4.227   5.686
 2074SOL    HW1 7121   0.789   4.197   5.727
 2074SOL    HW2 7122   0.949   4.168   5.717
 2075SOL     OW 7123   6.588   1.684   1.468
 2075SOL    HW1 7124   6.580   1.757   1.536
 2075SOL    HW2 7125   6.508   1.685   1.409
 2076SOL     OW 7126   6.159   6.988   4.992
 2076SOL    HW1 7127   6.183   0.049   4.945
 2076SOL    HW2 7128   6.137   6.918   4.923
 2077SOL     OW 7129   6.345   4.360   0.519
 2077SOL    HW1 7130   6.265   4.342   0.462
 2077SOL    HW2 7131   6.406   4.423   0.471
 2078SOL     OW 7132   0.882   2.903   5.585
 2078SOL    HW1 7133   0.911   2.941   5.673
 2078SOL    HW2 7134   0.873   2.976   5.518
 2079SOL     OW 7135   4.871   1.804   2.115
 2079SOL    HW1 7136   4.936   1.758   2.055
 2079SOL    HW2 7137   4.789   1.748   2.124
 2080SOL     OW 7138   2.235   3.202   6.211
 2080SOL    HW1 7139   2.315   3.204   6.151
 2080SOL    HW2 7140   2.163   3.146   6.168
 2081SOL     OW 7141   5.453   6.016   2.588
 2081SOL    HW1 7142   5.490   6.022   2.495
 2081SOL    HW2 7143   5.368   5.964   2.586
 2082SOL     OW 7144   6.774   6.052   3.745
 2082SOL    HW1 7145   6.834   6.000   3.684
 2082SOL    HW2 7146   6.708   5.991   3.788
 2083SOL     OW 7147   0.734   6.403   4.091
 2083SOL    HW1 7148   0.761   6.485   4.140
 2083SOL    HW2 7149   0.813   6.364   4.043
 2084SOL     OW 7150   5.909   1.830   1.423
 2084SOL    HW1 7151   5.975   1.859   1.493
 2084SOL    HW2 7152   5.946   1.753   1.372
 2085SOL     OW 7153   5.349   6.038   0.998
 2085SOL    HW1 7154   5.343   6.093   1.082
 2085SOL    HW2 7155   5.431   5.980   1.002
 2086SOL     OW 7156   4.704   1.175   6.912
 2086SOL    HW1 7157   4.727   1.197   6.818
 2086SOL    HW2 7158   4.605   1.184   6.925
 2087SOL     OW 7159   4.119   1.668   6.568
 2087SOL    HW1 7160   4.124   1.739   6.637
 2087SOL    HW2 7161   4.026   1.662   6.532
 2088SOL     OW 7162   0.778   5.772   6.247
 2088SOL    HW1 7163   0.756   5.683   6.287
 2088SOL    HW2 7164   0.834   5.759   6.165
 2089SOL     OW 7165   2.742   3.821   0.316
 2089SOL    HW1 7166   2.813   3.842   0.248
 2089SOL    HW2 7167   2.663   3.782   0.269
 2090SOL     OW 7168   5.037   2.770   5.776
 2090SOL    HW1 7169   4.979   2.734   5.848
 2090SOL    HW2 7170   4.980   2.807   5.703
 2091SOL     OW 7171   5.313   6.062   2.168
 2091SOL    HW1 7172   5.364   6.145   2.188
 2091SOL    HW2 7173   5.372   5.982   2.181
 2092SOL     OW 7174   4.362   3.584   1.691
 2092SOL    HW1 7175   4.424   3.612   1.618
 2092SOL    HW2 7176   4.360   3.485   1.698
 2093SOL     OW 7177   3.426   0.958   1.998
 2093SOL    HW1 7178   3.469   0.868   1.988
 2093SOL    HW2 7179   3.394   0.969   2.092
 2094SOL     OW 7180   5.389   2.352   6.297
 2094SOL    HW1 7181   5.466   2.306   6.253
 2094SOL    HW2 7182   5.314   2.360   6.232
 2095SOL     OW 7183   5.388   5.844   3.814
 2095SOL    HW1 7184   5.432   5.932   3.795
 2095SOL    HW2 7185   5.294   5.859   3.843
 2096SOL     OW 7186   4.791   6.791   2.449
 2096SOL    HW1 7187   4.803   6.790   2.548
 2096SOL    HW2 7188   4.697   6.764   2.427
 2097SOL     OW 7189   1.174   5.664   6.490
 2097SOL    HW1 7190   1.241   5.625   6.553
 2097SOL    HW2 7191   1.183   5.620   6.401
 2098SOL     OW 7192   2.897   5.865   3.678
 2098SOL    HW1 7193   2.869   5.769   3.688
 2098SOL    HW2 7194   2.815   5.923   3.678
 2099SOL     OW 7195   4.969   1.641   6.277
 2099SOL    HW1 7196   4.956   1.638   6.376
 2099SOL    HW2 7197   4.884   1.616   6.231
 2100SOL     OW 7198   5.183   0.121   1.351
 2100SOL    HW1 7199   5.107   0.169   1.395
 2100SOL    HW2 7200   5.249   0.187   1.316
 2101SOL     OW 7201   0.600   6.903   2.102
 2101SOL    HW1 7202   0.581   6.906   2.200
 2101SOL    HW2 7203   0.697   6.919   2.086
 2102SOL     OW 7204   3.202   2.419   0.873
 2102SOL    HW1 7205   3.293   2.444   0.840
 2102SOL    HW2 7206   3.186   2.462   0.961
 2103SOL     OW 7207   3.046   6.214   0.436
 2103SOL    HW1 7208   3.079   6.296   0.388
 2103SOL    HW2 7209   3.117   6.179   0.496
 2104SOL     OW 7210   2.019   4.711   3.095
 2104SOL    HW1 7211   2.039   4.678   3.187
 2104SOL    HW2 7212   2.030   4.637   3.030
 2105SOL     OW 7213   6.008   5.360   5.196
 2105SOL    HW1 7214   6.071   5.419   5.247
 2105SOL    HW2 7215   6.052   5.333   5.110
 2106SOL     OW 7216   4.294   3.126   0.750
 2106SOL    HW1 7217   4.213   3.184   0.763
 2106SOL    HW2 7218   4.349   3.128   0.833
 2107SOL     OW 7219   4.978   4.743   5.521
 2107SOL    HW1 7220   4.968   4.658   5.470
 2107SOL    HW2 7221   4.988   4.723   5.619
 2108SOL     OW 7222   5.275   0.349   5.796
 2108SOL    HW1 7223   5.261   0.408   5.716
 2108SOL    HW2 7224   5.369   0.315   5.795
 2109SOL     OW 7225   2.867   6.612   2.805
 2109SOL    HW1 7226   2.805   6.690   2.806
 2109SOL    HW2 7227   2.961   6.644   2.796
 2110SOL     OW 7228   4.308   0.041   0.058
 2110SOL    HW1 7229   4.347   0.001   6.999
 2110SOL    HW2 7230   4.380   0.091   0.107
 2111SOL     OW 7231   1.101   2.329   5.931
 2111SOL    HW1 7232   1.111   2.420   5.890
 2111SOL    HW2 7233   1.004   2.310   5.947
 2112SOL     OW 7234   0.599   0.874   6.840
 2112SOL    HW1 7235   0.637   0.959   6.876
 2112SOL    HW2 7236   0.582   0.883   6.742
 2113SOL     OW 7237   0.525   0.796   4.637
 2113SOL    HW1 7238   0.456   0.797   4.564
 2113SOL    HW2 7239   0.493   0.853   4.713
 2114SOL     OW 7240   1.275   1.401   6.195
 2114SOL    HW1 7241   1.296   1.460   6.118
 2114SOL    HW2 7242   1.309   1.309   6.177
 2115SOL     OW 7243   6.550   6.627   3.021
 2115SOL    HW1 7244   6.454   6.623   2.993
 2115SOL    HW2 7245   6.558   6.674   3.109
 2116SOL     OW 7246   0.878   1.945   0.397
 2116SOL    HW1 7247   0.870   2.006   0.476
 2116SOL    HW2 7248   0.802   1.880   0.398
 2117SOL     OW 7249   6.330   1.633   1.849
 2117SOL    HW1 7250   6.255   1.594   1.903
 2117SOL    HW2 7251   6.417   1.597   1.882
 2118SOL     OW 7252   6.327   2.618   2.094
 2118SOL    HW1 7253   6.334   2.575   2.184
 2118SOL    HW2 7254   6.397   2.690   2.086
 2119SOL     OW 7255   1.797   1.180   0.248
 2119SOL    HW1 7256   1.766   1.217   0.335
 2119SOL    HW2 7257   1.789   1.080   0.249
 2120SOL     OW 7258   5.354   0.898   0.986
 2120SOL    HW1 7259   5.336   0.903   0.888
 2120SOL    HW2 7260   5.289   0.957   1.034
 2121SOL     OW 7261   1.444   0.289   6.921
 2121SOL    HW1 7262   1.358   0.287   6.973
 2121SOL    HW2 7263   1.430   0.249   6.831
 2122SOL     OW 7264   6.493   1.111   4.088
 2122SOL    HW1 7265   6.487   1.159   4.000
 2122SOL    HW2 7266   6.524   1.175   4.158
 2123SOL     OW 7267   1.478   5.455   2.848
 2123SOL    HW1 7268   1.529   5.422   2.927
 2123SOL    HW2 7269   1.536   5.514   2.792
 2124SOL     OW 7270   3.924   3.629   6.115
 2124SOL    HW1 7271   3.830   3.616   6.084
 2124SOL    HW2 7272   3.980   3.660   6.038
 2125SOL     OW 7273   2.034   5.916   3.921
 2125SOL    HW1 7274   1.950   5.949   3.878
 2125SOL    HW2 7275   2.084   5.994   3.961
 2126SOL     OW 7276   3.086   4.689   0.257
 2126SOL    HW1 7277   3.155   4.754   0.225
 2126SOL    HW2 7278   3.062   4.627   0.183
 2127SOL     OW 7279   0.611   2.103   4.394
 2127SOL    HW1 7280   0.623   2.154   4.480
 2127SOL    HW2 7281   0.621   2.005   4.412
 2128SOL     OW 7282   5.299   3.039   1.532
 2128SOL    HW1 7283   5.323   2.942   1.537
 2128SOL    HW2 7284   5.253   3.057   1.445
 2129SOL     OW 7285   5.309   4.156   3.990
 2129SOL    HW1 7286   5.274   4.120   4.076
 2129SOL    HW2 7287   5.252   4.233   3.961
 2130SOL     OW 7288   2.256   1.005   1.989
 2130SOL    HW1 7289   2.186   1.076   1.979
 2130SOL    HW2 7290   2.320   1.009   1.912
 2131SOL     OW 7291   5.535   0.933   4.961
 2131SOL    HW1 7292   5.532   0.854   5.023
 2131SOL    HW2 7293   5.479   0.913   4.880
 2132SOL     OW 7294   2.312   2.593   0.437
 2132SOL    HW1 7295   2.321   2.689   0.412
 2132SOL    HW2 7296   2.377   2.572   0.511
 2133SOL     OW 7297   3.267   2.184   1.632
 2133SOL    HW1 7298   3.197   2.220   1.570
 2133SOL    HW2 7299   3.235   2.191   1.726
 2134SOL     OW 7300   1.800   6.113   4.669
 2134SOL    HW1 7301   1.763   6.083   4.581
 2134SOL    HW2 7302   1.807   6.212   4.671
 2135SOL     OW 7303   1.609   0.621   4.476
 2135SOL    HW1 7304   1.583   0.525   4.470
 2135SOL    HW2 7305   1.645   0.641   4.568
 2136SOL     OW 7306   0.615   4.043   3.938
 2136SOL    HW1 7307   0.541   4.098   3.900
 2136SOL    HW2 7308   0.657   4.091   4.015
 2137SOL     OW 7309   0.967   0.595   5.192
 2137SOL    HW1 7310   0.968   0.660   5.116
 2137SOL    HW2 7311   0.936   0.642   5.275
 2138SOL     OW 7312   0.715   2.898   0.142
 2138SOL    HW1 7313   0.676   2.826   0.199
 2138SOL    HW2 7314   0.780   2.952   0.197
 2139SOL     OW 7315   2.784   1.340   5.182
 2139SOL    HW1 7316   2.876   1.323   5.218
 2139SOL    HW2 7317   2.734   1.254   5.175
 2140SOL     OW 7318   1.946   5.818   3.062
 2140SOL    HW1 7319   1.947   5.789   2.967
 2140SOL    HW2 7320   1.996   5.752   3.118
 2141SOL     OW 7321   5.906   1.154   0.289
 2141SOL    HW1 7322   5.950   1.201   0.212
 2141SOL    HW2 7323   5.948   1.063   0.300
 2142SOL     OW 7324   2.688   1.835   3.370
 2142SOL    HW1 7325   2.630   1.760   3.338
 2142SOL    HW2 7326   2.665   1.858   3.464
 2143SOL     OW 7327   3.780   6.933   0.256
 2143SOL    HW1 7328   3.880   6.935   0.258
 2143SOL    HW2 7329   3.747   6.857   0.312
 2144SOL     OW 7330   6.583   1.173   2.901
 2144SOL    HW1 7331   6.542   1.084   2.920
 2144SOL    HW2 7332   6.653   1.164   2.830
 2145SOL     OW 7333   3.747   5.608   2.929
 2145SOL    HW1 7334   3.792   5.666   2.997
 2145SOL    HW2 7335   3.665   5.655   2.895
 2146SOL     OW 7336   3.716   3.094   1.709
 2146SOL    HW1 7337   3.695   3.191   1.713
 2146SOL    HW2 7338   3.755   3.064   1.797
 2147SOL     OW 7339   0.372   0.910   5.198
 2147SOL    HW1 7340   0.320   0.969   5.260
 2147SOL    HW2 7341   0.445   0.864   5.248
 2148SOL     OW 7342   5.103   3.142   3.504
 2148SOL    HW1 7343   5.201   3.160   3.496
 2148SOL    HW2 7344   5.052   3.202   3.443
 2149SOL     OW 7345   3.145   0.987   3.038
 2149SOL    HW1 7346   3.088   0.992   3.119
 2149SOL    HW2 7347   3.088   0.984   2.956
 2150SOL     OW 7348   3.776   1.680   2.490
 2150SOL    HW1 7349   3.696   1.736   2.508
 2150SOL    HW2 7350   3.748   1.589   2.458
 2151SOL     OW 7351   3.964   2.960   5.824
 2151SOL    HW1 7352   4.030   2.971   5.750
 2151SOL    HW2 7353   3.968   3.039   5.885
 2152SOL     OW 7354   6.721   6.037   1.699
 2152SOL    HW1 7355   6.814   6.011   1.724
 2152SOL    HW2 7356   6.721   6.128   1.658
 2153SOL     OW 7357   4.812   3.032   3.312
 2153SOL    HW1 7358   4.785   3.055   3.405
 2153SOL    HW2 7359   4.890   2.969   3.314
 2154SOL     OW 7360   4.820   6.166   5.118
 2154SOL    HW1 7361   4.862   6.256   5.115
 2154SOL    HW2 7362   4.882   6.102   5.164
 2155SOL     OW 7363   6.991   3.419   0.236
 2155SOL    HW1 7364   6.989   3.321   0.253
 2155SOL    HW2 7365   6.911   3.445   0.181
 2156SOL     OW 7366   1.138   1.239   1.687
 2156SOL    HW1 7367   1.236   1.242   1.704
 2156SOL    HW2 7368   1.119   1.270   1.594
 2157SOL     OW 7369   0.684   1.122   4.668
 2157SOL    HW1 7370   0.604   1.099   4.723
 2157SOL    HW2 7371   0.744   1.184   4.719
 2158SOL     OW 7372   4.346   6.309   2.637
 2158SOL    HW1 7373   4.252   6.308   2.671
 2158SOL    HW2 7374   4.409   6.304   2.714
 2159SOL     OW 7375   2.137   5.687   4.248
 2159SOL    HW1 7376   2.204   5.761   4.242
 2159SOL    HW2 7377   2.075   5.703   4.325
 2160SOL     OW 7378   3.429   3.751   0.485
 2160SOL    HW1 7379   3.415   3.665   0.534
 2160SOL    HW2 7380   3.345   3.775   0.435
 2161SOL     OW 7381   5.206   2.392   3.672
 2161SOL    HW1 7382   5.240   2.454   3.601
 2161SOL    HW2 7383   5.270   2.393   3.749
 2162SOL     OW 7384   0.782   1.482   0.079
 2162SOL    HW1 7385   0.731   1.489   0.165
 2162SOL    HW2 7386   0.717   1.479   0.003
 2163SOL     OW 7387   2.224   2.128   7.009
 2163SOL    HW1 7388   2.254   2.209   6.958
 2163SOL    HW2 7389   2.210   2.153   0.081
 2164SOL     OW 7390   1.032   6.875   1.880
 2164SOL    HW1 7391   1.092   6.806   1.921
 2164SOL    HW2 7392   0.986   6.836   1.801
 2165SOL     OW 7393   2.830   6.532   1.655
 2165SOL    HW1 7394   2.759   6.510   1.588
 2165SOL    HW2 7395   2.858   6.449   1.703
 2166SOL     OW 7396   6.390   2.101   6.707
 2166SOL    HW1 7397   6.416   2.165   6.634
 2166SOL    HW2 7398   6.375   2.010   6.667
 2167SOL     OW 7399   2.551   0.184   1.771
 2167SOL    HW1 7400   2.649   0.175   1.751
 2167SOL    HW2 7401   2.520   0.104   1.822
 2168SOL     OW 7402   5.962   5.521   4.664
 2168SOL    HW1 7403   6.054   5.498   4.698
 2168SOL    HW2 7404   5.962   5.614   4.627
 2169SOL     OW 7405   4.901   2.073   5.170
 2169SOL    HW1 7406   4.946   1.983   5.165
 2169SOL    HW2 7407   4.803   2.062   5.157
 2170SOL     OW 7408   4.961   4.732   4.381
 2170SOL    HW1 7409   5.024   4.655   4.390
 2170SOL    HW2 7410   4.934   4.743   4.286
 2171SOL     OW 7411   6.986   2.480   0.321
 2171SOL    HW1 7412   6.904   2.534   0.340
 2171SOL    HW2 7413   0.044   2.537   0.334
 2172SOL     OW 7414   3.295   0.986   0.934
 2172SOL    HW1 7415   3.342   0.910   0.980
 2172SOL    HW2 7416   3.268   0.957   0.842
 2173SOL     OW 7417   5.011   0.739   5.292
 2173SOL    HW1 7418   4.996   0.688   5.377
 2173SOL    HW2 7419   4.926   0.786   5.266
 2174SOL     OW 7420   1.309   5.482   4.683
 2174SOL    HW1 7421   1.300   5.422   4.604
 2174SOL    HW2 7422   1.334   5.574   4.654
 2175SOL     OW 7423   2.671   6.322   4.871
 2175SOL    HW1 7424   2.621   6.280   4.795
 2175SOL    HW2 7425   2.618   6.397   4.908
 2176SOL     OW 7426   1.818   2.481   2.156
 2176SOL    HW1 7427   1.916   2.464   2.151
 2176SOL    HW2 7428   1.798   2.536   2.237
 2177SOL     OW 7429   6.449   1.396   1.652
 2177SOL    HW1 7430   6.376   1.450   1.611
 2177SOL    HW2 7431   6.480   1.439   1.737
 2178SOL     OW 7432   0.648   5.065   0.442
 2178SOL    HW1 7433   0.701   5.135   0.395
 2178SOL    HW2 7434   0.710   4.995   0.477
 2179SOL     OW 7435   0.874   4.633   3.532
 2179SOL    HW1 7436   0.947   4.614   3.599
 2179SOL    HW2 7437   0.801   4.685   3.577
 2180SOL     OW 7438   4.133   3.263   2.138
 2180SOL    HW1 7439   4.177   3.233   2.223
 2180SOL    HW2 7440   4.087   3.186   2.095
 2181SOL     OW 7441   4.392   6.328   6.922
 2181SOL    HW1 7442   4.437   6.417   6.909
 2181SOL    HW2 7443   4.404   6.299   7.017
 2182SOL     OW 7444   6.059   1.975   0.337
 2182SOL    HW1 7445   6.014   1.924   0.410
 2182SOL    HW2 7446   6.032   2.071   0.341
 2183SOL     OW 7447   2.922   3.028   0.495
 2183SOL    HW1 7448   2.916   3.069   0.404
 2183SOL    HW2 7449   2.843   2.967   0.508
 2184SOL     OW 7450   4.277   2.998   5.996
 2184SOL    HW1 7451   4.260   2.900   5.982
 2184SOL    HW2 7452   4.237   3.026   6.083
 2185SOL     OW 7453   1.542   1.479   0.947
 2185SOL    HW1 7454   1.574   1.564   0.989
 2185SOL    HW2 7455   1.620   1.417   0.935
 2186SOL     OW 7456   0.239   5.693   2.463
 2186SOL    HW1 7457   0.306   5.716   2.392
 2186SOL    HW2 7458   0.150   5.679   2.421
 2187SOL     OW 7459   7.016   1.297   6.399
 2187SOL    HW1 7460   0.038   1.385   6.388
 2187SOL    HW2 7461   6.941   1.306   6.465
 2188SOL     OW 7462   5.463   0.640   2.808
 2188SOL    HW1 7463   5.382   0.656   2.864
 2188SOL    HW2 7464   5.482   0.542   2.803
 2189SOL     OW 7465   2.669   0.621   6.908
 2189SOL    HW1 7466   2.666   0.653   6.813
 2189SOL    HW2 7467   2.576   0.606   6.941
 2190SOL     OW 7468   5.061   1.522   1.086
 2190SOL    HW1 7469   5.062   1.458   1.163
 2190SOL    HW2 7470   5.112   1.604   1.111
 2191SOL     OW 7471   2.834   1.610   0.496
 2191SOL    HW1 7472   2.848   1.707   0.515
 2191SOL    HW2 7473   2.895   1.555   0.554
 2192SOL     OW 7474   4.126   5.716   4.412
 2192SOL    HW1 7475   4.108   5.627   4.370
 2192SOL    HW2 7476   4.054   5.736   4.479
 2193SOL     OW 7477   0.556   4.998   5.892
 2193SOL    HW1 7478   0.505   5.079   5.865
 2193SOL    HW2 7479   0.496   4.918   5.890
 2194SOL     OW 7480   2.787   0.379   1.298
 2194SOL    HW1 7481   2.731   0.348   1.374
 2194SOL    HW2 7482   2.745   0.459   1.256
 2195SOL     OW 7483   1.491   4.574   2.689
 2195SOL    HW1 7484   1.531   4.647   2.743
 2195SOL    HW2 7485   1.425   4.524   2.745
 2196SOL     OW 7486   4.244   3.155   0.300
 2196SOL    HW1 7487   4.241   3.225   0.229
 2196SOL    HW2 7488   4.210   3.193   0.386
 2197SOL     OW 7489   4.439   4.229   0.598
 2197SOL    HW1 7490   4.375   4.221   0.675
 2197SOL    HW2 7491   4.462   4.326   0.584
 2198SOL     OW 7492   6.105   4.585   0.500
 2198SOL    HW1 7493   6.192   4.632   0.510
 2198SOL    HW2 7494   6.117   4.505   0.441
 2199SOL     OW 7495   4.566   0.477   2.212
 2199SOL    HW1 7496   4.560   0.475   2.113
 2199SOL    HW2 7497   4.526   0.393   2.250
 2200SOL     OW 7498   2.752   0.268   4.180
 2200SOL    HW1 7499   2.692   0.245   4.257
 2200SOL    HW2 7500   2.844   0.234   4.200
 2201SOL     OW 7501   4.782   4.228   1.865
 2201SOL    HW1 7502   4.692   4.259   1.894
 2201SOL    HW2 7503   4.853   4.275   1.919
 2202SOL     OW 7504   4.668   6.146   3.227
 2202SOL    HW1 7505   4.661   6.166   3.130
 2202SOL    HW2 7506   4.588   6.182   3.275
 2203SOL     OW 7507   3.245   2.050   2.896
 2203SOL    HW1 7508   3.339   2.079   2.917
 2203SOL    HW2 7509   3.221   2.079   2.804
 2204SOL     OW 7510   2.834   2.507   0.759
 2204SOL    HW1 7511   2.891   2.425   0.757
 2204SOL    HW2 7512   2.851   2.562   0.677
 2205SOL     OW 7513   2.719   0.194   0.190
 2205SOL    HW1 7514   2.749   0.108   0.229
 2205SOL    HW2 7515   2.708   0.184   0.091
 2206SOL     OW 7516   2.041   2.892   6.759
 2206SOL    HW1 7517   2.128   2.842   6.759
 2206SOL    HW2 7518   2.000   2.888   6.668
 2207SOL     OW 7519   0.934   4.346   5.079
 2207SOL    HW1 7520   0.958   4.370   4.985
 2207SOL    HW2 7521   0.883   4.422   5.121
 2208SOL     OW 7522   0.533   4.556   1.851
 2208SOL    HW1 7523   0.620   4.578   1.894
 2208SOL    HW2 7524   0.465   4.626   1.873
 2209SOL     OW 7525   1.032   5.880   1.031
 2209SOL    HW1 7526   1.104   5.938   0.993
 2209SOL    HW2 7527   1.071   5.793   1.059
 2210SOL     OW 7528   1.131   5.435   4.316
 2210SOL    HW1 7529   1.166   5.528   4.322
 2210SOL    HW2 7530   1.143   5.401   4.223
 2211SOL     OW 7531   6.749   0.997   6.157
 2211SOL    HW1 7532   6.787   1.014   6.248
 2211SOL    HW2 7533   6.821   0.960   6.097
 2212SOL     OW 7534   1.589   6.949   6.053
 2212SOL    HW1 7535   1.508   6.988   6.097
 2212SOL    HW2 7536   1.608   6.998   5.968
 2213SOL     OW 7537   3.093   0.921   3.481
 2213SOL    HW1 7538   3.164   0.927   3.410
 2213SOL    HW2 7539   3.040   0.838   3.468
 2214SOL     OW 7540   4.413   0.173   4.981
 2214SOL    HW1 7541   4.404   0.081   4.942
 2214SOL    HW2 7542   4.343   0.186   5.052
 2215SOL     OW 7543   5.755   3.141   5.149
 2215SOL    HW1 7544   5.694   3.186   5.084
 2215SOL    HW2 7545   5.832   3.100   5.099
 2216SOL     OW 7546   1.946   0.177   1.491
 2216SOL    HW1 7547   1.927   0.149   1.585
 2216SOL    HW2 7548   1.975   0.097   1.438
 2217SOL     OW 7549   4.773   0.878   1.788
 2217SOL    HW1 7550   4.685   0.860   1.744
 2217SOL    HW2 7551   4.820   0.951   1.738
 2218SOL     OW 7552   0.678   6.714   1.907
 2218SOL    HW1 7553   0.636   6.771   1.978
 2218SOL    HW2 7554   0.752   6.661   1.948
 2219SOL     OW 7555   1.257   1.938   2.740
 2219SOL    HW1 7556   1.302   1.923   2.828
 2219SOL    HW2 7557   1.164   1.970   2.756
 2220SOL     OW 7558   0.394   0.388   0.915
 2220SOL    HW1 7559   0.461   0.324   0.952
 2220SOL    HW2 7560   0.376   0.366   0.820
 2221SOL     OW 7561   0.054   1.587   0.320
 2221SOL    HW1 7562   0.000   1.639   0.253
 2221SOL    HW2 7563   0.108   1.517   0.273
 2222SOL     OW 7564   5.481   6.029   3.015
 2222SOL    HW1 7565   5.408   5.970   2.980
 2222SOL    HW2 7566   5.550   5.973   3.060
 2223SOL     OW 7567   6.054   4.879   1.571
 2223SOL    HW1 7568   6.010   4.817   1.636
 2223SOL    HW2 7569   6.004   4.878   1.485
 2224SOL     OW 7570   0.848   4.872   2.314
 2224SOL    HW1 7571   0.774   4.933   2.343
 2224SOL    HW2 7572   0.931   4.893   2.367
 2225SOL     OW 7573   0.164   4.569   0.727
 2225SOL    HW1 7574   0.221   4.559   0.808
 2225SOL    HW2 7575   0.095   4.497   0.725
 2226SOL     OW 7576   4.084   3.950   1.546
 2226SOL    HW1 7577   4.153   3.881   1.565
 2226SOL    HW2 7578   4.111   4.037   1.587
 2227SOL     OW 7579   0.896   3.180   3.770
 2227SOL    HW1 7580   0.938   3.097   3.807
 2227SOL    HW2 7581   0.916   3.187   3.673
 2228SOL     OW 7582   2.651   5.198   4.855
 2228SOL    HW1 7583   2.656   5.119   4.916
 2228SOL    HW2 7584   2.670   5.281   4.907
 2229SOL     OW 7585   5.386   0.580   3.315
 2229SOL    HW1 7586   5.319   0.650   3.339
 2229SOL    HW2 7587   5.342   0.491   3.313
 2230SOL     OW 7588   2.296   5.557   0.655
 2230SOL    HW1 7589   2.316   5.655   0.652
 2230SOL    HW2 7590   2.382   5.505   0.657
 2231SOL     OW 7591   2.862   6.099   1.176
 2231SOL    HW1 7592   2.958   6.080   1.156
 2231SOL    HW2 7593   2.843   6.081   1.272
 2232SOL     OW 7594   6.296   2.644   3.412
 2232SOL    HW1 7595   6.197   2.628   3.406
 2232SOL    HW2 7596   6.333   2.595   3.490
 2233SOL     OW 7597   3.266   1.523   0.043
 2233SOL    HW1 7598   3.247   1.465   6.987
 2233SOL    HW2 7599   3.274   1.466   0.124
 2234SOL     OW 7600   2.540   2.301   0.838
 2234SOL    HW1 7601   2.565   2.377   0.777
 2234SOL    HW2 7602   2.623   2.256   0.871
 2235SOL     OW 7603   2.010   0.056   1.176
 2235SOL    HW1 7604   2.083   0.105   1.128
 2235SOL    HW2 7605   1.921   0.089   1.145
 2236SOL     OW 7606   6.585   3.840   6.682
 2236SOL    HW1 7607   6.564   3.921   6.737
 2236SOL    HW2 7608   6.680   3.846   6.650
 2237SOL     OW 7609   6.511   2.250   3.951
 2237SOL    HW1 7610   6.493   2.185   4.025
 2237SOL    HW2 7611   6.504   2.343   3.985
 2238SOL     OW 7612   0.130   5.714   2.038
 2238SOL    HW1 7613   0.101   5.650   1.966
 2238SOL    HW2 7614   0.169   5.662   2.114
 2239SOL     OW 7615   5.379   5.613   2.810
 2239SOL    HW1 7616   5.286   5.581   2.829
 2239SOL    HW2 7617   5.429   5.543   2.761
 2240SOL     OW 7618   5.514   3.884   2.300
 2240SOL    HW1 7619   5.482   3.963   2.352
 2240SOL    HW2 7620   5.519   3.907   2.203
 2241SOL     OW 7621   0.864   6.628   2.531
 2241SOL    HW1 7622   0.865   6.715   2.481
 2241SOL    HW2 7623   0.843   6.645   2.627
 2242SOL     OW 7624   4.825   2.917   2.520
 2242SOL    HW1 7625   4.858   2.889   2.610
 2242SOL    HW2 7626   4.748   2.860   2.492
 2243SOL     OW 7627   3.210   6.098   5.647
 2243SOL    HW1 7628   3.182   6.190   5.622
 2243SOL    HW2 7629   3.188   6.035   5.572
 2244SOL     OW 7630   2.480   0.825   5.015
 2244SOL    HW1 7631   2.454   0.847   5.110
 2244SOL    HW2 7632   2.564   0.873   4.992
 2245SOL     OW 7633   0.237   1.887   2.112
 2245SOL    HW1 7634   0.153   1.835   2.096
 2245SOL    HW2 7635   0.305   1.863   2.043
 2246SOL     OW 7636   1.401   4.274   4.459
 2246SOL    HW1 7637   1.360   4.226   4.537
 2246SOL    HW2 7638   1.481   4.223   4.427
 2247SOL     OW 7639   1.883   1.693   5.742
 2247SOL    HW1 7640   1.932   1.661   5.823
 2247SOL    HW2 7641   1.925   1.777   5.708
 2248SOL     OW 7642   4.631   4.468   5.382
 2248SOL    HW1 7643   4.730   4.484   5.382
 2248SOL    HW2 7644   4.594   4.492   5.293
 2249SOL     OW 7645   4.281   5.511   4.254
 2249SOL    HW1 7646   4.271   5.445   4.328
 2249SOL    HW2 7647   4.351   5.578   4.279
 2250SOL     OW 7648   5.374   5.694   0.602
 2250SOL    HW1 7649   5.382   5.786   0.562
 2250SOL    HW2 7650   5.315   5.638   0.544
 2251SOL     OW 7651   0.245   0.454   6.481
 2251SOL    HW1 7652   0.211   0.544   6.452
 2251SOL    HW2 7653   0.326   0.466   6.538
 2252SOL     OW 7654   3.361   1.177   5.639
 2252SOL    HW1 7655   3.379   1.167   5.541
 2252SOL    HW2 7656   3.447   1.183   5.689
 2253SOL     OW 7657   1.453   2.478   5.729
 2253SOL    HW1 7658   1.484   2.432   5.812
 2253SOL    HW2 7659   1.497   2.568   5.722
 2254SOL     OW 7660   1.710   3.986   6.159
 2254SOL    HW1 7661   1.730   3.963   6.064
 2254SOL    HW2 7662   1.735   3.910   6.218
 2255SOL     OW 7663   5.514   2.288   1.016
 2255SOL    HW1 7664   5.468   2.374   0.992
 2255SOL    HW2 7665   5.586   2.269   0.950
 2256SOL     OW 7666   3.268   4.958   1.635
 2256SOL    HW1 7667   3.297   4.922   1.724
 2256SOL    HW2 7668   3.238   5.053   1.646
 2257SOL     OW 7669   2.094   3.601   3.939
 2257SOL    HW1 7670   2.023   3.549   3.892
 2257SOL    HW2 7671   2.138   3.542   4.008
 2258SOL     OW 7672   2.534   5.569   4.836
 2258SOL    HW1 7673   2.471   5.519   4.776
 2258SOL    HW2 7674   2.628   5.551   4.808
 2259SOL     OW 7675   5.514   3.668   6.272
 2259SOL    HW1 7676   5.582   3.651   6.200
 2259SOL    HW2 7677   5.450   3.591   6.275
 2260SOL     OW 7678   4.870   4.242   0.696
 2260SOL    HW1 7679   4.824   4.164   0.653
 2260SOL    HW2 7680   4.903   4.215   0.786
 2261SOL     OW 7681   4.268   6.625   5.552
 2261SOL    HW1 7682   4.314   6.586   5.632
 2261SOL    HW2 7683   4.280   6.564   5.473
 2262SOL     OW 7684   3.613   1.713   3.803
 2262SOL    HW1 7685   3.519   1.679   3.807
 2262SOL    HW2 7686   3.672   1.642   3.764
 2263SOL     OW 7687   0.033   3.884   6.399
 2263SOL    HW1 7688   0.094   3.816   6.357
 2263SOL    HW2 7689   0.076   3.920   6.482
 2264SOL     OW 7690   4.129   3.394   3.856
 2264SOL    HW1 7691   4.214   3.388   3.909
 2264SOL    HW2 7692   4.066   3.323   3.885
 2265SOL     OW 7693   0.117   0.558   3.103
 2265SOL    HW1 7694   0.174   0.515   3.033
 2265SOL    HW2 7695   0.145   0.654   3.114
 2266SOL     OW 7696   6.241   0.211   0.110
 2266SOL    HW1 7697   6.146   0.224   0.137
 2266SOL    HW2 7698   6.260   0.114   0.096
 2267SOL     OW 7699   5.214   1.140   5.501
 2267SOL    HW1 7700   5.149   1.215   5.514
 2267SOL    HW2 7701   5.287   1.168   5.439
 2268SOL     OW 7702   6.233   5.130   0.420
 2268SOL    HW1 7703   6.304   5.103   0.486
 2268SOL    HW2 7704   6.182   5.049   0.391
 2269SOL     OW 7705   0.119   5.401   4.361
 2269SOL    HW1 7706   0.037   5.396   4.304
 2269SOL    HW2 7707   0.102   5.356   4.449
 2270SOL     OW 7708   3.840   3.448   2.038
 2270SOL    HW1 7709   3.856   3.535   1.992
 2270SOL    HW2 7710   3.922   3.420   2.088
 2271SOL     OW 7711   0.025   4.059   3.145
 2271SOL    HW1 7712   6.977   4.128   3.152
 2271SOL    HW2 7713   0.100   4.094   3.088
 2272SOL     OW 7714   4.914   2.138   6.239
 2272SOL    HW1 7715   4.966   2.187   6.169
 2272SOL    HW2 7716   4.948   2.163   6.329
 2273SOL     OW 7717   0.325   1.568   4.077
 2273SOL    HW1 7718   0.417   1.554   4.116
 2273SOL    HW2 7719   0.333   1.621   3.993
 2274SOL     OW 7720   1.457   3.445   2.968
 2274SOL    HW1 7721   1.453   3.521   2.902
 2274SOL    HW2 7722   1.409   3.366   2.930
 2275SOL     OW 7723   5.072   6.940   3.881
 2275SOL    HW1 7724   5.136   6.954   3.806
 2275SOL    HW2 7725   5.118   6.958   3.968
 2276SOL     OW 7726   3.997   5.503   1.704
 2276SOL    HW1 7727   3.904   5.537   1.691
 2276SOL    HW2 7728   4.060   5.560   1.652
 2277SOL     OW 7729   2.986   3.442   0.456
 2277SOL    HW1 7730   3.034   3.357   0.437
 2277SOL    HW2 7731   2.926   3.429   0.535
 2278SOL     OW 7732   5.471   6.648   0.836
 2278SOL    HW1 7733   5.453   6.685   0.927
 2278SOL    HW2 7734   5.552   6.590   0.839
 2279SOL     OW 7735   4.769   4.717   4.975
 2279SOL    HW1 7736   4.713   4.708   4.893
 2279SOL    HW2 7737   4.865   4.719   4.950
 2280SOL     OW 7738   5.486   6.757   6.258
 2280SOL    HW1 7739   5.428   6.676   6.267
 2280SOL    HW2 7740   5.578   6.730   6.230
 2281SOL     OW 7741   2.785   2.887   0.254
 2281SOL    HW1 7742   2.847   2.848   0.186
 2281SOL    HW2 7743   2.810   2.982   0.271
 2282SOL     OW 7744   3.954   5.852   2.264
 2282SOL    HW1 7745   3.980   5.820   2.355
 2282SOL    HW2 7746   3.900   5.781   2.219
 2283SOL     OW 7747   0.268   4.094   2.346
 2283SOL    HW1 7748   0.295   4.023   2.281
 2283SOL    HW2 7749   0.207   4.055   2.414
 2284SOL     OW 7750   2.696   2.279   2.255
 2284SOL    HW1 7751   2.612   2.316   2.216
 2284SOL    HW2 7752   2.769   2.283   2.187
 2285SOL     OW 7753   1.495   4.221   6.938
 2285SOL    HW1 7754   1.513   4.312   6.974
 2285SOL    HW2 7755   1.405   4.190   6.970
 2286SOL     OW 7756   5.607   6.773   4.644
 2286SOL    HW1 7757   5.531   6.711   4.661
 2286SOL    HW2 7758   5.649   6.751   4.555
 2287SOL     OW 7759   2.208   2.957   1.661
 2287SOL    HW1 7760   2.279   2.905   1.708
 2287SOL    HW2 7761   2.215   3.054   1.688
 2288SOL     OW 7762   1.663   6.596   4.249
 2288SOL    HW1 7763   1.565   6.608   4.236
 2288SOL    HW2 7764   1.683   6.581   4.346
 2289SOL     OW 7765   4.454   1.924   0.455
 2289SOL    HW1 7766   4.512   1.967   0.524
 2289SOL    HW2 7767   4.359   1.950   0.470
 2290SOL     OW 7768   3.702   3.400   3.023
 2290SOL    HW1 7769   3.697   3.304   3.052
 2290SOL    HW2 7770   3.779   3.444   3.069
 2291SOL     OW 7771   0.907   2.253   0.001
 2291SOL    HW1 7772   0.879   2.322   0.068
 2291SOL    HW2 7773   0.839   2.247   6.952
 2292SOL     OW 7774   5.156   1.995   2.496
 2292SOL    HW1 7775   5.127   1.966   2.587
 2292SOL    HW2 7776   5.076   2.004   2.437
 2293SOL     OW 7777   0.526   0.578   0.336
 2293SOL    HW1 7778   0.604   0.581   0.273
 2293SOL    HW2 7779   0.484   0.487   0.332
 2294SOL     OW 7780   6.691   0.934   5.322
 2294SOL    HW1 7781   6.704   0.996   5.245
 2294SOL    HW2 7782   6.668   0.842   5.288
 2295SOL     OW 7783   5.614   6.454   1.244
 2295SOL    HW1 7784   5.670   6.529   1.279
 2295SOL    HW2 7785   5.522   6.461   1.281
 2296SOL     OW 7786   3.777   5.220   3.575
 2296SOL    HW1 7787   3.706   5.227   3.505
 2296SOL    HW2 7788   3.840   5.297   3.566
 2297SOL     OW 7789   4.345   3.935   5.580
 2297SOL    HW1 7790   4.440   3.928   5.610
 2297SOL    HW2 7791   4.295   3.853   5.607
 2298SOL     OW 7792   3.688   3.762   4.664
 2298SOL    HW1 7793   3.603   3.807   4.637
 2298SOL    HW2 7794   3.766   3.816   4.632
 2299SOL     OW 7795   6.085   3.250   5.075
 2299SOL    HW1 7796   6.151   3.178   5.054
 2299SOL    HW2 7797   6.014   3.252   5.004
 2300SOL     OW 7798   4.561   6.501   2.193
 2300SOL    HW1 7799   4.473   6.473   2.232
 2300SOL    HW2 7800   4.581   6.445   2.113
 2301SOL     OW 7801   3.635   3.029   4.743
 2301SOL    HW1 7802   3.680   2.994   4.825
 2301SOL    HW2 7803   3.603   2.952   4.687
 2302SOL     OW 7804   6.028   3.414   6.674
 2302SOL    HW1 7805   6.088   3.478   6.625
 2302SOL    HW2 7806   5.946   3.463   6.705
 2303SOL     OW 7807   2.833   1.990   6.949
 2303SOL    HW1 7808   2.811   1.980   0.022
 2303SOL    HW2 7809   2.880   2.077   6.935
 2304SOL     OW 7810   5.802   6.142   2.286
 2304SOL    HW1 7811   5.797   6.059   2.230
 2304SOL    HW2 7812   5.880   6.197   2.256
 2305SOL     OW 7813   3.027   0.195   4.204
 2305SOL    HW1 7814   3.049   0.131   4.131
 2305SOL    HW2 7815   3.111   0.235   4.241
 2306SOL     OW 7816   0.718   4.760   4.439
 2306SOL    HW1 7817   0.685   4.666   4.450
 2306SOL    HW2 7818   0.743   4.797   4.529
 2307SOL     OW 7819   6.610   3.158   5.807
 2307SOL    HW1 7820   6.623   3.225   5.881
 2307SOL    HW2 7821   6.686   3.093   5.808
 2308SOL     OW 7822   1.821   5.034   1.971
 2308SOL    HW1 7823   1.851   5.118   1.924
 2308SOL    HW2 7824   1.821   4.958   1.906
 2309SOL     OW 7825   1.679   0.322   5.559
 2309SOL    HW1 7826   1.637   0.367   5.637
 2309SOL    HW2 7827   1.771   0.290   5.584
 2310SOL     OW 7828   4.662   0.131   1.324
 2310SOL    HW1 7829   4.631   0.195   1.253
 2310SOL    HW2 7830   4.654   0.037   1.290
 2311SOL     OW 7831   2.940   5.265   1.306
 2311SOL    HW1 7832   2.870   5.199   1.278
 2311SOL    HW2 7833   2.910   5.358   1.286
 2312SOL     OW 7834   3.469   5.355   1.952
 2312SOL    HW1 7835   3.389   5.353   1.892
 2312SOL    HW2 7836   3.543   5.405   1.907
 2313SOL     OW 7837   5.012   6.026   1.561
 2313SOL    HW1 7838   5.020   6.104   1.623
 2313SOL    HW2 7839   4.923   6.028   1.516
 2314SOL     OW 7840   1.578   4.862   4.528
 2314SOL    HW1 7841   1.574   4.922   4.607
 2314SOL    HW2 7842   1.579   4.766   4.559
 2315SOL     OW 7843   3.901   2.746   6.507
 2315SOL    HW1 7844   3.973   2.812   6.487
 2315SOL    HW2 7845   3.933   2.654   6.483
 2316SOL     OW 7846   5.441   4.549   2.208
 2316SOL    HW1 7847   5.437   4.599   2.294
 2316SOL    HW2 7848   5.461   4.452   2.226
 2317SOL     OW 7849   0.391   5.179   3.543
 2317SOL    HW1 7850   0.489   5.175   3.564
 2317SOL    HW2 7851   0.338   5.151   3.623
 2318SOL     OW 7852   7.004   0.808   4.163
 2318SOL    HW1 7853   0.013   0.901   4.182
 2318SOL    HW2 7854   7.018   0.787   4.066
 2319SOL     OW 7855   0.559   4.727   3.332
 2319SOL    HW1 7856   0.583   4.649   3.274
 2319SOL    HW2 7857   0.636   4.750   3.392
 2320SOL     OW 7858   6.355   5.164   5.015
 2320SOL    HW1 7859   6.366   5.088   4.951
 2320SOL    HW2 7860   6.266   5.208   4.999
 2321SOL     OW 7861   3.199   5.407   5.064
 2321SOL    HW1 7862   3.112   5.392   5.111
 2321SOL    HW2 7863   3.257   5.327   5.075
 2322SOL     OW 7864   3.327   0.882   5.624
 2322SOL    HW1 7865   3.292   0.920   5.710
 2322SOL    HW2 7866   3.272   0.918   5.548
 2323SOL     OW 7867   5.231   4.372   2.057
 2323SOL    HW1 7868   5.295   4.329   1.994
 2323SOL    HW2 7869   5.248   4.470   2.061
 2324SOL     OW 7870   6.609   4.679   3.477
 2324SOL    HW1 7871   6.652   4.768   3.459
 2324SOL    HW2 7872   6.639   4.646   3.567
 2325SOL     OW 7873   6.776   2.442   0.900
 2325SOL    HW1 7874   6.762   2.384   0.820
 2325SOL    HW2 7875   6.696   2.499   0.915
 2326SOL     OW 7876   1.961   4.634   6.606
 2326SOL    HW1 7877   1.930   4.557   6.661
 2326SOL    HW2 7878   2.060   4.644   6.617
 2327SOL     OW 7879   5.651   1.595   3.886
 2327SOL    HW1 7880   5.585   1.642   3.827
 2327SOL    HW2 7881   5.700   1.526   3.833
 2328SOL     OW 7882   6.317   0.086   3.989
 2328SOL    HW1 7883   6.318   0.022   3.912
 2328SOL    HW2 7884   6.410   0.117   4.009
 2329SOL     OW 7885   6.437   5.665   3.228
 2329SOL    HW1 7886   6.531   5.695   3.217
 2329SOL    HW2 7887   6.392   5.718   3.300
 2330SOL     OW 7888   7.011   3.672   1.833
 2330SOL    HW1 7889   0.025   3.660   1.741
 2330SOL    HW2 7890   6.922   3.627   1.838
 2331SOL     OW 7891   0.620   4.544   5.662
 2331SOL    HW1 7892   0.606   4.640   5.640
 2331SOL    HW2 7893   0.631   4.491   5.578
 2332SOL     OW 7894   5.880   2.352   4.741
 2332SOL    HW1 7895   5.874   2.406   4.657
 2332SOL    HW2 7896   5.924   2.405   4.813
 2333SOL     OW 7897   2.371   4.649   3.785
 2333SOL    HW1 7898   2.419   4.643   3.873
 2333SOL    HW2 7899   2.313   4.569   3.772
 2334SOL     OW 7900   3.504   0.499   1.042
 2334SOL    HW1 7901   3.435   0.498   1.114
 2334SOL    HW2 7902   3.581   0.441   1.068
 2335SOL     OW 7903   4.143   5.040   4.338
 2335SOL    HW1 7904   4.159   5.136   4.314
 2335SOL    HW2 7905   4.212   5.011   4.404
 2336SOL     OW 7906   4.539   2.709   5.875
 2336SOL    HW1 7907   4.570   2.647   5.947
 2336SOL    HW2 7908   4.514   2.656   5.794
 2337SOL     OW 7909   5.734   0.501   3.668
 2337SOL    HW1 7910   5.657   0.542   3.620
 2337SOL    HW2 7911   5.705   0.418   3.715
 2338SOL     OW 7912   1.261   6.798   6.179
 2338SOL    HW1 7913   1.178   6.819   6.127
 2338SOL    HW2 7914   1.262   6.702   6.205
 2339SOL     OW 7915   3.926   4.615   6.119
 2339SOL    HW1 7916   3.914   4.690   6.054
 2339SOL    HW2 7917   3.930   4.653   6.212
 2340SOL     OW 7918   3.619   5.259   3.792
 2340SOL    HW1 7919   3.678   5.257   3.711
 2340SOL    HW2 7920   3.523   5.263   3.764
 2341SOL     OW 7921   6.581   5.268   6.847
 2341SOL    HW1 7922   6.606   5.318   6.765
 2341SOL    HW2 7923   6.549   5.176   6.822
 2342SOL     OW 7924   6.463   0.026   5.112
 2342SOL    HW1 7925   6.482   6.957   5.143
 2342SOL    HW2 7926   6.393   0.067   5.169
 2343SOL     OW 7927   0.866   6.714   0.716
 2343SOL    HW1 7928   0.942   6.680   0.662
 2343SOL    HW2 7929   0.828   6.639   0.771
 2344SOL     OW 7930   2.180   1.849   3.284
 2344SOL    HW1 7931   2.119   1.788   3.334
 2344SOL    HW2 7932   2.271   1.808   3.278
 2345SOL     OW 7933   1.871   1.298   3.647
 2345SOL    HW1 7934   1.927   1.219   3.671
 2345SOL    HW2 7935   1.775   1.278   3.668
 2346SOL     OW 7936   4.903   3.741   5.796
 2346SOL    HW1 7937   4.908   3.800   5.877
 2346SOL    HW2 7938   4.880   3.648   5.825
 2347SOL     OW 7939   1.286   3.263   1.264
 2347SOL    HW1 7940   1.375   3.274   1.307
 2347SOL    HW2 7941   1.227   3.340   1.290
 2348SOL     OW 7942   2.453   5.644   1.482
 2348SOL    HW1 7943   2.492   5.563   1.525
 2348SOL    HW2 7944   2.428   5.623   1.387
 2349SOL     OW 7945   5.008   4.989   6.012
 2349SOL    HW1 7946   5.006   5.059   5.940
 2349SOL    HW2 7947   4.969   4.904   5.976
 2350SOL     OW 7948   2.477   5.743   5.319
 2350SOL    HW1 7949   2.471   5.810   5.394
 2350SOL    HW2 7950   2.565   5.695   5.325
 2351SOL     OW 7951   2.090   5.926   3.427
 2351SOL    HW1 7952   2.147   5.866   3.372
 2351SOL    HW2 7953   2.071   5.883   3.515
 2352SOL     OW 7954   5.789   4.047   2.510
 2352SOL    HW1 7955   5.864   3.984   2.526
 2352SOL    HW2 7956   5.797   4.087   2.419
 2353SOL     OW 7957   2.929   3.756   6.146
 2353SOL    HW1 7958   2.911   3.667   6.186
 2353SOL    HW2 7959   2.849   3.815   6.157
 2354SOL     OW 7960   3.994   2.665   1.651
 2354SOL    HW1 7961   3.956   2.581   1.691
 2354SOL    HW2 7962   4.007   2.652   1.553
 2355SOL     OW 7963   6.424   0.296   1.285
 2355SOL    HW1 7964   6.392   0.229   1.352
 2355SOL    HW2 7965   6.363   0.296   1.206
 2356SOL     OW 7966   2.567   4.974   3.663
 2356SOL    HW1 7967   2.468   4.979   3.672
 2356SOL    HW2 7968   2.604   5.066   3.653
 2357SOL     OW 7969   6.415   4.832   0.809
 2357SOL    HW1 7970   6.467   4.900   0.861
 2357SOL    HW2 7971   6.442   4.740   0.838
 2358SOL     OW 7972   3.415   1.780   5.515
 2358SOL    HW1 7973   3.347   1.732   5.569
 2358SOL    HW2 7974   3.371   1.819   5.434
 2359SOL     OW 7975   2.184   1.626   5.678
 2359SOL    HW1 7976   2.125   1.686   5.731
 2359SOL    HW2 7977   2.254   1.681   5.631
 2360SOL     OW 7978   3.601   4.307   0.130
 2360SOL    HW1 7979   3.675   4.243   0.146
 2360SOL    HW2 7980   3.530   4.293   0.199
 2361SOL     OW 7981   4.486   5.650   1.593
 2361SOL    HW1 7982   4.571   5.610   1.628
 2361SOL    HW2 7983   4.499   5.748   1.578
 2362SOL     OW 7984   4.971   5.170   3.631
 2362SOL    HW1 7985   4.907   5.192   3.557
 2362SOL    HW2 7986   4.939   5.210   3.716
 2363SOL     OW 7987   2.104   3.931   0.438
 2363SOL    HW1 7988   2.061   3.854   0.389
 2363SOL    HW2 7989   2.091   4.015   0.385
 2364SOL     OW 7990   3.460   1.339   2.571
 2364SOL    HW1 7991   3.382   1.389   2.607
 2364SOL    HW2 7992   3.544   1.370   2.616
 2365SOL     OW 7993   5.156   3.992   3.418
 2365SOL    HW1 7994   5.196   4.076   3.453
 2365SOL    HW2 7995   5.133   3.931   3.494
 2366SOL     OW 7996   2.889   4.847   4.885
 2366SOL    HW1 7997   2.967   4.882   4.936
 2366SOL    HW2 7998   2.860   4.759   4.923
 2367SOL     OW 7999   5.512   4.631   6.379
 2367SOL    HW1 8000   5.563   4.670   6.456
 2367SOL    HW2 8001   5.554   4.545   6.351
 2368SOL     OW 8002   5.787   6.923   4.803
 2368SOL    HW1 8003   5.869   6.868   4.793
 2368SOL    HW2 8004   5.706   6.867   4.783
 2369SOL     OW 8005   2.978   1.851   4.579
 2369SOL    HW1 8006   2.988   1.939   4.625
 2369SOL    HW2 8007   3.066   1.824   4.538
 2370SOL     OW 8008   5.823   2.750   1.471
 2370SOL    HW1 8009   5.737   2.701   1.484
 2370SOL    HW2 8010   5.871   2.756   1.558
 2371SOL     OW 8011   0.124   6.156   2.659
 2371SOL    HW1 8012   0.202   6.166   2.720
 2371SOL    HW2 8013   0.156   6.155   2.564
 2372SOL     OW 8014   5.976   6.722   6.342
 2372SOL    HW1 8015   5.955   6.817   6.319
 2372SOL    HW2 8016   6.068   6.716   6.380
 2373SOL     OW 8017   6.452   5.388   6.400
 2373SOL    HW1 8018   6.421   5.457   6.334
 2373SOL    HW2 8019   6.379   5.371   6.467
 2374SOL     OW 8020   6.335   6.281   2.650
 2374SOL    HW1 8021   6.258   6.226   2.681
 2374SOL    HW2 8022   6.397   6.297   2.727
 2375SOL     OW 8023   1.471   0.058   4.171
 2375SOL    HW1 8024   1.423   7.019   4.232
 2375SOL    HW2 8025   1.553   0.093   4.216
 2376SOL     OW 8026   5.343   1.924   3.447
 2376SOL    HW1 8027   5.308   1.833   3.469
 2376SOL    HW2 8028   5.274   1.976   3.398
 2377SOL     OW 8029   4.666   4.662   5.820
 2377SOL    HW1 8030   4.633   4.667   5.725
 2377SOL    HW2 8031   4.607   4.602   5.873
 2378SOL     OW 8032   0.069   1.189   0.738
 2378SOL    HW1 8033   0.078   1.098   0.698
 2378SOL    HW2 8034   0.066   1.258   0.666
 2379SOL     OW 8035   6.598   5.254   1.735
 2379SOL    HW1 8036   6.513   5.277   1.781
 2379SOL    HW2 8037   6.664   5.218   1.801
 2380SOL     OW 8038   4.878   5.531   5.652
 2380SOL    HW1 8039   4.976   5.533   5.632
 2380SOL    HW2 8040   4.848   5.436   5.662
 2381SOL     OW 8041   2.275   4.973   4.516
 2381SOL    HW1 8042   2.296   4.881   4.549
 2381SOL    HW2 8043   2.352   5.007   4.462
 2382SOL     OW 8044   6.952   5.928   2.774
 2382SOL    HW1 8045   6.970   5.906   2.870
 2382SOL    HW2 8046   6.941   6.027   2.765
 2383SOL     OW 8047   5.599   5.285   5.883
 2383SOL    HW1 8048   5.621   5.325   5.972
 2383SOL    HW2 8049   5.551   5.199   5.896
 2384SOL     OW 8050   0.586   1.876   2.590
 2384SOL    HW1 8051   0.611   1.926   2.507
 2384SOL    HW2 8052   0.534   1.937   2.651
 2385SOL     OW 8053   0.513   1.650   0.640
 2385SOL    HW1 8054   0.489   1.554   0.629
 2385SOL    HW2 8055   0.547   1.686   0.553
 2386SOL     OW 8056   6.014   5.880   3.918
 2386SOL    HW1 8057   6.042   5.923   4.004
 2386SOL    HW2 8058   6.079   5.809   3.893
 2387SOL     OW 8059   1.547   1.290   3.990
 2387SOL    HW1 8060   1.606   1.370   4.003
 2387SOL    HW2 8061   1.511   1.291   3.896
 2388SOL     OW 8062   6.559   2.259   5.156
 2388SOL    HW1 8063   6.659   2.266   5.163
 2388SOL    HW2 8064   6.532   2.164   5.171
 2389SOL     OW 8065   4.632   4.438   3.886
 2389SOL    HW1 8066   4.732   4.429   3.887
 2389SOL    HW2 8067   4.599   4.430   3.792
 2390SOL     OW 8068   4.853   3.341   5.614
 2390SOL    HW1 8069   4.793   3.261   5.609
 2390SOL    HW2 8070   4.859   3.372   5.709
 2391SOL     OW 8071   3.194   4.265   5.903
 2391SOL    HW1 8072   3.129   4.188   5.896
 2391SOL    HW2 8073   3.151   4.340   5.953
 2392SOL     OW 8074   4.566   4.663   5.575
 2392SOL    HW1 8075   4.472   4.699   5.573
 2392SOL    HW2 8076   4.571   4.580   5.519
 2393SOL     OW 8077   3.988   4.244   1.133
 2393SOL    HW1 8078   3.894   4.256   1.101
 2393SOL    HW2 8079   4.046   4.217   1.057
 2394SOL     OW 8080   0.357   2.853   3.503
 2394SOL    HW1 8081   0.389   2.832   3.411
 2394SOL    HW2 8082   0.435   2.869   3.563
 2395SOL     OW 8083   0.648   2.798   4.673
 2395SOL    HW1 8084   0.664   2.722   4.610
 2395SOL    HW2 8085   0.695   2.880   4.639
 2396SOL     OW 8086   0.698   0.510   5.302
 2396SOL    HW1 8087   0.640   0.504   5.384
 2396SOL    HW2 8088   0.763   0.434   5.301
 2397SOL     OW 8089   0.236   4.291   5.099
 2397SOL    HW1 8090   0.209   4.331   5.187
 2397SOL    HW2 8091   0.180   4.331   5.026
 2398SOL     OW 8092   3.660   6.503   4.085
 2398SOL    HW1 8093   3.735   6.532   4.025
 2398SOL    HW2 8094   3.693   6.494   4.179
 2399SOL     OW 8095   3.147   2.165   3.600
 2399SOL    HW1 8096   3.218   2.214   3.650
 2399SOL    HW2 8097   3.060   2.174   3.648
 2400SOL     OW 8098   1.609   3.893   0.754
 2400SOL    HW1 8099   1.642   3.885   0.660
 2400SOL    HW2 8100   1.680   3.859   0.816
 2401SOL     OW 8101   2.620   0.186   5.813
 2401SOL    HW1 8102   2.610   0.255   5.741
 2401SOL    HW2 8103   2.661   0.229   5.894
 2402SOL     OW 8104   1.541   4.146   1.900
 2402SOL    HW1 8105   1.448   4.149   1.935
 2402SOL    HW2 8106   1.549   4.206   1.821
 2403SOL     OW 8107   4.030   3.184   3.354
 2403SOL    HW1 8108   4.003   3.159   3.447
 2403SOL    HW2 8109   4.001   3.112   3.291
 2404SOL     OW 8110   5.841   0.926   1.014
 2404SOL    HW1 8111   5.831   0.863   1.091
 2404SOL    HW2 8112   5.937   0.945   0.998
 2405SOL     OW 8113   2.790   3.276   0.933
 2405SOL    HW1 8114   2.822   3.286   0.839
 2405SOL    HW2 8115   2.796   3.364   0.979
 2406SOL     OW 8116   3.506   6.280   4.768
 2406SOL    HW1 8117   3.533   6.283   4.864
 2406SOL    HW2 8118   3.446   6.202   4.753
 2407SOL     OW 8119   2.439   0.809   3.631
 2407SOL    HW1 8120   2.531   0.805   3.670
 2407SOL    HW2 8121   2.424   0.899   3.590
 2408SOL     OW 8122   3.848   5.959   5.063
 2408SOL    HW1 8123   3.836   5.954   4.964
 2408SOL    HW2 8124   3.794   5.887   5.107
 2409SOL     OW 8125   1.439   3.432   0.948
 2409SOL    HW1 8126   1.408   3.504   1.011
 2409SOL    HW2 8127   1.366   3.364   0.937
 2410SOL     OW 8128   0.755   3.096   4.540
 2410SOL    HW1 8129   0.795   3.123   4.627
 2410SOL    HW2 8130   0.829   3.069   4.477
 2411SOL     OW 8131   3.055   3.158   0.072
 2411SOL    HW1 8132   2.970   3.152   0.019
 2411SOL    HW2 8133   3.132   3.168   0.010
 2412SOL     OW 8134   3.809   1.822   6.595
 2412SOL    HW1 8135   3.877   1.831   6.667
 2412SOL    HW2 8136   3.729   1.772   6.630
 2413SOL     OW 8137   0.433   3.407   6.990
 2413SOL    HW1 8138   0.472   3.374   0.051
 2413SOL    HW2 8139   0.503   3.410   6.919
 2414SOL     OW 8140   6.181   2.134   4.972
 2414SOL    HW1 8141   6.082   2.139   4.984
 2414SOL    HW2 8142   6.208   2.196   4.898
 2415SOL     OW 8143   2.808   5.653   0.412
 2415SOL    HW1 8144   2.888   5.631   0.356
 2415SOL    HW2 8145   2.828   5.734   0.467
 2416SOL     OW 8146   0.404   3.381   2.177
 2416SOL    HW1 8147   0.489   3.417   2.214
 2416SOL    HW2 8148   0.424   3.319   2.101
 2417SOL     OW 8149   3.075   2.593   1.719
 2417SOL    HW1 8150   3.009   2.627   1.653
 2417SOL    HW2 8151   3.033   2.525   1.778
 2418SOL     OW 8152   4.580   4.227   6.842
 2418SOL    HW1 8153   4.513   4.194   6.775
 2418SOL    HW2 8154   4.531   4.267   6.920
 2419SOL     OW 8155   2.615   6.665   3.394
 2419SOL    HW1 8156   2.622   6.630   3.487
 2419SOL    HW2 8157   2.648   6.759   3.391
 2420SOL     OW 8158   1.319   4.072   2.983
 2420SOL    HW1 8159   1.367   3.985   2.981
 2420SOL    HW2 8160   1.257   4.075   3.061
 2421SOL     OW 8161   3.020   6.427   4.544
 2421SOL    HW1 8162   3.021   6.413   4.643
 2421SOL    HW2 8163   3.091   6.492   4.518
 2422SOL     OW 8164   4.698   5.761   1.230
 2422SOL    HW1 8165   4.666   5.667   1.238
 2422SOL    HW2 8166   4.636   5.813   1.172
 2423SOL     OW 8167   2.584   5.450   2.783
 2423SOL    HW1 8168   2.664   5.507   2.764
 2423SOL    HW2 8169   2.587   5.369   2.724
 2424SOL     OW 8170   5.646   0.324   6.100
 2424SOL    HW1 8171   5.616   0.291   6.011
 2424SOL    HW2 8172   5.618   0.419   6.112
 2425SOL     OW 8173   4.947   5.576   4.933
 2425SOL    HW1 8174   4.943   5.639   5.010
 2425SOL    HW2 8175   5.007   5.499   4.955
 2426SOL     OW 8176   2.091   3.525   5.570
 2426SOL    HW1 8177   2.106   3.622   5.548
 2426SOL    HW2 8178   2.177   3.485   5.603
 2427SOL     OW 8179   5.221   0.822   6.805
 2427SOL    HW1 8180   5.189   0.765   6.729
 2427SOL    HW2 8181   5.228   0.917   6.775
 2428SOL     OW 8182   1.310   0.892   2.958
 2428SOL    HW1 8183   1.284   0.901   3.054
 2428SOL    HW2 8184   1.313   0.982   2.915
 2429SOL     OW 8185   5.627   5.335   1.628
 2429SOL    HW1 8186   5.726   5.327   1.615
 2429SOL    HW2 8187   5.580   5.264   1.577
 2430SOL     OW 8188   5.882   1.221   6.616
 2430SOL    HW1 8189   5.840   1.309   6.639
 2430SOL    HW2 8190   5.898   1.169   6.700
 2431SOL     OW 8191   0.324   2.855   1.615
 2431SOL    HW1 8192   0.400   2.843   1.679
 2431SOL    HW2 8193   0.238   2.831   1.659
 2432SOL     OW 8194   2.997   5.511   1.957
 2432SOL    HW1 8195   2.988   5.425   1.907
 2432SOL    HW2 8196   3.093   5.528   1.978
 2433SOL     OW 8197   6.355   3.913   5.719
 2433SOL    HW1 8198   6.387   3.873   5.633
 2433SOL    HW2 8199   6.321   4.006   5.701
 2434SOL     OW 8200   4.546   0.737   2.840
 2434SOL    HW1 8201   4.457   0.726   2.886
 2434SOL    HW2 8202   4.542   0.817   2.780
 2435SOL     OW 8203   6.460   6.809   6.726
 2435SOL    HW1 8204   6.424   6.740   6.663
 2435SOL    HW2 8205   6.385   6.868   6.756
 2436SOL     OW 8206   2.055   2.225   1.958
 2436SOL    HW1 8207   2.075   2.311   1.910
 2436SOL    HW2 8208   2.068   2.148   1.895
 2437SOL     OW 8209   0.033   4.373   2.710
 2437SOL    HW1 8210   0.129   4.387   2.685
 2437SOL    HW2 8211   0.006   4.440   2.779
 2438SOL     OW 8212   3.218   1.056   4.794
 2438SOL    HW1 8213   3.205   1.153   4.815
 2438SOL    HW2 8214   3.277   1.047   4.714
 2439SOL     OW 8215   1.499   6.778   1.578
 2439SOL    HW1 8216   1.425   6.771   1.511
 2439SOL    HW2 8217   1.558   6.855   1.555
 2440SOL     OW 8218   5.424   1.198   5.323
 2440SOL    HW1 8219   5.441   1.103   5.348
 2440SOL    HW2 8220   5.507   1.238   5.284
 2441SOL     OW 8221   6.931   0.138   0.171
 2441SOL    HW1 8222   6.915   0.044   0.142
 2441SOL    HW2 8223   7.005   0.178   0.116
 2442SOL     OW 8224   4.855   3.409   1.854
 2442SOL    HW1 8225   4.799   3.334   1.821
 2442SOL    HW2 8226   4.940   3.372   1.893
 2443SOL     OW 8227   0.815   2.644   1.489
 2443SOL    HW1 8228   0.859   2.641   1.579
 2443SOL    HW2 8229   0.791   2.738   1.466
 2444SOL     OW 8230   3.885   5.599   2.153
 2444SOL    HW1 8231   3.801   5.562   2.112
 2444SOL    HW2 8232   3.964   5.565   2.101
 2445SOL     OW 8233   0.092   2.510   1.215
 2445SOL    HW1 8234   0.081   2.609   1.224
 2445SOL    HW2 8235   0.048   2.479   1.130
 2446SOL     OW 8236   1.441   4.779   1.200
 2446SOL    HW1 8237   1.523   4.798   1.145
 2446SOL    HW2 8238   1.450   4.825   1.288
 2447SOL     OW 8239   2.444   6.623   0.095
 2447SOL    HW1 8240   2.455   6.673   0.009
 2447SOL    HW2 8241   2.475   6.528   0.083
 2448SOL     OW 8242   6.517   1.391   4.247
 2448SOL    HW1 8243   6.599   1.392   4.304
 2448SOL    HW2 8244   6.530   1.450   4.167
 2449SOL     OW 8245   1.520   4.046   1.500
 2449SOL    HW1 8246   1.611   4.010   1.520
 2449SOL    HW2 8247   1.504   4.129   1.554
 2450SOL     OW 8248   1.443   6.704   5.798
 2450SOL    HW1 8249   1.443   6.613   5.756
 2450SOL    HW2 8250   1.505   6.704   5.876
 2451SOL     OW 8251   1.052   0.031   4.584
 2451SOL    HW1 8252   1.120   0.038   4.657
 2451SOL    HW2 8253   1.010   6.964   4.587
 2452SOL     OW 8254   2.292   1.683   3.797
 2452SOL    HW1 8255   2.313   1.599   3.846
 2452SOL    HW2 8256   2.224   1.735   3.848
 2453SOL     OW 8257   0.949   1.282   6.551
 2453SOL    HW1 8258   0.924   1.209   6.615
 2453SOL    HW2 8259   1.019   1.340   6.593
 2454SOL     OW 8260   3.067   5.750   1.431
 2454SOL    HW1 8261   2.994   5.684   1.452
 2454SOL    HW2 8262   3.027   5.842   1.425
 2455SOL     OW 8263   3.603   3.029   0.521
 2455SOL    HW1 8264   3.672   2.975   0.569
 2455SOL    HW2 8265   3.618   3.126   0.539
 2456SOL     OW 8266   0.940   4.442   6.243
 2456SOL    HW1 8267   1.007   4.374   6.213
 2456SOL    HW2 8268   0.983   4.533   6.244
 2457SOL     OW 8269   4.679   2.287   4.873
 2457SOL    HW1 8270   4.597   2.236   4.900
 2457SOL    HW2 8271   4.699   2.356   4.943
 2458SOL     OW 8272   1.184   0.829   1.721
 2458SOL    HW1 8273   1.217   0.739   1.750
 2458SOL    HW2 8274   1.211   0.897   1.789
 2459SOL     OW 8275   2.650   6.594   0.826
 2459SOL    HW1 8276   2.717   6.592   0.900
 2459SOL    HW2 8277   2.685   6.650   0.751
 2460SOL     OW 8278   1.491   0.978   5.021
 2460SOL    HW1 8279   1.434   1.019   4.950
 2460SOL    HW2 8280   1.444   0.982   5.109
 2461SOL     OW 8281   4.302   1.020   3.691
 2461SOL    HW1 8282   4.242   1.022   3.770
 2461SOL    HW2 8283   4.327   1.113   3.665
 2462SOL     OW 8284   0.324   3.561   0.949
 2462SOL    HW1 8285   0.274   3.638   0.909
 2462SOL    HW2 8286   0.291   3.545   1.042
 2463SOL     OW 8287   6.488   1.151   6.784
 2463SOL    HW1 8288   6.456   1.155   6.690
 2463SOL    HW2 8289   6.522   1.059   6.804
 2464SOL     OW 8290   0.369   2.465   2.833
 2464SOL    HW1 8291   0.313   2.539   2.871
 2464SOL    HW2 8292   0.327   2.377   2.855
 2465SOL     OW 8293   0.667   5.309   5.717
 2465SOL    HW1 8294   0.701   5.402   5.701
 2465SOL    HW2 8295   0.620   5.305   5.805
 2466SOL     OW 8296   0.855   2.557   1.941
 2466SOL    HW1 8297   0.774   2.511   1.978
 2466SOL    HW2 8298   0.933   2.541   2.002
 2467SOL     OW 8299   5.773   2.160   5.439
 2467SOL    HW1 8300   5.847   2.112   5.393
 2467SOL    HW2 8301   5.688   2.146   5.388
 2468SOL     OW 8302   3.177   6.796   5.343
 2468SOL    HW1 8303   3.271   6.806   5.376
 2468SOL    HW2 8304   3.167   6.708   5.297
 2469SOL     OW 8305   3.385   2.291   5.910
 2469SOL    HW1 8306   3.404   2.361   5.978
 2469SOL    HW2 8307   3.302   2.315   5.859
 2470SOL     OW 8308   2.961   4.778   6.370
 2470SOL    HW1 8309   2.888   4.770   6.439
 2470SOL    HW2 8310   3.033   4.837   6.406
 2471SOL     OW 8311   3.784   5.641   1.672
 2471SOL    HW1 8312   3.796   5.643   1.573
 2471SOL    HW2 8313   3.770   5.734   1.706
 2472SOL     OW 8314   4.781   2.046   4.465
 2472SOL    HW1 8315   4.769   1.962   4.519
 2472SOL    HW2 8316   4.878   2.069   4.460
 2473SOL     OW 8317   0.551   4.319   5.331
 2473SOL    HW1 8318   0.640   4.340   5.371
 2473SOL    HW2 8319   0.499   4.263   5.395
 2474SOL     OW 8320   1.470   5.513   1.455
 2474SOL    HW1 8321   1.375   5.491   1.473
 2474SOL    HW2 8322   1.525   5.494   1.537
 2475SOL     OW 8323   4.994   0.442   0.704
 2475SOL    HW1 8324   5.053   0.452   0.624
 2475SOL    HW2 8325   4.989   0.529   0.753
 2476SOL     OW 8326   5.606   0.931   6.838
 2476SOL    HW1 8327   5.564   0.919   6.748
 2476SOL    HW2 8328   5.535   0.955   6.904
 2477SOL     OW 8329   3.464   0.057   3.435
 2477SOL    HW1 8330   3.401   0.106   3.375
 2477SOL    HW2 8331   3.548   0.110   3.444
 2478SOL     OW 8332   4.358   0.781   3.330
 2478SOL    HW1 8333   4.295   0.768   3.407
 2478SOL    HW2 8334   4.419   0.858   3.350
 2479SOL     OW 8335   0.480   3.992   0.204
 2479SOL    HW1 8336   0.400   3.934   0.216
 2479SOL    HW2 8337   0.488   4.019   0.108
 2480SOL     OW 8338   3.446   2.768   1.431
 2480SOL    HW1 8339   3.532   2.801   1.392
 2480SOL    HW2 8340   3.461   2.739   1.526
 2481SOL     OW 8341   3.226   0.289   1.187
 2481SOL    HW1 8342   3.285   0.243   1.121
 2481SOL    HW2 8343   3.138   0.310   1.145
 2482SOL     OW 8344   5.416   3.360   0.113
 2482SOL    HW1 8345   5.481   3.400   0.177
 2482SOL    HW2 8346   5.442   3.266   0.092
 2483SOL     OW 8347   0.653   1.864   1.011
 2483SOL    HW1 8348   0.742   1.865   0.966
 2483SOL    HW2 8349   0.590   1.926   0.964
 2484SOL     OW 8350   5.398   1.284   1.699
 2484SOL    HW1 8351   5.298   1.289   1.693
 2484SOL    HW2 8352   5.438   1.345   1.631
 2485SOL     OW 8353   5.277   2.832   6.247
 2485SOL    HW1 8354   5.186   2.871   6.261
 2485SOL    HW2 8355   5.341   2.872   6.312
 2486SOL     OW 8356   0.662   4.024   5.173
 2486SOL    HW1 8357   0.603   3.949   5.202
 2486SOL    HW2 8358   0.736   3.988   5.116
 2487SOL     OW 8359   4.485   5.921   0.165
 2487SOL    HW1 8360   4.450   5.840   0.213
 2487SOL    HW2 8361   4.533   5.979   0.230
 2488SOL     OW 8362   6.728   4.035   1.628
 2488SOL    HW1 8363   6.788   3.997   1.697
 2488SOL    HW2 8364   6.727   4.135   1.635
 2489SOL     OW 8365   0.732   5.995   4.384
 2489SOL    HW1 8366   0.647   6.012   4.433
 2489SOL    HW2 8367   0.712   5.973   4.289
 2490SOL     OW 8368   3.340   6.065   2.036
 2490SOL    HW1 8369   3.255   6.025   2.002
 2490SOL    HW2 8370   3.333   6.083   2.134
 2491SOL     OW 8371   4.133   4.585   1.769
 2491SOL    HW1 8372   4.228   4.555   1.774
 2491SOL    HW2 8373   4.078   4.514   1.727
 2492SOL     OW 8374   6.108   4.020   0.988
 2492SOL    HW1 8375   6.201   3.990   1.008
 2492SOL    HW2 8376   6.050   4.005   1.068
 2493SOL     OW 8377   6.765   6.448   1.339
 2493SOL    HW1 8378   6.697   6.375   1.328
 2493SOL    HW2 8379   6.735   6.529   1.289
 2494SOL     OW 8380   5.984   2.618   1.722
 2494SOL    HW1 8381   5.900   2.566   1.738
 2494SOL    HW2 8382   6.038   2.623   1.806
 2495SOL     OW 8383   6.618   5.244   3.733
 2495SOL    HW1 8384   6.600   5.337   3.764
 2495SOL    HW2 8385   6.708   5.241   3.689
 2496SOL     OW 8386   6.712   5.113   6.570
 2496SOL    HW1 8387   6.797   5.067   6.596
 2496SOL    HW2 8388   6.714   5.208   6.602
 2497SOL     OW 8389   0.225   6.703   2.116
 2497SOL    HW1 8390   0.232   6.696   2.016
 2497SOL    HW2 8391   0.251   6.795   2.144
 2498SOL     OW 8392   2.220   2.685   5.714
 2498SOL    HW1 8393   2.306   2.728   5.686
 2498SOL    HW2 8394   2.158   2.756   5.750
 2499SOL     OW 8395   6.505   3.743   1.109
 2499SOL    HW1 8396   6.473   3.698   1.192
 2499SOL    HW2 8397   6.472   3.837   1.107
 2500SOL     OW 8398   2.939   3.871   6.557
 2500SOL    HW1 8399   3.009   3.876   6.628
 2500SOL    HW2 8400   2.979   3.894   6.469
 2501SOL     OW 8401   6.072   5.373   0.587
 2501SOL    HW1 8402   6.159   5.401   0.547
 2501SOL    HW2 8403   6.055   5.427   0.670
 2502SOL     OW 8404   2.907   5.658   4.052
 2502SOL    HW1 8405   2.974   5.709   3.998
 2502SOL    HW2 8406   2.912   5.686   4.148
 2503SOL     OW 8407   2.868   0.053   5.047
 2503SOL    HW1 8408   2.823   6.988   5.043
 2503SOL    HW2 8409   2.962   0.042   5.077
 2504SOL     OW 8410   3.143   5.678   2.276
 2504SOL    HW1 8411   3.197   5.673   2.193
 2504SOL    HW2 8412   3.191   5.632   2.351
 2505SOL     OW 8413   6.670   6.291   2.692
 2505SOL    HW1 8414   6.655   6.340   2.778
 2505SOL    HW2 8415   6.667   6.192   2.710
 2506SOL     OW 8416   5.999   4.802   5.613
 2506SOL    HW1 8417   5.982   4.897   5.586
 2506SOL    HW2 8418   5.913   4.761   5.645
 2507SOL     OW 8419   0.182   3.404   0.460
 2507SOL    HW1 8420   0.091   3.398   0.500
 2507SOL    HW2 8421   0.175   3.432   0.364
 2508SOL     OW 8422   3.577   1.490   4.561
 2508SOL    HW1 8423   3.570   1.442   4.649
 2508SOL    HW2 8424   3.670   1.478   4.525
 2509SOL     OW 8425   6.888   3.563   6.260
 2509SOL    HW1 8426   6.865   3.588   6.165
 2509SOL    HW2 8427   6.808   3.577   6.318
 2510SOL     OW 8428   3.066   4.030   1.872
 2510SOL    HW1 8429   3.161   4.059   1.885
 2510SOL    HW2 8430   3.027   4.076   1.792
 2511SOL     OW 8431   2.744   0.689   4.880
 2511SOL    HW1 8432   2.748   0.652   4.972
 2511SOL    HW2 8433   2.744   0.789   4.884
 2512SOL     OW 8434   3.550   4.945   5.065
 2512SOL    HW1 8435   3.557   5.037   5.104
 2512SOL    HW2 8436   3.561   4.951   4.966
 2513SOL     OW 8437   2.019   6.396   6.019
 2513SOL    HW1 8438   2.031   6.458   6.097
 2513SOL    HW2 8439   1.933   6.417   5.973
 2514SOL     OW 8440   1.065   2.891   3.190
 2514SOL    HW1 8441   1.040   2.946   3.269
 2514SOL    HW2 8442   1.010   2.808   3.188
 2515SOL     OW 8443   2.015   0.991   1.299
 2515SOL    HW1 8444   1.994   1.042   1.383
 2515SOL    HW2 8445   2.115   0.988   1.287
 2516SOL     OW 8446   5.668   1.757   3.212
 2516SOL    HW1 8447   5.668   1.824   3.287
 2516SOL    HW2 8448   5.731   1.788   3.141
 2517SOL     OW 8449   1.073   0.703   4.728
 2517SOL    HW1 8450   1.019   0.787   4.719
 2517SOL    HW2 8451   1.151   0.707   4.666
 2518SOL     OW 8452   2.624   4.821   1.038
 2518SOL    HW1 8453   2.683   4.767   1.098
 2518SOL    HW2 8454   2.548   4.859   1.092
 2519SOL     OW 8455   2.351   1.228   1.387
 2519SOL    HW1 8456   2.283   1.301   1.387
 2519SOL    HW2 8457   2.434   1.259   1.434
 2520SOL     OW 8458   3.166   2.569   1.143
 2520SOL    HW1 8459   3.086   2.623   1.115
 2520SOL    HW2 8460   3.249   2.622   1.130
 2521SOL     OW 8461   3.977   1.603   5.261
 2521SOL    HW1 8462   3.949   1.692   5.297
 2521SOL    HW2 8463   4.077   1.597   5.263
 2522SOL     OW 8464   1.021   1.332   5.731
 2522SOL    HW1 8465   1.021   1.401   5.802
 2522SOL    HW2 8466   0.941   1.345   5.672
 2523SOL     OW 8467   1.731   4.474   0.369
 2523SOL    HW1 8468   1.695   4.463   0.276
 2523SOL    HW2 8469   1.805   4.409   0.384
 2524SOL     OW 8470   1.768   6.663   4.535
 2524SOL    HW1 8471   1.685   6.615   4.566
 2524SOL    HW2 8472   1.835   6.666   4.609
 2525SOL     OW 8473   0.870   2.450   4.313
 2525SOL    HW1 8474   0.877   2.351   4.296
 2525SOL    HW2 8475   0.943   2.479   4.374
 2526SOL     OW 8476   1.089   5.421   6.668
 2526SOL    HW1 8477   1.066   5.476   6.748
 2526SOL    HW2 8478   1.188   5.411   6.661
 2527SOL     OW 8479   5.229   5.661   6.022
 2527SOL    HW1 8480   5.132   5.645   6.042
 2527SOL    HW2 8481   5.284   5.593   6.070
 2528SOL     OW 8482   5.248   5.299   5.788
 2528SOL    HW1 8483   5.211   5.378   5.739
 2528SOL    HW2 8484   5.301   5.331   5.867
 2529SOL     OW 8485   0.379   6.827   6.110
 2529SOL    HW1 8486   0.384   6.813   6.011
 2529SOL    HW2 8487   0.443   6.766   6.156
 2530SOL     OW 8488   2.967   5.455   5.495
 2530SOL    HW1 8489   3.064   5.441   5.514
 2530SOL    HW2 8490   2.923   5.366   5.482
 2531SOL     OW 8491   6.255   5.566   5.698
 2531SOL    HW1 8492   6.347   5.548   5.734
 2531SOL    HW2 8493   6.210   5.635   5.754
 2532SOL     OW 8494   0.891   6.265   1.035
 2532SOL    HW1 8495   0.819   6.196   1.027
 2532SOL    HW2 8496   0.892   6.301   1.128
 2533SOL     OW 8497   5.262   0.857   3.521
 2533SOL    HW1 8498   5.171   0.844   3.559
 2533SOL    HW2 8499   5.325   0.885   3.593
 2534SOL     OW 8500   4.490   1.896   1.875
 2534SOL    HW1 8501   4.492   1.939   1.965
 2534SOL    HW2 8502   4.485   1.967   1.804
 2535SOL     OW 8503   3.275   2.650   6.509
 2535SOL    HW1 8504   3.288   2.678   6.604
 2535SOL    HW2 8505   3.350   2.589   6.482
 2536SOL     OW 8506   1.905   0.275   6.753
 2536SOL    HW1 8507   1.892   0.293   6.655
 2536SOL    HW2 8508   1.818   0.281   6.800
 2537SOL     OW 8509   4.059   0.902   0.072
 2537SOL    HW1 8510   4.007   0.886   0.155
 2537SOL    HW2 8511   4.153   0.927   0.095
 2538SOL     OW 8512   0.197   3.715   3.578
 2538SOL    HW1 8513   0.106   3.756   3.572
 2538SOL    HW2 8514   0.205   3.642   3.510
 2539SOL     OW 8515   6.098   0.991   4.070
 2539SOL    HW1 8516   6.021   0.927   4.067
 2539SOL    HW2 8517   6.139   0.989   4.162
 2540SOL     OW 8518   3.703   1.678   3.033
 2540SOL    HW1 8519   3.780   1.736   3.060
 2540SOL    HW2 8520   3.686   1.610   3.104
 2541SOL     OW 8521   3.192   0.303   4.895
 2541SOL    HW1 8522   3.250   0.376   4.931
 2541SOL    HW2 8523   3.161   0.245   4.970
 2542SOL     OW 8524   1.775   4.390   6.586
 2542SOL    HW1 8525   1.686   4.370   6.628
 2542SOL    HW2 8526   1.770   4.476   6.536
 2543SOL     OW 8527   0.853   2.179   4.290
 2543SOL    HW1 8528   0.911   2.170   4.371
 2543SOL    HW2 8529   0.759   2.154   4.313
 2544SOL     OW 8530   1.002   5.038   0.678
 2544SOL    HW1 8531   1.052   5.099   0.615
 2544SOL    HW2 8532   0.956   4.967   0.625
 2545SOL     OW 8533   1.523   6.880   2.538
 2545SOL    HW1 8534   1.536   6.799   2.595
 2545SOL    HW2 8535   1.555   6.961   2.587
 2546SOL     OW 8536   5.869   1.091   0.611
 2546SOL    HW1 8537   5.842   1.093   0.515
 2546SOL    HW2 8538   5.791   1.059   0.667
 2547SOL     OW 8539   0.164   3.700   5.832
 2547SOL    HW1 8540   0.219   3.697   5.915
 2547SOL    HW2 8541   0.182   3.618   5.777
 2548SOL     OW 8542   1.141   6.284   4.411
 2548SOL    HW1 8543   1.077   6.344   4.458
 2548SOL    HW2 8544   1.110   6.270   4.316
 2549SOL     OW 8545   0.540   0.297   1.509
 2549SOL    HW1 8546   0.543   0.387   1.465
 2549SOL    HW2 8547   0.488   0.234   1.451
 2550SOL     OW 8548   5.828   6.436   0.700
 2550SOL    HW1 8549   5.799   6.380   0.622
 2550SOL    HW2 8550   5.807   6.532   0.682
 2551SOL     OW 8551   2.226   4.194   6.813
 2551SOL    HW1 8552   2.194   4.102   6.791
 2551SOL    HW2 8553   2.208   4.256   6.736
 2552SOL     OW 8554   3.033   4.997   3.900
 2552SOL    HW1 8555   2.990   4.917   3.858
 2552SOL    HW2 8556   3.118   4.970   3.944
 2553SOL     OW 8557   4.054   3.843   6.243
 2553SOL    HW1 8558   4.109   3.905   6.187
 2553SOL    HW2 8559   4.009   3.776   6.184
 2554SOL     OW 8560   1.720   1.825   1.000
 2554SOL    HW1 8561   1.658   1.904   0.993
 2554SOL    HW2 8562   1.814   1.858   1.004
 2555SOL     OW 8563   5.095   2.810   4.766
 2555SOL    HW1 8564   5.103   2.746   4.843
 2555SOL    HW2 8565   5.186   2.828   4.728
 2556SOL     OW 8566   4.049   6.086   0.583
 2556SOL    HW1 8567   3.984   6.161   0.598
 2556SOL    HW2 8568   4.021   6.007   0.638
 2557SOL     OW 8569   1.576   4.008   6.741
 2557SOL    HW1 8570   1.660   3.954   6.737
 2557SOL    HW2 8571   1.579   4.067   6.821
 2558SOL     OW 8572   5.304   1.408   5.920
 2558SOL    HW1 8573   5.280   1.470   5.995
 2558SOL    HW2 8574   5.376   1.449   5.865
 2559SOL     OW 8575   0.404   4.762   5.974
 2559SOL    HW1 8576   0.330   4.780   6.038
 2559SOL    HW2 8577   0.376   4.693   5.907
 2560SOL     OW 8578   5.829   2.286   6.034
 2560SOL    HW1 8579   5.731   2.281   6.054
 2560SOL    HW2 8580   5.877   2.216   6.087
 2561SOL     OW 8581   3.277   5.094   4.843
 2561SOL    HW1 8582   3.201   5.120   4.784
 2561SOL    HW2 8583   3.321   5.177   4.878
 2562SOL     OW 8584   2.368   3.872   0.421
 2562SOL    HW1 8585   2.269   3.873   0.409
 2562SOL    HW2 8586   2.411   3.921   0.345
 2563SOL     OW 8587   2.789   0.872   0.198
 2563SOL    HW1 8588   2.805   0.968   0.176
 2563SOL    HW2 8589   2.824   0.815   0.124
 2564SOL     OW 8590   2.023   5.543   0.728
 2564SOL    HW1 8591   2.004   5.445   0.731
 2564SOL    HW2 8592   2.114   5.557   0.689
 2565SOL     OW 8593   1.205   1.011   1.039
 2565SOL    HW1 8594   1.303   0.993   1.043
 2565SOL    HW2 8595   1.185   1.070   0.961
 2566SOL     OW 8596   2.203   6.702   0.331
 2566SOL    HW1 8597   2.157   6.718   0.243
 2566SOL    HW2 8598   2.161   6.624   0.376
 2567SOL     OW 8599   1.726   7.002   0.563
 2567SOL    HW1 8600   1.773   0.017   0.642
 2567SOL    HW2 8601   1.782   6.931   0.521
 2568SOL     OW 8602   4.336   1.908   6.912
 2568SOL    HW1 8603   4.425   1.941   6.882
 2568SOL    HW2 8604   4.267   1.978   6.893
 2569SOL     OW 8605   3.699   0.604   3.795
 2569SOL    HW1 8606   3.744   0.518   3.769
 2569SOL    HW2 8607   3.656   0.594   3.884
 2570SOL     OW 8608   5.635   1.445   5.388
 2570SOL    HW1 8609   5.618   1.508   5.312
 2570SOL    HW2 8610   5.715   1.389   5.367
 2571SOL     OW 8611   1.326   4.961   3.857
 2571SOL    HW1 8612   1.299   5.023   3.784
 2571SOL    HW2 8613   1.281   4.873   3.845
 2572SOL     OW 8614   2.837   5.183   2.675
 2572SOL    HW1 8615   2.874   5.233   2.753
 2572SOL    HW2 8616   2.749   5.221   2.649
 2573SOL     OW 8617   0.207   1.102   1.287
 2573SOL    HW1 8618   0.304   1.100   1.307
 2573SOL    HW2 8619   0.157   1.055   1.360
 2574SOL     OW 8620   6.091   3.424   0.604
 2574SOL    HW1 8621   6.176   3.475   0.613
 2574SOL    HW2 8622   6.029   3.448   0.678
 2575SOL     OW 8623   6.464   5.977   0.033
 2575SOL    HW1 8624   6.424   6.014   0.117
 2575SOL    HW2 8625   6.501   6.051   7.001
 2576SOL     OW 8626   4.751   6.083   3.793
 2576SOL    HW1 8627   4.655   6.068   3.771
 2576SOL    HW2 8628   4.760   6.105   3.890
 2577SOL     OW 8629   2.971   4.910   2.349
 2577SOL    HW1 8630   2.905   4.862   2.292
 2577SOL    HW2 8631   2.940   5.004   2.364
 2578SOL     OW 8632   3.837   1.438   4.478
 2578SOL    HW1 8633   3.819   1.363   4.415
 2578SOL    HW2 8634   3.917   1.417   4.534
 2579SOL     OW 8635   0.573   0.063   3.731
 2579SOL    HW1 8636   0.539   0.001   3.802
 2579SOL    HW2 8637   0.531   0.040   3.643
 2580SOL     OW 8638   2.928   3.792   0.493
 2580SOL    HW1 8639   3.020   3.826   0.472
 2580SOL    HW2 8640   2.870   3.803   0.412
 2581SOL     OW 8641   2.974   6.884   5.699
 2581SOL    HW1 8642   2.888   6.934   5.695
 2581SOL    HW2 8643   2.976   6.828   5.782
 2582SOL     OW 8644   6.749   3.615   1.426
 2582SOL    HW1 8645   6.671   3.646   1.371
 2582SOL    HW2 8646   6.791   3.535   1.382
 2583SOL     OW 8647   6.101   6.718   0.759
 2583SOL    HW1 8648   6.184   6.669   0.784
 2583SOL    HW2 8649   6.048   6.738   0.841
 2584SOL     OW 8650   4.655   5.072   5.637
 2584SOL    HW1 8651   4.620   5.034   5.722
 2584SOL    HW2 8652   4.689   4.998   5.578
 2585SOL     OW 8653   3.259   5.574   6.644
 2585SOL    HW1 8654   3.236   5.658   6.595
 2585SOL    HW2 8655   3.282   5.595   6.739
 2586SOL     OW 8656   1.920   0.418   5.287
 2586SOL    HW1 8657   1.882   0.466   5.365
 2586SOL    HW2 8658   1.861   0.341   5.263
 2587SOL     OW 8659   0.266   1.723   2.697
 2587SOL    HW1 8660   0.279   1.822   2.702
 2587SOL    HW2 8661   0.197   1.702   2.628
 2588SOL     OW 8662   4.116   1.945   5.095
 2588SOL    HW1 8663   4.091   2.006   5.020
 2588SOL    HW2 8664   4.136   1.854   5.059
 2589SOL     OW 8665   1.321   6.346   6.903
 2589SOL    HW1 8666   1.409   6.385   6.929
 2589SOL    HW2 8667   1.251   6.371   6.970
 2590SOL     OW 8668   2.416   4.929   6.970
 2590SOL    HW1 8669   2.369   4.869   0.011
 2590SOL    HW2 8670   2.440   4.877   6.888
 2591SOL     OW 8671   6.406   5.613   4.092
 2591SOL    HW1 8672   6.447   5.525   4.115
 2591SOL    HW2 8673   6.436   5.683   4.157
 2592SOL     OW 8674   2.591   4.579   6.482
 2592SOL    HW1 8675   2.551   4.669   6.500
 2592SOL    HW2 8676   2.689   4.581   6.500
 2593SOL     OW 8677   2.812   5.387   0.510
 2593SOL    HW1 8678   2.894   5.373   0.566
 2593SOL    HW2 8679   2.778   5.480   0.524
 2594SOL     OW 8680   1.539   4.598   4.612
 2594SOL    HW1 8681   1.451   4.576   4.569
 2594SOL    HW2 8682   1.579   4.515   4.651
 2595SOL     OW 8683   1.999   0.879   4.257
 2595SOL    HW1 8684   2.011   0.977   4.274
 2595SOL    HW2 8685   1.909   0.850   4.288
 2596SOL     OW 8686   1.363   2.191   0.525
 2596SOL    HW1 8687   1.367   2.290   0.514
 2596SOL    HW2 8688   1.268   2.163   0.542
 2597SOL     OW 8689   0.490   6.319   6.388
 2597SOL    HW1 8690   0.587   6.322   6.411
 2597SOL    HW2 8691   0.479   6.334   6.289
 2598SOL     OW 8692   5.476   2.264   2.134
 2598SOL    HW1 8693   5.490   2.207   2.053
 2598SOL    HW2 8694   5.399   2.326   2.118
 2599SOL     OW 8695   3.231   0.023   2.397
 2599SOL    HW1 8696   3.183   6.965   2.429
 2599SOL    HW2 8697   3.208   0.040   2.301
 2600SOL     OW 8698   6.494   4.463   4.626
 2600SOL    HW1 8699   6.443   4.437   4.544
 2600SOL    HW2 8700   6.560   4.391   4.648
 2601SOL     OW 8701   1.339   1.773   2.515
 2601SOL    HW1 8702   1.393   1.834   2.457
 2601SOL    HW2 8703   1.323   1.818   2.603
 2602SOL     OW 8704   1.760   5.072   4.183
 2602SOL    HW1 8705   1.825   5.132   4.136
 2602SOL    HW2 8706   1.767   5.087   4.282
 2603SOL     OW 8707   2.954   1.094   2.835
 2603SOL    HW1 8708   2.885   1.066   2.768
 2603SOL    HW2 8709   2.910   1.142   2.910
 2604SOL     OW 8710   5.760   2.075   2.748
 2604SOL    HW1 8711   5.688   2.136   2.781
 2604SOL    HW2 8712   5.810   2.119   2.673
 2605SOL     OW 8713   1.290   3.606   1.792
 2605SOL    HW1 8714   1.304   3.703   1.809
 2605SOL    HW2 8715   1.312   3.586   1.696
 2606SOL     OW 8716   4.300   4.212   0.842
 2606SOL    HW1 8717   4.244   4.295   0.843
 2606SOL    HW2 8718   4.241   4.132   0.840
 2607SOL     OW 8719   2.334   1.960   0.795
 2607SOL    HW1 8720   2.339   1.863   0.822
 2607SOL    HW2 8721   2.341   2.017   0.877
 2608SOL     OW 8722   3.202   5.847   6.570
 2608SOL    HW1 8723   3.184   5.917   6.501
 2608SOL    HW2 8724   3.267   5.883   6.637
 2609SOL     OW 8725   0.584   6.898   1.255
 2609SOL    HW1 8726   0.633   6.972   1.210
 2609SOL    HW2 8727   0.624   6.882   1.346
 2610SOL     OW 8728   1.449   4.897   4.290
 2610SOL    HW1 8729   1.506   4.865   4.214
 2610SOL    HW2 8730   1.494   4.878   4.377
 2611SOL     OW 8731   5.455   6.515   6.514
 2611SOL    HW1 8732   5.552   6.491   6.502
 2611SOL    HW2 8733   5.410   6.518   6.425
 2612SOL     OW 8734   5.611   0.353   5.434
 2612SOL    HW1 8735   5.533   0.410   5.409
 2612SOL    HW2 8736   5.590   0.257   5.416
 2613SOL     OW 8737   0.551   5.998   6.888
 2613SOL    HW1 8738   0.470   6.031   6.840
 2613SOL    HW2 8739   0.529   5.913   6.937
 2614SOL     OW 8740   6.545   0.857   6.240
 2614SOL    HW1 8741   6.611   0.920   6.199
 2614SOL    HW2 8742   6.585   0.816   6.322
 2615SOL     OW 8743   1.087   3.176   0.613
 2615SOL    HW1 8744   1.104   3.159   0.516
 2615SOL    HW2 8745   1.150   3.247   0.646
 2616SOL     OW 8746   1.815   0.034   5.811
 2616SOL    HW1 8747   1.721   0.066   5.818
 2616SOL    HW2 8748   1.862   0.086   5.739
 2617SOL     OW 8749   5.484   0.020   0.977
 2617SOL    HW1 8750   5.401   0.048   0.929
 2617SOL    HW2 8751   5.478   6.947   1.001
 2618SOL     OW 8752   1.781   6.318   6.253
 2618SOL    HW1 8753   1.791   6.416   6.270
 2618SOL    HW2 8754   1.863   6.270   6.284
 2619SOL     OW 8755   4.976   1.420   2.224
 2619SOL    HW1 8756   4.936   1.491   2.167
 2619SOL    HW2 8757   5.014   1.348   2.166
 2620SOL     OW 8758   6.987   6.630   1.373
 2620SOL    HW1 8759   7.012   6.583   1.288
 2620SOL    HW2 8760   6.893   6.609   1.396
 2621SOL     OW 8761   1.526   6.049   2.875
 2621SOL    HW1 8762   1.545   6.101   2.958
 2621SOL    HW2 8763   1.545   5.952   2.890
 2622SOL     OW 8764   3.654   3.608   6.097
 2622SOL    HW1 8765   3.560   3.577   6.080
 2622SOL    HW2 8766   3.663   3.634   6.193
 2623SOL     OW 8767   1.056   6.721   4.259
 2623SOL    HW1 8768   1.063   6.692   4.354
 2623SOL    HW2 8769   1.108   6.659   4.200
 2624SOL     OW 8770   0.235   2.750   4.225
 2624SOL    HW1 8771   0.334   2.740   4.218
 2624SOL    HW2 8772   0.211   2.784   4.316
 2625SOL     OW 8773   1.914   5.288   5.078
 2625SOL    HW1 8774   1.885   5.311   4.985
 2625SOL    HW2 8775   1.999   5.336   5.098
 2626SOL     OW 8776   6.867   5.200   6.269
 2626SOL    HW1 8777   6.914   5.270   6.323
 2626SOL    HW2 8778   6.786   5.168   6.318
 2627SOL     OW 8779   1.770   6.809   5.684
 2627SOL    HW1 8780   1.679   6.810   5.642
 2627SOL    HW2 8781   1.796   6.903   5.707
 2628SOL     OW 8782   1.803   4.204   2.005
 2628SOL    HW1 8783   1.789   4.232   2.099
 2628SOL    HW2 8784   1.715   4.190   1.960
 2629SOL     OW 8785   3.066   3.977   3.701
 2629SOL    HW1 8786   3.087   4.020   3.614
 2629SOL    HW2 8787   3.040   4.047   3.768
 2630SOL     OW 8788   4.073   0.493   4.216
 2630SOL    HW1 8789   3.979   0.522   4.234
 2630SOL    HW2 8790   4.117   0.466   4.302
 2631SOL     OW 8791   5.780   0.886   0.263
 2631SOL    HW1 8792   5.710   0.817   0.248
 2631SOL    HW2 8793   5.861   0.843   0.303
 2632SOL     OW 8794   5.659   4.884   1.973
 2632SOL    HW1 8795   5.667   4.854   2.068
 2632SOL    HW2 8796   5.696   4.977   1.964
 2633SOL     OW 8797   0.164   3.009   6.170
 2633SOL    HW1 8798   0.134   3.015   6.266
 2633SOL    HW2 8799   0.164   3.101   6.130
 2634SOL     OW 8800   6.421   0.204   5.449
 2634SOL    HW1 8801   6.347   0.216   5.384
 2634SOL    HW2 8802   6.498   0.264   5.423
 2635SOL     OW 8803   6.164   5.220   4.002
 2635SOL    HW1 8804   6.211   5.264   3.925
 2635SOL    HW2 8805   6.072   5.259   4.011
 2636SOL     OW 8806   4.660   6.928   5.838
 2636SOL    HW1 8807   4.707   6.973   5.914
 2636SOL    HW2 8808   4.663   6.987   5.757
 2637SOL     OW 8809   1.624   1.656   3.165
 2637SOL    HW1 8810   1.643   1.727   3.233
 2637SOL    HW2 8811   1.593   1.698   3.080
 2638SOL     OW 8812   1.538   6.525   4.618
 2638SOL    HW1 8813   1.497   6.589   4.683
 2638SOL    HW2 8814   1.520   6.432   4.647
 2639SOL     OW 8815   4.082   4.748   5.192
 2639SOL    HW1 8816   4.056   4.811   5.119
 2639SOL    HW2 8817   4.002   4.698   5.224
 2640SOL     OW 8818   1.357   6.218   4.882
 2640SOL    HW1 8819   1.307   6.285   4.936
 2640SOL    HW2 8820   1.343   6.236   4.784
 2641SOL     OW 8821   5.661   2.803   6.782
 2641SOL    HW1 8822   5.707   2.890   6.763
 2641SOL    HW2 8823   5.648   2.753   6.697
 2642SOL     OW 8824   7.008   1.538   3.748
 2642SOL    HW1 8825   7.016   1.601   3.825
 2642SOL    HW2 8826   6.945   1.576   3.680
 2643SOL     OW 8827   1.685   4.657   3.720
 2643SOL    HW1 8828   1.783   4.638   3.717
 2643SOL    HW2 8829   1.670   4.756   3.730
 2644SOL     OW 8830   5.293   4.913   4.435
 2644SOL    HW1 8831   5.362   4.911   4.508
 2644SOL    HW2 8832   5.207   4.948   4.471
 2645SOL     OW 8833   5.370   5.396   3.160
 2645SOL    HW1 8834   5.308   5.435   3.228
 2645SOL    HW2 8835   5.423   5.469   3.117
 2646SOL     OW 8836   0.222   3.185   5.717
 2646SOL    HW1 8837   0.273   3.208   5.799
 2646SOL    HW2 8838   0.278   3.202   5.636
 2647SOL     OW 8839   5.297   0.596   1.816
 2647SOL    HW1 8840   5.366   0.668   1.808
 2647SOL    HW2 8841   5.218   0.618   1.759
 2648SOL     OW 8842   1.085   6.781   5.978
 2648SOL    HW1 8843   1.132   6.721   5.913
 2648SOL    HW2 8844   1.046   6.859   5.930
 2649SOL     OW 8845   4.906   2.978   1.600
 2649SOL    HW1 8846   4.997   2.970   1.558
 2649SOL    HW2 8847   4.848   2.903   1.568
 2650SOL     OW 8848   3.595   6.619   4.475
 2650SOL    HW1 8849   3.526   6.689   4.496
 2650SOL    HW2 8850   3.559   6.529   4.501
 2651SOL     OW 8851   3.782   2.104   4.843
 2651SOL    HW1 8852   3.767   2.132   4.748
 2651SOL    HW2 8853   3.875   2.127   4.870
 2652SOL     OW 8854   5.397   5.041   5.731
 2652SOL    HW1 8855   5.477   5.026   5.672
 2652SOL    HW2 8856   5.327   5.090   5.679
 2653SOL     OW 8857   2.788   6.246   0.587
 2653SOL    HW1 8858   2.731   6.301   0.526
 2653SOL    HW2 8859   2.833   6.175   0.534
 2654SOL     OW 8860   6.222   0.566   0.897
 2654SOL    HW1 8861   6.129   0.559   0.860
 2654SOL    HW2 8862   6.222   0.631   0.973
 2655SOL     OW 8863   4.419   5.786   2.610
 2655SOL    HW1 8864   4.435   5.869   2.663
 2655SOL    HW2 8865   4.491   5.776   2.541
 2656SOL     OW 8866   3.693   5.828   3.471
 2656SOL    HW1 8867   3.629   5.841   3.395
 2656SOL    HW2 8868   3.753   5.908   3.478
 2657SOL     OW 8869   1.484   3.744   0.034
 2657SOL    HW1 8870   1.435   3.758   6.972
 2657SOL    HW2 8871   1.507   3.833   0.074
 2658SOL     OW 8872   4.071   5.345   6.533
 2658SOL    HW1 8873   4.159   5.387   6.557
 2658SOL    HW2 8874   4.086   5.251   6.503
 2659SOL     OW 8875   6.717   1.893   4.566
 2659SOL    HW1 8876   6.768   1.947   4.499
 2659SOL    HW2 8877   6.756   1.908   4.657
 2660SOL     OW 8878   1.044   1.701   2.131
 2660SOL    HW1 8879   1.061   1.797   2.156
 2660SOL    HW2 8880   1.022   1.649   2.214
 2661SOL     OW 8881   1.949   1.143   0.599
 2661SOL    HW1 8882   2.007   1.095   0.533
 2661SOL    HW2 8883   1.883   1.079   0.638
 2662SOL     OW 8884   2.958   0.840   2.235
 2662SOL    HW1 8885   3.001   0.761   2.191
 2662SOL    HW2 8886   2.994   0.924   2.195
 2663SOL     OW 8887   4.552   6.669   0.380
 2663SOL    HW1 8888   4.506   6.703   0.299
 2663SOL    HW2 8889   4.627   6.609   0.353
 2664SOL     OW 8890   4.438   3.206   5.902
 2664SOL    HW1 8891   4.528   3.188   5.941
 2664SOL    HW2 8892   4.376   3.131   5.925
 2665SOL     OW 8893   2.045   3.673   4.293
 2665SOL    HW1 8894   2.131   3.723   4.284
 2665SOL    HW2 8895   2.045   3.621   4.378
 2666SOL     OW 8896   2.090   3.762   1.896
 2666SOL    HW1 8897   2.140   3.683   1.930
 2666SOL    HW2 8898   2.073   3.752   1.798
 2667SOL     OW 8899   6.257   3.563   4.776
 2667SOL    HW1 8900   6.221   3.585   4.866
 2667SOL    HW2 8901   6.299   3.472   4.778
 2668SOL     OW 8902   6.767   1.005   4.085
 2668SOL    HW1 8903   6.680   1.016   4.037
 2668SOL    HW2 8904   6.842   1.021   4.022
 2669SOL     OW 8905   2.487   0.735   0.452
 2669SOL    HW1 8906   2.546   0.815   0.440
 2669SOL    HW2 8907   2.498   0.674   0.374
 2670SOL     OW 8908   0.462   0.142   6.687
 2670SOL    HW1 8909   0.500   0.051   6.701
 2670SOL    HW2 8910   0.480   0.171   6.593
 2671SOL     OW 8911   4.306   4.813   6.668
 2671SOL    HW1 8912   4.334   4.740   6.606
 2671SOL    HW2 8913   4.246   4.776   6.739
 2672SOL     OW 8914   3.556   0.737   1.919
 2672SOL    HW1 8915   3.562   0.689   2.006
 2672SOL    HW2 8916   3.648   0.750   1.882
 2673SOL     OW 8917   4.276   0.697   2.894
 2673SOL    HW1 8918   4.228   0.744   2.820
 2673SOL    HW2 8919   4.223   0.617   2.923
 2674SOL     OW 8920   0.389   5.173   2.332
 2674SOL    HW1 8921   0.386   5.084   2.377
 2674SOL    HW2 8922   0.454   5.171   2.256
 2675SOL     OW 8923   5.665   0.115   4.679
 2675SOL    HW1 8924   5.708   0.026   4.696
 2675SOL    HW2 8925   5.667   0.135   4.582
 2676SOL     OW 8926   3.964   3.928   2.714
 2676SOL    HW1 8927   4.012   3.908   2.629
 2676SOL    HW2 8928   3.953   3.844   2.767
 2677SOL     OW 8929   2.405   4.848   1.228
 2677SOL    HW1 8930   2.311   4.813   1.223
 2677SOL    HW2 8931   2.416   4.901   1.311
 2678SOL     OW 8932   5.266   2.437   2.688
 2678SOL    HW1 8933   5.282   2.390   2.601
 2678SOL    HW2 8934   5.335   2.508   2.701
 2679SOL     OW 8935   2.224   4.788   3.511
 2679SOL    HW1 8936   2.303   4.747   3.465
 2679SOL    HW2 8937   2.254   4.831   3.596
 2680SOL     OW 8938   6.575   1.618   0.058
 2680SOL    HW1 8939   6.509   1.691   0.040
 2680SOL    HW2 8940   6.595   1.615   0.156
 2681SOL     OW 8941   1.802   2.268   5.375
 2681SOL    HW1 8942   1.723   2.211   5.396
 2681SOL    HW2 8943   1.841   2.303   5.461
 2682SOL     OW 8944   3.690   4.007   1.596
 2682SOL    HW1 8945   3.766   4.024   1.532
 2682SOL    HW2 8946   3.703   4.064   1.678
 2683SOL     OW 8947   2.473   4.484   2.514
 2683SOL    HW1 8948   2.538   4.550   2.476
 2683SOL    HW2 8949   2.409   4.456   2.442
 2684SOL     OW 8950   5.841   6.966   3.111
 2684SOL    HW1 8951   5.905   6.895   3.138
 2684SOL    HW2 8952   5.878   7.017   3.033
 2685SOL     OW 8953   1.878   5.746   5.579
 2685SOL    HW1 8954   1.826   5.781   5.502
 2685SOL    HW2 8955   1.886   5.817   5.649
 2686SOL     OW 8956   1.060   1.447   4.722
 2686SOL    HW1 8957   1.091   1.532   4.763
 2686SOL    HW2 8958   1.042   1.461   4.624
 2687SOL     OW 8959   3.793   1.307   1.737
 2687SOL    HW1 8960   3.861   1.335   1.670
 2687SOL    HW2 8961   3.839   1.277   1.821
 2688SOL     OW 8962   3.458   3.185   6.169
 2688SOL    HW1 8963   3.555   3.188   6.193
 2688SOL    HW2 8964   3.421   3.095   6.191
 2689SOL     OW 8965   1.400   3.494   2.623
 2689SOL    HW1 8966   1.461   3.529   2.552
 2689SOL    HW2 8967   1.392   3.562   2.697
 2690SOL     OW 8968   3.928   1.371   5.643
 2690SOL    HW1 8969   3.843   1.422   5.647
 2690SOL    HW2 8970   3.974   1.389   5.556
 2691SOL     OW 8971   6.665   4.283   3.975
 2691SOL    HW1 8972   6.619   4.232   4.047
 2691SOL    HW2 8973   6.599   4.341   3.927
 2692SOL     OW 8974   2.854   5.552   2.760
 2692SOL    HW1 8975   2.924   5.495   2.716
 2692SOL    HW2 8976   2.890   5.587   2.847
 2693SOL     OW 8977   2.138   5.640   3.159
 2693SOL    HW1 8978   2.220   5.678   3.117
 2693SOL    HW2 8979   2.129   5.544   3.133
 2694SOL     OW 8980   3.242   6.819   3.901
 2694SOL    HW1 8981   3.311   6.880   3.863
 2694SOL    HW2 8982   3.258   6.726   3.867
 2695SOL     OW 8983   0.165   5.804   3.393
 2695SOL    HW1 8984   0.213   5.850   3.319
 2695SOL    HW2 8985   0.078   5.769   3.359
 2696SOL     OW 8986   5.167   4.319   6.491
 2696SOL    HW1 8987   5.223   4.371   6.426
 2696SOL    HW2 8988   5.074   4.357   6.493
 2697SOL     OW 8989   3.833   1.972   6.875
 2697SOL    HW1 8990   3.785   2.053   6.842
 2697SOL    HW2 8991   3.767   1.905   6.908
 2698SOL     OW 8992   1.751   4.443   6.071
 2698SOL    HW1 8993   1.787   4.350   6.076
 2698SOL    HW2 8994   1.728   4.466   5.976
 2699SOL     OW 8995   3.319   6.474   2.281
 2699SOL    HW1 8996   3.353   6.511   2.194
 2699SOL    HW2 8997   3.358   6.384   2.296
 2700SOL     OW 8998   3.789   1.794   1.835
 2700SOL    HW1 8999   3.865   1.791   1.770
 2700SOL    HW2 9000   3.801   1.723   1.904
 2701SOL     OW 9001   5.233   2.910   5.169
 2701SOL    HW1 9002   5.141   2.873   5.181
 2701SOL    HW2 9003   5.282   2.857   5.101
 2702SOL     OW 9004   2.336   1.289   5.037
 2702SOL    HW1 9005   2.281   1.369   5.013
 2702SOL    HW2 9006   2.431   1.305   5.011
 2703SOL     OW 9007   1.442   6.876   2.064
 2703SOL    HW1 9008   1.385   6.808   2.017
 2703SOL    HW2 9009   1.498   6.924   1.997
 2704SOL     OW 9010   5.168   0.190   4.430
 2704SOL    HW1 9011   5.136   0.163   4.339
 2704SOL    HW2 9012   5.096   0.175   4.497
 2705SOL     OW 9013   6.882   0.076   5.236
 2705SOL    HW1 9014   6.979   0.061   5.219
 2705SOL    HW2 9015   6.858   0.037   5.325
 2706SOL     OW 9016   6.898   3.612   3.301
 2706SOL    HW1 9017   6.806   3.648   3.316
 2706SOL    HW2 9018   6.951   3.679   3.249
 2707SOL     OW 9019   3.431   0.379   3.404
 2707SOL    HW1 9020   3.420   0.474   3.373
 2707SOL    HW2 9021   3.342   0.334   3.404
 2708SOL     OW 9022   6.035   3.183   6.821
 2708SOL    HW1 9023   6.085   3.267   6.798
 2708SOL    HW2 9024   6.021   3.180   6.920
 2709SOL     OW 9025   4.354   1.322   4.495
 2709SOL    HW1 9026   4.368   1.267   4.412
 2709SOL    HW2 9027   4.389   1.414   4.480
 2710SOL     OW 9028   1.155   2.994   3.679
 2710SOL    HW1 9029   1.228   2.927   3.683
 2710SOL    HW2 9030   1.091   2.978   3.755
 2711SOL     OW 9031   3.521   1.832   2.078
 2711SOL    HW1 9032   3.478   1.911   2.034
 2711SOL    HW2 9033   3.596   1.863   2.137
 2712SOL     OW 9034   3.934   5.838   1.935
 2712SOL    HW1 9035   3.988   5.822   2.018
 2712SOL    HW2 9036   3.995   5.840   1.856
 2713SOL     OW 9037   3.500   4.518   6.414
 2713SOL    HW1 9038   3.442   4.438   6.396
 2713SOL    HW2 9039   3.571   4.493   6.480
 2714SOL     OW 9040   2.546   4.841   6.750
 2714SOL    HW1 9041   2.644   4.837   6.728
 2714SOL    HW2 9042   2.493   4.819   6.668
 2715SOL     OW 9043   4.336   0.762   0.808
 2715SOL    HW1 9044   4.334   0.842   0.748
 2715SOL    HW2 9045   4.248   0.715   0.805
 2716SOL     OW 9046   3.967   1.824   3.078
 2716SOL    HW1 9047   4.002   1.783   2.993
 2716SOL    HW2 9048   3.988   1.765   3.155
 2717SOL     OW 9049   1.050   0.791   2.928
 2717SOL    HW1 9050   1.147   0.811   2.914
 2717SOL    HW2 9051   0.995   0.843   2.863
 2718SOL     OW 9052   0.516   0.447   5.990
 2718SOL    HW1 9053   0.448   0.515   5.964
 2718SOL    HW2 9054   0.600   0.462   5.937
 2719SOL     OW 9055   2.123   3.675   2.490
 2719SOL    HW1 9056   2.068   3.593   2.503
 2719SOL    HW2 9057   2.149   3.682   2.394
 2720SOL     OW 9058   2.168   6.507   5.828
 2720SOL    HW1 9059   2.254   6.459   5.810
 2720SOL    HW2 9060   2.130   6.475   5.915
 2721SOL     OW 9061   3.517   6.253   1.968
 2721SOL    HW1 9062   3.565   6.220   1.887
 2721SOL    HW2 9063   3.440   6.194   1.988
 2722SOL     OW 9064   4.678   6.252   0.090
 2722SOL    HW1 9065   4.728   6.166   0.097
 2722SOL    HW2 9066   4.692   6.290   7.022
 2723SOL     OW 9067   3.593   6.874   0.080
 2723SOL    HW1 9068   3.654   6.916   0.147
 2723SOL    HW2 9069   3.507   6.850   0.125
 2724SOL     OW 9070   1.009   6.272   0.733
 2724SOL    HW1 9071   0.987   6.300   0.827
 2724SOL    HW2 9072   0.949   6.320   0.669
 2725SOL     OW 9073   5.652   4.173   5.082
 2725SOL    HW1 9074   5.746   4.155   5.111
 2725SOL    HW2 9075   5.590   4.111   5.129
 2726SOL     OW 9076   6.572   1.497   1.869
 2726SOL    HW1 9077   6.658   1.517   1.821
 2726SOL    HW2 9078   6.593   1.452   1.956
 2727SOL     OW 9079   1.792   4.339   4.498
 2727SOL    HW1 9080   1.855   4.391   4.555
 2727SOL    HW2 9081   1.710   4.393   4.480
 2728SOL     OW 9082   5.345   6.103   5.906
 2728SOL    HW1 9083   5.394   6.181   5.944
 2728SOL    HW2 9084   5.258   6.091   5.953
 2729SOL     OW 9085   5.357   6.113   6.381
 2729SOL    HW1 9086   5.363   6.083   6.476
 2729SOL    HW2 9087   5.448   6.142   6.350
 2730SOL     OW 9088   0.812   5.828   2.018
 2730SOL    HW1 9089   0.814   5.853   2.115
 2730SOL    HW2 9090   0.831   5.908   1.962
 2731SOL     OW 9091   3.422   3.654   4.303
 2731SOL    HW1 9092   3.368   3.610   4.375
 2731SOL    HW2 9093   3.488   3.589   4.266
 2732SOL     OW 9094   5.356   1.348   1.975
 2732SOL    HW1 9095   5.395   1.303   1.895
 2732SOL    HW2 9096   5.291   1.287   2.020
 2733SOL     OW 9097   1.141   7.024   6.518
 2733SOL    HW1 9098   1.173   6.948   6.576
 2733SOL    HW2 9099   1.062   6.994   6.465
 2734SOL     OW 9100   3.366   6.280   1.526
 2734SOL    HW1 9101   3.358   6.215   1.450
 2734SOL    HW2 9102   3.311   6.249   1.603
 2735SOL     OW 9103   0.710   1.325   2.011
 2735SOL    HW1 9104   0.809   1.339   2.001
 2735SOL    HW2 9105   0.667   1.324   1.920
 2736SOL     OW 9106   5.582   4.596   2.936
 2736SOL    HW1 9107   5.516   4.548   2.877
 2736SOL    HW2 9108   5.551   4.689   2.953
 2737SOL     OW 9109   2.570   1.915   6.215
 2737SOL    HW1 9110   2.577   2.013   6.234
 2737SOL    HW2 9111   2.572   1.864   6.301
 2738SOL     OW 9112   5.814   6.787   1.885
 2738SOL    HW1 9113   5.849   6.880   1.882
 2738SOL    HW2 9114   5.863   6.731   1.819
 2739SOL     OW 9115   0.565   5.575   1.547
 2739SOL    HW1 9116   0.629   5.591   1.472
 2739SOL    HW2 9117   0.607   5.515   1.615
 2740SOL     OW 9118   6.589   5.491   3.434
 2740SOL    HW1 9119   6.533   5.500   3.351
 2740SOL    HW2 9120   6.679   5.457   3.410
 2741SOL     OW 9121   1.099   1.277   4.975
 2741SOL    HW1 9122   1.049   1.337   5.038
 2741SOL    HW2 9123   1.077   1.303   4.881
 2742SOL     OW 9124   3.114   5.368   1.514
 2742SOL    HW1 9125   3.181   5.410   1.453
 2742SOL    HW2 9126   3.025   5.363   1.468
 2743SOL     OW 9127   5.222   3.887   2.873
 2743SOL    HW1 9128   5.176   3.814   2.923
 2743SOL    HW2 9129   5.281   3.938   2.936
 2744SOL     OW 9130   3.164   4.035   3.433
 2744SOL    HW1 9131   3.237   4.104   3.431
 2744SOL    HW2 9132   3.134   4.015   3.340
 2745SOL     OW 9133   0.358   0.130   6.398
 2745SOL    HW1 9134   0.282   0.192   6.417
 2745SOL    HW2 9135   0.402   0.156   6.312
 2746SOL     OW 9136   1.998   0.879   3.717
 2746SOL    HW1 9137   1.908   0.868   3.757
 2746SOL    HW2 9138   2.044   0.790   3.712
 2747SOL     OW 9139   3.921   5.869   0.736
 2747SOL    HW1 9140   3.893   5.775   0.755
 2747SOL    HW2 9141   3.989   5.898   0.803
 2748SOL     OW 9142   4.572   6.847   1.865
 2748SOL    HW1 9143   4.563   6.907   1.786
 2748SOL    HW2 9144   4.574   6.752   1.834
 2749SOL     OW 9145   2.322   3.292   0.064
 2749SOL    HW1 9146   2.230   3.270   0.096
 2749SOL    HW2 9147   2.322   3.294   6.987
 2750SOL     OW 9148   2.084   5.815   1.999
 2750SOL    HW1 9149   2.061   5.729   2.045
 2750SOL    HW2 9150   2.046   5.891   2.051
 2751SOL     OW 9151   6.347   3.495   0.625
 2751SOL    HW1 9152   6.365   3.399   0.649
 2751SOL    HW2 9153   6.395   3.518   0.541
 2752SOL     OW 9154   3.595   4.785   6.805
 2752SOL    HW1 9155   3.677   4.731   6.822
 2752SOL    HW2 9156   3.584   4.800   6.707
 2753SOL     OW 9157   6.321   6.149   5.566
 2753SOL    HW1 9158   6.239   6.170   5.620
 2753SOL    HW2 9159   6.351   6.231   5.517
 2754SOL     OW 9160   1.372   0.000   6.251
 2754SOL    HW1 9161   1.427   0.004   6.334
 2754SOL    HW2 9162   1.317   6.940   6.250
 2755SOL     OW 9163   2.362   0.181   2.163
 2755SOL    HW1 9164   2.370   0.278   2.186
 2755SOL    HW2 9165   2.432   0.129   2.213
 2756SOL     OW 9166   5.198   6.522   0.456
 2756SOL    HW1 9167   5.204   6.565   0.546
 2756SOL    HW2 9168   5.128   6.451   0.456
 2757SOL     OW 9169   0.632   5.046   1.585
 2757SOL    HW1 9170   0.573   5.100   1.526
 2757SOL    HW2 9171   0.592   4.955   1.597
 2758SOL     OW 9172   5.408   0.470   5.348
 2758SOL    HW1 9173   5.397   0.552   5.293
 2758SOL    HW2 9174   5.391   0.389   5.291
 2759SOL     OW 9175   5.838   5.899   4.940
 2759SOL    HW1 9176   5.817   5.878   4.845
 2759SOL    HW2 9177   5.908   5.971   4.943
 2760SOL     OW 9178   2.555   5.260   2.575
 2760SOL    HW1 9179   2.477   5.200   2.555
 2760SOL    HW2 9180   2.553   5.339   2.514
 2761SOL     OW 9181   2.498   6.297   2.986
 2761SOL    HW1 9182   2.471   6.390   2.965
 2761SOL    HW2 9183   2.528   6.291   3.082
 2762SOL     OW 9184   0.802   0.010   5.107
 2762SOL    HW1 9185   0.874   0.034   5.042
 2762SOL    HW2 9186   0.716   7.022   5.057
 2763SOL     OW 9187   5.433   1.844   3.046
 2763SOL    HW1 9188   5.502   1.832   3.117
 2763SOL    HW2 9189   5.422   1.758   2.995
 2764SOL     OW 9190   6.076   1.189   2.138
 2764SOL    HW1 9191   6.113   1.208   2.047
 2764SOL    HW2 9192   6.024   1.104   2.135
 2765SOL     OW 9193   6.223   1.184   1.837
 2765SOL    HW1 9194   6.252   1.276   1.809
 2765SOL    HW2 9195   6.282   1.116   1.794
 2766SOL     OW 9196   6.027   0.896   2.162
 2766SOL    HW1 9197   5.931   0.871   2.176
 2766SOL    HW2 9198   6.060   0.854   2.077
 2767SOL     OW 9199   5.570   4.335   6.526
 2767SOL    HW1 9200   5.599   4.355   6.432
 2767SOL    HW2 9201   5.496   4.397   6.551
 2768SOL     OW 9202   5.368   1.430   6.943
 2768SOL    HW1 9203   5.353   1.525   6.969
 2768SOL    HW2 9204   5.319   1.410   6.858
 2769SOL     OW 9205   0.180   4.174   1.963
 2769SOL    HW1 9206   0.107   4.146   2.025
 2769SOL    HW2 9207   0.146   4.175   1.869
 2770SOL     OW 9208   0.699   5.412   1.785
 2770SOL    HW1 9209   0.688   5.486   1.851
 2770SOL    HW2 9210   0.631   5.341   1.803
 2771SOL     OW 9211   4.794   1.112   1.322
 2771SOL    HW1 9212   4.838   1.031   1.360
 2771SOL    HW2 9213   4.697   1.110   1.343
 2772SOL     OW 9214   2.990   2.920   6.864
 2772SOL    HW1 9215   2.947   2.875   6.785
 2772SOL    HW2 9216   3.088   2.897   6.865
 2773SOL     OW 9217   3.449   3.623   6.440
 2773SOL    HW1 9218   3.448   3.622   6.540
 2773SOL    HW2 9219   3.446   3.528   6.406
 2774SOL     OW 9220   6.000   3.249   1.652
 2774SOL    HW1 9221   5.934   3.324   1.642
 2774SOL    HW2 9222   5.952   3.167   1.684
 2775SOL     OW 9223   0.176   5.893   1.654
 2775SOL    HW1 9224   0.270   5.862   1.640
 2775SOL    HW2 9225   0.118   5.854   1.583
 2776SOL     OW 9226   3.110   6.053   6.392
 2776SOL    HW1 9227   3.040   6.108   6.438
 2776SOL    HW2 9228   3.181   6.114   6.355
 2777SOL     OW 9229   3.440   1.566   2.379
 2777SOL    HW1 9230   3.389   1.522   2.452
 2777SOL    HW2 9231   3.482   1.650   2.413
 2778SOL     OW 9232   2.341   2.523   5.885
 2778SOL    HW1 9233   2.334   2.560   5.977
 2778SOL    HW2 9234   2.298   2.586   5.820
 2779SOL     OW 9235   5.327   0.515   6.834
 2779SOL    HW1 9236   5.396   0.518   6.906
 2779SOL    HW2 9237   5.325   0.424   6.793
 2780SOL     OW 9238   5.124   5.578   6.599
 2780SOL    HW1 9239   5.050   5.525   6.558
 2780SOL    HW2 9240   5.152   5.535   6.685
 2781SOL     OW 9241   5.586   4.534   1.348
 2781SOL    HW1 9242   5.584   4.634   1.356
 2781SOL    HW2 9243   5.626   4.508   1.260
 2782SOL     OW 9244   2.780   2.904   6.424
 2782SOL    HW1 9245   2.680   2.898   6.424
 2782SOL    HW2 9246   2.816   2.856   6.344
 2783SOL     OW 9247   6.897   4.928   5.564
 2783SOL    HW1 9248   6.830   4.903   5.634
 2783SOL    HW2 9249   6.961   4.995   5.602
 2784SOL     OW 9250   2.575   1.950   1.398
 2784SOL    HW1 9251   2.502   2.018   1.400
 2784SOL    HW2 9252   2.662   1.995   1.376
 2785SOL     OW 9253   6.504   0.277   0.632
 2785SOL    HW1 9254   6.408   0.279   0.603
 2785SOL    HW2 9255   6.508   0.266   0.731
 2786SOL     OW 9256   4.145   6.536   1.400
 2786SOL    HW1 9257   4.101   6.472   1.336
 2786SOL    HW2 9258   4.238   6.554   1.370
 2787SOL     OW 9259   2.432   2.827   5.636
 2787SOL    HW1 9260   2.423   2.925   5.656
 2787SOL    HW2 9261   2.513   2.791   5.681
 2788SOL     OW 9262   1.787   4.179   0.891
 2788SOL    HW1 9263   1.760   4.275   0.895
 2788SOL    HW2 9264   1.718   4.123   0.937
 2789SOL     OW 9265   0.463   2.247   4.219
 2789SOL    HW1 9266   0.378   2.200   4.243
 2789SOL    HW2 9267   0.540   2.201   4.264
 2790SOL     OW 9268   3.939   5.307   2.855
 2790SOL    HW1 9269   4.026   5.355   2.849
 2790SOL    HW2 9270   3.888   5.341   2.934
 2791SOL     OW 9271   1.822   3.279   4.928
 2791SOL    HW1 9272   1.877   3.204   4.890
 2791SOL    HW2 9273   1.801   3.260   5.024
 2792SOL     OW 9274   0.440   1.997   5.026
 2792SOL    HW1 9275   0.498   2.077   5.041
 2792SOL    HW2 9276   0.471   1.922   5.084
 2793SOL     OW 9277   4.479   1.838   2.825
 2793SOL    HW1 9278   4.446   1.915   2.880
 2793SOL    HW2 9279   4.546   1.786   2.878
 2794SOL     OW 9280   0.835   0.325   0.732
 2794SOL    HW1 9281   0.795   0.356   0.646
 2794SOL    HW2 9282   0.787   0.366   0.809
 2795SOL     OW 9283   2.874   3.848   1.264
 2795SOL    HW1 9284   2.819   3.783   1.316
 2795SOL    HW2 9285   2.842   3.849   1.169
 2796SOL     OW 9286   5.495   3.684   2.569
 2796SOL    HW1 9287   5.554   3.718   2.496
 2796SOL    HW2 9288   5.403   3.669   2.533
 2797SOL     OW 9289   5.065   5.012   4.880
 2797SOL    HW1 9290   4.966   5.018   4.872
 2797SOL    HW2 9291   5.098   4.928   4.837
 2798SOL     OW 9292   0.790   3.246   3.478
 2798SOL    HW1 9293   0.705   3.244   3.531
 2798SOL    HW2 9294   0.856   3.307   3.521
 2799SOL     OW 9295   6.349   4.954   5.890
 2799SOL    HW1 9296   6.287   4.875   5.886
 2799SOL    HW2 9297   6.373   4.982   5.797
 2800SOL     OW 9298   2.567   5.247   6.817
 2800SOL    HW1 9299   2.596   5.152   6.820
 2800SOL    HW2 9300   2.548   5.274   6.722
 2801SOL     OW 9301   5.653   5.735   1.798
 2801SOL    HW1 9302   5.694   5.815   1.756
 2801SOL    HW2 9303   5.554   5.738   1.786
 2802SOL     OW 9304   4.181   1.393   5.782
 2802SOL    HW1 9305   4.215   1.487   5.770
 2802SOL    HW2 9306   4.094   1.383   5.735
 2803SOL     OW 9307   2.659   7.022   6.558
 2803SOL    HW1 9308   2.699   6.952   6.617
 2803SOL    HW2 9309   2.605   6.978   6.486
 2804SOL     OW 9310   6.868   4.143   3.879
 2804SOL    HW1 9311   6.806   4.207   3.923
 2804SOL    HW2 9312   6.885   4.172   3.785
 2805SOL     OW 9313   4.910   3.091   0.896
 2805SOL    HW1 9314   4.906   3.188   0.874
 2805SOL    HW2 9315   4.849   3.041   0.835
 2806SOL     OW 9316   6.266   5.529   3.037
 2806SOL    HW1 9317   6.331   5.564   3.105
 2806SOL    HW2 9318   6.197   5.473   3.082
 2807SOL     OW 9319   4.469   4.855   3.254
 2807SOL    HW1 9320   4.418   4.915   3.315
 2807SOL    HW2 9321   4.419   4.770   3.242
 2808SOL     OW 9322   5.625   1.347   3.715
 2808SOL    HW1 9323   5.608   1.416   3.645
 2808SOL    HW2 9324   5.654   1.262   3.671
 2809SOL     OW 9325   4.860   2.465   0.618
 2809SOL    HW1 9326   4.844   2.564   0.619
 2809SOL    HW2 9327   4.939   2.443   0.674
 2810SOL     OW 9328   2.819   0.056   5.377
 2810SOL    HW1 9329   2.844   0.152   5.387
 2810SOL    HW2 9330   2.725   0.050   5.343
 2811SOL     OW 9331   0.350   1.671   3.411
 2811SOL    HW1 9332   0.320   1.648   3.319
 2811SOL    HW2 9333   0.292   1.625   3.478
 2812SOL     OW 9334   4.848   3.987   1.965
 2812SOL    HW1 9335   4.796   4.071   1.949
 2812SOL    HW2 9336   4.825   3.920   1.893
 2813SOL     OW 9337   6.082   0.648   6.207
 2813SOL    HW1 9338   6.012   0.720   6.207
 2813SOL    HW2 9339   6.144   0.662   6.284
 2814SOL     OW 9340   4.607   3.909   5.741
 2814SOL    HW1 9341   4.696   3.922   5.699
 2814SOL    HW2 9342   4.584   3.990   5.795
 2815SOL     OW 9343   0.709   0.927   4.484
 2815SOL    HW1 9344   0.720   0.987   4.563
 2815SOL    HW2 9345   0.642   0.857   4.505
 2816SOL     OW 9346   5.746   0.015   4.301
 2816SOL    HW1 9347   5.740   6.948   4.343
 2816SOL    HW2 9348   5.716   0.084   4.366
 2817SOL     OW 9349   1.374   1.276   1.832
 2817SOL    HW1 9350   1.348   1.372   1.844
 2817SOL    HW2 9351   1.418   1.243   1.916
 2818SOL     OW 9352   6.851   4.683   5.956
 2818SOL    HW1 9353   6.816   4.702   6.048
 2818SOL    HW2 9354   6.905   4.599   5.957
 2819SOL     OW 9355   0.253   2.925   0.674
 2819SOL    HW1 9356   0.217   3.017   0.665
 2819SOL    HW2 9357   0.320   2.908   0.601
 2820SOL     OW 9358   0.017   3.060   2.973
 2820SOL    HW1 9359   0.017   3.053   3.072
 2820SOL    HW2 9360   0.054   3.149   2.945
 2821SOL     OW 9361   1.305   4.560   5.089
 2821SOL    HW1 9362   1.314   4.463   5.109
 2821SOL    HW2 9363   1.312   4.574   4.990
 2822SOL     OW 9364   4.898   2.296   6.858
 2822SOL    HW1 9365   4.883   2.226   6.788
 2822SOL    HW2 9366   4.863   2.263   6.946
 2823SOL     OW 9367   2.175   6.669   2.409
 2823SOL    HW1 9368   2.093   6.616   2.385
 2823SOL    HW2 9369   2.222   6.698   2.326
 2824SOL     OW 9370   2.932   1.072   5.452
 2824SOL    HW1 9371   2.879   1.032   5.378
 2824SOL    HW2 9372   2.894   1.162   5.476
 2825SOL     OW 9373   6.496   6.311   1.140
 2825SOL    HW1 9374   6.412   6.263   1.162
 2825SOL    HW2 9375   6.528   6.283   1.049
 2826SOL     OW 9376   5.000   1.466   4.657
 2826SOL    HW1 9377   4.954   1.377   4.655
 2826SOL    HW2 9378   4.951   1.530   4.597
 2827SOL     OW 9379   5.871   1.293   5.340
 2827SOL    HW1 9380   5.880   1.195   5.324
 2827SOL    HW2 9381   5.957   1.330   5.374
 2828SOL     OW 9382   4.151   0.820   5.805
 2828SOL    HW1 9383   4.090   0.827   5.884
 2828SOL    HW2 9384   4.113   0.754   5.739
 2829SOL     OW 9385   3.510   6.642   5.829
 2829SOL    HW1 9386   3.416   6.611   5.815
 2829SOL    HW2 9387   3.540   6.618   5.921
 2830SOL     OW 9388   4.284   3.334   0.082
 2830SOL    HW1 9389   4.310   3.294   7.018
 2830SOL    HW2 9390   4.319   3.428   0.087
 2831SOL     OW 9391   5.530   5.990   4.092
 2831SOL    HW1 9392   5.574   6.028   4.012
 2831SOL    HW2 9393   5.552   5.893   4.100
 2832SOL     OW 9394   0.406   0.861   1.917
 2832SOL    HW1 9395   0.414   0.764   1.894
 2832SOL    HW2 9396   0.310   0.885   1.928
 2833SOL     OW 9397   5.826   2.756   2.089
 2833SOL    HW1 9398   5.775   2.762   2.004
 2833SOL    HW2 9399   5.814   2.664   2.128
 2834SOL     OW 9400   3.313   1.623   5.047
 2834SOL    HW1 9401   3.333   1.527   5.064
 2834SOL    HW2 9402   3.292   1.636   4.950
 2835SOL     OW 9403   0.501   6.978   2.375
 2835SOL    HW1 9404   0.527   0.041   2.418
 2835SOL    HW2 9405   0.412   6.989   2.331
 2836SOL     OW 9406   6.812   0.043   1.484
 2836SOL    HW1 9407   6.881   6.994   1.486
 2836SOL    HW2 9408   6.743   0.020   1.415
 2837SOL     OW 9409   5.721   4.008   3.800
 2837SOL    HW1 9410   5.700   4.066   3.879
 2837SOL    HW2 9411   5.636   3.981   3.754
 2838SOL     OW 9412   2.670   4.984   2.391
 2838SOL    HW1 9413   2.748   5.038   2.360
 2838SOL    HW2 9414   2.694   4.938   2.477
 2839SOL     OW 9415   5.129   1.797   1.461
 2839SOL    HW1 9416   5.159   1.710   1.421
 2839SOL    HW2 9417   5.113   1.863   1.388
 2840SOL     OW 9418   6.205   1.284   5.519
 2840SOL    HW1 9419   6.253   1.258   5.434
 2840SOL    HW2 9420   6.259   1.254   5.597
 2841SOL     OW 9421   0.840   5.717   0.854
 2841SOL    HW1 9422   0.805   5.732   0.762
 2841SOL    HW2 9423   0.892   5.797   0.884
 2842SOL     OW 9424   6.730   3.093   3.307
 2842SOL    HW1 9425   6.789   3.069   3.385
 2842SOL    HW2 9426   6.734   3.191   3.291
 2843SOL     OW 9427   3.767   0.904   4.347
 2843SOL    HW1 9428   3.846   0.963   4.339
 2843SOL    HW2 9429   3.687   0.949   4.306
 2844SOL     OW 9430   0.480   4.025   6.671
 2844SOL    HW1 9431   0.506   4.105   6.724
 2844SOL    HW2 9432   0.385   4.035   6.640
 2845SOL     OW 9433   0.233   4.427   6.371
 2845SOL    HW1 9434   0.178   4.502   6.333
 2845SOL    HW2 9435   0.223   4.346   6.314
 2846SOL     OW 9436   4.683   1.922   6.140
 2846SOL    HW1 9437   4.748   1.995   6.164
 2846SOL    HW2 9438   4.657   1.931   6.043
 2847SOL     OW 9439   6.391   4.328   4.400
 2847SOL    HW1 9440   6.404   4.317   4.301
 2847SOL    HW2 9441   6.358   4.242   4.439
 2848SOL     OW 9442   0.765   4.865   4.668
 2848SOL    HW1 9443   0.814   4.952   4.675
 2848SOL    HW2 9444   0.699   4.858   4.744
 2849SOL     OW 9445   2.589   1.872   1.101
 2849SOL    HW1 9446   2.617   1.968   1.096
 2849SOL    HW2 9447   2.519   1.861   1.171
 2850SOL     OW 9448   3.950   0.059   0.640
 2850SOL    HW1 9449   3.943   0.044   0.542
 2850SOL    HW2 9450   4.044   0.044   0.670
 2851SOL     OW 9451   1.209   4.561   5.534
 2851SOL    HW1 9452   1.151   4.485   5.506
 2851SOL    HW2 9453   1.304   4.530   5.541
 2852SOL     OW 9454   6.763   3.412   6.557
 2852SOL    HW1 9455   6.815   3.326   6.556
 2852SOL    HW2 9456   6.823   3.486   6.588
 2853SOL     OW 9457   3.319   3.334   1.023
 2853SOL    HW1 9458   3.396   3.290   0.976
 2853SOL    HW2 9459   3.290   3.276   1.100
 2854SOL     OW 9460   2.794   0.728   3.940
 2854SOL    HW1 9461   2.747   0.647   3.974
 2854SOL    HW2 9462   2.770   0.743   3.844
 2855SOL     OW 9463   2.021   0.882   5.157
 2855SOL    HW1 9464   1.926   0.867   5.127
 2855SOL    HW2 9465   2.068   0.941   5.091
 2856SOL     OW 9466   2.569   2.873   5.392
 2856SOL    HW1 9467   2.505   2.863   5.468
 2856SOL    HW2 9468   2.533   2.940   5.327
 2857SOL     OW 9469   2.956   2.446   1.459
 2857SOL    HW1 9470   2.949   2.545   1.452
 2857SOL    HW2 9471   3.037   2.414   1.408
 2858SOL     OW 9472   6.345   3.060   2.851
 2858SOL    HW1 9473   6.382   3.149   2.825
 2858SOL    HW2 9474   6.305   3.016   2.770
 2859SOL     OW 9475   5.559   0.690   0.648
 2859SOL    HW1 9476   5.533   0.627   0.721
 2859SOL    HW2 9477   5.653   0.722   0.663
 2860SOL     OW 9478   3.902   1.606   2.019
 2860SOL    HW1 9479   3.867   1.524   2.063
 2860SOL    HW2 9480   3.901   1.682   2.085
 2861SOL     OW 9481   3.629   5.772   5.522
 2861SOL    HW1 9482   3.588   5.853   5.565
 2861SOL    HW2 9483   3.659   5.708   5.593
 2862SOL     OW 9484   5.479   0.932   3.928
 2862SOL    HW1 9485   5.518   1.023   3.944
 2862SOL    HW2 9486   5.508   0.899   3.838
 2863SOL     OW 9487   6.427   1.840   6.977
 2863SOL    HW1 9488   6.404   1.767   6.912
 2863SOL    HW2 9489   6.491   1.904   6.933
 2864SOL     OW 9490   3.927   0.968   0.984
 2864SOL    HW1 9491   3.987   0.907   0.932
 2864SOL    HW2 9492   3.944   1.063   0.957
 2865SOL     OW 9493   4.587   4.582   5.145
 2865SOL    HW1 9494   4.514   4.541   5.089
 2865SOL    HW2 9495   4.657   4.620   5.085
 2866SOL     OW 9496   6.845   6.229   6.660
 2866SOL    HW1 9497   6.879   6.312   6.704
 2866SOL    HW2 9498   6.923   6.172   6.632
 2867SOL     OW 9499   6.222   4.788   3.210
 2867SOL    HW1 9500   6.296   4.731   3.246
 2867SOL    HW2 9501   6.183   4.843   3.284
 2868SOL     OW 9502   1.251   4.007   5.126
 2868SOL    HW1 9503   1.224   3.927   5.180
 2868SOL    HW2 9504   1.175   4.036   5.069
 2869SOL     OW 9505   5.646   0.610   2.083
 2869SOL    HW1 9506   5.679   0.595   2.177
 2869SOL    HW2 9507   5.549   0.587   2.078
 2870SOL     OW 9508   6.255   2.062   3.107
 2870SOL    HW1 9509   6.302   2.141   3.067
 2870SOL    HW2 9510   6.323   2.003   3.153
 2871SOL     OW 9511   1.843   2.047   6.088
 2871SOL    HW1 9512   1.910   2.112   6.051
 2871SOL    HW2 9513   1.765   2.097   6.125
 2872SOL     OW 9514   2.516   0.565   3.516
 2872SOL    HW1 9515   2.459   0.537   3.438
 2872SOL    HW2 9516   2.499   0.661   3.537
 2873SOL     OW 9517   0.701   5.522   2.324
 2873SOL    HW1 9518   0.772   5.581   2.363
 2873SOL    HW2 9519   0.669   5.458   2.394
 2874SOL     OW 9520   5.686   3.515   2.155
 2874SOL    HW1 9521   5.589   3.518   2.135
 2874SOL    HW2 9522   5.735   3.575   2.091
 2875SOL     OW 9523   3.817   5.906   6.245
 2875SOL    HW1 9524   3.831   5.959   6.329
 2875SOL    HW2 9525   3.900   5.853   6.224
 2876SOL     OW 9526   0.158   0.956   1.530
 2876SOL    HW1 9527   0.131   0.918   1.619
 2876SOL    HW2 9528   0.240   0.910   1.498
 2877SOL     OW 9529   2.948   2.798   5.452
 2877SOL    HW1 9530   2.879   2.743   5.404
 2877SOL    HW2 9531   3.037   2.784   5.409
 2878SOL     OW 9532   2.550   4.951   5.337
 2878SOL    HW1 9533   2.626   4.894   5.305
 2878SOL    HW2 9534   2.487   4.895   5.391
 2879SOL     OW 9535   5.310   4.991   0.697
 2879SOL    HW1 9536   5.355   5.071   0.737
 2879SOL    HW2 9537   5.260   5.019   0.615
 2880SOL     OW 9538   0.858   6.426   1.751
 2880SOL    HW1 9539   0.898   6.477   1.827
 2880SOL    HW2 9540   0.882   6.329   1.759
 2881SOL     OW 9541   6.867   6.130   0.766
 2881SOL    HW1 9542   6.917   6.205   0.723
 2881SOL    HW2 9543   6.770   6.136   0.742
 2882SOL     OW 9544   7.003   3.116   2.347
 2882SOL    HW1 9545   7.015   3.017   2.337
 2882SOL    HW2 9546   6.971   3.136   2.440
 2883SOL     OW 9547   3.892   6.827   2.630
 2883SOL    HW1 9548   3.968   6.892   2.639
 2883SOL    HW2 9549   3.855   6.831   2.538
 2884SOL     OW 9550   0.893   5.985   3.200
 2884SOL    HW1 9551   0.825   6.057   3.211
 2884SOL    HW2 9552   0.901   5.933   3.285
 2885SOL     OW 9553   0.772   2.035   2.440
 2885SOL    HW1 9554   0.814   2.087   2.366
 2885SOL    HW2 9555   0.843   1.987   2.491
 2886SOL     OW 9556   2.153   1.770   6.544
 2886SOL    HW1 9557   2.084   1.842   6.550
 2886SOL    HW2 9558   2.143   1.708   6.622
 2887SOL     OW 9559   1.363   6.965   4.995
 2887SOL    HW1 9560   1.327   0.018   5.050
 2887SOL    HW2 9561   1.366   6.883   5.051
 2888SOL     OW 9562   5.907   4.983   0.126
 2888SOL    HW1 9563   5.871   4.987   0.219
 2888SOL    HW2 9564   5.942   5.073   0.099
 2889SOL     OW 9565   0.433   0.308   1.227
 2889SOL    HW1 9566   0.455   0.244   1.154
 2889SOL    HW2 9567   0.346   0.283   1.269
 2890SOL     OW 9568   4.568   0.488   1.930
 2890SOL    HW1 9569   4.650   0.532   1.895
 2890SOL    HW2 9570   4.506   0.467   1.854
 2891SOL     OW 9571   2.431   4.619   4.049
 2891SOL    HW1 9572   2.421   4.526   4.082
 2891SOL    HW2 9573   2.528   4.644   4.047
 2892SOL     OW 9574   4.439   3.894   6.739
 2892SOL    HW1 9575   4.360   3.833   6.731
 2892SOL    HW2 9576   4.417   3.983   6.699
 2893SOL     OW 9577   2.374   0.121   5.137
 2893SOL    HW1 9578   2.340   0.050   5.075
 2893SOL    HW2 9579   2.297   0.167   5.180
 2894SOL     OW 9580   3.402   2.901   0.278
 2894SOL    HW1 9581   3.304   2.893   0.298
 2894SOL    HW2 9582   3.424   2.997   0.258
 2895SOL     OW 9583   3.867   3.085   6.507
 2895SOL    HW1 9584   3.941   3.043   6.455
 2895SOL    HW2 9585   3.854   3.034   6.593
 2896SOL     OW 9586   2.029   5.481   0.105
 2896SOL    HW1 9587   2.010   5.417   0.179
 2896SOL    HW2 9588   2.107   5.538   0.130
 2897SOL     OW 9589   2.699   6.032   3.690
 2897SOL    HW1 9590   2.621   6.032   3.753
 2897SOL    HW2 9591   2.705   6.121   3.645
 2898SOL     OW 9592   3.949   5.189   1.608
 2898SOL    HW1 9593   3.892   5.197   1.527
 2898SOL    HW2 9594   3.904   5.234   1.685
 2899SOL     OW 9595   6.881   6.932   6.735
 2899SOL    HW1 9596   6.913   6.843   6.768
 2899SOL    HW2 9597   6.944   7.003   6.765
 2900SOL     OW 9598   1.415   5.394   5.581
 2900SOL    HW1 9599   1.430   5.306   5.626
 2900SOL    HW2 9600   1.484   5.459   5.612
 2901SOL     OW 9601   3.002   0.520   2.202
 2901SOL    HW1 9602   3.088   0.524   2.152
 2901SOL    HW2 9603   2.926   0.522   2.138
 2902SOL     OW 9604   5.331   6.176   1.225
 2902SOL    HW1 9605   5.311   6.260   1.175
 2902SOL    HW2 9606   5.373   6.199   1.313
 2903SOL     OW 9607   2.743   1.144   2.096
 2903SOL    HW1 9608   2.649   1.109   2.089
 2903SOL    HW2 9609   2.798   1.081   2.150
 2904SOL     OW 9610   1.943   3.090   5.225
 2904SOL    HW1 9611   1.959   3.189   5.219
 2904SOL    HW2 9612   2.028   3.042   5.204
 2905SOL     OW 9613   1.607   2.244   1.900
 2905SOL    HW1 9614   1.546   2.225   1.978
 2905SOL    HW2 9615   1.673   2.169   1.891
 2906SOL     OW 9616   5.542   5.622   2.185
 2906SOL    HW1 9617   5.493   5.638   2.271
 2906SOL    HW2 9618   5.511   5.536   2.145
 2907SOL     OW 9619   0.132   1.317   4.842
 2907SOL    HW1 9620   0.158   1.244   4.779
 2907SOL    HW2 9621   0.158   1.406   4.803
 2908SOL     OW 9622   3.534   6.267   4.047
 2908SOL    HW1 9623   3.496   6.231   4.132
 2908SOL    HW2 9624   3.549   6.366   4.057
 2909SOL     OW 9625   1.474   5.610   4.470
 2909SOL    HW1 9626   1.527   5.668   4.532
 2909SOL    HW2 9627   1.536   5.550   4.420
 2910SOL     OW 9628   4.138   6.315   5.837
 2910SOL    HW1 9629   4.136   6.329   5.738
 2910SOL    HW2 9630   4.044   6.315   5.872
 2911SOL     OW 9631   2.039   4.630   3.365
 2911SOL    HW1 9632   1.950   4.638   3.409
 2911SOL    HW2 9633   2.110   4.667   3.425
 2912SOL     OW 9634   2.909   6.170   0.022
 2912SOL    HW1 9635   2.876   6.168   6.951
 2912SOL    HW2 9636   2.933   6.263   0.047
 2913SOL     OW 9637   1.752   3.573   2.659
 2913SOL    HW1 9638   1.726   3.643   2.592
 2913SOL    HW2 9639   1.832   3.523   2.625
 2914SOL     OW 9640   5.790   5.173   6.250
 2914SOL    HW1 9641   5.745   5.084   6.257
 2914SOL    HW2 9642   5.731   5.236   6.198
 2915SOL     OW 9643   4.439   1.809   4.015
 2915SOL    HW1 9644   4.509   1.877   3.994
 2915SOL    HW2 9645   4.475   1.744   4.082
 2916SOL     OW 9646   6.282   5.125   5.363
 2916SOL    HW1 9647   6.250   5.151   5.272
 2916SOL    HW2 9648   6.341   5.197   5.399
 2917SOL     OW 9649   4.820   0.575   1.773
 2917SOL    HW1 9650   4.830   0.673   1.784
 2917SOL    HW2 9651   4.871   0.528   1.845
 2918SOL     OW 9652   0.379   4.354   3.884
 2918SOL    HW1 9653   0.323   4.299   3.947
 2918SOL    HW2 9654   0.381   4.449   3.916
 2919SOL     OW 9655   5.766   6.226   0.518
 2919SOL    HW1 9656   5.803   6.193   0.431
 2919SOL    HW2 9657   5.669   6.202   0.524
 2920SOL     OW 9658   3.974   1.848   2.589
 2920SOL    HW1 9659   4.037   1.867   2.513
 2920SOL    HW2 9660   3.914   1.772   2.564
 2921SOL     OW 9661   0.563   0.996   2.821
 2921SOL    HW1 9662   0.477   1.042   2.798
 2921SOL    HW2 9663   0.543   0.916   2.878
 2922SOL     OW 9664   4.931   0.113   5.537
 2922SOL    HW1 9665   4.963   0.094   5.444
 2922SOL    HW2 9666   5.010   0.116   5.599
 2923SOL     OW 9667   6.568   5.117   2.409
 2923SOL    HW1 9668   6.654   5.164   2.428
 2923SOL    HW2 9669   6.506   5.126   2.488
 2924SOL     OW 9670   0.366   1.534   5.232
 2924SOL    HW1 9671   0.427   1.456   5.214
 2924SOL    HW2 9672   0.271   1.504   5.228
 2925SOL     OW 9673   5.693   3.085   1.539
 2925SOL    HW1 9674   5.722   3.071   1.445
 2925SOL    HW2 9675   5.614   3.146   1.541
 2926SOL     OW 9676   0.001   2.379   4.718
 2926SOL    HW1 9677   0.050   2.305   4.765
 2926SOL    HW2 9678   6.991   2.346   4.630
 2927SOL     OW 9679   1.602   2.716   2.019
 2927SOL    HW1 9680   1.509   2.680   2.004
 2927SOL    HW2 9681   1.667   2.661   1.966
 2928SOL     OW 9682   6.261   0.455   0.341
 2928SOL    HW1 9683   6.170   0.426   0.311
 2928SOL    HW2 9684   6.326   0.442   0.266
 2929SOL     OW 9685   0.542   0.018   6.148
 2929SOL    HW1 9686   0.491   6.956   6.157
 2929SOL    HW2 9687   0.480   0.091   6.121
 2930SOL     OW 9688   4.958   0.433   4.723
 2930SOL    HW1 9689   4.912   0.516   4.754
 2930SOL    HW2 9690   5.043   0.421   4.774
 2931SOL     OW 9691   4.713   6.618   6.640
 2931SOL    HW1 9692   4.670   6.653   6.558
 2931SOL    HW2 9693   4.643   6.581   6.702
 2932SOL     OW 9694   1.305   3.661   1.274
 2932SOL    HW1 9695   1.211   3.629   1.287
 2932SOL    HW2 9696   1.312   3.756   1.302
 2933SOL     OW 9697   5.482   2.520   4.149
 2933SOL    HW1 9698   5.476   2.434   4.201
 2933SOL    HW2 9699   5.576   2.552   4.150
 2934SOL     OW 9700   2.840   0.691   0.382
 2934SOL    HW1 9701   2.825   0.765   0.316
 2934SOL    HW2 9702   2.798   0.607   0.349
 2935SOL     OW 9703   5.875   2.501   0.591
 2935SOL    HW1 9704   5.881   2.533   0.685
 2935SOL    HW2 9705   5.781   2.510   0.559
 2936SOL     OW 9706   4.648   5.694   6.826
 2936SOL    HW1 9707   4.707   5.743   6.762
 2936SOL    HW2 9708   4.580   5.757   6.863
 2937SOL     OW 9709   3.577   5.860   0.325
 2937SOL    HW1 9710   3.669   5.828   0.346
 2937SOL    HW2 9711   3.575   5.898   0.232
 2938SOL     OW 9712   5.105   5.757   5.259
 2938SOL    HW1 9713   5.046   5.677   5.248
 2938SOL    HW2 9714   5.115   5.779   5.356
 2939SOL     OW 9715   6.730   6.328   5.459
 2939SOL    HW1 9716   6.763   6.267   5.532
 2939SOL    HW2 9717   6.771   6.418   5.471
 2940SOL     OW 9718   5.545   0.139   5.289
 2940SOL    HW1 9719   5.606   0.140   5.210
 2940SOL    HW2 9720   5.462   0.088   5.267
 2941SOL     OW 9721   0.664   2.031   5.353
 2941SOL    HW1 9722   0.760   2.018   5.330
 2941SOL    HW2 9723   0.610   1.955   5.318
 2942SOL     OW 9724   3.734   0.088   2.594
 2942SOL    HW1 9725   3.642   0.104   2.628
 2942SOL    HW2 9726   3.739   0.116   2.498
 2943SOL     OW 9727   6.198   3.556   3.252
 2943SOL    HW1 9728   6.185   3.655   3.255
 2943SOL    HW2 9729   6.267   3.529   3.319
 2944SOL     OW 9730   3.859   5.351   5.416
 2944SOL    HW1 9731   3.914   5.272   5.445
 2944SOL    HW2 9732   3.763   5.335   5.441
 2945SOL     OW 9733   3.211   3.127   3.425
 2945SOL    HW1 9734   3.137   3.106   3.488
 2945SOL    HW2 9735   3.260   3.208   3.457
 2946SOL     OW 9736   6.936   5.922   5.961
 2946SOL    HW1 9737   6.957   6.005   6.013
 2946SOL    HW2 9738   7.010   5.903   5.897
 2947SOL     OW 9739   6.631   4.241   0.119
 2947SOL    HW1 9740   6.572   4.160   0.123
 2947SOL    HW2 9741   6.723   4.214   0.090
 2948SOL     OW 9742   6.146   4.198   4.508
 2948SOL    HW1 9743   6.140   4.291   4.471
 2948SOL    HW2 9744   6.066   4.145   4.480
 2949SOL     OW 9745   1.214   6.621   0.359
 2949SOL    HW1 9746   1.276   6.581   0.291
 2949SOL    HW2 9747   1.264   6.637   0.444
 2950SOL     OW 9748   5.685   3.223   4.435
 2950SOL    HW1 9749   5.660   3.305   4.485
 2950SOL    HW2 9750   5.677   3.143   4.495
 2951SOL     OW 9751   0.499   1.403   0.945
 2951SOL    HW1 9752   0.400   1.414   0.958
 2951SOL    HW2 9753   0.543   1.492   0.948
 2952SOL     OW 9754   1.642   4.190   2.650
 2952SOL    HW1 9755   1.543   4.184   2.667
 2952SOL    HW2 9756   1.666   4.283   2.622
 2953SOL     OW 9757   4.723   2.771   1.533
 2953SOL    HW1 9758   4.711   2.703   1.460
 2953SOL    HW2 9759   4.637   2.781   1.584
 2954SOL     OW 9760   6.682   6.683   2.799
 2954SOL    HW1 9761   6.728   6.768   2.822
 2954SOL    HW2 9762   6.624   6.654   2.875
 2955SOL     OW 9763   1.064   2.712   0.980
 2955SOL    HW1 9764   1.005   2.789   1.006
 2955SOL    HW2 9765   1.010   2.643   0.933
 2956SOL     OW 9766   0.186   4.979   3.180
 2956SOL    HW1 9767   0.226   4.967   3.271
 2956SOL    HW2 9768   0.184   5.077   3.157
 2957SOL     OW 9769   0.870   3.598   1.705
 2957SOL    HW1 9770   0.924   3.556   1.779
 2957SOL    HW2 9771   0.774   3.599   1.732
 2958SOL     OW 9772   1.828   4.630   5.453
 2958SOL    HW1 9773   1.822   4.721   5.494
 2958SOL    HW2 9774   1.739   4.604   5.416
 2959SOL     OW 9775   4.586   5.889   6.449
 2959SOL    HW1 9776   4.491   5.880   6.479
 2959SOL    HW2 9777   4.635   5.947   6.514
 2960SOL     OW 9778   2.189   1.855   0.061
 2960SOL    HW1 9779   2.161   1.930   7.023
 2960SOL    HW2 9780   2.280   1.874   0.097
 2961SOL     OW 9781   5.801   3.770   4.165
 2961SOL    HW1 9782   5.844   3.703   4.224
 2961SOL    HW2 9783   5.763   3.844   4.221
 2962SOL     OW 9784   4.279   0.951   3.064
 2962SOL    HW1 9785   4.310   0.885   3.132
 2962SOL    HW2 9786   4.204   0.911   3.011
 2963SOL     OW 9787   1.850   1.643   5.192
 2963SOL    HW1 9788   1.852   1.574   5.120
 2963SOL    HW2 9789   1.858   1.599   5.281
 2964SOL     OW 9790   2.412   6.452   1.292
 2964SOL    HW1 9791   2.427   6.550   1.277
 2964SOL    HW2 9792   2.313   6.433   1.291
 2965SOL     OW 9793   0.174   1.271   5.754
 2965SOL    HW1 9794   0.224   1.282   5.840
 2965SOL    HW2 9795   0.220   1.324   5.682
 2966SOL     OW 9796   5.015   4.827   4.103
 2966SOL    HW1 9797   4.983   4.783   4.019
 2966SOL    HW2 9798   5.021   4.926   4.088
 2967SOL     OW 9799   5.593   2.873   3.112
 2967SOL    HW1 9800   5.652   2.929   3.054
 2967SOL    HW2 9801   5.499   2.875   3.079
 2968SOL     OW 9802   0.603   4.164   4.290
 2968SOL    HW1 9803   0.655   4.120   4.363
 2968SOL    HW2 9804   0.666   4.197   4.220
 2969SOL     OW 9805   5.246   2.245   4.594
 2969SOL    HW1 9806   5.225   2.336   4.628
 2969SOL    HW2 9807   5.180   2.179   4.631
 2970SOL     OW 9808   0.681   4.424   6.089
 2970SOL    HW1 9809   0.642   4.494   6.150
 2970SOL    HW2 9810   0.766   4.390   6.128
 2971SOL     OW 9811   5.827   2.554   2.924
 2971SOL    HW1 9812   5.735   2.591   2.935
 2971SOL    HW2 9813   5.869   2.594   2.843
 2972SOL     OW 9814   6.444   3.375   5.712
 2972SOL    HW1 9815   6.492   3.420   5.636
 2972SOL    HW2 9816   6.485   3.286   5.729
 2973SOL     OW 9817   4.907   6.657   4.084
 2973SOL    HW1 9818   4.962   6.667   4.168
 2973SOL    HW2 9819   4.968   6.644   4.006
 2974SOL     OW 9820   6.917   4.597   3.205
 2974SOL    HW1 9821   6.857   4.573   3.129
 2974SOL    HW2 9822   6.955   4.514   3.246
 2975SOL     OW 9823   0.616   0.775   5.297
 2975SOL    HW1 9824   0.709   0.812   5.295
 2975SOL    HW2 9825   0.620   0.675   5.302
 2976SOL     OW 9826   4.230   1.632   2.598
 2976SOL    HW1 9827   4.178   1.549   2.620
 2976SOL    HW2 9828   4.305   1.642   2.662
 2977SOL     OW 9829   3.074   6.816   4.409
 2977SOL    HW1 9830   3.115   6.800   4.319
 2977SOL    HW2 9831   3.069   6.915   4.426
 2978SOL     OW 9832   5.147   5.114   0.189
 2978SOL    HW1 9833   5.233   5.067   0.169
 2978SOL    HW2 9834   5.121   5.169   0.110
 2979SOL     OW 9835   3.571   0.552   2.796
 2979SOL    HW1 9836   3.588   0.547   2.697
 2979SOL    HW2 9837   3.650   0.518   2.845
 2980SOL     OW 9838   0.954   5.775   4.178
 2980SOL    HW1 9839   0.855   5.770   4.173
 2980SOL    HW2 9840   0.993   5.685   4.158
 2981SOL     OW 9841   1.876   0.931   5.644
 2981SOL    HW1 9842   1.961   0.892   5.610
 2981SOL    HW2 9843   1.810   0.940   5.569
 2982SOL     OW 9844   4.404   5.734   2.235
 2982SOL    HW1 9845   4.408   5.803   2.163
 2982SOL    HW2 9846   4.319   5.682   2.228
 2983SOL     OW 9847   0.099   1.026   4.496
 2983SOL    HW1 9848   0.182   0.992   4.452
 2983SOL    HW2 9849   0.033   0.951   4.505
 2984SOL     OW 9850   5.884   5.330   1.784
 2984SOL    HW1 9851   5.913   5.407   1.727
 2984SOL    HW2 9852   5.897   5.354   1.881
 2985SOL     OW 9853   0.247   2.264   3.435
 2985SOL    HW1 9854   0.228   2.260   3.337
 2985SOL    HW2 9855   0.323   2.326   3.452
 2986SOL     OW 9856   1.563   3.968   5.240
 2986SOL    HW1 9857   1.565   3.901   5.166
 2986SOL    HW2 9858   1.545   4.059   5.202
 2987SOL     OW 9859   4.195   1.894   4.659
 2987SOL    HW1 9860   4.293   1.891   4.676
 2987SOL    HW2 9861   4.170   1.985   4.625
 2988SOL     OW 9862   1.017   0.485   1.683
 2988SOL    HW1 9863   0.956   0.539   1.625
 2988SOL    HW2 9864   1.112   0.503   1.657
 2989SOL     OW 9865   6.921   5.065   0.769
 2989SOL    HW1 9866   6.981   5.034   0.695
 2989SOL    HW2 9867   6.973   5.069   0.854
 2990SOL     OW 9868   3.702   1.584   1.550
 2990SOL    HW1 9869   3.778   1.520   1.563
 2990SOL    HW2 9870   3.656   1.599   1.638
 2991SOL     OW 9871   0.264   3.797   0.231
 2991SOL    HW1 9872   0.242   3.835   0.321
 2991SOL    HW2 9873   0.180   3.781   0.180
 2992SOL     OW 9874   3.541   5.350   6.371
 2992SOL    HW1 9875   3.551   5.439   6.327
 2992SOL    HW2 9876   3.451   5.345   6.414
 2993SOL     OW 9877   1.155   5.359   1.270
 2993SOL    HW1 9878   1.229   5.342   1.205
 2993SOL    HW2 9879   1.179   5.437   1.328
 2994SOL     OW 9880   5.016   0.357   0.253
 2994SOL    HW1 9881   5.057   0.416   0.184
 2994SOL    HW2 9882   4.932   0.399   0.287
 2995SOL     OW 9883   1.554   1.914   6.574
 2995SOL    HW1 9884   1.620   1.842   6.553
 2995SOL    HW2 9885   1.517   1.899   6.666
 2996SOL     OW 9886   4.053   5.135   5.759
 2996SOL    HW1 9887   4.142   5.174   5.783
 2996SOL    HW2 9888   3.982   5.180   5.813
 2997SOL     OW 9889   5.456   6.769   1.067
 2997SOL    HW1 9890   5.373   6.752   1.120
 2997SOL    HW2 9891   5.531   6.793   1.128
 2998SOL     OW 9892   6.000   5.533   3.831
 2998SOL    HW1 9893   6.083   5.580   3.862
 2998SOL    HW2 9894   6.016   5.493   3.741
 2999SOL     OW 9895   3.441   0.095   2.638
 2999SOL    HW1 9896   3.444   0.164   2.711
 2999SOL    HW2 9897   3.403   0.137   2.555
 3000SOL     OW 9898   1.344   3.454   6.025
 3000SOL    HW1 9899   1.325   3.360   5.996
 3000SOL    HW2 9900   1.433   3.458   6.068
 3001SOL     OW 9901   4.882   0.930   5.862
 3001SOL    HW1 9902   4.900   0.906   5.767
 3001SOL    HW2 9903   4.883   1.029   5.873
 3002SOL     OW 9904   4.214   0.164   5.155
 3002SOL    HW1 9905   4.184   0.069   5.156
 3002SOL    HW2 9906   4.142   0.221   5.115
 3003SOL     OW 9907   2.957   6.445   5.851
 3003SOL    HW1 9908   3.005   6.379   5.909
 3003SOL    HW2 9909   2.860   6.421   5.847
 3004SOL     OW 9910   6.257   3.303   3.986
 3004SOL    HW1 9911   6.195   3.266   4.056
 3004SOL    HW2 9912   6.219   3.287   3.895
 3005SOL     OW 9913   3.585   3.043   1.064
 3005SOL    HW1 9914   3.593   3.004   1.156
 3005SOL    HW2 9915   3.549   2.973   1.002
 3006SOL     OW 9916   4.959   0.774   1.203
 3006SOL    HW1 9917   4.975   0.853   1.144
 3006SOL    HW2 9918   4.861   0.761   1.218
 3007SOL     OW 9919   6.214   4.795   2.928
 3007SOL    HW1 9920   6.212   4.726   3.000
 3007SOL    HW2 9921   6.255   4.879   2.963
 3008SOL     OW 9922   3.441   6.817   5.420
 3008SOL    HW1 9923   3.502   6.820   5.500
 3008SOL    HW2 9924   3.486   6.766   5.347
 3009SOL     OW 9925   1.074   6.940   3.007
 3009SOL    HW1 9926   1.103   6.858   2.957
 3009SOL    HW2 9927   1.138   6.959   3.081
 3010SOL     OW 9928   3.394   5.920   2.512
 3010SOL    HW1 9929   3.341   5.839   2.538
 3010SOL    HW2 9930   3.447   5.951   2.590
 3011SOL     OW 9931   6.102   0.178   6.882
 3011SOL    HW1 9932   6.119   0.262   6.831
 3011SOL    HW2 9933   6.173   0.165   6.950
 3012SOL     OW 9934   0.344   3.885   3.725
 3012SOL    HW1 9935   0.304   3.803   3.682
 3012SOL    HW2 9936   0.443   3.875   3.729
 3013SOL     OW 9937   5.783   5.634   2.034
 3013SOL    HW1 9938   5.746   5.671   1.949
 3013SOL    HW2 9939   5.713   5.636   2.105
 3014SOL     OW 9940   4.826   1.295   4.017
 3014SOL    HW1 9941   4.912   1.300   3.966
 3014SOL    HW2 9942   4.751   1.275   3.954
 3015SOL     OW 9943   2.741   2.529   0.381
 3015SOL    HW1 9944   2.664   2.586   0.350
 3015SOL    HW2 9945   2.754   2.453   0.317
 3016SOL     OW 9946   3.720   6.154   3.492
 3016SOL    HW1 9947   3.730   6.167   3.394
 3016SOL    HW2 9948   3.623   6.154   3.516
 3017SOL     OW 9949   1.030   6.123   1.398
 3017SOL    HW1 9950   1.007   6.079   1.311
 3017SOL    HW2 9951   1.035   6.054   1.470
 3018SOL     OW 9952   4.299   6.916   6.804
 3018SOL    HW1 9953   4.254   6.999   6.771
 3018SOL    HW2 9954   4.232   6.858   6.850
 3019SOL     OW 9955   3.496   6.624   1.210
 3019SOL    HW1 9956   3.578   6.680   1.199
 3019SOL    HW2 9957   3.415   6.681   1.193
 3020SOL     OW 9958   2.787   3.357   1.624
 3020SOL    HW1 9959   2.771   3.283   1.558
 3020SOL    HW2 9960   2.873   3.403   1.602
 3021SOL     OW 9961   1.758   2.199   6.738
 3021SOL    HW1 9962   1.690   2.256   6.785
 3021SOL    HW2 9963   1.847   2.210   6.783
 3022SOL     OW 9964   5.237   6.720   2.862
 3022SOL    HW1 9965   5.288   6.666   2.929
 3022SOL    HW2 9966   5.268   6.815   2.865
 3023SOL     OW 9967   4.331   5.840   3.325
 3023SOL    HW1 9968   4.357   5.889   3.241
 3023SOL    HW2 9969   4.231   5.843   3.335
 3024SOL     OW 9970   2.897   1.156   0.265
 3024SOL    HW1 9971   2.930   1.249   0.285
 3024SOL    HW2 9972   2.802   1.148   0.298
 3025SOL     OW 9973   2.452   2.844   1.151
 3025SOL    HW1 9974   2.431   2.779   1.077
 3025SOL    HW2 9975   2.412   2.933   1.130
 3026SOL     OW 9976   1.856   2.813   0.822
 3026SOL    HW1 9977   1.758   2.830   0.814
 3026SOL    HW2 9978   1.888   2.845   0.911
 3027SOL     OW 9979   2.098   1.522   3.296
 3027SOL    HW1 9980   2.060   1.434   3.268
 3027SOL    HW2 9981   2.025   1.591   3.299
 3028SOL     OW 9982   1.738   5.710   6.215
 3028SOL    HW1 9983   1.794   5.783   6.175
 3028SOL    HW2 9984   1.687   5.664   6.142
 3029SOL     OW 9985   6.191   5.646   4.918
 3029SOL    HW1 9986   6.204   5.558   4.874
 3029SOL    HW2 9987   6.104   5.648   4.966
 3030SOL     OW 9988   1.508   1.159   5.521
 3030SOL    HW1 9989   1.535   1.080   5.466
 3030SOL    HW2 9990   1.532   1.142   5.617
 3031SOL     OW 9991   0.372   3.730   6.485
 3031SOL    HW1 9992   0.430   3.676   6.424
 3031SOL    HW2 9993   0.306   3.669   6.530
 3032SOL     OW 9994   4.996   0.888   6.109
 3032SOL    HW1 9995   5.064   0.817   6.091
 3032SOL    HW2 9996   4.961   0.923   6.022
 3033SOL     OW 9997   0.392   3.770   6.850
 3033SOL    HW1 9998   0.358   3.812   6.766
 3033SOL    HW2 9999   0.331   3.695   6.876
 3034SOL     OW10000   3.213   6.420   4.097
 3034SOL    HW110001   3.120   6.427   4.133
 3034SOL    HW210002   3.278   6.410   4.173
 3035SOL     OW10003   5.696   1.422   0.204
 3035SOL    HW110004   5.723   1.345   0.262
 3035SOL    HW210005   5.653   1.388   0.120
 3036SOL     OW10006   1.033   4.432   6.863
 3036SOL    HW110007   1.112   4.420   6.922
 3036SOL    HW210008   1.059   4.485   6.782
 3037SOL     OW10009   6.762   6.403   5.004
 3037SOL    HW110010   6.788   6.499   5.015
 3037SOL    HW210011   6.758   6.360   5.094
 3038SOL     OW10012   5.520   6.943   6.059
 3038SOL    HW110013   5.506   6.869   6.124
 3038SOL    HW210014   5.432   6.988   6.041
 3039SOL     OW10015   0.650   4.112   1.995
 3039SOL    HW110016   0.711   4.143   1.922
 3039SOL    HW210017   0.571   4.173   2.000
 3040SOL     OW10018   2.753   3.668   6.584
 3040SOL    HW110019   2.828   3.733   6.569
 3040SOL    HW210020   2.756   3.635   6.679
 3041SOL     OW10021   1.926   2.362   5.657
 3041SOL    HW110022   1.847   2.306   5.682
 3041SOL    HW210023   2.009   2.308   5.663
 3042SOL     OW10024   4.682   0.106   2.217
 3042SOL    HW110025   4.750   0.179   2.213
 3042SOL    HW210026   4.727   0.017   2.208
 3043SOL     OW10027   1.121   5.746   0.217
 3043SOL    HW110028   1.163   5.725   0.129
 3043SOL    HW210029   1.046   5.812   0.204
 3044SOL     OW10030   3.316   4.179   6.129
 3044SOL    HW110031   3.242   4.185   6.196
 3044SOL    HW210032   3.288   4.227   6.046
 3045SOL     OW10033   5.372   1.995   2.316
 3045SOL    HW110034   5.330   2.034   2.235
 3045SOL    HW210035   5.303   1.987   2.388
 3046SOL     OW10036   1.762   3.027   5.445
 3046SOL    HW110037   1.774   3.110   5.392
 3046SOL    HW210038   1.845   2.972   5.442
 3047SOL     OW10039   5.928   5.481   2.411
 3047SOL    HW110040   5.960   5.554   2.350
 3047SOL    HW210041   5.919   5.517   2.504
 3048SOL     OW10042   3.450   3.251   1.346
 3048SOL    HW110043   3.499   3.186   1.406
 3048SOL    HW210044   3.354   3.224   1.341
 3049SOL     OW10045   0.781   0.687   1.922
 3049SOL    HW110046   0.826   0.737   1.848
 3049SOL    HW210047   0.709   0.628   1.884
 3050SOL     OW10048   4.158   5.885   4.060
 3050SOL    HW110049   4.240   5.855   4.108
 3050SOL    HW210050   4.147   5.832   3.976
 3051SOL     OW10051   3.114   5.366   6.736
 3051SOL    HW110052   3.177   5.296   6.771
 3051SOL    HW210053   3.167   5.446   6.707
 3052SOL     OW10054   3.880   0.207   2.818
 3052SOL    HW110055   3.853   0.297   2.854
 3052SOL    HW210056   3.826   0.186   2.737
 3053SOL     OW10057   5.916   6.549   0.143
 3053SOL    HW110058   5.832   6.540   0.089
 3053SOL    HW210059   5.893   6.556   0.240
 3054SOL     OW10060   0.430   3.594   0.207
 3054SOL    HW110061   0.374   3.676   0.217
 3054SOL    HW210062   0.484   3.600   0.123
 3055SOL     OW10063   5.765   6.473   3.632
 3055SOL    HW110064   5.667   6.471   3.650
 3055SOL    HW210065   5.807   6.391   3.670
 3056SOL     OW10066   6.590   0.495   0.380
 3056SOL    HW110067   6.539   0.432   0.321
 3056SOL    HW210068   6.676   0.520   0.335
 3057SOL     OW10069   5.998   4.724   2.765
 3057SOL    HW110070   6.072   4.752   2.826
 3057SOL    HW210071   6.007   4.626   2.744
 3058SOL     OW10072   6.302   5.752   0.745
 3058SOL    HW110073   6.209   5.767   0.713
 3058SOL    HW210074   6.313   5.657   0.772
 3059SOL     OW10075   0.776   3.333   4.856
 3059SOL    HW110076   0.841   3.267   4.820
 3059SOL    HW210077   0.743   3.302   4.945
 3060SOL     OW10078   0.161   6.224   1.594
 3060SOL    HW110079   0.188   6.266   1.507
 3060SOL    HW210080   0.186   6.127   1.594
 3061SOL     OW10081   0.170   0.637   5.064
 3061SOL    HW110082   0.220   0.598   5.141
 3061SOL    HW210083   0.234   0.671   4.996
 3062SOL     OW10084   2.782   6.320   1.020
 3062SOL    HW110085   2.740   6.281   0.938
 3062SOL    HW210086   2.794   6.247   1.088
 3063SOL     OW10087   1.484   4.925   1.447
 3063SOL    HW110088   1.496   5.023   1.432
 3063SOL    HW210089   1.571   4.885   1.477
 3064SOL     OW10090   6.553   3.845   3.149
 3064SOL    HW110091   6.619   3.885   3.085
 3064SOL    HW210092   6.460   3.866   3.119
 3065SOL     OW10093   1.831   0.528   0.227
 3065SOL    HW110094   1.779   0.601   0.274
 3065SOL    HW210095   1.777   0.444   0.228
 3066SOL     OW10096   6.080   4.498   0.962
 3066SOL    HW110097   6.119   4.537   0.879
 3066SOL    HW210098   5.984   4.477   0.947
 3067SOL     OW10099   4.734   0.100   4.296
 3067SOL    HW110100   4.744   0.003   4.276
 3067SOL    HW210101   4.718   0.150   4.211
 3068SOL     OW10102   5.755   5.272   1.314
 3068SOL    HW110103   5.766   5.200   1.246
 3068SOL    HW210104   5.813   5.350   1.289
 3069SOL     OW10105   0.435   5.527   1.866
 3069SOL    HW110106   0.399   5.609   1.822
 3069SOL    HW210107   0.512   5.552   1.925
 3070SOL     OW10108   2.782   1.412   3.432
 3070SOL    HW110109   2.846   1.335   3.427
 3070SOL    HW210110   2.688   1.377   3.424
 3071SOL     OW10111   5.939   0.410   3.972
 3071SOL    HW110112   5.855   0.427   4.023
 3071SOL    HW210113   5.948   0.312   3.955
 3072SOL     OW10114   0.552   6.715   2.383
 3072SOL    HW110115   0.545   6.814   2.373
 3072SOL    HW210116   0.644   6.691   2.414
 3073SOL     OW10117   1.153   3.827   5.324
 3073SOL    HW110118   1.185   3.735   5.347
 3073SOL    HW210119   1.054   3.829   5.327
 3074SOL     OW10120   4.274   2.638   6.576
 3074SOL    HW110121   4.308   2.727   6.608
 3074SOL    HW210122   4.349   2.572   6.579
 3075SOL     OW10123   1.672   6.444   1.025
 3075SOL    HW110124   1.693   6.348   1.008
 3075SOL    HW210125   1.578   6.463   0.999
 3076SOL     OW10126   6.521   0.345   5.093
 3076SOL    HW110127   6.456   0.416   5.117
 3076SOL    HW210128   6.614   0.376   5.111
 3077SOL     OW10129   5.961   4.245   4.802
 3077SOL    HW110130   6.001   4.297   4.727
 3077SOL    HW210131   5.938   4.307   4.877
 3078SOL     OW10132   1.697   3.880   2.024
 3078SOL    HW110133   1.757   3.861   1.947
 3078SOL    HW210134   1.680   3.978   2.030
 3079SOL     OW10135   0.063   2.137   5.351
 3079SOL    HW110136   0.109   2.173   5.269
 3079SOL    HW210137   0.106   2.175   5.433
 3080SOL     OW10138   6.310   4.985   1.078
 3080SOL    HW110139   6.393   5.031   1.045
 3080SOL    HW210140   6.253   4.959   1.000
 3081SOL     OW10141   0.494   4.382   5.876
 3081SOL    HW110142   0.545   4.327   5.942
 3081SOL    HW210143   0.558   4.423   5.810
 3082SOL     OW10144   3.605   0.408   2.533
 3082SOL    HW110145   3.699   0.381   2.510
 3082SOL    HW210146   3.553   0.421   2.449
 3083SOL     OW10147   3.413   0.416   1.849
 3083SOL    HW110148   3.429   0.324   1.814
 3083SOL    HW210149   3.494   0.447   1.899
 3084SOL     OW10150   5.336   5.203   4.485
 3084SOL    HW110151   5.404   5.137   4.450
 3084SOL    HW210152   5.383   5.288   4.510
 3085SOL     OW10153   6.752   5.957   2.424
 3085SOL    HW110154   6.846   5.936   2.451
 3085SOL    HW210155   6.726   5.898   2.347
 3086SOL     OW10156   5.040   1.880   2.721
 3086SOL    HW110157   5.081   1.900   2.810
 3086SOL    HW210158   5.021   1.783   2.713
 3087SOL     OW10159   6.309   4.190   2.997
 3087SOL    HW110160   6.269   4.204   3.087
 3087SOL    HW210161   6.255   4.239   2.929
 3088SOL     OW10162   2.454   4.518   5.298
 3088SOL    HW110163   2.501   4.430   5.305
 3088SOL    HW210164   2.443   4.543   5.202
 3089SOL     OW10165   1.373   2.540   6.986
 3089SOL    HW110166   1.318   2.624   6.987
 3089SOL    HW210167   1.314   2.463   6.963
 3090SOL     OW10168   1.445   1.422   1.485
 3090SOL    HW110169   1.398   1.419   1.397
 3090SOL    HW210170   1.502   1.341   1.495
 3091SOL     OW10171   2.171   6.568   0.812
 3091SOL    HW110172   2.228   6.556   0.894
 3091SOL    HW210173   2.226   6.607   0.739
 3092SOL     OW10174   6.211   0.127   0.860
 3092SOL    HW110175   6.291   0.068   0.846
 3092SOL    HW210176   6.143   0.108   0.789
 3093SOL     OW10177   6.267   5.470   5.172
 3093SOL    HW110178   6.268   5.506   5.265
 3093SOL    HW210179   6.239   5.542   5.109
 3094SOL     OW10180   3.383   5.748   5.369
 3094SOL    HW110181   3.382   5.655   5.334
 3094SOL    HW210182   3.464   5.762   5.427
 3095SOL     OW10183   2.799   4.729   4.250
 3095SOL    HW110184   2.830   4.819   4.278
 3095SOL    HW210185   2.874   4.680   4.205
 3096SOL     OW10186   0.307   6.861   5.208
 3096SOL    HW110187   0.318   6.805   5.126
 3096SOL    HW210188   0.363   6.943   5.200
 3097SOL     OW10189   1.000   2.677   0.588
 3097SOL    HW110190   0.983   2.618   0.666
 3097SOL    HW210191   0.985   2.772   0.614
 3098SOL     OW10192   2.539   3.553   0.632
 3098SOL    HW110193   2.513   3.546   0.536
 3098SOL    HW210194   2.634   3.581   0.639
 3099SOL     OW10195   0.881   6.145   5.666
 3099SOL    HW110196   0.795   6.186   5.698
 3099SOL    HW210197   0.870   6.046   5.661
 3100SOL     OW10198   6.839   6.726   6.482
 3100SOL    HW110199   6.792   6.724   6.570
 3100SOL    HW210200   6.830   6.817   6.441
 3101SOL     OW10201   4.957   6.669   6.471
 3101SOL    HW110202   4.998   6.760   6.468
 3101SOL    HW210203   4.915   6.648   6.382
 3102SOL     OW10204   1.319   4.224   1.097
 3102SOL    HW110205   1.356   4.292   1.160
 3102SOL    HW210206   1.266   4.270   1.026
 3103SOL     OW10207   4.049   2.629   1.379
 3103SOL    HW110208   4.144   2.597   1.381
 3103SOL    HW210209   3.991   2.557   1.341
 3104SOL     OW10210   5.759   5.456   4.243
 3104SOL    HW110211   5.837   5.513   4.272
 3104SOL    HW210212   5.684   5.516   4.214
 3105SOL     OW10213   5.924   6.705   4.212
 3105SOL    HW110214   6.007   6.757   4.190
 3105SOL    HW210215   5.855   6.722   4.142
 3106SOL     OW10216   6.492   2.749   2.800
 3106SOL    HW110217   6.521   2.837   2.761
 3106SOL    HW210218   6.515   2.747   2.897
 3107SOL     OW10219   3.076   0.287   3.912
 3107SOL    HW110220   3.060   0.384   3.927
 3107SOL    HW210221   2.994   0.245   3.873
 3108SOL     OW10222   2.545   0.711   4.287
 3108SOL    HW110223   2.527   0.810   4.293
 3108SOL    HW210224   2.614   0.686   4.354
 3109SOL     OW10225   5.071   6.215   3.286
 3109SOL    HW110226   4.975   6.236   3.303
 3109SOL    HW210227   5.097   6.132   3.335
 3110SOL     OW10228   0.557   3.129   2.350
 3110SOL    HW110229   0.471   3.179   2.358
 3110SOL    HW210230   0.633   3.193   2.356
 3111SOL     OW10231   6.862   5.439   3.355
 3111SOL    HW110232   6.889   5.397   3.269
 3111SOL    HW210233   6.901   5.387   3.431
 3112SOL     OW10234   4.604   3.959   6.493
 3112SOL    HW110235   4.693   4.004   6.502
 3112SOL    HW210236   4.531   4.026   6.505
 3113SOL     OW10237   2.099   6.883   3.387
 3113SOL    HW110238   2.190   6.875   3.346
 3113SOL    HW210239   2.098   6.838   3.476
 3114SOL     OW10240   5.919   4.631   0.711
 3114SOL    HW110241   5.987   4.609   0.642
 3114SOL    HW210242   5.915   4.730   0.725
 3115SOL     OW10243   3.661   4.016   0.144
 3115SOL    HW110244   3.698   3.989   0.054
 3115SOL    HW210245   3.562   4.002   0.145
 3116SOL     OW10246   6.452   2.417   6.623
 3116SOL    HW110247   6.381   2.427   6.693
 3116SOL    HW210248   6.518   2.491   6.631
 3117SOL     OW10249   4.061   3.236   5.174
 3117SOL    HW110250   4.061   3.302   5.098
 3117SOL    HW210251   4.139   3.255   5.233
 3118SOL     OW10252   6.600   4.163   0.850
 3118SOL    HW110253   6.606   4.205   0.759
 3118SOL    HW210254   6.608   4.234   0.920
 3119SOL     OW10255   1.602   4.673   4.964
 3119SOL    HW110256   1.525   4.621   4.927
 3119SOL    HW210257   1.570   4.731   5.039
 3120SOL     OW10258   3.032   5.177   4.589
 3120SOL    HW110259   2.992   5.086   4.580
 3120SOL    HW210260   2.985   5.228   4.661
 3121SOL     OW10261   6.729   0.965   2.317
 3121SOL    HW110262   6.741   1.001   2.409
 3121SOL    HW210263   6.675   1.030   2.263
 3122SOL     OW10264   2.945   5.574   6.582
 3122SOL    HW110265   2.855   5.534   6.600
 3122SOL    HW210266   3.016   5.514   6.619
 3123SOL     OW10267   3.884   6.522   3.948
 3123SOL    HW110268   3.918   6.553   3.860
 3123SOL    HW210269   3.895   6.423   3.955
 3124SOL     OW10270   4.337   1.279   5.563
 3124SOL    HW110271   4.287   1.218   5.625
 3124SOL    HW210272   4.410   1.325   5.614
 3125SOL     OW10273   6.484   1.630   6.367
 3125SOL    HW110274   6.565   1.686   6.380
 3125SOL    HW210275   6.499   1.566   6.291
 3126SOL     OW10276   4.454   5.854   6.909
 3126SOL    HW110277   4.460   5.896   6.999
 3126SOL    HW210278   4.366   5.809   6.898
 3127SOL     OW10279   0.855   1.908   3.925
 3127SOL    HW110280   0.789   1.837   3.901
 3127SOL    HW210281   0.897   1.944   3.841
 3128SOL     OW10282   2.094   1.130   0.868
 3128SOL    HW110283   2.044   1.115   0.782
 3128SOL    HW210284   2.035   1.179   0.932
 3129SOL     OW10285   6.582   3.870   5.330
 3129SOL    HW110286   6.517   3.877   5.254
 3129SOL    HW210287   6.641   3.790   5.317
 3130SOL     OW10288   1.875   4.825   2.168
 3130SOL    HW110289   1.821   4.879   2.103
 3130SOL    HW210290   1.863   4.728   2.149
 3131SOL     OW10291   0.014   3.461   2.464
 3131SOL    HW110292   6.999   3.551   2.444
 3131SOL    HW210293   6.979   3.413   2.528
 3132SOL     OW10294   5.879   6.232   5.494
 3132SOL    HW110295   5.971   6.261   5.520
 3132SOL    HW210296   5.815   6.254   5.567
 3133SOL     OW10297   2.923   2.144   2.912
 3133SOL    HW110298   3.006   2.140   2.967
 3133SOL    HW210299   2.947   2.158   2.816
 3134SOL     OW10300   4.782   3.542   1.428
 3134SOL    HW110301   4.801   3.623   1.373
 3134SOL    HW210302   4.867   3.508   1.467
 3135SOL     OW10303   3.493   2.094   3.640
 3135SOL    HW110304   3.497   2.004   3.597
 3135SOL    HW210305   3.405   2.106   3.684
 3136SOL     OW10306   6.377   6.169   5.861
 3136SOL    HW110307   6.368   6.071   5.842
 3136SOL    HW210308   6.442   6.209   5.797
 3137SOL     OW10309   5.428   1.847   4.151
 3137SOL    HW110310   5.509   1.833   4.094
 3137SOL    HW210311   5.447   1.814   4.244
 3138SOL     OW10312   6.259   1.310   4.606
 3138SOL    HW110313   6.198   1.362   4.546
 3138SOL    HW210314   6.318   1.252   4.550
 3139SOL     OW10315   4.932   6.401   5.170
 3139SOL    HW110316   4.924   6.500   5.183
 3139SOL    HW210317   4.898   6.354   5.251
 3140SOL     OW10318   6.618   6.410   6.682
 3140SOL    HW110319   6.665   6.331   6.642
 3140SOL    HW210320   6.584   6.386   6.773
 3141SOL     OW10321   1.587   5.453   0.570
 3141SOL    HW110322   1.632   5.527   0.520
 3141SOL    HW210323   1.491   5.447   0.541
 3142SOL     OW10324   4.644   6.226   6.332
 3142SOL    HW110325   4.564   6.204   6.389
 3142SOL    HW210326   4.648   6.325   6.318
 3143SOL     OW10327   6.922   1.740   0.170
 3143SOL    HW110328   6.842   1.680   0.174
 3143SOL    HW210329   6.904   1.823   0.223
 3144SOL     OW10330   2.115   3.704   6.845
 3144SOL    HW110331   2.177   3.627   6.829
 3144SOL    HW210332   2.023   3.680   6.813
 3145SOL     OW10333   2.909   5.647   3.014
 3145SOL    HW110334   2.869   5.738   3.006
 3145SOL    HW210335   2.843   5.584   3.053
 3146SOL     OW10336   1.408   0.520   3.210
 3146SOL    HW110337   1.408   0.514   3.310
 3146SOL    HW210338   1.314   0.516   3.176
 3147SOL     OW10339   5.085   3.554   0.359
 3147SOL    HW110340   5.091   3.654   0.350
 3147SOL    HW210341   5.003   3.521   0.313
 3148SOL     OW10342   3.685   5.533   4.592
 3148SOL    HW110343   3.747   5.571   4.661
 3148SOL    HW210344   3.695   5.433   4.589
 3149SOL     OW10345   3.354   0.328   5.619
 3149SOL    HW110346   3.380   0.319   5.715
 3149SOL    HW210347   3.415   0.393   5.574
 3150SOL     OW10348   5.871   6.375   4.462
 3150SOL    HW110349   5.833   6.320   4.387
 3150SOL    HW210350   5.951   6.425   4.429
 3151SOL     OW10351   4.149   1.740   6.196
 3151SOL    HW110352   4.187   1.819   6.244
 3151SOL    HW210353   4.199   1.658   6.221
 3152SOL     OW10354   0.805   5.577   1.368
 3152SOL    HW110355   0.850   5.491   1.391
 3152SOL    HW210356   0.844   5.651   1.423
 3153SOL     OW10357   6.451   4.115   2.204
 3153SOL    HW110358   6.458   4.181   2.279
 3153SOL    HW210359   6.365   4.064   2.213
 3154SOL     OW10360   5.588   2.593   5.977
 3154SOL    HW110361   5.502   2.643   5.990
 3154SOL    HW210362   5.637   2.631   5.898
 3155SOL     OW10363   5.690   5.506   0.958
 3155SOL    HW110364   5.691   5.606   0.949
 3155SOL    HW210365   5.623   5.480   1.028
 3156SOL     OW10366   3.591   3.882   3.625
 3156SOL    HW110367   3.625   3.790   3.602
 3156SOL    HW210368   3.598   3.896   3.723
 3157SOL     OW10369   2.268   4.021   3.817
 3157SOL    HW110370   2.199   4.080   3.775
 3157SOL    HW210371   2.317   3.971   3.745
 3158SOL     OW10372   5.013   6.995   1.202
 3158SOL    HW110373   5.072   0.045   1.236
 3158SOL    HW210374   5.010   6.998   1.102
 3159SOL     OW10375   5.191   5.579   6.883
 3159SOL    HW110376   5.288   5.595   6.862
 3159SOL    HW210377   5.181   5.560   6.981
 3160SOL     OW10378   4.758   4.346   0.126
 3160SOL    HW110379   4.779   4.272   0.062
 3160SOL    HW210380   4.661   4.366   0.123
 3161SOL     OW10381   1.094   1.474   3.019
 3161SOL    HW110382   1.145   1.527   2.951
 3161SOL    HW210383   1.059   1.390   2.976
 3162SOL     OW10384   0.377   5.008   6.304
 3162SOL    HW110385   0.388   5.107   6.303
 3162SOL    HW210386   0.464   4.964   6.282
 3163SOL     OW10387   3.067   4.210   6.302
 3163SOL    HW110388   3.001   4.282   6.281
 3163SOL    HW210389   3.149   4.251   6.342
 3164SOL     OW10390   5.283   4.405   0.125
 3164SOL    HW110391   5.325   4.339   0.187
 3164SOL    HW210392   5.272   4.364   0.035
 3165SOL     OW10393   7.001   1.283   2.069
 3165SOL    HW110394   6.944   1.269   1.988
 3165SOL    HW210395   6.946   1.325   2.141
 3166SOL     OW10396   5.358   3.302   6.732
 3166SOL    HW110397   5.420   3.236   6.774
 3166SOL    HW210398   5.263   3.275   6.751
 3167SOL     OW10399   0.379   5.295   1.719
 3167SOL    HW110400   0.285   5.264   1.704
 3167SOL    HW210401   0.378   5.382   1.768
 3168SOL     OW10402   5.284   3.401   1.132
 3168SOL    HW110403   5.234   3.323   1.094
 3168SOL    HW210404   5.382   3.382   1.130
 3169SOL     OW10405   1.102   2.954   5.120
 3169SOL    HW110406   1.120   3.037   5.171
 3169SOL    HW210407   1.073   2.978   5.027
 3170SOL     OW10408   4.432   0.514   0.181
 3170SOL    HW110409   4.363   0.574   0.140
 3170SOL    HW210410   4.418   0.511   0.280
 3171SOL     OW10411   5.646   6.601   3.084
 3171SOL    HW110412   5.646   6.700   3.070
 3171SOL    HW210413   5.558   6.563   3.053
 3172SOL     OW10414   6.611   0.154   4.884
 3172SOL    HW110415   6.710   0.150   4.877
 3172SOL    HW210416   6.583   0.122   4.974
 3173SOL     OW10417   2.577   0.316   1.513
 3173SOL    HW110418   2.511   0.301   1.439
 3173SOL    HW210419   2.545   0.270   1.596
 3174SOL     OW10420   2.237   2.822   6.294
 3174SOL    HW110421   2.218   2.840   6.391
 3174SOL    HW210422   2.176   2.879   6.238
 3175SOL     OW10423   0.762   6.482   0.901
 3175SOL    HW110424   0.818   6.425   0.962
 3175SOL    HW210425   0.700   6.424   0.849
 3176SOL     OW10426   0.620   4.496   6.661
 3176SOL    HW110427   0.673   4.443   6.595
 3176SOL    HW210428   0.681   4.550   6.717
 3177SOL     OW10429   6.196   6.061   6.166
 3177SOL    HW110430   6.201   6.116   6.083
 3177SOL    HW210431   6.154   5.973   6.145
 3178SOL     OW10432   0.492   3.627   1.301
 3178SOL    HW110433   0.523   3.716   1.266
 3178SOL    HW210434   0.423   3.590   1.238
 3179SOL     OW10435   1.960   1.536   2.463
 3179SOL    HW110436   1.941   1.490   2.549
 3179SOL    HW210437   2.059   1.546   2.451
 3180SOL     OW10438   5.567   0.844   6.029
 3180SOL    HW110439   5.527   0.909   6.094
 3180SOL    HW210440   5.624   0.893   5.963
 3181SOL     OW10441   0.887   0.970   3.414
 3181SOL    HW110442   0.964   0.979   3.351
 3181SOL    HW210443   0.815   1.035   3.389
 3182SOL     OW10444   2.274   5.618   5.521
 3182SOL    HW110445   2.183   5.620   5.480
 3182SOL    HW210446   2.337   5.672   5.464
 3183SOL     OW10447   3.868   3.297   1.419
 3183SOL    HW110448   3.949   3.302   1.476
 3183SOL    HW210449   3.810   3.377   1.435
 3184SOL     OW10450   2.583   2.027   2.096
 3184SOL    HW110451   2.525   2.058   2.021
 3184SOL    HW210452   2.679   2.036   2.070
 3185SOL     OW10453   6.744   0.037   5.852
 3185SOL    HW110454   6.727   0.080   5.941
 3185SOL    HW210455   6.658   0.003   5.815
 3186SOL     OW10456   2.918   1.075   2.413
 3186SOL    HW110457   2.838   1.020   2.388
 3186SOL    HW210458   2.993   1.056   2.350
 3187SOL     OW10459   3.683   4.558   0.115
 3187SOL    HW110460   3.664   4.462   0.096
 3187SOL    HW210461   3.645   4.583   0.204
 3188SOL     OW10462   4.209   6.128   3.433
 3188SOL    HW110463   4.211   6.042   3.383
 3188SOL    HW210464   4.181   6.110   3.527
 3189SOL     OW10465   0.822   5.962   2.666
 3189SOL    HW110466   0.875   6.029   2.613
 3189SOL    HW210467   0.835   5.978   2.763
 3190SOL     OW10468   1.032   5.984   2.281
 3190SOL    HW110469   1.103   6.032   2.333
 3190SOL    HW210470   0.946   6.035   2.288
 3191SOL     OW10471   4.050   0.609   1.220
 3191SOL    HW110472   4.091   0.541   1.281
 3191SOL    HW210473   4.123   0.656   1.169
 3192SOL     OW10474   0.250   3.178   2.316
 3192SOL    HW110475   0.155   3.154   2.298
 3192SOL    HW210476   0.283   3.239   2.244
 3193SOL     OW10477   4.405   2.909   6.365
 3193SOL    HW110478   4.442   2.928   6.457
 3193SOL    HW210479   4.416   2.812   6.345
 3194SOL     OW10480   0.574   3.509   5.807
 3194SOL    HW110481   0.635   3.481   5.733
 3194SOL    HW210482   0.575   3.608   5.816
 3195SOL     OW10483   1.114   3.261   3.317
 3195SOL    HW110484   1.105   3.252   3.218
 3195SOL    HW210485   1.043   3.206   3.363
 3196SOL     OW10486   6.884   7.024   5.507
 3196SOL    HW110487   6.799   0.029   5.549
 3196SOL    HW210488   6.948   0.077   5.503
 3197SOL     OW10489   1.044   4.527   3.721
 3197SOL    HW110490   0.981   4.482   3.784
 3197SOL    HW210491   1.117   4.573   3.773
 3198SOL     OW10492   6.628   1.489   6.843
 3198SOL    HW110493   6.701   1.423   6.865
 3198SOL    HW210494   6.586   1.522   6.928
 3199SOL     OW10495   4.756   1.958   1.860
 3199SOL    HW110496   4.672   1.907   1.876
 3199SOL    HW210497   4.781   2.010   1.942
 3200SOL     OW10498   6.793   1.843   1.346
 3200SOL    HW110499   6.881   1.799   1.363
 3200SOL    HW210500   6.728   1.814   1.417
 3201SOL     OW10501   4.521   4.444   2.860
 3201SOL    HW110502   4.532   4.544   2.859
 3201SOL    HW210503   4.512   4.410   2.767
 3202SOL     OW10504   2.074   5.901   1.716
 3202SOL    HW110505   2.037   5.833   1.778
 3202SOL    HW210506   2.128   5.856   1.645
 3203SOL     OW10507   6.616   6.923   1.858
 3203SOL    HW110508   6.604   6.912   1.759
 3203SOL    HW210509   6.600   6.835   1.903
 3204SOL     OW10510   6.357   5.341   1.866
 3204SOL    HW110511   6.318   5.432   1.879
 3204SOL    HW210512   6.307   5.294   1.793
 3205SOL     OW10513   0.608   3.844   3.742
 3205SOL    HW110514   0.620   3.892   3.829
 3205SOL    HW210515   0.652   3.754   3.747
 3206SOL     OW10516   1.454   0.226   6.660
 3206SOL    HW110517   1.501   0.300   6.611
 3206SOL    HW210518   1.477   0.139   6.617
 3207SOL     OW10519   0.191   1.556   4.335
 3207SOL    HW110520   0.212   1.552   4.237
 3207SOL    HW210521   0.260   1.507   4.386
 3208SOL     OW10522   5.193   6.713   5.352
 3208SOL    HW110523   5.240   6.630   5.381
 3208SOL    HW210524   5.138   6.748   5.428
 3209SOL     OW10525   2.378   0.703   3.912
 3209SOL    HW110526   2.448   0.760   3.956
 3209SOL    HW210527   2.375   0.724   3.814
 3210SOL     OW10528   6.982   4.569   2.921
 3210SOL    HW110529   6.893   4.612   2.905
 3210SOL    HW210530   7.007   4.580   3.017
 3211SOL     OW10531   1.752   4.300   2.250
 3211SOL    HW110532   1.713   4.381   2.295
 3211SOL    HW210533   1.758   4.226   2.317
 3212SOL     OW10534   4.792   2.037   5.847
 3212SOL    HW110535   4.880   2.010   5.888
 3212SOL    HW210536   4.791   2.011   5.751
 3213SOL     OW10537   6.527   6.192   1.947
 3213SOL    HW110538   6.623   6.214   1.963
 3213SOL    HW210539   6.473   6.276   1.952
 3214SOL     OW10540   4.691   6.108   6.068
 3214SOL    HW110541   4.620   6.041   6.047
 3214SOL    HW210542   4.679   6.141   6.162
 3215SOL     OW10543   5.847   1.381   6.914
 3215SOL    HW110544   5.753   1.362   6.942
 3215SOL    HW210545   5.896   1.427   6.989
 3216SOL     OW10546   5.722   6.699   4.042
 3216SOL    HW110547   5.704   6.775   3.979
 3216SOL    HW210548   5.635   6.656   4.067
 3217SOL     OW10549   6.790   3.962   2.065
 3217SOL    HW110550   6.878   4.005   2.086
 3217SOL    HW210551   6.749   3.929   2.150
 3218SOL     OW10552   2.627   0.495   3.107
 3218SOL    HW110553   2.673   0.467   3.192
 3218SOL    HW210554   2.673   0.452   3.029
 3219SOL     OW10555   6.493   0.743   3.814
 3219SOL    HW110556   6.446   0.669   3.765
 3219SOL    HW210557   6.501   0.822   3.754
 3220SOL     OW10558   6.217   3.539   5.696
 3220SOL    HW110559   6.131   3.494   5.672
 3220SOL    HW210560   6.291   3.471   5.699
 3221SOL     OW10561   2.790   6.899   3.334
 3221SOL    HW110562   2.868   6.882   3.273
 3221SOL    HW210563   2.718   6.944   3.282
 3222SOL     OW10564   5.823   2.676   2.602
 3222SOL    HW110565   5.827   2.700   2.505
 3222SOL    HW210566   5.849   2.756   2.657
 3223SOL     OW10567   2.360   5.137   4.763
 3223SOL    HW110568   2.331   5.074   4.691
 3223SOL    HW210569   2.460   5.144   4.764
 3224SOL     OW10570   3.917   5.202   0.174
 3224SOL    HW110571   3.972   5.260   0.114
 3224SOL    HW210572   3.914   5.242   0.266
 3225SOL     OW10573   2.449   3.577   6.905
 3225SOL    HW110574   2.455   3.622   6.816
 3225SOL    HW210575   2.487   3.485   6.900
 3226SOL     OW10576   1.152   0.575   3.991
 3226SOL    HW110577   1.096   0.500   3.956
 3226SOL    HW210578   1.100   0.626   4.060
 3227SOL     OW10579   2.408   1.201   6.468
 3227SOL    HW110580   2.320   1.168   6.431
 3227SOL    HW210581   2.482   1.142   6.436
 3228SOL     OW10582   5.333   3.806   5.069
 3228SOL    HW110583   5.287   3.830   5.154
 3228SOL    HW210584   5.306   3.713   5.042
 3229SOL     OW10585   3.989   2.485   5.358
 3229SOL    HW110586   4.058   2.490   5.285
 3229SOL    HW210587   3.935   2.402   5.348
 3230SOL     OW10588   1.249   0.657   3.603
 3230SOL    HW110589   1.164   0.691   3.564
 3230SOL    HW210590   1.313   0.733   3.618
 3231SOL     OW10591   5.849   5.501   1.201
 3231SOL    HW110592   5.922   5.471   1.141
 3231SOL    HW210593   5.773   5.537   1.147
 3232SOL     OW10594   1.929   4.789   4.027
 3232SOL    HW110595   1.829   4.796   4.032
 3232SOL    HW210596   1.966   4.767   4.117
 3233SOL     OW10597   0.549   3.985   1.316
 3233SOL    HW110598   0.479   3.996   1.246
 3233SOL    HW210599   0.524   4.037   1.397
 3234SOL     OW10600   0.205   1.763   5.561
 3234SOL    HW110601   0.135   1.737   5.495
 3234SOL    HW210602   0.288   1.790   5.513
 3235SOL     OW10603   5.169   0.037   2.478
 3235SOL    HW110604   5.218   6.974   2.488
 3235SOL    HW210605   5.073   0.023   2.503
 3236SOL     OW10606   0.755   2.951   1.826
 3236SOL    HW110607   0.794   3.041   1.807
 3236SOL    HW210608   0.821   2.881   1.800
 3237SOL     OW10609   3.273   0.312   4.314
 3237SOL    HW110610   3.327   0.232   4.343
 3237SOL    HW210611   3.295   0.389   4.374
 3238SOL     OW10612   0.329   6.491   0.158
 3238SOL    HW110613   0.383   6.571   0.133
 3238SOL    HW210614   0.245   6.520   0.204
 3239SOL     OW10615   6.808   6.573   5.485
 3239SOL    HW110616   6.883   6.578   5.419
 3239SOL    HW210617   6.756   6.658   5.484
 3240SOL     OW10618   1.103   1.746   4.332
 3240SOL    HW110619   1.166   1.688   4.281
 3240SOL    HW210620   1.049   1.801   4.269
 3241SOL     OW10621   5.739   0.838   4.347
 3241SOL    HW110622   5.781   0.747   4.350
 3241SOL    HW210623   5.762   0.888   4.431
 3242SOL     OW10624   3.692   6.605   0.292
 3242SOL    HW110625   3.698   6.575   0.197
 3242SOL    HW210626   3.604   6.650   0.308
 3243SOL     OW10627   3.439   5.356   0.674
 3243SOL    HW110628   3.412   5.288   0.742
 3243SOL    HW210629   3.361   5.377   0.615
 3244SOL     OW10630   2.824   6.224   6.335
 3244SOL    HW110631   2.821   6.324   6.336
 3244SOL    HW210632   2.847   6.193   6.242
 3245SOL     OW10633   3.910   2.507   6.153
 3245SOL    HW110634   3.869   2.484   6.241
 3245SOL    HW210635   3.998   2.462   6.144
 3246SOL     OW10636   5.200   6.357   3.635
 3246SOL    HW110637   5.113   6.310   3.623
 3246SOL    HW210638   5.243   6.327   3.720
 3247SOL     OW10639   0.477   2.569   4.474
 3247SOL    HW110640   0.571   2.554   4.505
 3247SOL    HW210641   0.477   2.635   4.399
 3248SOL     OW10642   5.760   3.696   2.353
 3248SOL    HW110643   5.709   3.636   2.290
 3248SOL    HW210644   5.731   3.791   2.339
 3249SOL     OW10645   2.363   4.576   5.033
 3249SOL    HW110646   2.438   4.572   4.967
 3249SOL    HW210647   2.326   4.484   5.047
 3250SOL     OW10648   4.203   6.731   1.760
 3250SOL    HW110649   4.228   6.770   1.671
 3250SOL    HW210650   4.201   6.804   1.828
 3251SOL     OW10651   2.936   0.532   3.267
 3251SOL    HW110652   2.917   0.603   3.199
 3251SOL    HW210653   2.937   0.573   3.359
 3252SOL     OW10654   3.033   2.179   3.152
 3252SOL    HW110655   2.977   2.248   3.197
 3252SOL    HW210656   2.995   2.088   3.169
 3253SOL     OW10657   4.998   3.424   1.167
 3253SOL    HW110658   5.096   3.417   1.147
 3253SOL    HW210659   4.952   3.340   1.139
 3254SOL     OW10660   5.829   5.489   2.826
 3254SOL    HW110661   5.730   5.476   2.828
 3254SOL    HW210662   5.851   5.567   2.767
 3255SOL     OW10663   3.937   4.478   0.387
 3255SOL    HW110664   3.869   4.422   0.339
 3255SOL    HW210665   3.942   4.568   0.343
 3256SOL     OW10666   6.714   6.237   5.209
 3256SOL    HW110667   6.725   6.276   5.301
 3256SOL    HW210668   6.621   6.203   5.199
 3257SOL     OW10669   2.223   2.149   0.260
 3257SOL    HW110670   2.144   2.139   0.321
 3257SOL    HW210671   2.304   2.111   0.304
 3258SOL     OW10672   5.948   6.974   1.692
 3258SOL    HW110673   6.041   6.937   1.685
 3258SOL    HW210674   5.951   0.037   1.740
 3259SOL     OW10675   5.598   6.199   3.530
 3259SOL    HW110676   5.594   6.274   3.465
 3259SOL    HW210677   5.676   6.212   3.592
 3260SOL     OW10678   1.391   2.640   6.664
 3260SOL    HW110679   1.344   2.555   6.689
 3260SOL    HW210680   1.488   2.632   6.688
 3261SOL     OW10681   4.003   1.060   3.003
 3261SOL    HW110682   4.008   0.985   3.068
 3261SOL    HW210683   3.907   1.086   2.990
 3262SOL     OW10684   3.687   1.476   3.222
 3262SOL    HW110685   3.659   1.531   3.301
 3262SOL    HW210686   3.742   1.399   3.254
 3263SOL     OW10687   3.641   5.586   1.883
 3263SOL    HW110688   3.719   5.594   1.821
 3263SOL    HW210689   3.631   5.671   1.936
 3264SOL     OW10690   5.091   5.324   6.461
 3264SOL    HW110691   5.042   5.294   6.379
 3264SOL    HW210692   5.189   5.317   6.446
 3265SOL     OW10693   4.437   0.641   6.887
 3265SOL    HW110694   4.394   0.610   6.972
 3265SOL    HW210695   4.401   0.732   6.863
 3266SOL     OW10696   0.412   1.464   5.916
 3266SOL    HW110697   0.499   1.463   5.867
 3266SOL    HW210698   0.428   1.484   6.013
 3267SOL     OW10699   3.465   2.460   1.158
 3267SOL    HW110700   3.453   2.463   1.257
 3267SOL    HW210701   3.427   2.543   1.117
 3268SOL     OW10702   0.456   4.594   6.425
 3268SOL    HW110703   0.511   4.555   6.499
 3268SOL    HW210704   0.373   4.539   6.413
 3269SOL     OW10705   4.597   3.435   0.783
 3269SOL    HW110706   4.659   3.508   0.754
 3269SOL    HW210707   4.502   3.466   0.775
 3270SOL     OW10708   1.186   5.966   4.952
 3270SOL    HW110709   1.238   6.045   4.984
 3270SOL    HW210710   1.145   5.987   4.863
 3271SOL     OW10711   5.514   1.809   0.790
 3271SOL    HW110712   5.460   1.740   0.838
 3271SOL    HW210713   5.497   1.899   0.831
 3272SOL     OW10714   5.558   6.864   0.158
 3272SOL    HW110715   5.565   6.949   0.209
 3272SOL    HW210716   5.599   6.876   0.067
 3273SOL     OW10717   6.601   7.013   2.368
 3273SOL    HW110718   6.647   6.967   2.292
 3273SOL    HW210719   6.502   7.014   2.352
 3274SOL     OW10720   3.622   1.875   6.118
 3274SOL    HW110721   3.626   1.844   6.213
 3274SOL    HW210722   3.699   1.935   6.099
 3275SOL     OW10723   2.918   1.234   6.954
 3275SOL    HW110724   2.940   1.283   0.015
 3275SOL    HW210725   2.852   1.162   6.974
 3276SOL     OW10726   3.015   6.440   0.141
 3276SOL    HW110727   2.917   6.458   0.154
 3276SOL    HW210728   3.056   6.517   0.092
 3277SOL     OW10729   0.001   6.613   5.295
 3277SOL    HW110730   6.983   6.664   5.220
 3277SOL    HW210731   0.005   6.516   5.270
 3278SOL     OW10732   1.111   0.866   0.031
 3278SOL    HW110733   1.180   0.924   0.074
 3278SOL    HW210734   1.067   0.915   6.980
 3279SOL     OW10735   1.918   0.056   0.770
 3279SOL    HW110736   1.998   0.013   0.813
 3279SOL    HW210737   1.845   0.065   0.838
 3280SOL     OW10738   1.443   5.013   6.200
 3280SOL    HW110739   1.362   4.955   6.196
 3280SOL    HW210740   1.512   4.970   6.257
 3281SOL     OW10741   2.902   6.059   0.285
 3281SOL    HW110742   2.949   6.130   0.337
 3281SOL    HW210743   2.903   6.082   0.188
 3282SOL     OW10744   2.079   5.643   2.799
 3282SOL    HW110745   2.026   5.693   2.731
 3282SOL    HW210746   2.175   5.637   2.770
 3283SOL     OW10747   2.076   0.329   3.749
 3283SOL    HW110748   2.013   0.377   3.688
 3283SOL    HW210749   2.123   0.257   3.699
 3284SOL     OW10750   0.046   3.722   6.850
 3284SOL    HW110751   0.079   3.681   6.935
 3284SOL    HW210752   6.974   3.698   6.836
 3285SOL     OW10753   6.823   2.538   3.957
 3285SOL    HW110754   6.918   2.557   3.983
 3285SOL    HW210755   6.817   2.529   3.857
 3286SOL     OW10756   3.585   4.517   5.316
 3286SOL    HW110757   3.606   4.481   5.407
 3286SOL    HW210758   3.495   4.485   5.287
 3287SOL     OW10759   0.990   5.165   0.913
 3287SOL    HW110760   0.995   5.262   0.889
 3287SOL    HW210761   0.985   5.110   0.830
 3288SOL     OW10762   0.920   6.346   0.166
 3288SOL    HW110763   0.845   6.379   0.110
 3288SOL    HW210764   1.003   6.338   0.110
 3289SOL     OW10765   1.581   5.631   4.135
 3289SOL    HW110766   1.571   5.556   4.200
 3289SOL    HW210767   1.491   5.664   4.107
 3290SOL     OW10768   6.830   5.262   1.540
 3290SOL    HW110769   6.846   5.361   1.539
 3290SOL    HW210770   6.782   5.236   1.623
 3291SOL     OW10771   2.133   6.953   0.892
 3291SOL    HW110772   2.113   6.861   0.859
 3291SOL    HW210773   2.221   6.953   0.941
 3292SOL     OW10774   0.691   6.302   5.960
 3292SOL    HW110775   0.734   6.250   6.034
 3292SOL    HW210776   0.756   6.367   5.923
 3293SOL     OW10777   6.989   0.850   2.915
 3293SOL    HW110778   0.037   0.845   2.984
 3293SOL    HW210779   6.993   0.768   2.857
 3294SOL     OW10780   0.350   0.080   0.069
 3294SOL    HW110781   0.301   0.003   0.028
 3294SOL    HW210782   0.284   0.151   0.093
 3295SOL     OW10783   1.245   2.785   6.463
 3295SOL    HW110784   1.203   2.713   6.408
 3295SOL    HW210785   1.315   2.745   6.523
 3296SOL     OW10786   0.631   6.244   2.643
 3296SOL    HW110787   0.569   6.275   2.572
 3296SOL    HW210788   0.717   6.214   2.602
 3297SOL     OW10789   3.191   2.485   5.889
 3297SOL    HW110790   3.244   2.557   5.934
 3297SOL    HW210791   3.179   2.507   5.792
 3298SOL     OW10792   5.982   3.135   3.253
 3298SOL    HW110793   6.063   3.165   3.203
 3298SOL    HW210794   5.973   3.036   3.246
 3299SOL     OW10795   1.837   6.980   5.046
 3299SOL    HW110796   1.743   6.996   5.018
 3299SOL    HW210797   1.890   6.945   4.969
 3300SOL     OW10798   6.466   6.924   4.593
 3300SOL    HW110799   6.507   6.869   4.519
 3300SOL    HW210800   6.473   6.873   4.679
 3301SOL     OW10801   0.498   3.763   2.635
 3301SOL    HW110802   0.507   3.665   2.615
 3301SOL    HW210803   0.589   3.805   2.638
 3302SOL     OW10804   1.064   4.842   3.950
 3302SOL    HW110805   1.101   4.758   3.988
 3302SOL    HW210806   1.057   4.834   3.851
 3303SOL     OW10807   3.493   3.561   3.073
 3303SOL    HW110808   3.523   3.655   3.090
 3303SOL    HW210809   3.571   3.506   3.043
 3304SOL     OW10810   0.950   6.427   4.536
 3304SOL    HW110811   0.857   6.443   4.502
 3304SOL    HW210812   0.947   6.406   4.634
 3305SOL     OW10813   1.544   1.090   2.016
 3305SOL    HW110814   1.525   1.188   2.005
 3305SOL    HW210815   1.643   1.075   2.006
 3306SOL     OW10816   1.032   3.425   2.803
 3306SOL    HW110817   0.955   3.367   2.830
 3306SOL    HW210818   1.028   3.442   2.704
 3307SOL     OW10819   0.471   5.820   0.370
 3307SOL    HW110820   0.472   5.898   0.308
 3307SOL    HW210821   0.405   5.753   0.337
 3308SOL     OW10822   4.573   6.045   0.415
 3308SOL    HW110823   4.494   6.027   0.475
 3308SOL    HW210824   4.657   6.040   0.469
 3309SOL     OW10825   0.657   5.181   3.021
 3309SOL    HW110826   0.638   5.085   3.001
 3309SOL    HW210827   0.577   5.237   3.000
 3310SOL     OW10828   1.594   6.507   1.568
 3310SOL    HW110829   1.545   6.593   1.565
 3310SOL    HW210830   1.634   6.488   1.478
 3311SOL     OW10831   3.805   6.263   0.571
 3311SOL    HW110832   3.749   6.275   0.653
 3311SOL    HW210833   3.747   6.228   0.497
 3312SOL     OW10834   2.688   4.109   0.043
 3312SOL    HW110835   2.617   4.134   7.001
 3312SOL    HW210836   2.646   4.068   0.124
 3313SOL     OW10837   0.004   5.189   4.147
 3313SOL    HW110838   0.087   5.222   4.103
 3313SOL    HW210839   0.025   5.104   4.196
 3314SOL     OW10840   0.816   3.177   5.987
 3314SOL    HW110841   0.796   3.081   6.006
 3314SOL    HW210842   0.738   3.233   6.014
 3315SOL     OW10843   0.133   2.442   2.456
 3315SOL    HW110844   0.068   2.412   2.525
 3315SOL    HW210845   0.195   2.510   2.495
 3316SOL     OW10846   4.536   0.537   0.775
 3316SOL    HW110847   4.508   0.445   0.804
 3316SOL    HW210848   4.478   0.605   0.820
 3317SOL     OW10849   4.307   2.653   1.512
 3317SOL    HW110850   4.378   2.670   1.444
 3317SOL    HW210851   4.334   2.576   1.571
 3318SOL     OW10852   2.917   5.335   4.767
 3318SOL    HW110853   2.975   5.343   4.849
 3318SOL    HW210854   2.849   5.408   4.767
 3319SOL     OW10855   0.567   5.362   5.110
 3319SOL    HW110856   0.555   5.284   5.049
 3319SOL    HW210857   0.663   5.369   5.138
 3320SOL     OW10858   0.042   1.004   6.242
 3320SOL    HW110859   0.002   0.966   6.325
 3320SOL    HW210860   0.087   1.091   6.264
 3321SOL     OW10861   3.333   4.133   3.789
 3321SOL    HW110862   3.420   4.149   3.836
 3321SOL    HW210863   3.283   4.061   3.836
 3322SOL     OW10864   4.414   2.085   1.450
 3322SOL    HW110865   4.395   2.150   1.377
 3322SOL    HW210866   4.355   2.005   1.439
 3323SOL     OW10867   2.277   5.111   0.258
 3323SOL    HW110868   2.359   5.058   0.280
 3323SOL    HW210869   2.296   5.208   0.273
 3324SOL     OW10870   0.858   2.361   0.428
 3324SOL    HW110871   0.827   2.394   0.338
 3324SOL    HW210872   0.957   2.363   0.432
 3325SOL     OW10873   2.130   3.301   0.577
 3325SOL    HW110874   2.085   3.388   0.599
 3325SOL    HW210875   2.096   3.229   0.637
 3326SOL     OW10876   6.727   0.882   1.907
 3326SOL    HW110877   6.636   0.917   1.929
 3326SOL    HW210878   6.718   0.796   1.857
 3327SOL     OW10879   3.214   6.625   1.689
 3327SOL    HW110880   3.162   6.648   1.771
 3327SOL    HW210881   3.309   6.607   1.713
 3328SOL     OW10882   4.494   0.997   2.541
 3328SOL    HW110883   4.435   1.005   2.461
 3328SOL    HW210884   4.438   1.005   2.624
 3329SOL     OW10885   5.021   0.590   5.061
 3329SOL    HW110886   4.928   0.576   5.026
 3329SOL    HW210887   5.017   0.644   5.145
 3330SOL     OW10888   6.866   5.704   2.661
 3330SOL    HW110889   6.958   5.665   2.652
 3330SOL    HW210890   6.871   5.795   2.702
 3331SOL     OW10891   2.115   3.306   2.674
 3331SOL    HW110892   2.108   3.397   2.635
 3331SOL    HW210893   2.067   3.241   2.615
 3332SOL     OW10894   3.409   5.000   1.389
 3332SOL    HW110895   3.352   5.054   1.326
 3332SOL    HW210896   3.359   4.984   1.474
 3333SOL     OW10897   2.635   3.029   1.733
 3333SOL    HW110898   2.718   3.043   1.679
 3333SOL    HW210899   2.576   3.110   1.724
 3334SOL     OW10900   2.244   2.234   2.152
 3334SOL    HW110901   2.260   2.158   2.214
 3334SOL    HW210902   2.176   2.208   2.084
 3335SOL     OW10903   3.628   4.386   5.555
 3335SOL    HW110904   3.584   4.410   5.642
 3335SOL    HW210905   3.720   4.354   5.572
 3336SOL     OW10906   4.984   5.441   4.304
 3336SOL    HW110907   5.054   5.504   4.337
 3336SOL    HW210908   5.026   5.354   4.279
 3337SOL     OW10909   3.399   3.193   3.177
 3337SOL    HW110910   3.377   3.227   3.269
 3337SOL    HW210911   3.378   3.095   3.172
 3338SOL     OW10912   2.762   2.638   1.721
 3338SOL    HW110913   2.726   2.607   1.633
 3338SOL    HW210914   2.693   2.627   1.792
 3339SOL     OW10915   2.041   0.089   5.975
 3339SOL    HW110916   2.051   0.042   6.063
 3339SOL    HW210917   1.951   0.068   5.937
 3340SOL     OW10918   3.902   0.760   3.921
 3340SOL    HW110919   3.839   0.709   3.862
 3340SOL    HW210920   3.849   0.816   3.985
 3341SOL     OW10921   1.334   3.755   3.090
 3341SOL    HW110922   1.303   3.833   3.144
 3341SOL    HW210923   1.342   3.675   3.148
 3342SOL     OW10924   0.041   0.831   2.450
 3342SOL    HW110925   0.043   0.733   2.434
 3342SOL    HW210926   0.130   0.861   2.485
 3343SOL     OW10927   4.507   5.208   6.662
 3343SOL    HW110928   4.426   5.248   6.621
 3343SOL    HW210929   4.524   5.117   6.622
 3344SOL     OW10930   0.679   3.368   2.005
 3344SOL    HW110931   0.765   3.325   1.977
 3344SOL    HW210932   0.691   3.411   2.094
 3345SOL     OW10933   6.253   5.338   6.849
 3345SOL    HW110934   6.223   5.348   6.754
 3345SOL    HW210935   6.262   5.241   6.872
 3346SOL     OW10936   1.614   0.713   0.241
 3346SOL    HW110937   1.596   0.721   0.339
 3346SOL    HW210938   1.546   0.653   0.200
 3347SOL     OW10939   0.448   3.936   5.890
 3347SOL    HW110940   0.355   3.944   5.854
 3347SOL    HW210941   0.500   3.871   5.835
 3348SOL     OW10942   3.213   3.751   6.432
 3348SOL    HW110943   3.146   3.820   6.403
 3348SOL    HW210944   3.298   3.764   6.381
 3349SOL     OW10945   1.714   5.054   3.501
 3349SOL    HW110946   1.708   5.104   3.588
 3349SOL    HW210947   1.636   4.991   3.493
 3350SOL     OW10948   1.872   4.137   4.664
 3350SOL    HW110949   1.839   4.201   4.595
 3350SOL    HW210950   1.939   4.183   4.723
 3351SOL     OW10951   5.173   0.944   1.821
 3351SOL    HW110952   5.101   0.911   1.882
 3351SOL    HW210953   5.159   1.042   1.804
 3352SOL     OW10954   6.270   0.912   0.021
 3352SOL    HW110955   6.283   0.922   6.946
 3352SOL    HW210956   6.289   0.817   0.047
 3353SOL     OW10957   3.711   0.144   1.411
 3353SOL    HW110958   3.744   0.094   1.491
 3353SOL    HW210959   3.617   0.175   1.427
 3354SOL     OW10960   2.893   4.455   6.286
 3354SOL    HW110961   2.817   4.421   6.230
 3354SOL    HW210962   2.958   4.504   6.229
 3355SOL     OW10963   1.765   0.815   5.118
 3355SOL    HW110964   1.709   0.881   5.067
 3355SOL    HW210965   1.707   0.765   5.182
 3356SOL     OW10966   1.570   0.597   6.256
 3356SOL    HW110967   1.565   0.625   6.352
 3356SOL    HW210968   1.641   0.528   6.244
 3357SOL     OW10969   3.143   3.135   1.861
 3357SOL    HW110970   3.242   3.138   1.851
 3357SOL    HW210971   3.111   3.040   1.856
 3358SOL     OW10972   6.797   0.466   1.606
 3358SOL    HW110973   6.865   0.526   1.564
 3358SOL    HW210974   6.844   0.390   1.652
 3359SOL     OW10975   0.283   6.527   4.702
 3359SOL    HW110976   0.260   6.561   4.611
 3359SOL    HW210977   0.380   6.503   4.705
 3360SOL     OW10978   1.245   3.717   4.481
 3360SOL    HW110979   1.245   3.620   4.502
 3360SOL    HW210980   1.159   3.743   4.438
 3361SOL     OW10981   6.421   6.781   4.849
 3361SOL    HW110982   6.415   6.698   4.793
 3361SOL    HW210983   6.344   6.783   4.913
 3362SOL     OW10984   3.816   0.387   3.678
 3362SOL    HW110985   3.743   0.344   3.624
 3362SOL    HW210986   3.888   0.419   3.616
 3363SOL     OW10987   5.800   3.962   6.896
 3363SOL    HW110988   5.815   3.886   6.833
 3363SOL    HW210989   5.705   3.992   6.889
 3364SOL     OW10990   1.830   3.405   3.282
 3364SOL    HW110991   1.922   3.443   3.275
 3364SOL    HW210992   1.835   3.306   3.292
 3365SOL     OW10993   1.913   3.999   3.240
 3365SOL    HW110994   1.926   4.086   3.288
 3365SOL    HW210995   2.001   3.967   3.205
 3366SOL     OW10996   6.013   3.812   4.438
 3366SOL    HW110997   6.097   3.784   4.485
 3366SOL    HW210998   5.995   3.908   4.455
 3367SOL     OW10999   4.037   3.846   3.845
 3367SOL    HW111000   4.041   3.854   3.745
 3367SOL    HW211001   3.942   3.845   3.874
 3368SOL     OW11002   1.825   0.482   1.767
 3368SOL    HW111003   1.881   0.507   1.688
 3368SOL    HW211004   1.876   0.418   1.825
 3369SOL     OW11005   4.849   1.913   1.072
 3369SOL    HW111006   4.757   1.942   1.098
 3369SOL    HW211007   4.845   1.819   1.037
 3370SOL     OW11008   0.584   5.464   2.686
 3370SOL    HW111009   0.673   5.505   2.707
 3370SOL    HW211010   0.593   5.406   2.605
 3371SOL     OW11011   2.239   2.936   2.251
 3371SOL    HW111012   2.300   2.894   2.319
 3371SOL    HW211013   2.256   2.894   2.162
 3372SOL     OW11014   6.439   3.544   2.604
 3372SOL    HW111015   6.515   3.607   2.592
 3372SOL    HW211016   6.447   3.499   2.693
 3373SOL     OW11017   6.426   2.943   1.563
 3373SOL    HW111018   6.358   2.884   1.519
 3373SOL    HW211019   6.415   2.938   1.662
 3374SOL     OW11020   0.697   6.372   4.410
 3374SOL    HW111021   0.659   6.325   4.331
 3374SOL    HW211022   0.677   6.319   4.493
 3375SOL     OW11023   0.011   5.532   5.859
 3375SOL    HW111024   0.096   5.548   5.909
 3375SOL    HW211025   0.031   5.504   5.766
 3376SOL     OW11026   3.258   3.417   4.207
 3376SOL    HW111027   3.165   3.417   4.245
 3376SOL    HW211028   3.305   3.333   4.234
 3377SOL     OW11029   6.495   5.034   3.861
 3377SOL    HW111030   6.403   5.067   3.883
 3377SOL    HW211031   6.548   5.108   3.818
 3378SOL     OW11032   1.057   6.156   0.303
 3378SOL    HW111033   0.983   6.211   0.265
 3378SOL    HW211034   1.025   6.113   0.388
 3379SOL     OW11035   6.641   3.697   3.371
 3379SOL    HW111036   6.571   3.672   3.438
 3379SOL    HW211037   6.599   3.751   3.298
 3380SOL     OW11038   2.675   4.800   0.558
 3380SOL    HW111039   2.592   4.797   0.614
 3380SOL    HW211040   2.690   4.894   0.527
 3381SOL     OW11041   1.769   3.595   6.069
 3381SOL    HW111042   1.729   3.622   6.157
 3381SOL    HW211043   1.849   3.537   6.085
 3382SOL     OW11044   6.617   3.617   0.860
 3382SOL    HW111045   6.582   3.599   0.951
 3382SOL    HW211046   6.624   3.715   0.845
 3383SOL     OW11047   4.305   5.168   0.230
 3383SOL    HW111048   4.368   5.167   0.153
 3383SOL    HW211049   4.238   5.094   0.220
 3384SOL     OW11050   3.319   4.297   6.396
 3384SOL    HW111051   3.317   4.293   6.496
 3384SOL    HW211052   3.379   4.225   6.361
 3385SOL     OW11053   0.185   2.194   4.217
 3385SOL    HW111054   0.196   2.246   4.132
 3385SOL    HW211055   0.088   2.195   4.243
 3386SOL     OW11056   0.505   4.534   4.908
 3386SOL    HW111057   0.547   4.468   4.846
 3386SOL    HW211058   0.540   4.519   5.001
 3387SOL     OW11059   6.358   1.296   3.058
 3387SOL    HW111060   6.433   1.253   3.007
 3387SOL    HW211061   6.306   1.355   2.997
 3388SOL     OW11062   6.324   4.008   1.177
 3388SOL    HW111063   6.321   4.098   1.132
 3388SOL    HW211064   6.297   4.018   1.273
 3389SOL     OW11065   5.640   6.192   0.013
 3389SOL    HW111066   5.617   6.133   0.090
 3389SOL    HW211067   5.725   6.241   0.032
 3390SOL     OW11068   3.033   5.867   6.206
 3390SOL    HW111069   3.038   5.941   6.272
 3390SOL    HW211070   3.013   5.905   6.115
 3391SOL     OW11071   5.624   3.553   4.034
 3391SOL    HW111072   5.635   3.464   4.079
 3391SOL    HW211073   5.675   3.622   4.084
 3392SOL     OW11074   5.178   0.391   6.042
 3392SOL    HW111075   5.082   0.409   6.021
 3392SOL    HW211076   5.223   0.353   5.961
 3393SOL     OW11077   4.734   6.297   0.504
 3393SOL    HW111078   4.740   6.354   0.586
 3393SOL    HW211079   4.640   6.265   0.493
 3394SOL     OW11080   2.351   5.351   1.039
 3394SOL    HW111081   2.275   5.415   1.044
 3394SOL    HW211082   2.369   5.327   0.944
 3395SOL     OW11083   1.909   7.009   3.685
 3395SOL    HW111084   1.915   0.027   3.594
 3395SOL    HW211085   1.984   6.943   3.696
 3396SOL     OW11086   4.739   1.055   4.500
 3396SOL    HW111087   4.673   0.981   4.503
 3396SOL    HW211088   4.767   1.072   4.406
 3397SOL     OW11089   2.434   5.687   6.688
 3397SOL    HW111090   2.495   5.732   6.622
 3397SOL    HW211091   2.460   5.590   6.696
 3398SOL     OW11092   6.329   2.571   4.779
 3398SOL    HW111093   6.368   2.516   4.852
 3398SOL    HW211094   6.402   2.618   4.730
 3399SOL     OW11095   6.716   6.310   1.578
 3399SOL    HW111096   6.800   6.355   1.548
 3399SOL    HW211097   6.695   6.339   1.672
 3400SOL     OW11098   4.619   2.956   5.990
 3400SOL    HW111099   4.552   2.961   6.064
 3400SOL    HW211100   4.601   2.874   5.935
 3401SOL     OW11101   5.881   3.977   5.969
 3401SOL    HW111102   5.972   3.948   5.940
 3401SOL    HW211103   5.825   3.896   5.986
 3402SOL     OW11104   6.581   3.215   0.853
 3402SOL    HW111105   6.616   3.122   0.866
 3402SOL    HW211106   6.518   3.236   0.928
 3403SOL     OW11107   5.691   6.799   6.520
 3403SOL    HW111108   5.600   6.774   6.488
 3403SOL    HW211109   5.760   6.744   6.472
 3404SOL     OW11110   5.051   4.291   4.842
 3404SOL    HW111111   5.051   4.279   4.742
 3404SOL    HW211112   5.138   4.331   4.870
 3405SOL     OW11113   5.010   6.341   0.290
 3405SOL    HW111114   5.010   6.325   0.192
 3405SOL    HW211115   4.961   6.267   0.336
 3406SOL     OW11116   2.691   5.402   1.854
 3406SOL    HW111117   2.784   5.392   1.890
 3406SOL    HW211118   2.625   5.398   1.929
 3407SOL     OW11119   0.872   4.215   6.853
 3407SOL    HW111120   0.930   4.157   6.796
 3407SOL    HW211121   0.924   4.295   6.883
 3408SOL     OW11122   4.717   0.551   3.699
 3408SOL    HW111123   4.666   0.577   3.617
 3408SOL    HW211124   4.777   0.474   3.678
 3409SOL     OW11125   4.272   0.725   1.086
 3409SOL    HW111126   4.307   0.817   1.100
 3409SOL    HW211127   4.280   0.700   0.989
 3410SOL     OW11128   6.244   0.342   3.453
 3410SOL    HW111129   6.222   0.310   3.545
 3410SOL    HW211130   6.312   0.415   3.459
 3411SOL     OW11131   6.090   3.248   6.290
 3411SOL    HW111132   6.026   3.175   6.265
 3411SOL    HW211133   6.040   3.332   6.310
 3412SOL     OW11134   5.518   3.127   1.844
 3412SOL    HW111135   5.609   3.166   1.830
 3412SOL    HW211136   5.464   3.136   1.760
 3413SOL     OW11137   6.889   1.173   0.185
 3413SOL    HW111138   6.878   1.100   0.253
 3413SOL    HW211139   6.799   1.198   0.148
 3414SOL     OW11140   2.871   4.223   0.998
 3414SOL    HW111141   2.841   4.154   0.932
 3414SOL    HW211142   2.967   4.207   1.023
 3415SOL     OW11143   1.807   1.136   6.110
 3415SOL    HW111144   1.833   1.231   6.093
 3415SOL    HW211145   1.844   1.077   6.038
 3416SOL     OW11146   6.196   6.970   6.724
 3416SOL    HW111147   6.111   6.992   6.771
 3416SOL    HW211148   6.245   0.031   6.703
 3417SOL     OW11149   5.335   6.392   3.366
 3417SOL    HW111150   5.281   6.384   3.450
 3417SOL    HW211151   5.306   6.322   3.301
 3418SOL     OW11152   4.061   5.451   0.862
 3418SOL    HW111153   4.113   5.407   0.935
 3418SOL    HW211154   4.119   5.462   0.782
 3419SOL     OW11155   2.873   5.198   5.422
 3419SOL    HW111156   2.776   5.191   5.446
 3419SOL    HW211157   2.886   5.170   5.327
 3420SOL     OW11158   4.577   1.832   2.423
 3420SOL    HW111159   4.629   1.916   2.439
 3420SOL    HW211160   4.639   1.754   2.424
 3421SOL     OW11161   0.396   2.381   4.695
 3421SOL    HW111162   0.473   2.316   4.692
 3421SOL    HW211163   0.412   2.453   4.628
 3422SOL     OW11164   2.266   6.263   1.044
 3422SOL    HW111165   2.314   6.349   1.028
 3422SOL    HW211166   2.324   6.187   1.013
 3423SOL     OW11167   1.533   4.805   5.461
 3423SOL    HW111168   1.483   4.821   5.546
 3423SOL    HW211169   1.494   4.727   5.413
 3424SOL     OW11170   4.615   1.313   2.074
 3424SOL    HW111171   4.547   1.370   2.026
 3424SOL    HW211172   4.599   1.319   2.172
 3425SOL     OW11173   5.995   3.509   6.258
 3425SOL    HW111174   5.938   3.558   6.324
 3425SOL    HW211175   6.067   3.570   6.224
 3426SOL     OW11176   6.252   3.025   6.088
 3426SOL    HW111177   6.237   3.123   6.104
 3426SOL    HW211178   6.307   3.013   6.005
 3427SOL     OW11179   0.819   2.142   0.596
 3427SOL    HW111180   0.757   2.165   0.671
 3427SOL    HW211181   0.824   2.219   0.533
 3428SOL     OW11182   4.597   6.290   4.972
 3428SOL    HW111183   4.680   6.272   5.024
 3428SOL    HW211184   4.613   6.365   4.907
 3429SOL     OW11185   5.616   0.122   1.210
 3429SOL    HW111186   5.577   0.092   1.297
 3429SOL    HW211187   5.566   0.080   1.134
 3430SOL     OW11188   2.400   4.771   5.453
 3430SOL    HW111189   2.429   4.679   5.425
 3430SOL    HW211190   2.326   4.763   5.521
 3431SOL     OW11191   0.877   4.694   2.694
 3431SOL    HW111192   0.976   4.682   2.692
 3431SOL    HW211193   0.838   4.659   2.609
 3432SOL     OW11194   0.887   4.596   0.012
 3432SOL    HW111195   0.797   4.629   7.007
 3432SOL    HW211196   0.914   4.519   6.979
 3433SOL     OW11197   2.624   1.512   6.842
 3433SOL    HW111198   2.583   1.459   6.768
 3433SOL    HW211199   2.717   1.538   6.817
 3434SOL     OW11200   3.776   2.497   1.722
 3434SOL    HW111201   3.730   2.574   1.765
 3434SOL    HW211202   3.747   2.412   1.766
 3435SOL     OW11203   1.971   1.359   1.264
 3435SOL    HW111204   2.011   1.293   1.200
 3435SOL    HW211205   2.004   1.340   1.356
 3436SOL     OW11206   3.404   6.726   6.161
 3436SOL    HW111207   3.412   6.631   6.133
 3436SOL    HW211208   3.495   6.764   6.174
 3437SOL     OW11209   1.573   0.028   6.427
 3437SOL    HW111210   1.611   6.962   6.407
 3437SOL    HW211211   1.611   0.095   6.363
 3438SOL     OW11212   1.756   3.766   0.959
 3438SOL    HW111213   1.676   3.712   0.937
 3438SOL    HW211214   1.839   3.711   0.947
 3439SOL     OW11215   2.387   5.342   1.333
 3439SOL    HW111216   2.353   5.423   1.382
 3439SOL    HW211217   2.360   5.347   1.237
 3440SOL     OW11218   3.856   4.200   5.053
 3440SOL    HW111219   3.821   4.112   5.085
 3440SOL    HW211220   3.822   4.273   5.111
 3441SOL     OW11221   5.838   4.843   5.915
 3441SOL    HW111222   5.804   4.924   5.869
 3441SOL    HW211223   5.762   4.781   5.935
 3442SOL     OW11224   2.840   3.479   1.315
 3442SOL    HW111225   2.786   3.398   1.339
 3442SOL    HW211226   2.791   3.562   1.343
 3443SOL     OW11227   0.410   6.019   2.176
 3443SOL    HW111228   0.413   5.948   2.247
 3443SOL    HW211229   0.449   6.103   2.212
 3444SOL     OW11230   5.914   3.996   6.265
 3444SOL    HW111231   5.831   3.966   6.311
 3444SOL    HW211232   5.896   4.008   6.167
 3445SOL     OW11233   6.260   4.634   4.047
 3445SOL    HW111234   6.190   4.564   4.034
 3445SOL    HW211235   6.243   4.710   3.984
 3446SOL     OW11236   4.612   0.904   1.555
 3446SOL    HW111237   4.614   0.804   1.545
 3446SOL    HW211238   4.559   0.944   1.481
 3447SOL     OW11239   4.793   1.070   6.200
 3447SOL    HW111240   4.840   1.153   6.228
 3447SOL    HW211241   4.860   0.999   6.179
 3448SOL     OW11242   1.968   4.648   5.205
 3448SOL    HW111243   2.013   4.735   5.226
 3448SOL    HW211244   1.900   4.629   5.275
 3449SOL     OW11245   6.974   4.660   5.580
 3449SOL    HW111246   6.964   4.644   5.679
 3449SOL    HW211247   6.931   4.747   5.556
 3450SOL     OW11248   2.522   6.063   1.809
 3450SOL    HW111249   2.445   6.034   1.867
 3450SOL    HW211250   2.528   6.003   1.730
 3451SOL     OW11251   2.104   1.383   1.534
 3451SOL    HW111252   2.168   1.396   1.609
 3451SOL    HW211253   2.028   1.447   1.543
 3452SOL     OW11254   4.368   1.153   4.755
 3452SOL    HW111255   4.450   1.121   4.801
 3452SOL    HW211256   4.388   1.172   4.659
 3453SOL     OW11257   4.272   6.414   6.509
 3453SOL    HW111258   4.252   6.456   6.598
 3453SOL    HW211259   4.263   6.483   6.437
 3454SOL     OW11260   6.974   2.931   1.100
 3454SOL    HW111261   0.041   2.910   1.136
 3454SOL    HW211262   6.978   2.935   1.000
 3455SOL     OW11263   0.557   3.060   5.431
 3455SOL    HW111264   0.558   2.966   5.398
 3455SOL    HW211265   0.646   3.083   5.470
 3456SOL     OW11266   5.332   5.523   3.767
 3456SOL    HW111267   5.371   5.611   3.740
 3456SOL    HW211268   5.365   5.451   3.706
 3457SOL     OW11269   2.886   4.555   6.536
 3457SOL    HW111270   2.885   4.501   6.453
 3457SOL    HW211271   2.964   4.528   6.592
 3458SOL     OW11272   4.330   1.036   2.081
 3458SOL    HW111273   4.370   0.949   2.052
 3458SOL    HW211274   4.360   1.057   2.174
 3459SOL     OW11275   5.072   6.297   2.502
 3459SOL    HW111276   4.975   6.302   2.528
 3459SOL    HW211277   5.120   6.234   2.564
 3460SOL     OW11278   3.816   1.852   4.949
 3460SOL    HW111279   3.810   1.947   4.918
 3460SOL    HW211280   3.912   1.822   4.947
 3461SOL     OW11281   6.011   4.972   5.000
 3461SOL    HW111282   5.989   4.936   5.091
 3461SOL    HW211283   5.932   4.959   4.940
 3462SOL     OW11284   1.161   3.464   6.330
 3462SOL    HW111285   1.228   3.412   6.277
 3462SOL    HW211286   1.140   3.550   6.283
 3463SOL     OW11287   5.174   4.034   0.292
 3463SOL    HW111288   5.196   4.056   0.197
 3463SOL    HW211289   5.217   4.100   0.353
 3464SOL     OW11290   0.532   4.792   4.810
 3464SOL    HW111291   0.487   4.776   4.722
 3464SOL    HW211292   0.530   4.708   4.864
 3465SOL     OW11293   0.891   1.505   2.271
 3465SOL    HW111294   0.911   1.462   2.183
 3465SOL    HW211295   0.926   1.447   2.345
 3466SOL     OW11296   6.385   3.785   5.476
 3466SOL    HW111297   6.466   3.826   5.435
 3466SOL    HW211298   6.358   3.704   5.423
 3467SOL     OW11299   2.025   3.139   6.498
 3467SOL    HW111300   1.996   3.044   6.512
 3467SOL    HW211301   1.982   3.175   6.415
 3468SOL     OW11302   4.206   6.868   2.988
 3468SOL    HW111303   4.295   6.854   2.944
 3468SOL    HW211304   4.208   6.827   3.079
 3469SOL     OW11305   4.952   3.696   2.425
 3469SOL    HW111306   4.956   3.612   2.478
 3469SOL    HW211307   4.931   3.675   2.329
 3470SOL     OW11308   6.949   5.545   1.317
 3470SOL    HW111309   7.018   5.488   1.271
 3470SOL    HW211310   6.861   5.536   1.270
 3471SOL     OW11311   4.225   0.424   4.457
 3471SOL    HW111312   4.182   0.335   4.471
 3471SOL    HW211313   4.319   0.412   4.427
 3472SOL     OW11314   3.915   1.179   5.178
 3472SOL    HW111315   3.868   1.093   5.154
 3472SOL    HW211316   3.998   1.188   5.123
 3473SOL     OW11317   4.851   0.456   4.466
 3473SOL    HW111318   4.898   0.426   4.549
 3473SOL    HW211319   4.760   0.413   4.462
 3474SOL     OW11320   5.289   4.201   0.458
 3474SOL    HW111321   5.356   4.186   0.530
 3474SOL    HW211322   5.222   4.269   0.487
 3475SOL     OW11323   1.974   6.186   5.001
 3475SOL    HW111324   1.942   6.280   4.991
 3475SOL    HW211325   2.038   6.181   5.078
 3476SOL     OW11326   4.649   1.879   4.247
 3476SOL    HW111327   4.714   1.933   4.301
 3476SOL    HW211328   4.667   1.892   4.150
 3477SOL     OW11329   4.240   5.264   2.032
 3477SOL    HW111330   4.191   5.344   1.996
 3477SOL    HW211331   4.210   5.246   2.126
 3478SOL     OW11332   4.157   4.694   6.846
 3478SOL    HW111333   4.235   4.646   6.887
 3478SOL    HW211334   4.073   4.664   6.892
 3479SOL     OW11335   0.858   0.267   1.732
 3479SOL    HW111336   0.905   0.353   1.715
 3479SOL    HW211337   0.914   0.209   1.792
 3480SOL     OW11338   1.599   1.037   4.269
 3480SOL    HW111339   1.640   1.103   4.331
 3480SOL    HW211340   1.631   0.945   4.292
 3481SOL     OW11341   2.460   6.925   6.395
 3481SOL    HW111342   2.388   6.978   6.352
 3481SOL    HW211343   2.498   6.860   6.329
 3482SOL     OW11344   1.171   1.658   1.394
 3482SOL    HW111345   1.085   1.689   1.353
 3482SOL    HW211346   1.169   1.559   1.405
 3483SOL     OW11347   3.771   1.553   0.617
 3483SOL    HW111348   3.757   1.588   0.524
 3483SOL    HW211349   3.715   1.605   0.681
 3484SOL     OW11350   3.034   3.306   3.740
 3484SOL    HW111351   2.975   3.340   3.813
 3484SOL    HW211352   3.108   3.371   3.723
 3485SOL     OW11353   6.786   1.571   4.838
 3485SOL    HW111354   6.775   1.616   4.749
 3485SOL    HW211355   6.704   1.586   4.893
 3486SOL     OW11356   4.706   1.559   2.577
 3486SOL    HW111357   4.787   1.596   2.532
 3486SOL    HW211358   4.689   1.466   2.544
 3487SOL     OW11359   0.555   0.449   6.874
 3487SOL    HW111360   0.557   0.383   6.949
 3487SOL    HW211361   0.551   0.541   6.911
 3488SOL     OW11362   6.111   2.940   3.604
 3488SOL    HW111363   6.173   2.988   3.542
 3488SOL    HW211364   6.037   2.897   3.550
 3489SOL     OW11365   2.346   6.664   0.621
 3489SOL    HW111366   2.394   6.740   0.665
 3489SOL    HW211367   2.289   6.699   0.547
 3490SOL     OW11368   3.848   2.980   0.963
 3490SOL    HW111369   3.875   2.899   1.014
 3490SOL    HW211370   3.761   3.014   0.997
 3491SOL     OW11371   6.763   2.792   4.865
 3491SOL    HW111372   6.708   2.875   4.862
 3491SOL    HW211373   6.804   2.776   4.775
 3492SOL     OW11374   6.078   5.213   6.198
 3492SOL    HW111375   5.981   5.204   6.222
 3492SOL    HW211376   6.099   5.152   6.122
 3493SOL     OW11377   0.108   4.678   0.503
 3493SOL    HW111378   0.013   4.647   0.494
 3493SOL    HW211379   0.141   4.656   0.595
 3494SOL     OW11380   2.865   6.579   1.060
 3494SOL    HW111381   2.839   6.485   1.039
 3494SOL    HW211382   2.906   6.622   0.980
 3495SOL     OW11383   5.199   4.527   0.796
 3495SOL    HW111384   5.228   4.501   0.704
 3495SOL    HW211385   5.177   4.625   0.797
 3496SOL     OW11386   1.542   4.493   0.543
 3496SOL    HW111387   1.607   4.458   0.475
 3496SOL    HW211388   1.485   4.418   0.576
 3497SOL     OW11389   4.403   6.581   3.743
 3497SOL    HW111390   4.487   6.605   3.792
 3497SOL    HW211391   4.331   6.647   3.765
 3498SOL     OW11392   1.938   1.824   1.716
 3498SOL    HW111393   1.849   1.868   1.703
 3498SOL    HW211394   1.943   1.786   1.808
 3499SOL     OW11395   6.323   3.836   3.857
 3499SOL    HW111396   6.293   3.847   3.952
 3499SOL    HW211397   6.251   3.868   3.795
 3500SOL     OW11398   6.547   2.622   0.910
 3500SOL    HW111399   6.524   2.675   0.992
 3500SOL    HW211400   6.468   2.569   0.881
 3501SOL     OW11401   0.608   4.622   4.176
 3501SOL    HW111402   0.692   4.617   4.122
 3501SOL    HW211403   0.631   4.628   4.273
 3502SOL     OW11404   1.258   3.927   1.793
 3502SOL    HW111405   1.182   3.876   1.754
 3502SOL    HW211406   1.244   4.025   1.777
 3503SOL     OW11407   4.466   6.081   3.737
 3503SOL    HW111408   4.463   5.990   3.695
 3503SOL    HW211409   4.406   6.083   3.817
 3504SOL     OW11410   2.073   2.997   2.452
 3504SOL    HW111411   2.126   2.971   2.371
 3504SOL    HW211412   2.099   2.938   2.529
 3505SOL     OW11413   4.486   5.615   5.133
 3505SOL    HW111414   4.565   5.554   5.134
 3505SOL    HW211415   4.498   5.684   5.062
 3506SOL     OW11416   5.790   5.073   2.251
 3506SOL    HW111417   5.733   5.154   2.241
 3506SOL    HW211418   5.733   4.991   2.245
 3507SOL     OW11419   0.552   0.712   6.257
 3507SOL    HW111420   0.591   0.696   6.167
 3507SOL    HW211421   0.607   0.667   6.327
 3508SOL     OW11422   6.947   3.386   0.586
 3508SOL    HW111423   6.935   3.293   0.551
 3508SOL    HW211424   6.893   3.399   0.669
 3509SOL     OW11425   6.830   6.967   1.006
 3509SOL    HW111426   6.863   6.873   1.012
 3509SOL    HW211427   6.740   6.968   0.963
 3510SOL     OW11428   1.418   2.696   1.597
 3510SOL    HW111429   1.468   2.653   1.522
 3510SOL    HW211430   1.455   2.663   1.684
 3511SOL     OW11431   0.915   0.693   5.473
 3511SOL    HW111432   0.840   0.757   5.485
 3511SOL    HW211433   0.884   0.600   5.495
 3512SOL     OW11434   2.971   3.274   1.186
 3512SOL    HW111435   2.922   3.189   1.205
 3512SOL    HW211436   2.921   3.351   1.224
 3513SOL     OW11437   6.034   4.176   1.690
 3513SOL    HW111438   6.049   4.237   1.768
 3513SOL    HW211439   5.939   4.144   1.690
 3514SOL     OW11440   1.825   6.716   1.744
 3514SOL    HW111441   1.727   6.726   1.726
 3514SOL    HW211442   1.840   6.705   1.842
 3515SOL     OW11443   3.334   5.861   3.124
 3515SOL    HW111444   3.276   5.906   3.057
 3515SOL    HW211445   3.291   5.775   3.154
 3516SOL     OW11446   3.474   1.134   0.514
 3516SOL    HW111447   3.536   1.170   0.444
 3516SOL    HW211448   3.387   1.110   0.472
 3517SOL     OW11449   1.271   0.676   6.944
 3517SOL    HW111450   1.214   0.731   7.004
 3517SOL    HW211451   1.341   0.628   6.998
 3518SOL     OW11452   4.522   3.432   5.746
 3518SOL    HW111453   4.466   3.359   5.785
 3518SOL    HW211454   4.605   3.443   5.800
 3519SOL     OW11455   2.969   6.663   0.831
 3519SOL    HW111456   2.936   6.668   0.737
 3519SOL    HW211457   3.063   6.697   0.836
 3520SOL     OW11458   3.778   5.671   1.386
 3520SOL    HW111459   3.809   5.608   1.315
 3520SOL    HW211460   3.678   5.677   1.384
 3521SOL     OW11461   5.493   2.414   6.894
 3521SOL    HW111462   5.503   2.329   6.842
 3521SOL    HW211463   5.417   2.467   6.856
 3522SOL     OW11464   3.326   5.622   1.499
 3522SOL    HW111465   3.382   5.665   1.428
 3522SOL    HW211466   3.259   5.689   1.533
 3523SOL     OW11467   2.182   5.104   5.634
 3523SOL    HW111468   2.187   5.196   5.674
 3523SOL    HW211469   2.272   5.061   5.636
 3524SOL     OW11470   2.819   6.776   1.534
 3524SOL    HW111471   2.842   6.704   1.600
 3524SOL    HW211472   2.867   6.758   1.448
 3525SOL     OW11473   1.788   3.231   2.569
 3525SOL    HW111474   1.801   3.153   2.508
 3525SOL    HW211475   1.691   3.258   2.568
 3526SOL     OW11476   2.583   0.044   3.140
 3526SOL    HW111477   2.660   0.103   3.116
 3526SOL    HW211478   2.559   7.010   3.062
 3527SOL     OW11479   5.069   3.499   5.558
 3527SOL    HW111480   5.085   3.575   5.622
 3527SOL    HW211481   4.973   3.470   5.564
 3528SOL     OW11482   1.123   6.652   4.502
 3528SOL    HW111483   1.217   6.684   4.493
 3528SOL    HW211484   1.122   6.558   4.536
 3529SOL     OW11485   3.689   6.013   0.082
 3529SOL    HW111486   3.741   6.096   0.062
 3529SOL    HW211487   3.744   5.933   0.058
 3530SOL     OW11488   1.632   5.797   2.882
 3530SOL    HW111489   1.646   5.746   2.797
 3530SOL    HW211490   1.566   5.749   2.939
 3531SOL     OW11491   4.694   3.840   6.841
 3531SOL    HW111492   4.731   3.767   6.784
 3531SOL    HW211493   4.602   3.864   6.810
 3532SOL     OW11494   1.588   6.461   0.486
 3532SOL    HW111495   1.666   6.422   0.536
 3532SOL    HW211496   1.546   6.390   0.430
 3533SOL     OW11497   1.155   1.182   4.189
 3533SOL    HW111498   1.202   1.102   4.152
 3533SOL    HW211499   1.151   1.253   4.119
 3534SOL     OW11500   5.120   0.683   4.655
 3534SOL    HW111501   5.151   0.623   4.728
 3534SOL    HW211502   5.121   0.633   4.568
 3535SOL     OW11503   3.987   6.375   6.966
 3535SOL    HW111504   3.934   6.426   6.898
 3535SOL    HW211505   4.006   6.433   0.021
 3536SOL     OW11506   1.210   4.053   3.233
 3536SOL    HW111507   1.116   4.063   3.201
 3536SOL    HW211508   1.210   4.035   3.332
 3537SOL     OW11509   2.515   5.359   0.624
 3537SOL    HW111510   2.469   5.287   0.676
 3537SOL    HW211511   2.582   5.318   0.562
 3538SOL     OW11512   2.741   0.820   3.689
 3538SOL    HW111513   2.825   0.785   3.648
 3538SOL    HW211514   2.738   0.920   3.678
 3539SOL     OW11515   4.956   6.127   6.783
 3539SOL    HW111516   4.863   6.108   6.814
 3539SOL    HW211517   5.003   6.040   6.764
 3540SOL     OW11518   2.658   4.161   6.151
 3540SOL    HW111519   2.700   4.237   6.102
 3540SOL    HW211520   2.655   4.182   6.249
 3541SOL     OW11521   2.144   2.932   1.380
 3541SOL    HW111522   2.164   2.845   1.335
 3541SOL    HW211523   2.152   2.920   1.479
 3542SOL     OW11524   5.487   1.566   6.671
 3542SOL    HW111525   5.513   1.624   6.749
 3542SOL    HW211526   5.401   1.519   6.691
 3543SOL     OW11527   0.595   2.272   3.793
 3543SOL    HW111528   0.662   2.270   3.867
 3543SOL    HW211529   0.513   2.321   3.824
 3544SOL     OW11530   3.177   3.854   6.936
 3544SOL    HW111531   3.172   3.951   6.958
 3544SOL    HW211532   3.178   3.842   6.836
 3545SOL     OW11533   3.947   0.080   1.279
 3545SOL    HW111534   3.956   7.024   1.339
 3545SOL    HW211535   3.853   0.115   1.284
 3546SOL     OW11536   6.351   4.313   2.677
 3546SOL    HW111537   6.438   4.356   2.655
 3546SOL    HW211538   6.337   4.233   2.619
 3547SOL     OW11539   1.227   3.755   4.750
 3547SOL    HW111540   1.243   3.754   4.651
 3547SOL    HW211541   1.215   3.850   4.780
 3548SOL     OW11542   5.833   0.520   5.397
 3548SOL    HW111543   5.915   0.463   5.405
 3548SOL    HW211544   5.754   0.471   5.433
 3549SOL     OW11545   2.672   6.704   0.215
 3549SOL    HW111546   2.589   6.689   0.162
 3549SOL    HW211547   2.728   6.621   0.214
 3550SOL     OW11548   5.638   1.156   5.129
 3550SOL    HW111549   5.690   1.121   5.208
 3550SOL    HW211550   5.601   1.079   5.077
 3551SOL     OW11551   4.626   2.289   4.452
 3551SOL    HW111552   4.701   2.225   4.435
 3551SOL    HW211553   4.541   2.253   4.414
 3552SOL     OW11554   6.506   0.026   3.519
 3552SOL    HW111555   6.421   0.042   3.571
 3552SOL    HW211556   6.537   0.112   3.479
 3553SOL     OW11557   5.900   5.694   6.956
 3553SOL    HW111558   5.805   5.672   6.933
 3553SOL    HW211559   5.910   5.793   6.965
 3554SOL     OW11560   5.902   4.290   0.213
 3554SOL    HW111561   5.836   4.290   0.289
 3554SOL    HW211562   5.896   4.203   0.165
 3555SOL     OW11563   3.147   1.909   4.855
 3555SOL    HW111564   3.073   1.953   4.804
 3555SOL    HW211565   3.143   1.937   4.951
 3556SOL     OW11566   5.516   1.246   6.544
 3556SOL    HW111567   5.590   1.232   6.479
 3556SOL    HW211568   5.463   1.326   6.518
 3557SOL     OW11569   6.089   0.447   1.207
 3557SOL    HW111570   6.052   0.427   1.298
 3557SOL    HW211571   6.112   0.544   1.201
 3558SOL     OW11572   3.652   5.552   2.353
 3558SOL    HW111573   3.738   5.598   2.329
 3558SOL    HW211574   3.580   5.581   2.289
 3559SOL     OW11575   4.797   6.885   6.326
 3559SOL    HW111576   4.882   6.904   6.375
 3559SOL    HW211577   4.745   6.970   6.316
 3560SOL     OW11578   2.042   5.268   3.568
 3560SOL    HW111579   2.086   5.204   3.504
 3560SOL    HW211580   1.982   5.330   3.517
 3561SOL     OW11581   4.727   3.675   5.386
 3561SOL    HW111582   4.653   3.667   5.453
 3561SOL    HW211583   4.700   3.629   5.301
 3562SOL     OW11584   2.302   1.477   6.043
 3562SOL    HW111585   2.398   1.503   6.055
 3562SOL    HW211586   2.263   1.454   6.132
 3563SOL     OW11587   6.072   2.665   5.691
 3563SOL    HW111588   6.153   2.641   5.637
 3563SOL    HW211589   6.088   2.751   5.739
 3564SOL     OW11590   5.824   3.738   1.941
 3564SOL    HW111591   5.842   3.835   1.952
 3564SOL    HW211592   5.787   3.721   1.850
 3565SOL     OW11593   3.678   6.123   4.374
 3565SOL    HW111594   3.661   6.203   4.431
 3565SOL    HW211595   3.771   6.129   4.336
 3566SOL     OW11596   1.045   6.699   5.185
 3566SOL    HW111597   1.075   6.615   5.229
 3566SOL    HW211598   1.003   6.759   5.253
 3567SOL     OW11599   7.017   2.961   6.456
 3567SOL    HW111600   0.014   2.906   6.537
 3567SOL    HW211601   6.967   2.905   6.390
 3568SOL     OW11602   5.355   4.314   6.149
 3568SOL    HW111603   5.348   4.320   6.050
 3568SOL    HW211604   5.391   4.224   6.175
 3569SOL     OW11605   1.732   0.704   4.709
 3569SOL    HW111606   1.706   0.675   4.802
 3569SOL    HW211607   1.679   0.784   4.684
 3570SOL     OW11608   5.181   1.703   3.410
 3570SOL    HW111609   5.189   1.627   3.345
 3570SOL    HW211610   5.106   1.684   3.474
 3571SOL     OW11611   6.441   6.412   5.458
 3571SOL    HW111612   6.532   6.390   5.425
 3571SOL    HW211613   6.444   6.429   5.557
 3572SOL     OW11614   6.646   5.972   4.411
 3572SOL    HW111615   6.744   5.986   4.425
 3572SOL    HW211616   6.599   5.974   4.499
 3573SOL     OW11617   1.470   1.911   1.922
 3573SOL    HW111618   1.553   1.903   1.867
 3573SOL    HW211619   1.470   1.999   1.969
 3574SOL     OW11620   6.837   3.622   0.436
 3574SOL    HW111621   6.832   3.638   0.337
 3574SOL    HW211622   6.875   3.532   0.453
 3575SOL     OW11623   6.471   5.899   1.713
 3575SOL    HW111624   6.411   5.978   1.728
 3575SOL    HW211625   6.564   5.923   1.741
 3576SOL     OW11626   0.672   1.978   6.133
 3576SOL    HW111627   0.617   1.895   6.131
 3576SOL    HW211628   0.613   2.057   6.120
 3577SOL     OW11629   1.718   2.772   0.144
 3577SOL    HW111630   1.709   2.816   0.055
 3577SOL    HW211631   1.690   2.676   0.137
 3578SOL     OW11632   3.798   5.536   0.763
 3578SOL    HW111633   3.828   5.550   0.669
 3578SOL    HW211634   3.877   5.525   0.823
 3579SOL     OW11635   0.453   4.127   4.990
 3579SOL    HW111636   0.532   4.125   5.051
 3579SOL    HW211637   0.370   4.143   5.043
 3580SOL     OW11638   6.793   1.942   1.878
 3580SOL    HW111639   6.846   2.027   1.886
 3580SOL    HW211640   6.718   1.943   1.945
 3581SOL     OW11641   6.528   0.515   2.820
 3581SOL    HW111642   6.451   0.452   2.828
 3581SOL    HW211643   6.504   0.588   2.756
 3582SOL     OW11644   0.738   0.491   6.126
 3582SOL    HW111645   0.639   0.477   6.116
 3582SOL    HW211646   0.767   0.454   6.214
 3583SOL     OW11647   2.454   5.772   0.380
 3583SOL    HW111648   2.488   5.826   0.303
 3583SOL    HW211649   2.495   5.681   0.377
 3584SOL     OW11650   5.095   6.694   6.070
 3584SOL    HW111651   5.084   6.672   5.973
 3584SOL    HW211652   5.010   6.677   6.118
 3585SOL     OW11653   2.786   4.869   3.784
 3585SOL    HW111654   2.727   4.910   3.715
 3585SOL    HW211655   2.731   4.836   3.860
 3586SOL     OW11656   6.793   2.059   6.652
 3586SOL    HW111657   6.881   2.021   6.624
 3586SOL    HW211658   6.730   2.059   6.574
 3587SOL     OW11659   4.015   0.020   6.371
 3587SOL    HW111660   3.988   0.043   6.465
 3587SOL    HW211661   4.100   6.991   6.373
 3588SOL     OW11662   2.271   1.840   5.546
 3588SOL    HW111663   2.332   1.916   5.567
 3588SOL    HW211664   2.295   1.801   5.458
 3589SOL     OW11665   2.963   0.760   5.450
 3589SOL    HW111666   2.890   0.823   5.477
 3589SOL    HW211667   2.999   0.714   5.531
 3590SOL     OW11668   1.911   5.112   6.280
 3590SOL    HW111669   1.936   5.135   6.374
 3590SOL    HW211670   1.978   5.050   6.241
 3591SOL     OW11671   4.965   2.343   5.804
 3591SOL    HW111672   4.898   2.379   5.740
 3591SOL    HW211673   5.051   2.326   5.757
 3592SOL     OW11674   4.859   2.862   1.843
 3592SOL    HW111675   4.857   2.901   1.751
 3592SOL    HW211676   4.809   2.922   1.905
 3593SOL     OW11677   1.660   5.253   2.988
 3593SOL    HW111678   1.717   5.182   2.948
 3593SOL    HW211679   1.625   5.223   3.076
 3594SOL     OW11680   3.178   0.982   4.095
 3594SOL    HW111681   3.098   0.953   4.044
 3594SOL    HW211682   3.158   1.067   4.143
 3595SOL     OW11683   3.054   6.028   5.159
 3595SOL    HW111684   3.124   5.974   5.113
 3595SOL    HW211685   2.970   6.026   5.105
 3596SOL     OW11686   6.485   2.760   3.061
 3596SOL    HW111687   6.546   2.797   3.130
 3596SOL    HW211688   6.405   2.720   3.105
 3597SOL     OW11689   4.084   5.740   3.838
 3597SOL    HW111690   4.033   5.659   3.868
 3597SOL    HW211691   4.025   5.797   3.781
 3598SOL     OW11692   0.947   0.131   0.097
 3598SOL    HW111693   0.917   0.113   0.191
 3598SOL    HW211694   0.937   0.047   0.043
 3599SOL     OW11695   0.022   1.931   4.309
 3599SOL    HW111696   0.077   1.876   4.372
 3599SOL    HW211697   6.967   1.968   4.358
 3600SOL     OW11698   5.985   0.717   0.392
 3600SOL    HW111699   6.077   0.741   0.423
 3600SOL    HW211700   5.943   0.654   0.457
 3601SOL     OW11701   6.357   3.719   5.876
 3601SOL    HW111702   6.306   3.640   5.843
 3601SOL    HW211703   6.345   3.796   5.814
 3602SOL     OW11704   1.838   1.930   0.330
 3602SOL    HW111705   1.821   1.924   0.429
 3602SOL    HW211706   1.871   1.841   0.298
 3603SOL     OW11707   3.959   4.888   5.003
 3603SOL    HW111708   3.859   4.889   5.006
 3603SOL    HW211709   3.989   4.871   4.909
 3604SOL     OW11710   0.357   3.229   2.779
 3604SOL    HW111711   0.269   3.187   2.757
 3604SOL    HW211712   0.421   3.158   2.808
 3605SOL     OW11713   6.247   3.632   6.308
 3605SOL    HW111714   6.234   3.600   6.402
 3605SOL    HW211715   6.206   3.722   6.298
 3606SOL     OW11716   0.914   4.589   4.901
 3606SOL    HW111717   0.826   4.603   4.857
 3606SOL    HW211718   0.960   4.677   4.912
 3607SOL     OW11719   4.957   0.091   0.195
 3607SOL    HW111720   4.986   0.184   0.220
 3607SOL    HW211721   4.945   0.087   0.096
 3608SOL     OW11722   0.974   2.372   2.694
 3608SOL    HW111723   0.956   2.292   2.636
 3608SOL    HW211724   1.068   2.370   2.727
 3609SOL     OW11725   6.761   0.309   4.623
 3609SOL    HW111726   6.782   0.215   4.651
 3609SOL    HW211727   6.707   0.354   4.694
 3610SOL     OW11728   1.154   6.475   5.313
 3610SOL    HW111729   1.227   6.515   5.368
 3610SOL    HW211730   1.193   6.426   5.236
 3611SOL     OW11731   3.588   5.386   5.421
 3611SOL    HW111732   3.561   5.449   5.494
 3611SOL    HW211733   3.565   5.293   5.446
 3612SOL     OW11734   1.065   0.364   1.115
 3612SOL    HW111735   1.087   0.275   1.074
 3612SOL    HW211736   1.076   0.436   1.047
 3613SOL     OW11737   4.874   5.855   6.660
 3613SOL    HW111738   4.808   5.929   6.647
 3613SOL    HW211739   4.916   5.831   6.573
 3614SOL     OW11740   3.576   2.845   3.245
 3614SOL    HW111741   3.481   2.845   3.276
 3614SOL    HW211742   3.580   2.809   3.151
 3615SOL     OW11743   6.867   6.530   6.285
 3615SOL    HW111744   6.845   6.591   6.360
 3615SOL    HW211745   6.887   6.583   6.202
 3616SOL     OW11746   6.942   1.346   5.126
 3616SOL    HW111747   0.006   1.305   5.105
 3616SOL    HW211748   6.956   1.432   5.175
 3617SOL     OW11749   6.832   0.995   6.422
 3617SOL    HW111750   6.791   1.063   6.483
 3617SOL    HW211751   6.856   0.913   6.475
 3618SOL     OW11752   2.567   1.625   6.139
 3618SOL    HW111753   2.611   1.715   6.141
 3618SOL    HW211754   2.617   1.563   6.199
 3619SOL     OW11755   5.959   2.336   4.075
 3619SOL    HW111756   5.996   2.422   4.040
 3619SOL    HW211757   5.939   2.344   4.172
 3620SOL     OW11758   6.330   0.429   4.677
 3620SOL    HW111759   6.395   0.356   4.660
 3620SOL    HW211760   6.237   0.393   4.671
 3621SOL     OW11761   1.756   3.905   5.897
 3621SOL    HW111762   1.823   3.978   5.878
 3621SOL    HW211763   1.794   3.817   5.868
 3622SOL     OW11764   0.851   2.615   1.180
 3622SOL    HW111765   0.799   2.693   1.145
 3622SOL    HW211766   0.806   2.578   1.261
 3623SOL     OW11767   6.468   4.536   3.922
 3623SOL    HW111768   6.428   4.580   4.002
 3623SOL    HW211769   6.404   4.469   3.885
 3624SOL     OW11770   2.918   0.218   2.215
 3624SOL    HW111771   2.941   0.313   2.192
 3624SOL    HW211772   3.003   0.166   2.227
 3625SOL     OW11773   6.994   3.108   4.826
 3625SOL    HW111774   6.992   3.124   4.727
 3625SOL    HW211775   0.016   3.021   4.844
 3626SOL     OW11776   2.550   3.803   5.332
 3626SOL    HW111777   2.494   3.867   5.280
 3626SOL    HW211778   2.499   3.719   5.350
 3627SOL     OW11779   3.049   3.659   3.905
 3627SOL    HW111780   3.023   3.567   3.932
 3627SOL    HW211781   2.989   3.691   3.831
 3628SOL     OW11782   2.868   5.162   2.377
 3628SOL    HW111783   2.913   5.247   2.348
 3628SOL    HW211784   2.837   5.172   2.471
 3629SOL     OW11785   6.466   2.458   4.981
 3629SOL    HW111786   6.426   2.517   5.052
 3629SOL    HW211787   6.495   2.372   5.022
 3630SOL     OW11788   6.118   1.946   4.467
 3630SOL    HW111789   6.210   1.924   4.436
 3630SOL    HW211790   6.106   2.046   4.467
 3631SOL     OW11791   2.235   1.090   4.705
 3631SOL    HW111792   2.256   1.026   4.778
 3631SOL    HW211793   2.213   1.040   4.621
 3632SOL     OW11794   4.701   0.544   6.872
 3632SOL    HW111795   4.742   0.576   6.786
 3632SOL    HW211796   4.607   0.577   6.878
 3633SOL     OW11797   1.979   3.245   5.896
 3633SOL    HW111798   1.887   3.222   5.926
 3633SOL    HW211799   1.977   3.272   5.800
 3634SOL     OW11800   2.054   5.657   5.394
 3634SOL    HW111801   1.974   5.672   5.452
 3634SOL    HW211802   2.027   5.607   5.312
 3635SOL     OW11803   2.584   1.152   5.478
 3635SOL    HW111804   2.538   1.145   5.390
 3635SOL    HW211805   2.517   1.146   5.552
 3636SOL     OW11806   0.990   5.438   6.296
 3636SOL    HW111807   0.933   5.427   6.378
 3636SOL    HW211808   1.080   5.398   6.312
 3637SOL     OW11809   5.605   1.412   2.096
 3637SOL    HW111810   5.590   1.482   2.166
 3637SOL    HW211811   5.517   1.385   2.057
 3638SOL     OW11812   0.186   4.813   4.043
 3638SOL    HW111813   0.274   4.852   4.069
 3638SOL    HW211814   0.173   4.726   4.092
 3639SOL     OW11815   1.956   4.724   0.321
 3639SOL    HW111816   1.969   4.626   0.339
 3639SOL    HW211817   1.939   4.739   0.224
 3640SOL     OW11818   3.690   5.969   1.081
 3640SOL    HW111819   3.699   5.873   1.109
 3640SOL    HW211820   3.654   5.972   0.987
 3641SOL     OW11821   2.128   1.075   5.009
 3641SOL    HW111822   2.080   1.136   4.947
 3641SOL    HW211823   2.206   1.124   5.049
 3642SOL     OW11824   5.380   6.966   4.768
 3642SOL    HW111825   5.314   0.015   4.750
 3642SOL    HW211826   5.466   6.986   4.720
 3643SOL     OW11827   2.929   4.924   4.627
 3643SOL    HW111828   2.888   4.924   4.718
 3643SOL    HW211829   3.028   4.912   4.635
 3644SOL     OW11830   6.889   0.472   0.567
 3644SOL    HW111831   6.856   0.389   0.521
 3644SOL    HW211832   6.820   0.503   0.632
 3645SOL     OW11833   3.725   0.669   3.268
 3645SOL    HW111834   3.684   0.725   3.196
 3645SOL    HW211835   3.658   0.654   3.341
 3646SOL     OW11836   0.324   4.759   5.376
 3646SOL    HW111837   0.311   4.839   5.318
 3646SOL    HW211838   0.240   4.741   5.428
 3647SOL     OW11839   2.372   3.085   1.065
 3647SOL    HW111840   2.308   3.154   1.099
 3647SOL    HW211841   2.431   3.126   0.996
 3648SOL     OW11842   3.049   6.467   2.279
 3648SOL    HW111843   3.149   6.470   2.280
 3648SOL    HW211844   3.015   6.488   2.371
 3649SOL     OW11845   3.704   3.593   1.022
 3649SOL    HW111846   3.619   3.647   1.026
 3649SOL    HW211847   3.761   3.616   1.101
 3650SOL     OW11848   0.473   6.572   1.285
 3650SOL    HW111849   0.517   6.616   1.206
 3650SOL    HW211850   0.522   6.597   1.368
 3651SOL     OW11851   1.984   6.081   2.599
 3651SOL    HW111852   2.043   6.160   2.580
 3651SOL    HW211853   1.899   6.113   2.641
 3652SOL     OW11854   4.540   5.622   3.275
 3652SOL    HW111855   4.494   5.665   3.353
 3652SOL    HW211856   4.523   5.676   3.193
 3653SOL     OW11857   0.250   1.583   3.180
 3653SOL    HW111858   0.286   1.603   3.089
 3653SOL    HW211859   0.279   1.492   3.207
 3654SOL     OW11860   1.375   6.365   1.318
 3654SOL    HW111861   1.457   6.417   1.294
 3654SOL    HW211862   1.401   6.288   1.377
 3655SOL     OW11863   1.804   0.448   5.043
 3655SOL    HW111864   1.768   0.541   5.039
 3655SOL    HW211865   1.839   0.429   5.134
 3656SOL     OW11866   1.936   2.923   1.696
 3656SOL    HW111867   1.920   2.831   1.731
 3656SOL    HW211868   2.035   2.940   1.694
 3657SOL     OW11869   3.784   5.676   1.080
 3657SOL    HW111870   3.805   5.582   1.109
 3657SOL    HW211871   3.868   5.720   1.046
 3658SOL     OW11872   1.446   5.903   6.065
 3658SOL    HW111873   1.475   5.981   6.121
 3658SOL    HW211874   1.404   5.834   6.123
 3659SOL     OW11875   2.844   4.259   0.257
 3659SOL    HW111876   2.800   4.338   0.300
 3659SOL    HW211877   2.806   4.247   0.165
 3660SOL     OW11878   4.522   5.956   1.588
 3660SOL    HW111879   4.476   6.041   1.614
 3660SOL    HW211880   4.613   5.977   1.553
 3661SOL     OW11881   4.811   0.870   0.544
 3661SOL    HW111882   4.774   0.777   0.547
 3661SOL    HW211883   4.736   0.935   0.554
 3662SOL     OW11884   3.177   7.011   5.174
 3662SOL    HW111885   3.169   6.936   5.239
 3662SOL    HW211886   3.215   6.976   5.088
 3663SOL     OW11887   1.129   2.675   6.995
 3663SOL    HW111888   1.129   2.578   7.017
 3663SOL    HW211889   1.057   2.694   6.928
 3664SOL     OW11890   4.964   0.880   0.913
 3664SOL    HW111891   5.038   0.937   0.949
 3664SOL    HW211892   4.902   0.936   0.858
 3665SOL     OW11893   0.877   0.212   5.677
 3665SOL    HW111894   0.858   0.133   5.736
 3665SOL    HW211895   0.961   0.195   5.626
 3666SOL     OW11896   1.696   4.417   4.055
 3666SOL    HW111897   1.754   4.464   3.989
 3666SOL    HW211898   1.642   4.347   4.008
 3667SOL     OW11899   6.291   1.563   6.091
 3667SOL    HW111900   6.256   1.510   6.014
 3667SOL    HW211901   6.390   1.553   6.096
 3668SOL     OW11902   1.215   6.167   2.400
 3668SOL    HW111903   1.270   6.192   2.480
 3668SOL    HW211904   1.235   6.229   2.324
 3669SOL     OW11905   6.891   2.547   3.366
 3669SOL    HW111906   6.915   2.638   3.400
 3669SOL    HW211907   6.792   2.535   3.370
 3670SOL     OW11908   2.453   6.023   5.939
 3670SOL    HW111909   2.483   5.954   5.872
 3670SOL    HW211910   2.358   6.007   5.962
 3671SOL     OW11911   1.139   0.368   2.914
 3671SOL    HW111912   1.150   0.426   2.833
 3671SOL    HW211913   1.062   0.306   2.901
 3672SOL     OW11914   6.581   0.781   0.286
 3672SOL    HW111915   6.573   0.871   0.244
 3672SOL    HW211916   6.544   0.784   0.379
 3673SOL     OW11917   5.094   0.624   6.611
 3673SOL    HW111918   5.124   0.530   6.625
 3673SOL    HW211919   4.996   0.625   6.590
 3674SOL     OW11920   1.247   6.363   0.612
 3674SOL    HW111921   1.265   6.462   0.616
 3674SOL    HW211922   1.158   6.343   0.652
 3675SOL     OW11923   2.174   2.342   5.329
 3675SOL    HW111924   2.138   2.421   5.378
 3675SOL    HW211925   2.131   2.337   5.239
 3676SOL     OW11926   2.925   5.474   3.584
 3676SOL    HW111927   2.887   5.383   3.602
 3676SOL    HW211928   2.851   5.542   3.588
 3677SOL     OW11929   6.581   6.691   4.451
 3677SOL    HW111930   6.675   6.723   4.463
 3677SOL    HW211931   6.564   6.673   4.354
 3678SOL     OW11932   1.469   1.449   3.651
 3678SOL    HW111933   1.521   1.519   3.699
 3678SOL    HW211934   1.374   1.451   3.682
 3679SOL     OW11935   0.613   0.867   2.091
 3679SOL    HW111936   0.515   0.864   2.072
 3679SOL    HW211937   0.661   0.805   2.029
 3680SOL     OW11938   6.824   3.041   4.342
 3680SOL    HW111939   6.728   3.068   4.352
 3680SOL    HW211940   6.843   3.019   4.246
 3681SOL     OW11941   0.162   6.664   5.696
 3681SOL    HW111942   0.136   6.699   5.786
 3681SOL    HW211943   0.139   6.732   5.626
 3682SOL     OW11944   6.647   1.769   6.606
 3682SOL    HW111945   6.704   1.734   6.680
 3682SOL    HW211946   6.706   1.810   6.536
 3683SOL     OW11947   5.700   6.748   4.365
 3683SOL    HW111948   5.636   6.674   4.344
 3683SOL    HW211949   5.787   6.730   4.321
 3684SOL     OW11950   1.630   3.290   1.719
 3684SOL    HW111951   1.533   3.274   1.735
 3684SOL    HW211952   1.652   3.386   1.737
 3685SOL     OW11953   6.299   6.363   6.714
 3685SOL    HW111954   6.264   6.380   6.622
 3685SOL    HW211955   6.244   6.414   6.781
 3686SOL     OW11956   6.167   4.414   1.870
 3686SOL    HW111957   6.207   4.484   1.812
 3686SOL    HW211958   6.235   4.344   1.891
 3687SOL     OW11959   3.908   0.884   0.319
 3687SOL    HW111960   3.832   0.823   0.338
 3687SOL    HW211961   3.893   0.972   0.365
 3688SOL     OW11962   1.371   3.440   0.285
 3688SOL    HW111963   1.362   3.390   0.199
 3688SOL    HW211964   1.281   3.469   0.317
 3689SOL     OW11965   1.813   0.520   4.192
 3689SOL    HW111966   1.791   0.459   4.117
 3689SOL    HW211967   1.729   0.564   4.225
 3690SOL     OW11968   5.867   6.979   5.731
 3690SOL    HW111969   5.944   7.019   5.781
 3690SOL    HW211970   5.820   0.026   5.680
 3691SOL     OW11971   2.810   3.401   6.945
 3691SOL    HW111972   2.734   3.368   7.000
 3691SOL    HW211973   2.835   3.333   6.877
 3692SOL     OW11974   1.597   6.815   5.346
 3692SOL    HW111975   1.643   6.897   5.380
 3692SOL    HW211976   1.663   6.741   5.337
 3693SOL     OW11977   2.734   2.357   3.072
 3693SOL    HW111978   2.748   2.296   3.150
 3693SOL    HW211979   2.798   2.333   2.999
 3694SOL     OW11980   2.015   6.413   3.307
 3694SOL    HW111981   2.079   6.338   3.325
 3694SOL    HW211982   2.058   6.479   3.245
 3695SOL     OW11983   1.793   1.880   2.142
 3695SOL    HW111984   1.704   1.834   2.139
 3695SOL    HW211985   1.854   1.831   2.204
 3696SOL     OW11986   4.646   0.072   6.214
 3696SOL    HW111987   4.691   0.043   6.130
 3696SOL    HW211988   4.593   0.155   6.196
 3697SOL     OW11989   6.494   0.247   4.363
 3697SOL    HW111990   6.525   0.335   4.328
 3697SOL    HW211991   6.531   0.233   4.455
 3698SOL     OW11992   3.040   0.572   6.070
 3698SOL    HW111993   3.106   0.614   6.132
 3698SOL    HW211994   3.086   0.501   6.017
 3699SOL     OW11995   0.028   3.788   3.120
 3699SOL    HW111996   0.004   3.885   3.124
 3699SOL    HW211997   0.120   3.774   3.157
 3700SOL     OW11998   0.147   0.074   4.004
 3700SOL    HW111999   0.202   7.017   3.981
 3700SOL    HW212000   0.169   0.104   4.097
 3701SOL     OW12001   6.398   1.100   4.456
 3701SOL    HW112002   6.313   1.091   4.403
 3701SOL    HW212003   6.474   1.119   4.394
 3702SOL     OW12004   3.684   1.241   0.327
 3702SOL    HW112005   3.679   1.187   0.243
 3702SOL    HW212006   3.633   1.326   0.316
 3703SOL     OW12007   3.997   4.630   6.602
 3703SOL    HW112008   4.054   4.560   6.557
 3703SOL    HW212009   4.040   4.658   6.688
 3704SOL     OW12010   2.244   0.166   2.665
 3704SOL    HW112011   2.148   0.188   2.651
 3704SOL    HW212012   2.277   0.112   2.587
 3705SOL     OW12013   5.036   0.831   3.667
 3705SOL    HW112014   5.058   0.922   3.700
 3705SOL    HW212015   4.962   0.792   3.721
 3706SOL     OW12016   1.907   2.438   3.784
 3706SOL    HW112017   2.004   2.441   3.809
 3706SOL    HW212018   1.898   2.403   3.691
 3707SOL     OW12019   4.812   2.518   5.310
 3707SOL    HW112020   4.764   2.605   5.296
 3707SOL    HW212021   4.847   2.515   5.404
 3708SOL     OW12022   5.915   0.752   6.674
 3708SOL    HW112023   5.880   0.805   6.597
 3708SOL    HW212024   5.850   0.757   6.750
 3709SOL     OW12025   3.683   0.281   6.434
 3709SOL    HW112026   3.715   0.376   6.440
 3709SOL    HW212027   3.622   0.272   6.355
 3710SOL     OW12028   6.740   4.503   0.849
 3710SOL    HW112029   6.752   4.596   0.814
 3710SOL    HW212030   6.829   4.457   0.851
 3711SOL     OW12031   6.696   5.574   2.490
 3711SOL    HW112032   6.597   5.579   2.507
 3711SOL    HW212033   6.745   5.612   2.569
 3712SOL     OW12034   1.146   6.729   0.128
 3712SOL    HW112035   1.157   6.722   0.227
 3712SOL    HW212036   1.069   6.789   0.107
 3713SOL     OW12037   3.822   5.955   5.684
 3713SOL    HW112038   3.726   5.977   5.702
 3713SOL    HW212039   3.840   5.967   5.586
 3714SOL     OW12040   4.101   0.230   4.592
 3714SOL    HW112041   4.069   0.300   4.655
 3714SOL    HW212042   4.163   0.167   4.640
 3715SOL     OW12043   5.775   4.941   4.882
 3715SOL    HW112044   5.767   4.842   4.876
 3715SOL    HW212045   5.710   4.977   4.948
 3716SOL     OW12046   6.905   0.124   4.115
 3716SOL    HW112047   6.857   0.042   4.146
 3716SOL    HW212048   6.975   0.098   4.048
 3717SOL     OW12049   6.286   6.525   0.708
 3717SOL    HW112050   6.386   6.525   0.708
 3717SOL    HW212051   6.252   6.435   0.735
 3718SOL     OW12052   1.350   5.814   0.342
 3718SOL    HW112053   1.421   5.745   0.327
 3718SOL    HW212054   1.263   5.779   0.309
 3719SOL     OW12055   4.053   4.849   5.670
 3719SOL    HW112056   4.036   4.946   5.657
 3719SOL    HW212057   3.975   4.796   5.635
 3720SOL     OW12058   5.477   1.631   5.830
 3720SOL    HW112059   5.449   1.592   5.742
 3720SOL    HW212060   5.576   1.643   5.831
 3721SOL     OW12061   5.525   4.605   0.813
 3721SOL    HW112062   5.602   4.546   0.838
 3721SOL    HW212063   5.448   4.587   0.873
 3722SOL     OW12064   6.207   6.032   2.586
 3722SOL    HW112065   6.241   6.082   2.506
 3722SOL    HW212066   6.144   5.960   2.556
 3723SOL     OW12067   5.407   0.576   0.839
 3723SOL    HW112068   5.400   0.487   0.885
 3723SOL    HW212069   5.334   0.636   0.871
 3724SOL     OW12070   1.380   5.502   6.640
 3724SOL    HW112071   1.438   5.421   6.632
 3724SOL    HW212072   1.435   5.580   6.669
 3725SOL     OW12073   6.700   5.982   6.711
 3725SOL    HW112074   6.738   6.073   6.729
 3725SOL    HW212075   6.642   5.986   6.629
 3726SOL     OW12076   5.433   3.955   1.243
 3726SOL    HW112077   5.390   3.927   1.158
 3726SOL    HW212078   5.372   3.936   1.320
 3727SOL     OW12079   2.152   3.220   5.007
 3727SOL    HW112080   2.215   3.142   5.005
 3727SOL    HW212081   2.181   3.283   5.079
 3728SOL     OW12082   1.611   3.371   6.745
 3728SOL    HW112083   1.548   3.300   6.777
 3728SOL    HW212084   1.645   3.423   6.823
 3729SOL     OW12085   0.775   2.038   3.565
 3729SOL    HW112086   0.721   1.974   3.620
 3729SOL    HW212087   0.757   2.131   3.596
 3730SOL     OW12088   3.669   0.762   0.287
 3730SOL    HW112089   3.609   0.841   0.305
 3730SOL    HW212090   3.687   0.757   0.188
 3731SOL     OW12091   4.717   0.229   0.218
 3731SOL    HW112092   4.751   0.260   0.307
 3731SOL    HW212093   4.789   0.178   0.171
 3732SOL     OW12094   2.174   3.776   5.236
 3732SOL    HW112095   2.260   3.826   5.225
 3732SOL    HW212096   2.100   3.826   5.191
 3733SOL     OW12097   3.067   3.781   1.665
 3733SOL    HW112098   3.074   3.874   1.701
 3733SOL    HW212099   3.058   3.716   1.740
 3734SOL     OW12100   5.029   1.087   2.668
 3734SOL    HW112101   5.000   1.110   2.575
 3734SOL    HW212102   4.965   1.126   2.734
 3735SOL     OW12103   3.004   2.195   2.288
 3735SOL    HW112104   2.954   2.220   2.371
 3735SOL    HW212105   2.966   2.243   2.209
 3736SOL     OW12106   6.101   2.021   0.849
 3736SOL    HW112107   6.162   1.944   0.829
 3736SOL    HW212108   6.014   1.987   0.883
 3737SOL     OW12109   4.849   6.982   3.676
 3737SOL    HW112110   4.915   6.969   3.751
 3737SOL    HW212111   4.763   6.937   3.700
 3738SOL     OW12112   6.896   6.537   3.569
 3738SOL    HW112113   6.963   6.547   3.495
 3738SOL    HW212114   6.864   6.442   3.573
 3739SOL     OW12115   0.632   4.312   2.641
 3739SOL    HW112116   0.630   4.256   2.558
 3739SOL    HW212117   0.637   4.252   2.721
 3740SOL     OW12118   5.605   1.329   7.004
 3740SOL    HW112119   5.526   1.390   6.997
 3740SOL    HW212120   5.574   1.236   7.022
 3741SOL     OW12121   3.915   2.488   0.196
 3741SOL    HW112122   3.993   2.429   0.215
 3741SOL    HW212123   3.834   2.433   0.178
 3742SOL     OW12124   3.577   3.001   5.670
 3742SOL    HW112125   3.643   2.933   5.703
 3742SOL    HW212126   3.571   3.076   5.736
 3743SOL     OW12127   6.986   4.805   6.804
 3743SOL    HW112128   0.044   4.799   6.748
 3743SOL    HW212129   6.912   4.752   6.761
 3744SOL     OW12130   0.556   5.506   3.756
 3744SOL    HW112131   0.637   5.469   3.710
 3744SOL    HW212132   0.479   5.508   3.692
 3745SOL     OW12133   4.062   5.807   2.809
 3745SOL    HW112134   4.048   5.711   2.833
 3745SOL    HW212135   4.143   5.841   2.856
 3746SOL     OW12136   4.135   1.638   1.875
 3746SOL    HW112137   4.188   1.697   1.935
 3746SOL    HW212138   4.057   1.600   1.925
 3747SOL     OW12139   3.456   0.979   0.243
 3747SOL    HW112140   3.440   1.055   0.180
 3747SOL    HW212141   3.375   0.966   0.301
 3748SOL     OW12142   5.769   0.936   2.941
 3748SOL    HW112143   5.747   1.027   2.906
 3748SOL    HW212144   5.685   0.892   2.974
 3749SOL     OW12145   1.183   6.964   5.315
 3749SOL    HW112146   1.250   6.889   5.313
 3749SOL    HW212147   1.212   0.012   5.251
 3750SOL     OW12148   0.252   3.914   0.658
 3750SOL    HW112149   0.266   3.839   0.593
 3750SOL    HW212150   0.230   3.998   0.608
 3751SOL     OW12151   0.485   4.257   3.015
 3751SOL    HW112152   0.392   4.290   2.998
 3751SOL    HW212153   0.522   4.217   2.932
 3752SOL     OW12154   6.271   0.975   6.226
 3752SOL    HW112155   6.210   1.048   6.196
 3752SOL    HW212156   6.358   0.982   6.177
 3753SOL     OW12157   0.012   0.318   4.264
 3753SOL    HW112158   6.973   0.369   4.322
 3753SOL    HW212159   6.985   0.252   4.209
 3754SOL     OW12160   2.140   1.558   1.008
 3754SOL    HW112161   2.188   1.478   1.043
 3754SOL    HW212162   2.050   1.564   1.051
 3755SOL     OW12163   2.891   4.985   3.541
 3755SOL    HW112164   2.913   4.950   3.632
 3755SOL    HW212165   2.950   4.941   3.473
 3756SOL     OW12166   2.549   6.152   6.929
 3756SOL    HW112167   2.614   6.084   6.895
 3756SOL    HW212168   2.484   6.109   6.991
 3757SOL     OW12169   6.522   4.896   1.488
 3757SOL    HW112170   6.505   4.992   1.465
 3757SOL    HW212171   6.436   4.846   1.487
 3758SOL     OW12172   1.715   6.795   3.819
 3758SOL    HW112173   1.723   6.795   3.918
 3758SOL    HW212174   1.799   6.833   3.779
 3759SOL     OW12175   4.920   0.928   4.226
 3759SOL    HW112176   4.940   0.834   4.253
 3759SOL    HW212177   5.004   0.982   4.227
 3760SOL     OW12178   0.493   0.933   3.379
 3760SOL    HW112179   0.544   0.988   3.445
 3760SOL    HW212180   0.544   0.849   3.359
 3761SOL     OW12181   5.514   0.875   3.671
 3761SOL    HW112182   5.519   0.796   3.611
 3761SOL    HW212183   5.539   0.957   3.620
 3762SOL     OW12184   0.681   2.951   2.166
 3762SOL    HW112185   0.607   3.011   2.198
 3762SOL    HW212186   0.670   2.934   2.068
 3763SOL     OW12187   0.704   4.425   0.992
 3763SOL    HW112188   0.677   4.390   1.081
 3763SOL    HW212189   0.703   4.351   0.925
 3764SOL     OW12190   2.106   0.447   2.759
 3764SOL    HW112191   2.074   0.387   2.685
 3764SOL    HW212192   2.028   0.472   2.817
 3765SOL     OW12193   5.655   2.576   1.824
 3765SOL    HW112194   5.566   2.543   1.795
 3765SOL    HW212195   5.667   2.559   1.922
 3766SOL     OW12196   1.029   3.513   3.274
 3766SOL    HW112197   1.070   3.568   3.347
 3766SOL    HW212198   1.079   3.427   3.266
 3767SOL     OW12199   1.363   5.119   5.954
 3767SOL    HW112200   1.415   5.095   6.035
 3767SOL    HW212201   1.265   5.102   5.970
 3768SOL     OW12202   0.926   0.124   4.346
 3768SOL    HW112203   0.982   0.083   4.274
 3768SOL    HW212204   0.965   0.102   4.436
 3769SOL     OW12205   5.389   5.073   4.731
 3769SOL    HW112206   5.316   5.005   4.732
 3769SOL    HW212207   5.371   5.141   4.660
 3770SOL     OW12208   1.819   1.059   1.093
 3770SOL    HW112209   1.879   1.036   1.170
 3770SOL    HW212210   1.730   1.086   1.128
 3771SOL     OW12211   6.541   5.096   0.058
 3771SOL    HW112212   6.556   5.185   0.016
 3771SOL    HW212213   6.532   5.026   7.011
 3772SOL     OW12214   1.644   5.874   0.629
 3772SOL    HW112215   1.562   5.925   0.653
 3772SOL    HW212216   1.689   5.842   0.713
 3773SOL     OW12217   5.237   4.563   6.300
 3773SOL    HW112218   5.261   4.503   6.224
 3773SOL    HW212219   5.319   4.611   6.332
 3774SOL     OW12220   6.509   5.165   1.487
 3774SOL    HW112221   6.550   5.203   1.570
 3774SOL    HW212222   6.528   5.225   1.410
 3775SOL     OW12223   4.240   4.696   4.368
 3775SOL    HW112224   4.294   4.661   4.291
 3775SOL    HW212225   4.145   4.710   4.339
 3776SOL     OW12226   3.364   2.941   6.166
 3776SOL    HW112227   3.299   2.923   6.240
 3776SOL    HW212228   3.369   2.860   6.107
 3777SOL     OW12229   2.924   6.160   4.502
 3777SOL    HW112230   2.853   6.117   4.446
 3777SOL    HW212231   2.946   6.250   4.465
 3778SOL     OW12232   3.403   5.307   5.967
 3778SOL    HW112233   3.362   5.357   6.043
 3778SOL    HW212234   3.335   5.295   5.894
 3779SOL     OW12235   6.737   4.717   6.679
 3779SOL    HW112236   6.670   4.784   6.647
 3779SOL    HW212237   6.709   4.626   6.648
 3780SOL     OW12238   5.775   4.106   1.751
 3780SOL    HW112239   5.699   4.051   1.716
 3780SOL    HW212240   5.744   4.200   1.767
 3781SOL     OW12241   2.964   5.761   4.866
 3781SOL    HW112242   2.891   5.712   4.817
 3781SOL    HW212243   2.963   5.857   4.839
 3782SOL     OW12244   5.038   6.234   1.717
 3782SOL    HW112245   5.075   6.191   1.800
 3782SOL    HW212246   5.009   6.327   1.738
 3783SOL     OW12247   5.044   4.982   4.501
 3783SOL    HW112248   4.988   5.065   4.504
 3783SOL    HW212249   4.998   4.911   4.448
 3784SOL     OW12250   6.166   1.868   4.008
 3784SOL    HW112251   6.158   1.967   4.020
 3784SOL    HW212252   6.256   1.838   4.041
 3785SOL     OW12253   1.824   3.444   4.152
 3785SOL    HW112254   1.825   3.539   4.121
 3785SOL    HW212255   1.753   3.394   4.103
 3786SOL     OW12256   2.432   2.637   4.261
 3786SOL    HW112257   2.453   2.589   4.345
 3786SOL    HW212258   2.346   2.688   4.272
 3787SOL     OW12259   4.346   0.114   3.149
 3787SOL    HW112260   4.276   0.079   3.087
 3787SOL    HW212261   4.304   0.140   3.236
 3788SOL     OW12262   6.418   3.154   5.236
 3788SOL    HW112263   6.497   3.212   5.215
 3788SOL    HW212264   6.355   3.154   5.158
 3789SOL     OW12265   1.425   2.552   2.705
 3789SOL    HW112266   1.414   2.603   2.790
 3789SOL    HW212267   1.520   2.524   2.694
 3790SOL     OW12268   0.652   6.872   1.551
 3790SOL    HW112269   0.563   6.836   1.577
 3790SOL    HW212270   0.652   6.971   1.557
 3791SOL     OW12271   4.934   1.211   5.895
 3791SOL    HW112272   5.010   1.198   5.958
 3791SOL    HW212273   4.964   1.269   5.819
 3792SOL     OW12274   7.009   0.709   3.912
 3792SOL    HW112275   6.937   0.718   3.843
 3792SOL    HW212276   0.030   0.620   3.901
 3793SOL     OW12277   4.838   5.406   0.628
 3793SOL    HW112278   4.826   5.505   0.632
 3793SOL    HW212279   4.767   5.366   0.569
 3794SOL     OW12280   1.000   4.046   6.633
 3794SOL    HW112281   1.054   4.083   6.557
 3794SOL    HW212282   0.950   3.965   6.603
 3795SOL     OW12283   1.915   6.172   1.800
 3795SOL    HW112284   1.894   6.117   1.719
 3795SOL    HW212285   2.004   6.214   1.790
 3796SOL     OW12286   4.434   1.473   6.759
 3796SOL    HW112287   4.398   1.491   6.850
 3796SOL    HW212288   4.363   1.431   6.702
 3797SOL     OW12289   1.256   4.457   2.795
 3797SOL    HW112290   1.313   4.375   2.808
 3797SOL    HW212291   1.193   4.466   2.872
 3798SOL     OW12292   1.797   6.503   3.188
 3798SOL    HW112293   1.743   6.569   3.242
 3798SOL    HW212294   1.883   6.484   3.236
 3799SOL     OW12295   0.064   1.378   3.027
 3799SOL    HW112296   0.058   1.312   2.953
 3799SOL    HW212297   0.145   1.436   3.014
 3800SOL     OW12298   5.698   2.422   2.661
 3800SOL    HW112299   5.731   2.515   2.649
 3800SOL    HW212300   5.661   2.387   2.575
 3801SOL     OW12301   5.608   1.038   2.001
 3801SOL    HW112302   5.626   1.107   2.071
 3801SOL    HW212303   5.589   1.083   1.913
 3802SOL     OW12304   6.125   2.338   2.192
 3802SOL    HW112305   6.122   2.284   2.107
 3802SOL    HW212306   6.219   2.343   2.225
 3803SOL     OW12307   3.312   3.630   3.995
 3803SOL    HW112308   3.305   3.549   4.053
 3803SOL    HW212309   3.222   3.656   3.961
 3804SOL     OW12310   3.608   5.943   3.202
 3804SOL    HW112311   3.519   5.914   3.166
 3804SOL    HW212312   3.666   5.973   3.126
 3805SOL     OW12313   2.741   2.766   7.006
 3805SOL    HW112314   2.668   2.827   0.014
 3805SOL    HW212315   2.807   2.818   6.953
 3806SOL     OW12316   3.715   4.378   1.614
 3806SOL    HW112317   3.682   4.349   1.524
 3806SOL    HW212318   3.679   4.317   1.684
 3807SOL     OW12319   2.043   4.188   4.331
 3807SOL    HW112320   1.944   4.202   4.322
 3807SOL    HW212321   2.090   4.273   4.307
 3808SOL     OW12322   3.654   6.540   6.482
 3808SOL    HW112323   3.663   6.635   6.512
 3808SOL    HW212324   3.707   6.527   6.398
 3809SOL     OW12325   5.102   2.223   1.357
 3809SOL    HW112326   5.152   2.286   1.417
 3809SOL    HW212327   5.089   2.265   1.267
 3810SOL     OW12328   5.904   1.940   1.747
 3810SOL    HW112329   5.927   2.023   1.799
 3810SOL    HW212330   5.985   1.881   1.742
 3811SOL     OW12331   0.359   5.293   5.290
 3811SOL    HW112332   0.299   5.316   5.214
 3811SOL    HW212333   0.454   5.309   5.264
 3812SOL     OW12334   4.557   6.648   1.093
 3812SOL    HW112335   4.631   6.582   1.108
 3812SOL    HW212336   4.506   6.622   1.011
 3813SOL     OW12337   6.344   4.300   0.783
 3813SOL    HW112338   6.322   4.319   0.687
 3813SOL    HW212339   6.397   4.216   0.789
 3814SOL     OW12340   6.880   0.140   4.827
 3814SOL    HW112341   6.926   0.052   4.822
 3814SOL    HW212342   6.946   0.211   4.852
 3815SOL     OW12343   6.448   3.567   6.114
 3815SOL    HW112344   6.395   3.599   6.192
 3815SOL    HW212345   6.427   3.624   6.034
 3816SOL     OW12346   0.390   5.702   6.314
 3816SOL    HW112347   0.323   5.701   6.388
 3816SOL    HW212348   0.472   5.652   6.343
 3817SOL     OW12349   5.149   3.924   1.953
 3817SOL    HW112350   5.053   3.931   1.980
 3817SOL    HW212351   5.205   3.974   2.018
 3818SOL     OW12352   6.088   0.511   2.656
 3818SOL    HW112353   6.106   0.472   2.747
 3818SOL    HW212354   6.148   0.590   2.642
 3819SOL     OW12355   6.850   4.128   4.303
 3819SOL    HW112356   6.758   4.106   4.336
 3819SOL    HW212357   6.917   4.078   4.357
 3820SOL     OW12358   4.632   0.324   4.597
 3820SOL    HW112359   4.575   0.339   4.678
 3820SOL    HW212360   4.712   0.270   4.623
 3821SOL     OW12361   1.407   0.124   0.517
 3821SOL    HW112362   1.308   0.136   0.512
 3821SOL    HW212363   1.440   0.082   0.432
 3822SOL     OW12364   4.637   1.160   1.710
 3822SOL    HW112365   4.606   1.076   1.667
 3822SOL    HW212366   4.576   1.236   1.685
 3823SOL     OW12367   4.687   5.776   6.201
 3823SOL    HW112368   4.625   5.699   6.183
 3823SOL    HW212369   4.685   5.798   6.299
 3824SOL     OW12370   2.092   3.141   0.021
 3824SOL    HW112371   2.151   3.067   7.013
 3824SOL    HW212372   2.036   3.173   6.969
 3825SOL     OW12373   1.260   4.256   5.510
 3825SOL    HW112374   1.284   4.162   5.488
 3825SOL    HW212375   1.214   4.259   5.599
 3826SOL     OW12376   6.218   4.160   3.259
 3826SOL    HW112377   6.179   4.251   3.247
 3826SOL    HW212378   6.282   4.161   3.335
 3827SOL     OW12379   1.280   0.967   1.952
 3827SOL    HW112380   1.375   1.000   1.957
 3827SOL    HW212381   1.226   1.010   2.024
 3828SOL     OW12382   4.107   3.502   4.125
 3828SOL    HW112383   4.060   3.501   4.037
 3828SOL    HW212384   4.139   3.595   4.144
 3829SOL     OW12385   0.767   3.629   2.498
 3829SOL    HW112386   0.751   3.547   2.552
 3829SOL    HW212387   0.753   3.710   2.555
 3830SOL     OW12388   6.702   1.156   4.303
 3830SOL    HW112389   6.772   1.150   4.374
 3830SOL    HW212390   6.726   1.095   4.228
 3831SOL     OW12391   4.236   1.932   3.352
 3831SOL    HW112392   4.336   1.940   3.355
 3831SOL    HW212393   4.201   1.970   3.267
 3832SOL     OW12394   6.762   1.287   3.445
 3832SOL    HW112395   6.672   1.330   3.454
 3832SOL    HW212396   6.751   1.197   3.401
 3833SOL     OW12397   0.545   1.542   5.542
 3833SOL    HW112398   0.533   1.641   5.555
 3833SOL    HW212399   0.589   1.525   5.454
 3834SOL     OW12400   4.748   4.093   0.278
 3834SOL    HW112401   4.810   4.054   0.345
 3834SOL    HW212402   4.770   4.190   0.265
 3835SOL     OW12403   4.051   5.405   4.675
 3835SOL    HW112404   3.977   5.454   4.722
 3835SOL    HW212405   4.031   5.307   4.674
 3836SOL     OW12406   0.411   5.966   5.370
 3836SOL    HW112407   0.380   5.904   5.298
 3836SOL    HW212408   0.477   6.031   5.331
 3837SOL     OW12409   4.315   4.880   5.046
 3837SOL    HW112410   4.338   4.976   5.060
 3837SOL    HW212411   4.313   4.859   4.949
 3838SOL     OW12412   1.172   1.482   3.714
 3838SOL    HW112413   1.138   1.494   3.621
 3838SOL    HW212414   1.142   1.559   3.770
 3839SOL     OW12415   3.603   0.827   3.083
 3839SOL    HW112416   3.529   0.826   3.016
 3839SOL    HW212417   3.647   0.917   3.083
 3840SOL     OW12418   2.546   0.614   0.217
 3840SOL    HW112419   2.591   0.525   0.221
 3840SOL    HW212420   2.502   0.625   0.128
 3841SOL     OW12421   6.717   4.421   3.420
 3841SOL    HW112422   6.656   4.496   3.443
 3841SOL    HW212423   6.798   4.424   3.478
 3842SOL     OW12424   2.163   2.926   5.203
 3842SOL    HW112425   2.176   2.830   5.225
 3842SOL    HW212426   2.240   2.958   5.148
 3843SOL     OW12427   5.241   2.429   0.151
 3843SOL    HW112428   5.320   2.490   0.153
 3843SOL    HW212429   5.228   2.394   0.058
 3844SOL     OW12430   1.277   5.996   0.553
 3844SOL    HW112431   1.356   6.028   0.605
 3844SOL    HW212432   1.307   5.934   0.481
 3845SOL     OW12433   1.969   5.977   0.803
 3845SOL    HW112434   1.926   5.890   0.779
 3845SOL    HW212435   2.064   5.977   0.773
 3846SOL     OW12436   0.850   2.547   3.409
 3846SOL    HW112437   0.829   2.597   3.325
 3846SOL    HW212438   0.948   2.531   3.414
 3847SOL     OW12439   6.571   1.076   5.917
 3847SOL    HW112440   6.617   1.164   5.901
 3847SOL    HW212441   6.608   1.033   5.999
 3848SOL     OW12442   5.261   3.669   2.185
 3848SOL    HW112443   5.197   3.744   2.201
 3848SOL    HW212444   5.324   3.662   2.262
 3849SOL     OW12445   6.804   5.809   6.909
 3849SOL    HW112446   6.774   5.843   6.820
 3849SOL    HW212447   6.723   5.788   6.965
 3850SOL     OW12448   2.661   2.629   1.197
 3850SOL    HW112449   2.755   2.632   1.229
 3850SOL    HW212450   2.615   2.715   1.219
 3851SOL     OW12451   0.488   5.758   2.727
 3851SOL    HW112452   0.484   5.659   2.713
 3851SOL    HW212453   0.403   5.800   2.697
 3852SOL     OW12454   3.576   6.275   5.584
 3852SOL    HW112455   3.574   6.233   5.675
 3852SOL    HW212456   3.661   6.251   5.537
 3853SOL     OW12457   2.507   0.933   4.011
 3853SOL    HW112458   2.590   0.934   4.066
 3853SOL    HW212459   2.520   0.990   3.931
 3854SOL     OW12460   1.829   2.833   2.565
 3854SOL    HW112461   1.926   2.848   2.587
 3854SOL    HW212462   1.774   2.847   2.648
 3855SOL     OW12463   4.295   6.791   0.706
 3855SOL    HW112464   4.261   6.864   0.765
 3855SOL    HW212465   4.225   6.722   0.695
 3856SOL     OW12466   0.402   1.924   6.474
 3856SOL    HW112467   0.419   1.827   6.460
 3856SOL    HW212468   0.328   1.954   6.415
 3857SOL     OW12469   2.196   1.283   5.367
 3857SOL    HW112470   2.263   1.335   5.315
 3857SOL    HW212471   2.227   1.272   5.461
 3858SOL     OW12472   4.170   1.241   5.096
 3858SOL    HW112473   4.150   1.286   5.009
 3858SOL    HW212474   4.260   1.198   5.091
 3859SOL     OW12475   5.440   0.468   1.317
 3859SOL    HW112476   5.514   0.505   1.261
 3859SOL    HW212477   5.476   0.437   1.405
 3860SOL     OW12478   1.236   0.302   4.285
 3860SOL    HW112479   1.228   0.312   4.186
 3860SOL    HW212480   1.212   0.208   4.311
 3861SOL     OW12481   4.520   5.566   1.320
 3861SOL    HW112482   4.458   5.492   1.297
 3861SOL    HW212483   4.534   5.569   1.419
 3862SOL     OW12484   0.949   6.334   3.934
 3862SOL    HW112485   0.941   6.429   3.902
 3862SOL    HW212486   0.922   6.273   3.859
 3863SOL     OW12487   4.711   0.558   1.064
 3863SOL    HW112488   4.750   0.495   1.131
 3863SOL    HW212489   4.762   0.551   0.978
 3864SOL     OW12490   2.617   0.273   4.439
 3864SOL    HW112491   2.713   0.295   4.421
 3864SOL    HW212492   2.563   0.357   4.439
 3865SOL     OW12493   4.011   0.464   0.031
 3865SOL    HW112494   4.033   0.381   0.083
 3865SOL    HW212495   3.912   0.478   0.030
 3866SOL     OW12496   2.264   2.704   6.814
 3866SOL    HW112497   2.362   2.720   6.808
 3866SOL    HW212498   2.242   2.665   6.904
 3867SOL     OW12499   0.648   4.115   2.822
 3867SOL    HW112500   0.738   4.073   2.832
 3867SOL    HW212501   0.578   4.052   2.855
 3868SOL     OW12502   3.528   0.958   6.653
 3868SOL    HW112503   3.460   0.951   6.726
 3868SOL    HW212504   3.617   0.925   6.686
 3869SOL     OW12505   6.279   3.014   3.378
 3869SOL    HW112506   6.358   2.963   3.413
 3869SOL    HW212507   6.239   2.965   3.301
 3870SOL     OW12508   6.448   0.532   3.500
 3870SOL    HW112509   6.378   0.568   3.563
 3870SOL    HW212510   6.503   0.608   3.465
 3871SOL     OW12511   3.075   5.814   3.893
 3871SOL    HW112512   3.040   5.822   3.799
 3871SOL    HW212513   3.135   5.891   3.912
 3872SOL     OW12514   3.468   3.136   4.356
 3872SOL    HW112515   3.453   3.045   4.318
 3872SOL    HW212516   3.565   3.160   4.348
 3873SOL     OW12517   4.644   2.153   0.337
 3873SOL    HW112518   4.712   2.222   0.362
 3873SOL    HW212519   4.554   2.184   0.367
 3874SOL     OW12520   3.996   0.071   0.996
 3874SOL    HW112521   3.915   0.032   0.951
 3874SOL    HW212522   3.981   0.071   1.095
 3875SOL     OW12523   1.464   1.936   5.239
 3875SOL    HW112524   1.525   1.916   5.316
 3875SOL    HW212525   1.501   1.895   5.156
 3876SOL     OW12526   4.362   6.536   1.243
 3876SOL    HW112527   4.418   6.499   1.317
 3876SOL    HW212528   4.417   6.598   1.187
 3877SOL     OW12529   0.005   2.206   0.414
 3877SOL    HW112530   0.032   2.302   0.403
 3877SOL    HW212531   6.929   2.200   0.410
 3878SOL     OW12532   4.525   0.163   3.895
 3878SOL    HW112533   4.531   0.087   3.959
 3878SOL    HW212534   4.436   0.162   3.850
 3879SOL     OW12535   4.885   5.083   6.913
 3879SOL    HW112536   4.833   5.091   6.828
 3879SOL    HW212537   4.924   4.991   6.920
 3880SOL     OW12538   5.482   4.267   4.541
 3880SOL    HW112539   5.409   4.200   4.528
 3880SOL    HW212540   5.539   4.272   4.459
 3881SOL     OW12541   1.102   4.427   0.520
 3881SOL    HW112542   1.133   4.334   0.541
 3881SOL    HW212543   1.116   4.445   0.423
 3882SOL     OW12544   1.297   1.592   0.390
 3882SOL    HW112545   1.326   1.653   0.464
 3882SOL    HW212546   1.197   1.588   0.388
 3883SOL     OW12547   4.378   6.845   3.362
 3883SOL    HW112548   4.455   6.862   3.302
 3883SOL    HW212549   4.403   6.777   3.431
 3884SOL     OW12550   0.929   5.906   3.469
 3884SOL    HW112551   0.847   5.874   3.517
 3884SOL    HW212552   1.010   5.862   3.507
 3885SOL     OW12553   5.768   0.144   3.300
 3885SOL    HW112554   5.780   0.060   3.246
 3885SOL    HW212555   5.794   0.126   3.395
 3886SOL     OW12556   4.562   6.762   5.628
 3886SOL    HW112557   4.627   6.814   5.684
 3886SOL    HW212558   4.501   6.709   5.688
 3887SOL     OW12559   0.644   6.081   1.263
 3887SOL    HW112560   0.693   6.162   1.293
 3887SOL    HW212561   0.573   6.058   1.329
 3888SOL     OW12562   6.196   6.137   4.369
 3888SOL    HW112563   6.236   6.183   4.290
 3888SOL    HW212564   6.223   6.041   4.370
 3889SOL     OW12565   6.402   3.124   6.739
 3889SOL    HW112566   6.411   3.202   6.800
 3889SOL    HW212567   6.315   3.128   6.690
 3890SOL     OW12568   5.699   4.014   4.296
 3890SOL    HW112569   5.676   4.111   4.310
 3890SOL    HW212570   5.617   3.958   4.306
 3891SOL     OW12571   5.341   4.646   3.767
 3891SOL    HW112572   5.353   4.569   3.703
 3891SOL    HW212573   5.245   4.675   3.766
 3892SOL     OW12574   0.087   2.114   0.930
 3892SOL    HW112575   0.113   2.145   0.839
 3892SOL    HW212576   0.110   2.018   0.941
 3893SOL     OW12577   4.434   3.157   1.475
 3893SOL    HW112578   4.505   3.218   1.511
 3893SOL    HW212579   4.377   3.123   1.550
 3894SOL     OW12580   5.082   0.301   6.700
 3894SOL    HW112581   5.049   0.310   6.794
 3894SOL    HW212582   5.176   0.267   6.701
 3895SOL     OW12583   1.339   6.774   5.446
 3895SOL    HW112584   1.427   6.779   5.397
 3895SOL    HW212585   1.322   6.680   5.474
 3896SOL     OW12586   0.704   1.149   6.906
 3896SOL    HW112587   0.797   1.163   6.938
 3896SOL    HW212588   0.641   1.204   6.962
 3897SOL     OW12589   4.194   5.721   1.981
 3897SOL    HW112590   4.264   5.677   2.037
 3897SOL    HW212591   4.236   5.762   1.900
 3898SOL     OW12592   3.854   2.352   6.652
 3898SOL    HW112593   3.916   2.407   6.596
 3898SOL    HW212594   3.766   2.398   6.660
 3899SOL     OW12595   4.928   0.413   5.991
 3899SOL    HW112596   4.898   0.352   5.918
 3899SOL    HW212597   4.922   0.508   5.960
 3900SOL     OW12598   5.466   3.438   3.617
 3900SOL    HW112599   5.463   3.485   3.529
 3900SOL    HW212600   5.543   3.473   3.671
 3901SOL     OW12601   3.166   0.459   6.366
 3901SOL    HW112602   3.195   0.425   6.455
 3901SOL    HW212603   3.092   0.526   6.378
 3902SOL     OW12604   5.737   3.358   2.403
 3902SOL    HW112605   5.751   3.411   2.319
 3902SOL    HW212606   5.661   3.397   2.455
 3903SOL     OW12607   3.944   6.432   0.396
 3903SOL    HW112608   3.885   6.502   0.356
 3903SOL    HW212609   3.891   6.375   0.459
 3904SOL     OW12610   0.801   0.751   6.698
 3904SOL    HW112611   0.718   0.781   6.744
 3904SOL    HW212612   0.876   0.745   6.764
 3905SOL     OW12613   6.973   6.456   6.726
 3905SOL    HW112614   6.953   6.499   6.813
 3905SOL    HW212615   7.021   6.520   6.667
 3906SOL     OW12616   5.672   6.339   5.902
 3906SOL    HW112617   5.741   6.281   5.945
 3906SOL    HW212618   5.703   6.434   5.902
 3907SOL     OW12619   5.841   1.782   3.520
 3907SOL    HW112620   5.937   1.805   3.534
 3907SOL    HW212621   5.833   1.688   3.485
 3908SOL     OW12622   0.966   2.468   6.583
 3908SOL    HW112623   0.958   2.544   6.518
 3908SOL    HW212624   0.886   2.409   6.574
 3909SOL     OW12625   4.726   5.590   4.788
 3909SOL    HW112626   4.727   5.677   4.738
 3909SOL    HW212627   4.807   5.584   4.846
 3910SOL     OW12628   3.258   4.063   2.547
 3910SOL    HW112629   3.330   4.058   2.616
 3910SOL    HW212630   3.299   4.078   2.457
 3911SOL     OW12631   6.115   1.737   4.631
 3911SOL    HW112632   6.098   1.819   4.576
 3911SOL    HW212633   6.134   1.660   4.570
 3912SOL     OW12634   5.620   2.029   5.059
 3912SOL    HW112635   5.583   2.079   4.980
 3912SOL    HW212636   5.720   2.037   5.059
 3913SOL     OW12637   1.657   0.331   6.340
 3913SOL    HW112638   1.743   0.317   6.388
 3913SOL    HW212639   1.585   0.350   6.406
 3914SOL     OW12640   3.075   0.023   0.036
 3914SOL    HW112641   3.070   6.967   0.096
 3914SOL    HW212642   3.145   0.009   6.991
 3915SOL     OW12643   5.311   5.493   1.209
 3915SOL    HW112644   5.381   5.433   1.171
 3915SOL    HW212645   5.257   5.443   1.276
 3916SOL     OW12646   0.729   0.116   2.535
 3916SOL    HW112647   0.657   0.096   2.602
 3916SOL    HW212648   0.817   0.125   2.583
 3917SOL     OW12649   0.952   6.908   7.002
 3917SOL    HW112650   0.858   6.886   6.975
 3917SOL    HW212651   1.014   6.881   6.929
 3918SOL     OW12652   5.317   4.714   1.514
 3918SOL    HW112653   5.303   4.675   1.423
 3918SOL    HW212654   5.393   4.779   1.511
 3919SOL     OW12655   4.098   0.360   0.919
 3919SOL    HW112656   4.047   0.345   0.835
 3919SOL    HW212657   4.075   0.290   0.986
 3920SOL     OW12658   2.487   3.567   0.383
 3920SOL    HW112659   2.533   3.649   0.350
 3920SOL    HW212660   2.397   3.558   0.339
 3921SOL     OW12661   0.508   3.924   1.687
 3921SOL    HW112662   0.463   3.947   1.773
 3921SOL    HW212663   0.502   4.002   1.624
 3922SOL     OW12664   0.027   4.032   2.142
 3922SOL    HW112665   0.107   3.981   2.174
 3922SOL    HW212666   0.017   4.116   2.195
 3923SOL     OW12667   0.815   0.688   0.714
 3923SOL    HW112668   0.887   0.703   0.647
 3923SOL    HW212669   0.828   0.750   0.791
 3924SOL     OW12670   6.068   4.496   4.525
 3924SOL    HW112671   6.135   4.508   4.599
 3924SOL    HW212672   6.070   4.576   4.465
 3925SOL     OW12673   1.439   4.507   1.560
 3925SOL    HW112674   1.414   4.591   1.609
 3925SOL    HW212675   1.496   4.531   1.481
 3926SOL     OW12676   4.333   4.855   2.742
 3926SOL    HW112677   4.411   4.803   2.779
 3926SOL    HW212678   4.252   4.797   2.740
 3927SOL     OW12679   6.794   2.950   5.835
 3927SOL    HW112680   6.836   2.900   5.911
 3927SOL    HW212681   6.761   2.885   5.767
 3928SOL     OW12682   4.456   6.144   6.754
 3928SOL    HW112683   4.432   6.049   6.776
 3928SOL    HW212684   4.425   6.204   6.828
 3929SOL     OW12685   0.992   0.161   4.940
 3929SOL    HW112686   0.935   0.241   4.921
 3929SOL    HW212687   1.059   0.184   5.011
 3930SOL     OW12688   2.695   2.171   4.207
 3930SOL    HW112689   2.635   2.091   4.210
 3930SOL    HW212690   2.785   2.147   4.242
 3931SOL     OW12691   0.358   1.506   1.726
 3931SOL    HW112692   0.454   1.481   1.738
 3931SOL    HW212693   0.304   1.468   1.801
 3932SOL     OW12694   0.679   3.295   3.905
 3932SOL    HW112695   0.602   3.234   3.925
 3932SOL    HW212696   0.750   3.245   3.856
 3933SOL     OW12697   2.234   0.306   6.008
 3933SOL    HW112698   2.160   0.242   5.987
 3933SOL    HW212699   2.198   0.382   6.062
 3934SOL     OW12700   6.026   0.291   5.790
 3934SOL    HW112701   6.050   0.207   5.839
 3934SOL    HW212702   6.109   0.343   5.770
 3935SOL     OW12703   3.766   6.979   0.803
 3935SOL    HW112704   3.776   6.881   0.820
 3935SOL    HW212705   3.826   7.006   0.728
 3936SOL     OW12706   6.886   5.670   4.614
 3936SOL    HW112707   6.883   5.766   4.585
 3936SOL    HW212708   6.839   5.614   4.547
 3937SOL     OW12709   0.577   2.364   2.334
 3937SOL    HW112710   0.568   2.463   2.326
 3937SOL    HW212711   0.549   2.321   2.248
 3938SOL     OW12712   0.692   1.498   3.454
 3938SOL    HW112713   0.712   1.568   3.386
 3938SOL    HW212714   0.603   1.457   3.435
 3939SOL     OW12715   2.607   1.874   2.546
 3939SOL    HW112716   2.610   1.854   2.448
 3939SOL    HW212717   2.689   1.838   2.590
 3940SOL     OW12718   4.094   3.340   1.566
 3940SOL    HW112719   4.094   3.426   1.516
 3940SOL    HW212720   4.157   3.347   1.644
 3941SOL     OW12721   4.794   5.290   5.958
 3941SOL    HW112722   4.793   5.389   5.943
 3941SOL    HW212723   4.875   5.250   5.914
 3942SOL     OW12724   6.794   6.325   6.995
 3942SOL    HW112725   6.836   6.262   0.037
 3942SOL    HW212726   6.713   6.283   6.956
 3943SOL     OW12727   0.776   3.116   4.239
 3943SOL    HW112728   0.793   3.200   4.291
 3943SOL    HW212729   0.858   3.093   4.186
 3944SOL     OW12730   4.646   2.673   5.019
 3944SOL    HW112731   4.592   2.617   4.956
 3944SOL    HW212732   4.743   2.664   4.997
 3945SOL     OW12733   0.150   1.728   0.553
 3945SOL    HW112734   0.233   1.779   0.536
 3945SOL    HW212735   0.122   1.680   0.470
 3946SOL     OW12736   5.197   4.043   3.738
 3946SOL    HW112737   5.121   3.980   3.721
 3946SOL    HW212738   5.196   4.069   3.835
 3947SOL     OW12739   4.725   6.449   0.270
 3947SOL    HW112740   4.767   6.396   0.344
 3947SOL    HW212741   4.684   6.386   0.204
 3948SOL     OW12742   6.727   4.296   1.633
 3948SOL    HW112743   6.780   4.359   1.690
 3948SOL    HW212744   6.632   4.296   1.662
 3949SOL     OW12745   5.169   5.756   3.120
 3949SOL    HW112746   5.188   5.796   3.030
 3949SOL    HW212747   5.071   5.743   3.131
 3950SOL     OW12748   1.309   5.343   1.027
 3950SOL    HW112749   1.272   5.367   0.937
 3950SOL    HW212750   1.390   5.285   1.015
 3951SOL     OW12751   5.142   0.676   1.386
 3951SOL    HW112752   5.092   0.717   1.311
 3951SOL    HW212753   5.130   0.731   1.469
 3952SOL     OW12754   0.131   1.865   0.956
 3952SOL    HW112755   0.198   1.822   0.896
 3952SOL    HW212756   0.077   1.794   1.001
 3953SOL     OW12757   4.080   3.544   1.397
 3953SOL    HW112758   4.011   3.591   1.343
 3953SOL    HW212759   4.162   3.527   1.341
 3954SOL     OW12760   4.397   5.896   5.535
 3954SOL    HW112761   4.494   5.906   5.516
 3954SOL    HW212762   4.365   5.806   5.506
 3955SOL     OW12763   3.044   1.450   5.656
 3955SOL    HW112764   3.123   1.510   5.661
 3955SOL    HW212765   3.067   1.369   5.601
 3956SOL     OW12766   1.505   1.030   2.296
 3956SOL    HW112767   1.437   0.957   2.307
 3956SOL    HW212768   1.505   1.062   2.201
 3957SOL     OW12769   4.155   0.024   4.366
 3957SOL    HW112770   4.118   0.099   4.421
 3957SOL    HW212771   4.239   0.055   4.320
 3958SOL     OW12772   6.348   2.128   3.695
 3958SOL    HW112773   6.438   2.100   3.663
 3958SOL    HW212774   6.351   2.144   3.794
 3959SOL     OW12775   5.132   5.104   0.490
 3959SOL    HW112776   5.149   5.096   0.392
 3959SOL    HW212777   5.146   5.199   0.518
 3960SOL     OW12778   5.564   1.620   5.184
 3960SOL    HW112779   5.642   1.664   5.229
 3960SOL    HW212780   5.547   1.663   5.096
 3961SOL     OW12781   5.091   0.597   3.527
 3961SOL    HW112782   5.064   0.685   3.565
 3961SOL    HW212783   5.190   0.588   3.530
 3962SOL     OW12784   1.106   4.889   5.885
 3962SOL    HW112785   1.043   4.959   5.920
 3962SOL    HW212786   1.084   4.801   5.927
 3963SOL     OW12787   4.883   6.219   2.287
 3963SOL    HW112788   4.876   6.262   2.377
 3963SOL    HW212789   4.941   6.275   2.228
 3964SOL     OW12790   4.728   4.142   3.428
 3964SOL    HW112791   4.734   4.074   3.355
 3964SOL    HW212792   4.738   4.233   3.389
 3965SOL     OW12793   4.948   3.349   4.119
 3965SOL    HW112794   5.038   3.350   4.075
 3965SOL    HW212795   4.877   3.345   4.049
 3966SOL     OW12796   3.838   5.778   0.009
 3966SOL    HW112797   3.821   5.692   0.057
 3966SOL    HW212798   3.848   5.760   6.935
 3967SOL     OW12799   2.325   4.284   1.633
 3967SOL    HW112800   2.361   4.289   1.726
 3967SOL    HW212801   2.400   4.284   1.568
 3968SOL     OW12802   4.848   0.644   0.828
 3968SOL    HW112803   4.890   0.729   0.861
 3968SOL    HW212804   4.790   0.663   0.749
 3969SOL     OW12805   1.325   5.315   1.695
 3969SOL    HW112806   1.261   5.244   1.664
 3969SOL    HW212807   1.273   5.394   1.726
 3970SOL     OW12808   5.217   5.866   2.549
 3970SOL    HW112809   5.165   5.933   2.496
 3970SOL    HW212810   5.155   5.798   2.588
 3971SOL     OW12811   2.778   6.057   4.297
 3971SOL    HW112812   2.680   6.066   4.278
 3971SOL    HW212813   2.824   6.018   4.217
 3972SOL     OW12814   1.135   3.896   0.105
 3972SOL    HW112815   1.110   3.810   0.149
 3972SOL    HW212816   1.130   3.885   0.006
 3973SOL     OW12817   1.205   5.295   0.739
 3973SOL    HW112818   1.144   5.285   0.661
 3973SOL    HW212819   1.284   5.235   0.728
 3974SOL     OW12820   2.293   0.755   5.943
 3974SOL    HW112821   2.204   0.776   5.982
 3974SOL    HW212822   2.283   0.686   5.871
 3975SOL     OW12823   5.250   2.119   6.130
 3975SOL    HW112824   5.199   2.036   6.154
 3975SOL    HW212825   5.189   2.182   6.081
 3976SOL     OW12826   1.941   6.380   2.395
 3976SOL    HW112827   1.972   6.424   2.310
 3976SOL    HW212828   2.018   6.369   2.457
 3977SOL     OW12829   1.365   3.637   6.556
 3977SOL    HW112830   1.353   3.721   6.503
 3977SOL    HW212831   1.285   3.578   6.542
 3978SOL     OW12832   6.493   4.969   3.203
 3978SOL    HW112833   6.432   4.957   3.124
 3978SOL    HW212834   6.585   4.940   3.178
 3979SOL     OW12835   3.500   1.029   6.146
 3979SOL    HW112836   3.503   1.124   6.179
 3979SOL    HW212837   3.554   0.972   6.207
 3980SOL     OW12838   6.182   6.781   6.547
 3980SOL    HW112839   6.201   6.853   6.613
 3980SOL    HW212840   6.122   6.713   6.589
 3981SOL     OW12841   4.573   5.958   0.804
 3981SOL    HW112842   4.652   6.008   0.841
 3981SOL    HW212843   4.506   6.023   0.769
 3982SOL     OW12844   2.380   0.059   2.472
 3982SOL    HW112845   2.409   0.032   2.380
 3982SOL    HW212846   2.460   0.068   2.531
 3983SOL     OW12847   5.054   4.904   3.729
 3983SOL    HW112848   5.127   4.908   3.797
 3983SOL    HW212849   5.032   4.997   3.698
 3984SOL     OW12850   5.956   1.400   2.767
 3984SOL    HW112851   5.964   1.495   2.798
 3984SOL    HW212852   5.985   1.338   2.839
 3985SOL     OW12853   3.823   5.419   6.599
 3985SOL    HW112854   3.922   5.412   6.589
 3985SOL    HW212855   3.789   5.343   6.654
 3986SOL     OW12856   4.709   1.738   3.241
 3986SOL    HW112857   4.738   1.823   3.285
 3986SOL    HW212858   4.610   1.728   3.251
 3987SOL     OW12859   3.355   4.929   4.325
 3987SOL    HW112860   3.336   4.904   4.420
 3987SOL    HW212861   3.452   4.912   4.305
 3988SOL     OW12862   3.792   5.541   0.143
 3988SOL    HW112863   3.853   5.483   0.089
 3988SOL    HW212864   3.736   5.483   0.203
 3989SOL     OW12865   6.572   2.269   0.302
 3989SOL    HW112866   6.608   2.176   0.298
 3989SOL    HW212867   6.637   2.331   0.257
 3990SOL     OW12868   5.230   2.072   1.595
 3990SOL    HW112869   5.141   2.041   1.629
 3990SOL    HW212870   5.218   2.158   1.545
 3991SOL     OW12871   0.524   1.193   2.277
 3991SOL    HW112872   0.590   1.125   2.246
 3991SOL    HW212873   0.493   1.248   2.200
 3992SOL     OW12874   3.057   2.020   0.705
 3992SOL    HW112875   3.077   1.971   0.621
 3992SOL    HW212876   3.007   1.961   0.768
 3993SOL     OW12877   1.329   2.940   1.958
 3993SOL    HW112878   1.237   2.969   1.931
 3993SOL    HW212879   1.381   2.914   1.877
 3994SOL     OW12880   2.766   0.267   4.883
 3994SOL    HW112881   2.677   0.291   4.922
 3994SOL    HW212882   2.814   0.205   4.945
 3995SOL     OW12883   1.720   3.507   5.308
 3995SOL    HW112884   1.726   3.600   5.343
 3995SOL    HW212885   1.624   3.483   5.294
 3996SOL     OW12886   0.545   6.680   5.632
 3996SOL    HW112887   0.470   6.651   5.573
 3996SOL    HW212888   0.612   6.732   5.579
 3997SOL     OW12889   5.947   1.364   4.781
 3997SOL    HW112890   6.020   1.314   4.828
 3997SOL    HW212891   5.943   1.335   4.685
 3998SOL     OW12892   3.532   1.662   4.166
 3998SOL    HW112893   3.457   1.608   4.129
 3998SOL    HW212894   3.502   1.708   4.249
 3999SOL     OW12895   6.228   2.607   4.206
 3999SOL    HW112896   6.252   2.701   4.181
 3999SOL    HW212897   6.257   2.590   4.300
 4000SOL     OW12898   3.192   6.736   4.147
 4000SOL    HW112899   3.278   6.690   4.166
 4000SOL    HW212900   3.190   6.764   4.051
 4001SOL     OW12901   2.067   1.748   3.969
 4001SOL    HW112902   1.977   1.789   3.982
 4001SOL    HW212903   2.080   1.675   4.037
 4002SOL     OW12904   2.558   3.659   1.673
 4002SOL    HW112905   2.511   3.574   1.698
 4002SOL    HW212906   2.491   3.729   1.650
 4003SOL     OW12907   3.342   0.068   4.534
 4003SOL    HW112908   3.243   0.070   4.550
 4003SOL    HW212909   3.361   0.021   4.448
 4004SOL     OW12910   6.755   2.490   4.783
 4004SOL    HW112911   6.854   2.479   4.779
 4004SOL    HW212912   6.731   2.549   4.861
 4005SOL     OW12913   4.738   6.371   6.848
 4005SOL    HW112914   4.795   6.366   6.765
 4005SOL    HW212915   4.676   6.449   6.841
 4006SOL     OW12916   3.817   5.324   2.081
 4006SOL    HW112917   3.912   5.352   2.093
 4006SOL    HW212918   3.776   5.304   2.171
 4007SOL     OW12919   0.438   2.807   7.021
 4007SOL    HW112920   0.435   2.736   6.950
 4007SOL    HW212921   0.530   2.813   0.035
 4008SOL     OW12922   2.368   2.482   4.499
 4008SOL    HW112923   2.287   2.464   4.444
 4008SOL    HW212924   2.439   2.416   4.477
 4009SOL     OW12925   4.167   3.532   2.147
 4009SOL    HW112926   4.178   3.435   2.165
 4009SOL    HW212927   4.196   3.552   2.053
 4010SOL     OW12928   2.807   3.036   1.282
 4010SOL    HW112929   2.737   2.976   1.321
 4010SOL    HW212930   2.867   2.982   1.223
 4011SOL     OW12931   0.860   1.994   1.433
 4011SOL    HW112932   0.911   1.963   1.513
 4011SOL    HW212933   0.812   2.079   1.454
 4012SOL     OW12934   6.597   4.400   2.592
 4012SOL    HW112935   6.640   4.314   2.617
 4012SOL    HW212936   6.552   4.390   2.503
 4013SOL     OW12937   4.422   2.156   4.254
 4013SOL    HW112938   4.366   2.104   4.318
 4013SOL    HW212939   4.375   2.241   4.230
 4014SOL     OW12940   5.588   6.289   3.063
 4014SOL    HW112941   5.520   6.217   3.050
 4014SOL    HW212942   5.607   6.300   3.161
 4015SOL     OW12943   4.837   4.389   5.652
 4015SOL    HW112944   4.901   4.465   5.662
 4015SOL    HW212945   4.874   4.307   5.697
 4016SOL     OW12946   3.323   5.902   6.007
 4016SOL    HW112947   3.313   5.874   6.102
 4016SOL    HW212948   3.260   5.848   5.950
 4017SOL     OW12949   6.598   5.749   0.060
 4017SOL    HW112950   6.538   5.669   0.055
 4017SOL    HW212951   6.544   5.832   0.064
 4018SOL     OW12952   4.063   5.759   1.322
 4018SOL    HW112953   4.152   5.727   1.288
 4018SOL    HW212954   4.019   5.686   1.374
 4019SOL     OW12955   5.622   4.650   3.215
 4019SOL    HW112956   5.601   4.631   3.119
 4019SOL    HW212957   5.715   4.687   3.222
 4020SOL     OW12958   5.225   2.293   5.688
 4020SOL    HW112959   5.237   2.199   5.720
 4020SOL    HW212960   5.293   2.352   5.731
 4021SOL     OW12961   3.187   4.680   5.656
 4021SOL    HW112962   3.094   4.680   5.618
 4021SOL    HW212963   3.209   4.588   5.689
 4022SOL     OW12964   5.424   0.686   0.375
 4022SOL    HW112965   5.365   0.763   0.354
 4022SOL    HW212966   5.463   0.697   0.467
 4023SOL     OW12967   6.020   1.741   5.191
 4023SOL    HW112968   6.058   1.786   5.110
 4023SOL    HW212969   6.014   1.643   5.174
 4024SOL     OW12970   4.396   4.720   4.110
 4024SOL    HW112971   4.401   4.690   4.014
 4024SOL    HW212972   4.351   4.809   4.115
 4025SOL     OW12973   0.647   4.237   3.478
 4025SOL    HW112974   0.648   4.276   3.570
 4025SOL    HW212975   0.645   4.137   3.484
 4026SOL     OW12976   5.079   6.123   4.187
 4026SOL    HW112977   5.171   6.162   4.190
 4026SOL    HW212978   5.071   6.052   4.256
 4027SOL     OW12979   4.033   5.113   1.870
 4027SOL    HW112980   4.014   5.160   1.784
 4027SOL    HW212981   4.116   5.152   1.912
 4028SOL     OW12982   2.399   1.529   4.445
 4028SOL    HW112983   2.387   1.491   4.536
 4028SOL    HW212984   2.398   1.455   4.377
 4029SOL     OW12985   1.886   4.654   4.931
 4029SOL    HW112986   1.787   4.667   4.933
 4029SOL    HW212987   1.921   4.650   5.025
 4030SOL     OW12988   0.500   2.128   5.647
 4030SOL    HW112989   0.593   2.138   5.611
 4030SOL    HW212990   0.499   2.054   5.715
 4031SOL     OW12991   3.977   5.480   3.892
 4031SOL    HW112992   4.014   5.423   3.964
 4031SOL    HW212993   3.878   5.464   3.884
 4032SOL     OW12994   5.357   0.204   4.672
 4032SOL    HW112995   5.440   0.255   4.649
 4032SOL    HW212996   5.293   0.208   4.595
 4033SOL     OW12997   2.912   3.902   5.454
 4033SOL    HW112998   2.857   3.831   5.497
 4033SOL    HW212999   2.875   3.923   5.363
 4034SOL     OW13000   7.000   2.347   3.751
 4034SOL    HW113001   0.013   2.343   3.658
 4034SOL    HW213002   6.908   2.307   3.752
 4035SOL     OW13003   6.781   4.367   0.377
 4035SOL    HW113004   6.838   4.288   0.401
 4035SOL    HW213005   6.714   4.340   0.308
 4036SOL     OW13006   6.919   0.050   2.447
 4036SOL    HW113007   6.925   6.984   2.491
 4036SOL    HW213008   6.904   0.038   2.349
 4037SOL     OW13009   0.478   4.024   6.964
 4037SOL    HW113010   0.546   4.068   6.905
 4037SOL    HW213011   0.476   3.926   6.945
 4038SOL     OW13012   6.049   4.435   4.022
 4038SOL    HW113013   6.020   4.369   4.091
 4038SOL    HW213014   6.005   4.523   4.039
 4039SOL     OW13015   4.763   6.452   0.701
 4039SOL    HW113016   4.780   6.541   0.660
 4039SOL    HW213017   4.761   6.462   0.801
 4040SOL     OW13018   3.781   6.480   1.440
 4040SOL    HW113019   3.757   6.507   1.533
 4040SOL    HW213020   3.792   6.381   1.435
 4041SOL     OW13021   1.252   6.692   4.016
 4041SOL    HW113022   1.301   6.653   3.938
 4041SOL    HW213023   1.175   6.746   3.983
 4042SOL     OW13024   5.971   5.064   1.753
 4042SOL    HW113025   5.943   5.158   1.734
 4042SOL    HW213026   5.975   5.012   1.668
 4043SOL     OW13027   6.289   2.222   1.255
 4043SOL    HW113028   6.372   2.277   1.259
 4043SOL    HW213029   6.253   2.221   1.162
 4044SOL     OW13030   6.109   6.282   3.641
 4044SOL    HW113031   6.168   6.363   3.637
 4044SOL    HW213032   6.157   6.208   3.689
 4045SOL     OW13033   2.904   6.108   6.093
 4045SOL    HW113034   2.823   6.120   6.036
 4045SOL    HW213035   2.972   6.178   6.069
 4046SOL     OW13036   0.978   3.217   1.249
 4046SOL    HW113037   1.000   3.174   1.336
 4046SOL    HW213038   1.034   3.299   1.237
 4047SOL     OW13039   2.693   4.076   1.191
 4047SOL    HW113040   2.735   4.138   1.125
 4047SOL    HW213041   2.764   4.023   1.236
 4048SOL     OW13042   5.336   0.871   1.318
 4048SOL    HW113043   5.377   0.863   1.227
 4048SOL    HW213044   5.306   0.781   1.350
 4049SOL     OW13045   5.621   0.217   4.992
 4049SOL    HW113046   5.654   0.226   4.898
 4049SOL    HW213047   5.647   0.127   5.027
 4050SOL     OW13048   2.840   0.267   0.813
 4050SOL    HW113049   2.881   0.353   0.843
 4050SOL    HW213050   2.785   0.229   0.887
 4051SOL     OW13051   3.107   3.757   0.793
 4051SOL    HW113052   3.054   3.672   0.790
 4051SOL    HW213053   3.126   3.780   0.889
 4052SOL     OW13054   1.028   6.584   1.566
 4052SOL    HW113055   0.976   6.653   1.615
 4052SOL    HW213056   0.967   6.535   1.503
 4053SOL     OW13057   3.465   4.890   3.267
 4053SOL    HW113058   3.558   4.861   3.291
 4053SOL    HW213059   3.467   4.935   3.178
 4054SOL     OW13060   4.832   1.832   0.617
 4054SOL    HW113061   4.854   1.845   0.521
 4054SOL    HW213062   4.904   1.872   0.674
 4055SOL     OW13063   3.005   2.213   6.925
 4055SOL    HW113064   3.056   2.248   7.003
 4055SOL    HW213065   2.981   2.288   6.864
 4056SOL     OW13066   4.311   3.766   0.613
 4056SOL    HW113067   4.397   3.778   0.564
 4056SOL    HW213068   4.328   3.714   0.697
 4057SOL     OW13069   4.922   2.786   6.644
 4057SOL    HW113070   4.921   2.881   6.674
 4057SOL    HW213071   4.944   2.727   6.722
 4058SOL     OW13072   1.306   0.620   4.885
 4058SOL    HW113073   1.285   0.615   4.982
 4058SOL    HW213074   1.228   0.657   4.835
 4059SOL     OW13075   0.199   2.472   4.362
 4059SOL    HW113076   0.295   2.444   4.364
 4059SOL    HW213077   0.192   2.567   4.393
 4060SOL     OW13078   4.665   5.219   3.849
 4060SOL    HW113079   4.625   5.159   3.919
 4060SOL    HW213080   4.632   5.190   3.758
 4061SOL     OW13081   2.865   3.111   1.539
 4061SOL    HW113082   2.850   3.089   1.443
 4061SOL    HW213083   2.880   3.027   1.591
 4062SOL     OW13084   2.195   0.142   2.960
 4062SOL    HW113085   2.226   0.136   2.865
 4062SOL    HW213086   2.262   0.193   3.014
 4063SOL     OW13087   2.804   5.246   6.400
 4063SOL    HW113088   2.867   5.314   6.438
 4063SOL    HW213089   2.780   5.180   6.471
 4064SOL     OW13090   6.889   6.671   3.871
 4064SOL    HW113091   6.920   6.712   3.786
 4064SOL    HW213092   6.796   6.702   3.891
 4065SOL     OW13093   6.004   5.190   7.009
 4065SOL    HW113094   6.021   5.281   6.973
 4065SOL    HW213095   6.087   5.134   7.000
 4066SOL     OW13096   5.940   4.715   2.051
 4066SOL    HW113097   5.900   4.803   2.023
 4066SOL    HW213098   5.920   4.698   2.147
 4067SOL     OW13099   5.741   0.847   2.171
 4067SOL    HW113100   5.708   0.767   2.121
 4067SOL    HW213101   5.710   0.930   2.126
 4068SOL     OW13102   6.528   0.957   3.643
 4068SOL    HW113103   6.487   0.980   3.555
 4068SOL    HW213104   6.627   0.971   3.638
 4069SOL     OW13105   6.753   5.490   1.149
 4069SOL    HW113106   6.730   5.560   1.081
 4069SOL    HW213107   6.807   5.418   1.105
 4070SOL     OW13108   1.277   3.264   2.839
 4070SOL    HW113109   1.319   3.223   2.758
 4070SOL    HW213110   1.209   3.332   2.810
 4071SOL     OW13111   1.727   6.318   4.197
 4071SOL    HW113112   1.662   6.257   4.154
 4071SOL    HW213113   1.690   6.411   4.199
 4072SOL     OW13114   0.636   0.564   3.937
 4072SOL    HW113115   0.641   0.634   4.007
 4072SOL    HW213116   0.661   0.475   3.976
 4073SOL     OW13117   1.952   5.307   0.305
 4073SOL    HW113118   1.908   5.266   0.385
 4073SOL    HW213119   2.047   5.329   0.326
 4074SOL     OW13120   1.871   2.600   0.404
 4074SOL    HW113121   1.905   2.528   0.465
 4074SOL    HW213122   1.772   2.610   0.418
 4075SOL     OW13123   5.140   1.126   3.450
 4075SOL    HW113124   5.199   1.054   3.414
 4075SOL    HW213125   5.116   1.105   3.545
 4076SOL     OW13126   1.604   2.457   3.619
 4076SOL    HW113127   1.614   2.499   3.709
 4076SOL    HW213128   1.690   2.469   3.568
 4077SOL     OW13129   2.341   1.693   0.870
 4077SOL    HW113130   2.422   1.638   0.890
 4077SOL    HW213131   2.259   1.641   0.896
 4078SOL     OW13132   5.434   3.742   1.703
 4078SOL    HW113133   5.459   3.832   1.737
 4078SOL    HW213134   5.352   3.710   1.750
 4079SOL     OW13135   0.392   1.289   3.980
 4079SOL    HW113136   0.369   1.376   3.935
 4079SOL    HW213137   0.347   1.285   4.069
 4080SOL     OW13138   3.909   2.937   2.250
 4080SOL    HW113139   3.947   2.969   2.163
 4080SOL    HW213140   3.951   2.849   2.274
 4081SOL     OW13141   2.369   2.350   6.427
 4081SOL    HW113142   2.276   2.354   6.388
 4081SOL    HW213143   2.390   2.437   6.471
 4082SOL     OW13144   1.241   2.683   5.507
 4082SOL    HW113145   1.224   2.739   5.426
 4082SOL    HW213146   1.278   2.741   5.580
 4083SOL     OW13147   5.700   4.615   3.495
 4083SOL    HW113148   5.614   4.660   3.473
 4083SOL    HW213149   5.776   4.667   3.456
 4084SOL     OW13150   4.616   0.331   3.431
 4084SOL    HW113151   4.628   0.278   3.515
 4084SOL    HW213152   4.680   0.299   3.362
 4085SOL     OW13153   4.083   5.024   2.433
 4085SOL    HW113154   4.006   5.053   2.490
 4085SOL    HW213155   4.060   4.937   2.389
 4086SOL     OW13156   6.130   4.844   6.356
 4086SOL    HW113157   6.084   4.836   6.268
 4086SOL    HW213158   6.185   4.928   6.358
 4087SOL     OW13159   2.356   0.342   1.900
 4087SOL    HW113160   2.323   0.412   1.837
 4087SOL    HW213161   2.427   0.288   1.856
 4088SOL     OW13162   0.376   1.935   5.428
 4088SOL    HW113163   0.330   2.022   5.446
 4088SOL    HW213164   0.434   1.911   5.506
 4089SOL     OW13165   1.586   0.488   3.027
 4089SOL    HW113166   1.606   0.580   2.992
 4089SOL    HW213167   1.508   0.493   3.090
 4090SOL     OW13168   2.786   1.500   5.781
 4090SOL    HW113169   2.773   1.579   5.840
 4090SOL    HW213170   2.879   1.501   5.744
 4091SOL     OW13171   3.212   6.047   1.105
 4091SOL    HW113172   3.245   6.135   1.071
 4091SOL    HW213173   3.156   6.003   1.034
 4092SOL     OW13174   5.659   2.843   3.810
 4092SOL    HW113175   5.570   2.802   3.832
 4092SOL    HW213176   5.732   2.781   3.837
 4093SOL     OW13177   5.247   4.472   4.210
 4093SOL    HW113178   5.279   4.558   4.251
 4093SOL    HW213179   5.163   4.442   4.255
 4094SOL     OW13180   6.800   5.533   0.025
 4094SOL    HW113181   6.859   5.582   6.985
 4094SOL    HW213182   6.723   5.592   0.051
 4095SOL     OW13183   0.782   5.275   0.327
 4095SOL    HW113184   0.842   5.251   0.251
 4095SOL    HW213185   0.706   5.330   0.293
 4096SOL     OW13186   0.274   1.082   6.945
 4096SOL    HW113187   0.342   1.154   6.962
 4096SOL    HW213188   0.310   1.017   6.877
 4097SOL     OW13189   6.479   4.480   5.109
 4097SOL    HW113190   6.547   4.553   5.108
 4097SOL    HW213191   6.522   4.394   5.133
 4098SOL     OW13192   2.252   4.390   3.064
 4098SOL    HW113193   2.169   4.444   3.049
 4098SOL    HW213194   2.308   4.434   3.135
 4099SOL     OW13195   4.398   4.269   6.047
 4099SOL    HW113196   4.391   4.222   5.958
 4099SOL    HW213197   4.321   4.331   6.058
 4100SOL     OW13198   1.313   0.107   3.929
 4100SOL    HW113199   1.318   0.032   3.864
 4100SOL    HW213200   1.357   0.080   4.015
 4101SOL     OW13201   6.101   5.941   0.373
 4101SOL    HW113202   6.130   5.931   0.469
 4101SOL    HW213203   6.028   5.875   0.354
 4102SOL     OW13204   1.664   7.005   0.014
 4102SOL    HW113205   1.677   6.906   0.018
 4102SOL    HW213206   1.676   0.019   0.106
 4103SOL     OW13207   1.910   6.256   3.725
 4103SOL    HW113208   1.999   6.232   3.763
 4103SOL    HW213209   1.907   6.354   3.704
 4104SOL     OW13210   2.226   5.421   4.257
 4104SOL    HW113211   2.188   5.352   4.194
 4104SOL    HW213212   2.185   5.510   4.238
 4105SOL     OW13213   4.592   0.624   1.461
 4105SOL    HW113214   4.554   0.579   1.380
 4105SOL    HW213215   4.664   0.566   1.500
 4106SOL     OW13216   1.368   0.906   3.435
 4106SOL    HW113217   1.310   0.835   3.396
 4106SOL    HW213218   1.315   0.991   3.444
 4107SOL     OW13219   1.157   6.966   0.406
 4107SOL    HW113220   1.098   6.895   0.367
 4107SOL    HW213221   1.251   6.952   0.374
 4108SOL     OW13222   6.536   5.669   5.432
 4108SOL    HW113223   6.484   5.702   5.353
 4108SOL    HW213224   6.516   5.725   5.512
 4109SOL     OW13225   5.767   5.994   3.863
 4109SOL    HW113226   5.703   5.940   3.808
 4109SOL    HW213227   5.848   5.939   3.881
 4110SOL     OW13228   5.055   2.750   0.628
 4110SOL    HW113229   5.048   2.790   0.719
 4110SOL    HW213230   5.101   2.661   0.634
 4111SOL     OW13231   6.571   3.735   4.406
 4111SOL    HW113232   6.670   3.727   4.416
 4111SOL    HW213233   6.531   3.644   4.393
 4112SOL     OW13234   4.661   6.060   4.835
 4112SOL    HW113235   4.595   6.055   4.759
 4112SOL    HW213236   4.641   6.139   4.892
 4113SOL     OW13237   3.961   5.149   4.743
 4113SOL    HW113238   3.932   5.175   4.835
 4113SOL    HW213239   4.001   5.057   4.745
 4114SOL     OW13240   0.465   1.156   1.723
 4114SOL    HW113241   0.398   1.154   1.649
 4114SOL    HW213242   0.418   1.155   1.811
 4115SOL     OW13243   3.993   5.956   4.274
 4115SOL    HW113244   4.036   5.892   4.338
 4115SOL    HW213245   4.024   5.936   4.181
 4116SOL     OW13246   4.812   4.194   2.325
 4116SOL    HW113247   4.880   4.264   2.345
 4116SOL    HW213248   4.856   4.115   2.283
 4117SOL     OW13249   1.326   1.702   4.022
 4117SOL    HW113250   1.388   1.690   3.944
 4117SOL    HW213251   1.372   1.674   4.106
 4118SOL     OW13252   0.361   6.262   0.375
 4118SOL    HW113253   0.346   6.347   0.426
 4118SOL    HW213254   0.445   6.268   0.322
 4119SOL     OW13255   0.293   0.394   4.161
 4119SOL    HW113256   0.307   0.451   4.080
 4119SOL    HW213257   0.196   0.379   4.175
 4120SOL     OW13258   2.277   0.576   6.400
 4120SOL    HW113259   2.273   0.594   6.498
 4120SOL    HW213260   2.359   0.523   6.380
 4121SOL     OW13261   6.335   6.643   2.615
 4121SOL    HW113262   6.276   6.623   2.694
 4121SOL    HW213263   6.329   6.567   2.550
 4122SOL     OW13264   0.192   4.189   2.914
 4122SOL    HW113265   0.178   4.211   2.817
 4122SOL    HW213266   0.191   4.273   2.968
 4123SOL     OW13267   4.619   4.778   1.498
 4123SOL    HW113268   4.615   4.696   1.555
 4123SOL    HW213269   4.691   4.839   1.531
 4124SOL     OW13270   5.447   5.606   0.141
 4124SOL    HW113271   5.402   5.517   0.147
 4124SOL    HW213272   5.506   5.619   0.220
 4125SOL     OW13273   5.932   1.621   1.223
 4125SOL    HW113274   5.942   1.687   1.149
 4125SOL    HW213275   6.019   1.575   1.238
 4126SOL     OW13276   1.717   2.970   2.125
 4126SOL    HW113277   1.655   3.041   2.093
 4126SOL    HW213278   1.688   2.881   2.091
 4127SOL     OW13279   4.463   1.963   4.670
 4127SOL    HW113280   4.558   1.993   4.675
 4127SOL    HW213281   4.434   1.959   4.575
 4128SOL     OW13282   1.104   3.220   0.346
 4128SOL    HW113283   1.123   3.227   0.248
 4128SOL    HW213284   1.114   3.311   0.388
 4129SOL     OW13285   2.558   2.719   0.286
 4129SOL    HW113286   2.625   2.788   0.258
 4129SOL    HW213287   2.470   2.763   0.302
 4130SOL     OW13288   6.018   2.960   0.736
 4130SOL    HW113289   6.117   2.977   0.732
 4130SOL    HW213290   5.971   3.026   0.678
 4131SOL     OW13291   4.672   6.784   3.437
 4131SOL    HW113292   4.708   6.877   3.430
 4131SOL    HW213293   4.688   6.748   3.529
 4132SOL     OW13294   0.552   5.267   4.230
 4132SOL    HW113295   0.571   5.259   4.132
 4132SOL    HW213296   0.629   5.230   4.282
 4133SOL     OW13297   5.615   0.393   2.788
 4133SOL    HW113298   5.678   0.471   2.789
 4133SOL    HW213299   5.659   0.314   2.831
 4134SOL     OW13300   1.626   3.584   1.675
 4134SOL    HW113301   1.604   3.645   1.751
 4134SOL    HW213302   1.541   3.546   1.637
 4135SOL     OW13303   6.720   0.999   1.608
 4135SOL    HW113304   6.731   1.098   1.611
 4135SOL    HW213305   6.729   0.961   1.700
 4136SOL     OW13306   1.590   4.555   1.306
 4136SOL    HW113307   1.629   4.478   1.254
 4136SOL    HW213308   1.529   4.607   1.247
 4137SOL     OW13309   1.623   2.586   0.485
 4137SOL    HW113310   1.560   2.616   0.413
 4137SOL    HW213311   1.596   2.495   0.517
 4138SOL     OW13312   5.159   6.735   0.027
 4138SOL    HW113313   5.144   6.747   0.125
 4138SOL    HW213314   5.081   6.688   7.010
 4139SOL     OW13315   2.121   3.704   2.993
 4139SOL    HW113316   2.099   3.608   2.972
 4139SOL    HW213317   2.169   3.744   2.915
 4140SOL     OW13318   2.245   0.858   6.296
 4140SOL    HW113319   2.273   0.929   6.361
 4140SOL    HW213320   2.256   0.768   6.339
 4141SOL     OW13321   5.309   0.534   6.230
 4141SOL    HW113322   5.234   0.592   6.263
 4141SOL    HW213323   5.272   0.460   6.174
 4142SOL     OW13324   1.077   4.950   2.409
 4142SOL    HW113325   1.129   5.025   2.368
 4142SOL    HW213326   1.064   4.968   2.507
 4143SOL     OW13327   5.823   3.297   6.557
 4143SOL    HW113328   5.914   3.317   6.593
 4143SOL    HW213329   5.775   3.235   6.619
 4144SOL     OW13330   6.426   0.597   0.561
 4144SOL    HW113331   6.441   0.540   0.642
 4144SOL    HW213332   6.471   0.555   0.482
 4145SOL     OW13333   7.009   6.880   1.472
 4145SOL    HW113334   0.077   6.918   1.483
 4145SOL    HW213335   7.016   6.782   1.454
 4146SOL     OW13336   4.763   5.911   2.802
 4146SOL    HW113337   4.788   5.849   2.727
 4146SOL    HW213338   4.844   5.960   2.833
 4147SOL     OW13339   4.677   4.862   6.282
 4147SOL    HW113340   4.741   4.939   6.279
 4147SOL    HW213341   4.586   4.893   6.255
 4148SOL     OW13342   2.342   1.216   5.600
 4148SOL    HW113343   2.355   1.277   5.679
 4148SOL    HW213344   2.328   1.123   5.632
 4149SOL     OW13345   1.968   3.430   6.560
 4149SOL    HW113346   1.892   3.374   6.526
 4149SOL    HW213347   1.932   3.500   6.623
 4150SOL     OW13348   5.517   2.049   6.522
 4150SOL    HW113349   5.587   2.103   6.476
 4150SOL    HW213350   5.561   1.977   6.575
 4151SOL     OW13351   3.164   6.024   4.020
 4151SOL    HW113352   3.158   5.991   4.114
 4151SOL    HW213353   3.205   6.116   4.020
 4152SOL     OW13354   2.679   4.660   1.255
 4152SOL    HW113355   2.747   4.588   1.267
 4152SOL    HW213356   2.668   4.710   1.340
 4153SOL     OW13357   0.035   5.779   1.442
 4153SOL    HW113358   6.969   5.823   1.441
 4153SOL    HW213359   0.028   5.690   1.397
 4154SOL     OW13360   1.189   6.352   3.582
 4154SOL    HW113361   1.154   6.445   3.584
 4154SOL    HW213362   1.168   6.306   3.669
 4155SOL     OW13363   0.703   0.869   1.286
 4155SOL    HW113364   0.778   0.883   1.351
 4155SOL    HW213365   0.616   0.871   1.335
 4156SOL     OW13366   0.465   5.257   6.294
 4156SOL    HW113367   0.547   5.223   6.248
 4156SOL    HW213368   0.492   5.323   6.365
 4157SOL     OW13369   6.503   6.216   1.440
 4157SOL    HW113370   6.534   6.140   1.383
 4157SOL    HW213371   6.581   6.253   1.490
 4158SOL     OW13372   1.115   2.554   1.381
 4158SOL    HW113373   1.016   2.556   1.364
 4158SOL    HW213374   1.148   2.647   1.395
 4159SOL     OW13375   3.286   0.763   4.362
 4159SOL    HW113376   3.318   0.789   4.271
 4159SOL    HW213377   3.225   0.833   4.398
 4160SOL     OW13378   6.662   6.935   6.876
 4160SOL    HW113379   6.724   6.949   6.799
 4160SOL    HW213380   6.590   6.871   6.849
 4161SOL     OW13381   3.620   3.361   1.711
 4161SOL    HW113382   3.590   3.382   1.804
 4161SOL    HW213383   3.666   3.442   1.672
 4162SOL     OW13384   5.162   5.665   2.083
 4162SOL    HW113385   5.133   5.597   2.015
 4162SOL    HW213386   5.239   5.629   2.135
 4163SOL     OW13387   3.605   6.335   1.656
 4163SOL    HW113388   3.581   6.385   1.739
 4163SOL    HW213389   3.522   6.315   1.604
 4164SOL     OW13390   6.801   0.639   5.501
 4164SOL    HW113391   6.717   0.642   5.446
 4164SOL    HW213392   6.789   0.575   5.576
 4165SOL     OW13393   4.518   0.781   5.057
 4165SOL    HW113394   4.571   0.816   5.135
 4165SOL    HW213395   4.539   0.835   4.975
 4166SOL     OW13396   5.567   1.434   1.545
 4166SOL    HW113397   5.623   1.391   1.616
 4166SOL    HW213398   5.625   1.460   1.468
 4167SOL     OW13399   3.693   5.486   4.139
 4167SOL    HW113400   3.623   5.486   4.211
 4167SOL    HW213401   3.710   5.580   4.109
 4168SOL     OW13402   5.083   3.664   6.598
 4168SOL    HW113403   5.069   3.722   6.517
 4168SOL    HW213404   5.181   3.648   6.610
 4169SOL     OW13405   5.059   3.309   5.357
 4169SOL    HW113406   5.017   3.332   5.269
 4169SOL    HW213407   5.059   3.390   5.416
 4170SOL     OW13408   0.382   3.229   4.028
 4170SOL    HW113409   0.364   3.254   3.933
 4170SOL    HW213410   0.302   3.248   4.083
 4171SOL     OW13411   0.624   2.767   0.400
 4171SOL    HW113412   0.609   2.830   0.476
 4171SOL    HW213413   0.633   2.674   0.435
 4172SOL     OW13414   2.566   4.538   0.998
 4172SOL    HW113415   2.559   4.500   1.091
 4172SOL    HW213416   2.560   4.637   1.002
 4173SOL     OW13417   4.684   2.283   6.110
 4173SOL    HW113418   4.732   2.226   6.043
 4173SOL    HW213419   4.734   2.281   6.197
 4174SOL     OW13420   3.588   0.421   5.247
 4174SOL    HW113421   3.503   0.421   5.300
 4174SOL    HW213422   3.574   0.369   5.162
 4175SOL     OW13423   0.889   4.779   6.756
 4175SOL    HW113424   0.798   4.751   6.787
 4175SOL    HW213425   0.957   4.754   6.825
 4176SOL     OW13426   5.047   0.178   6.200
 4176SOL    HW113427   5.028   0.262   6.251
 4176SOL    HW213428   5.070   0.200   6.106
 4177SOL     OW13429   4.137   4.741   2.974
 4177SOL    HW113430   4.204   4.815   2.983
 4177SOL    HW213431   4.088   4.752   2.888
 4178SOL     OW13432   3.952   5.445   1.195
 4178SOL    HW113433   3.949   5.355   1.152
 4178SOL    HW213434   4.029   5.497   1.156
 4179SOL     OW13435   5.300   2.689   5.429
 4179SOL    HW113436   5.276   2.592   5.435
 4179SOL    HW213437   5.251   2.731   5.353
 4180SOL     OW13438   4.435   4.203   0.056
 4180SOL    HW113439   4.494   4.122   0.052
 4180SOL    HW213440   4.413   4.223   0.151
 4181SOL     OW13441   4.675   6.802   4.588
 4181SOL    HW113442   4.578   6.804   4.610
 4181SOL    HW213443   4.728   6.796   4.673
 4182SOL     OW13444   0.298   6.243   4.320
 4182SOL    HW113445   0.338   6.285   4.238
 4182SOL    HW213446   0.241   6.310   4.367
 4183SOL     OW13447   3.487   1.975   1.245
 4183SOL    HW113448   3.573   2.026   1.246
 4183SOL    HW213449   3.481   1.917   1.326
 4184SOL     OW13450   3.460   5.508   3.522
 4184SOL    HW113451   3.551   5.549   3.518
 4184SOL    HW213452   3.399   5.555   3.458
 4185SOL     OW13453   5.722   3.169   3.125
 4185SOL    HW113454   5.754   3.100   3.060
 4185SOL    HW213455   5.794   3.237   3.140
 4186SOL     OW13456   1.487   6.203   0.681
 4186SOL    HW113457   1.504   6.206   0.780
 4186SOL    HW213458   1.405   6.256   0.660
 4187SOL     OW13459   1.852   3.628   6.708
 4187SOL    HW113460   1.801   3.593   6.786
 4187SOL    HW213461   1.816   3.718   6.682
 4188SOL     OW13462   4.495   0.182   0.594
 4188SOL    HW113463   4.438   0.229   0.662
 4188SOL    HW213464   4.483   0.083   0.603
 4189SOL     OW13465   4.931   4.687   3.892
 4189SOL    HW113466   4.937   4.709   3.795
 4189SOL    HW213467   4.840   4.710   3.926
 4190SOL     OW13468   0.041   5.921   0.861
 4190SOL    HW113469   6.967   5.932   0.879
 4190SOL    HW213470   0.060   5.945   0.766
 4191SOL     OW13471   4.642   4.634   6.445
 4191SOL    HW113472   4.669   4.719   6.400
 4191SOL    HW213473   4.670   4.637   6.541
 4192SOL     OW13474   1.101   3.459   1.373
 4192SOL    HW113475   1.127   3.411   1.457
 4192SOL    HW213476   1.024   3.519   1.391
 4193SOL     OW13477   6.920   0.043   0.708
 4193SOL    HW113478   6.927   0.002   0.799
 4193SOL    HW213479   7.001   0.099   0.691
 4194SOL     OW13480   4.315   1.320   5.297
 4194SOL    HW113481   4.310   1.303   5.395
 4194SOL    HW213482   4.234   1.281   5.252
 4195SOL     OW13483   3.354   6.074   1.361
 4195SOL    HW113484   3.328   6.012   1.436
 4195SOL    HW213485   3.310   6.044   1.276
 4196SOL     OW13486   6.415   2.879   1.822
 4196SOL    HW113487   6.382   2.787   1.799
 4196SOL    HW213488   6.476   2.873   1.902
 4197SOL     OW13489   3.780   0.593   6.751
 4197SOL    HW113490   3.869   0.547   6.753
 4197SOL    HW213491   3.713   0.537   6.800
 4198SOL     OW13492   6.096   1.923   2.430
 4198SOL    HW113493   6.156   1.934   2.508
 4198SOL    HW213494   6.148   1.933   2.345
 4199SOL     OW13495   0.658   4.129   5.874
 4199SOL    HW113496   0.577   4.070   5.882
 4199SOL    HW213497   0.716   4.117   5.954
 4200SOL     OW13498   4.540   0.976   3.335
 4200SOL    HW113499   4.605   0.900   3.342
 4200SOL    HW213500   4.586   1.062   3.356
 4201SOL     OW13501   5.494   6.487   3.736
 4201SOL    HW113502   5.457   6.573   3.773
 4201SOL    HW213503   5.443   6.410   3.772
 4202SOL     OW13504   4.945   3.980   0.912
 4202SOL    HW113505   5.040   3.962   0.940
 4202SOL    HW213506   4.909   4.057   0.965
 4203SOL     OW13507   6.160   5.711   6.379
 4203SOL    HW113508   6.084   5.647   6.393
 4203SOL    HW213509   6.147   5.759   6.293
 4204SOL     OW13510   2.190   3.441   6.709
 4204SOL    HW113511   2.117   3.411   6.648
 4204SOL    HW213512   2.261   3.487   6.655
 4205SOL     OW13513   3.985   6.542   4.982
 4205SOL    HW113514   3.970   6.452   5.021
 4205SOL    HW213515   3.898   6.579   4.949
 4206SOL     OW13516   1.386   2.659   4.637
 4206SOL    HW113517   1.432   2.570   4.642
 4206SOL    HW213518   1.343   2.670   4.548
 4207SOL     OW13519   1.365   2.509   2.200
 4207SOL    HW113520   1.342   2.584   2.262
 4207SOL    HW213521   1.362   2.542   2.106
 4208SOL     OW13522   2.090   3.602   4.930
 4208SOL    HW113523   2.121   3.689   4.890
 4208SOL    HW213524   2.160   3.566   4.991
 4209SOL     OW13525   0.024   6.490   2.441
 4209SOL    HW113526   0.094   6.560   2.459
 4209SOL    HW213527   7.001   6.467   2.527
 4210SOL     OW13528   4.046   3.389   4.962
 4210SOL    HW113529   4.099   3.393   4.877
 4210SOL    HW213530   4.000   3.477   4.976
 4211SOL     OW13531   4.136   2.399   5.576
 4211SOL    HW113532   4.103   2.416   5.669
 4211SOL    HW213533   4.082   2.454   5.512
 4212SOL     OW13534   0.156   2.789   3.207
 4212SOL    HW113535   0.117   2.775   3.298
 4212SOL    HW213536   0.215   2.870   3.208
 4213SOL     OW13537   3.406   0.659   3.410
 4213SOL    HW113538   3.373   0.747   3.376
 4213SOL    HW213539   3.471   0.675   3.484
 4214SOL     OW13540   0.647   5.616   3.982
 4214SOL    HW113541   0.596   5.604   3.897
 4214SOL    HW213542   0.705   5.537   3.997
 4215SOL     OW13543   4.810   6.318   5.450
 4215SOL    HW113544   4.898   6.271   5.460
 4215SOL    HW213545   4.739   6.250   5.432
 4216SOL     OW13546   2.719   5.766   2.048
 4216SOL    HW113547   2.641   5.710   2.019
 4216SOL    HW213548   2.695   5.863   2.040
 4217SOL     OW13549   0.719   0.735   2.777
 4217SOL    HW113550   0.705   0.675   2.857
 4217SOL    HW213551   0.739   0.828   2.808
 4218SOL     OW13552   2.712   1.464   1.834
 4218SOL    HW113553   2.808   1.489   1.831
 4218SOL    HW213554   2.702   1.366   1.819
 4219SOL     OW13555   4.614   6.260   3.622
 4219SOL    HW113556   4.536   6.200   3.642
 4219SOL    HW213557   4.696   6.205   3.609
 4220SOL     OW13558   5.099   2.432   1.756
 4220SOL    HW113559   5.159   2.376   1.814
 4220SOL    HW213560   5.088   2.523   1.798
 4221SOL     OW13561   0.526   5.774   0.058
 4221SOL    HW113562   0.488   5.852   0.108
 4221SOL    HW213563   0.585   5.721   0.119
 4222SOL     OW13564   5.086   2.792   3.714
 4222SOL    HW113565   5.093   2.841   3.628
 4222SOL    HW213566   4.997   2.808   3.756
 4223SOL     OW13567   4.167   3.566   1.869
 4223SOL    HW113568   4.218   3.571   1.783
 4223SOL    HW213569   4.074   3.600   1.854
 4224SOL     OW13570   4.909   3.362   4.708
 4224SOL    HW113571   4.967   3.285   4.681
 4224SOL    HW213572   4.813   3.338   4.693
 4225SOL     OW13573   0.037   1.940   5.688
 4225SOL    HW113574   0.107   1.869   5.679
 4225SOL    HW213575   0.036   1.997   5.606
 4226SOL     OW13576   1.635   5.452   4.843
 4226SOL    HW113577   1.721   5.502   4.840
 4226SOL    HW213578   1.560   5.517   4.855
 4227SOL     OW13579   5.373   5.659   2.422
 4227SOL    HW113580   5.329   5.570   2.419
 4227SOL    HW213581   5.304   5.730   2.439
 4228SOL     OW13582   0.989   5.066   4.084
 4228SOL    HW113583   1.018   4.987   4.030
 4228SOL    HW213584   0.937   5.034   4.164
 4229SOL     OW13585   6.533   4.744   5.531
 4229SOL    HW113586   6.444   4.730   5.487
 4229SOL    HW213587   6.598   4.676   5.496
 4230SOL     OW13588   0.237   0.708   2.197
 4230SOL    HW113589   0.151   0.659   2.184
 4230SOL    HW213590   0.225   0.805   2.176
 4231SOL     OW13591   5.671   1.845   5.613
 4231SOL    HW113592   5.702   1.751   5.602
 4231SOL    HW213593   5.644   1.882   5.524
 4232SOL     OW13594   1.608   5.635   3.714
 4232SOL    HW113595   1.651   5.599   3.796
 4232SOL    HW213596   1.666   5.706   3.674
 4233SOL     OW13597   5.252   5.138   3.724
 4233SOL    HW113598   5.259   5.048   3.765
 4233SOL    HW213599   5.173   5.141   3.662
 4234SOL     OW13600   2.814   5.886   5.817
 4234SOL    HW113601   2.834   5.955   5.887
 4234SOL    HW213602   2.900   5.847   5.785
 4235SOL     OW13603   0.441   5.614   5.656
 4235SOL    HW113604   0.394   5.702   5.644
 4235SOL    HW213605   0.496   5.617   5.739
 4236SOL     OW13606   0.411   5.439   2.901
 4236SOL    HW113607   0.468   5.457   2.821
 4236SOL    HW213608   0.318   5.473   2.885
 4237SOL     OW13609   6.662   4.587   3.717
 4237SOL    HW113610   6.595   4.578   3.791
 4237SOL    HW213611   6.747   4.541   3.743
 4238SOL     OW13612   2.299   6.812   3.205
 4238SOL    HW113613   2.379   6.757   3.181
 4238SOL    HW213614   2.264   6.858   3.124
 4239SOL     OW13615   3.938   1.109   3.663
 4239SOL    HW113616   3.938   1.209   3.671
 4239SOL    HW213617   3.970   1.083   3.571
 4240SOL     OW13618   6.987   6.269   1.314
 4240SOL    HW113619   6.907   6.325   1.333
 4240SOL    HW213620   0.016   6.310   1.240
 4241SOL     OW13621   6.408   2.831   0.312
 4241SOL    HW113622   6.446   2.901   0.372
 4241SOL    HW213623   6.356   2.765   0.366
 4242SOL     OW13624   1.985   2.045   3.673
 4242SOL    HW113625   1.973   2.089   3.585
 4242SOL    HW213626   2.035   2.105   3.735
 4243SOL     OW13627   5.262   0.331   3.303
 4243SOL    HW113628   5.212   0.261   3.354
 4243SOL    HW213629   5.198   0.380   3.242
 4244SOL     OW13630   3.476   3.725   2.474
 4244SOL    HW113631   3.553   3.765   2.424
 4244SOL    HW213632   3.420   3.672   2.411
 4245SOL     OW13633   6.047   2.354   6.286
 4245SOL    HW113634   6.090   2.263   6.287
 4245SOL    HW213635   6.032   2.385   6.380
 4246SOL     OW13636   0.950   3.708   2.069
 4246SOL    HW113637   0.877   3.745   2.012
 4246SOL    HW213638   0.954   3.757   2.156
 4247SOL     OW13639   0.244   5.551   4.914
 4247SOL    HW113640   0.225   5.627   4.853
 4247SOL    HW213641   0.341   5.527   4.909
 4248SOL     OW13642   1.335   3.176   5.368
 4248SOL    HW113643   1.405   3.117   5.326
 4248SOL    HW213644   1.338   3.165   5.468
 4249SOL     OW13645   5.530   3.953   5.940
 4249SOL    HW113646   5.594   3.876   5.937
 4249SOL    HW213647   5.549   4.014   5.863
 4250SOL     OW13648   6.953   4.884   3.239
 4250SOL    HW113649   0.015   4.914   3.198
 4250SOL    HW213650   6.946   4.784   3.233
 4251SOL     OW13651   5.725   4.703   0.452
 4251SOL    HW113652   5.801   4.684   0.515
 4251SOL    HW213653   5.651   4.637   0.470
 4252SOL     OW13654   0.919   5.276   5.942
 4252SOL    HW113655   0.922   5.193   5.886
 4252SOL    HW213656   0.965   5.351   5.892
 4253SOL     OW13657   4.431   0.306   2.708
 4253SOL    HW113658   4.461   0.383   2.651
 4253SOL    HW213659   4.376   0.243   2.653
 4254SOL     OW13660   2.514   4.223   1.401
 4254SOL    HW113661   2.542   4.314   1.371
 4254SOL    HW213662   2.587   4.158   1.383
 4255SOL     OW13663   0.146   2.876   4.445
 4255SOL    HW113664   0.171   2.972   4.450
 4255SOL    HW213665   0.066   2.859   4.502
 4256SOL     OW13666   1.886   6.834   1.433
 4256SOL    HW113667   1.933   6.803   1.351
 4256SOL    HW213668   1.926   6.789   1.513
 4257SOL     OW13669   3.785   1.832   4.649
 4257SOL    HW113670   3.691   1.814   4.680
 4257SOL    HW213671   3.841   1.858   4.728
 4258SOL     OW13672   5.568   6.708   2.603
 4258SOL    HW113673   5.628   6.785   2.625
 4258SOL    HW213674   5.598   6.628   2.656
 4259SOL     OW13675   2.371   2.332   6.858
 4259SOL    HW113676   2.463   2.313   6.823
 4259SOL    HW213677   2.377   2.398   6.933
 4260SOL     OW13678   4.793   5.549   3.328
 4260SOL    HW113679   4.866   5.603   3.286
 4260SOL    HW213680   4.704   5.587   3.301
 4261SOL     OW13681   1.413   6.294   1.944
 4261SOL    HW113682   1.380   6.385   1.965
 4261SOL    HW213683   1.512   6.291   1.956
 4262SOL     OW13684   0.909   5.070   6.873
 4262SOL    HW113685   0.817   5.097   6.901
 4262SOL    HW213686   0.904   4.985   6.821
 4263SOL     OW13687   2.922   4.492   5.823
 4263SOL    HW113688   2.928   4.589   5.803
 4263SOL    HW213689   2.921   4.440   5.738
 4264SOL     OW13690   0.338   0.974   0.857
 4264SOL    HW113691   0.319   1.045   0.925
 4264SOL    HW213692   0.318   0.884   0.897
 4265SOL     OW13693   6.697   1.520   0.833
 4265SOL    HW113694   6.667   1.437   0.786
 4265SOL    HW213695   6.788   1.505   0.871
 4266SOL     OW13696   2.602   5.579   0.255
 4266SOL    HW113697   2.580   5.484   0.276
 4266SOL    HW213698   2.690   5.604   0.296
 4267SOL     OW13699   1.670   3.786   5.426
 4267SOL    HW113700   1.752   3.824   5.469
 4267SOL    HW213701   1.642   3.845   5.351
 4268SOL     OW13702   2.233   0.887   0.728
 4268SOL    HW113703   2.244   0.925   0.636
 4268SOL    HW213704   2.231   0.962   0.794
 4269SOL     OW13705   3.464   3.144   0.175
 4269SOL    HW113706   3.561   3.156   0.195
 4269SOL    HW213707   3.450   3.151   0.076
 4270SOL     OW13708   3.166   3.256   5.046
 4270SOL    HW113709   3.204   3.168   5.072
 4270SOL    HW213710   3.078   3.270   5.093
 4271SOL     OW13711   0.812   0.026   6.105
 4271SOL    HW113712   0.784   6.964   6.064
 4271SOL    HW213713   0.732   0.077   6.135
 4272SOL     OW13714   6.801   4.611   4.943
 4272SOL    HW113715   6.812   4.530   4.886
 4272SOL    HW213716   6.875   4.676   4.924
 4273SOL     OW13717   5.158   6.887   5.607
 4273SOL    HW113718   5.146   6.980   5.642
 4273SOL    HW213719   5.251   6.876   5.572
 4274SOL     OW13720   1.600   6.550   3.400
 4274SOL    HW113721   1.615   6.647   3.417
 4274SOL    HW213722   1.503   6.534   3.380
 4275SOL     OW13723   1.135   0.223   6.307
 4275SOL    HW113724   1.134   0.193   6.211
 4275SOL    HW213725   1.164   0.147   6.365
 4276SOL     OW13726   2.058   4.361   2.721
 4276SOL    HW113727   1.985   4.293   2.722
 4276SOL    HW213728   2.143   4.317   2.690
 4277SOL     OW13729   6.894   5.430   3.857
 4277SOL    HW113730   6.992   5.429   3.877
 4277SOL    HW213731   6.856   5.339   3.872
 4278SOL     OW13732   6.886   6.594   4.762
 4278SOL    HW113733   6.832   6.660   4.711
 4278SOL    HW213734   6.843   6.504   4.758
 4279SOL     OW13735   3.486   6.437   5.230
 4279SOL    HW113736   3.484   6.434   5.330
 4279SOL    HW213737   3.396   6.413   5.194
 4280SOL     OW13738   5.947   2.076   4.700
 4280SOL    HW113739   5.924   2.171   4.721
 4280SOL    HW213740   6.037   2.073   4.657
 4281SOL     OW13741   2.263   4.311   5.094
 4281SOL    HW113742   2.294   4.220   5.068
 4281SOL    HW213743   2.232   4.310   5.189
 4282SOL     OW13744   2.043   2.512   0.978
 4282SOL    HW113745   2.002   2.582   1.038
 4282SOL    HW213746   2.043   2.545   0.884
 4283SOL     OW13747   1.840   0.295   4.402
 4283SOL    HW113748   1.839   0.373   4.340
 4283SOL    HW213749   1.903   0.313   4.477
 4284SOL     OW13750   5.633   2.100   2.309
 4284SOL    HW113751   5.607   2.193   2.335
 4284SOL    HW213752   5.555   2.056   2.264
 4285SOL     OW13753   1.131   0.163   5.528
 4285SOL    HW113754   1.072   0.204   5.459
 4285SOL    HW213755   1.197   0.102   5.484
 4286SOL     OW13756   4.763   5.980   0.091
 4286SOL    HW113757   4.675   5.931   0.090
 4286SOL    HW213758   4.826   5.937   0.027
 4287SOL     OW13759   5.943   0.128   4.779
 4287SOL    HW113760   5.893   0.063   4.837
 4287SOL    HW213761   5.962   0.085   4.691
 4288SOL     OW13762   1.552   6.643   2.694
 4288SOL    HW113763   1.589   6.671   2.782
 4288SOL    HW213764   1.609   6.569   2.656
 4289SOL     OW13765   5.606   2.732   1.188
 4289SOL    HW113766   5.671   2.675   1.137
 4289SOL    HW213767   5.650   2.819   1.212
 4290SOL     OW13768   2.150   0.767   1.739
 4290SOL    HW113769   2.158   0.683   1.686
 4290SOL    HW213770   2.241   0.809   1.748
 4291SOL     OW13771   5.839   3.522   0.777
 4291SOL    HW113772   5.908   3.571   0.830
 4291SOL    HW213773   5.785   3.465   0.838
 4292SOL     OW13774   5.753   4.692   6.567
 4292SOL    HW113775   5.842   4.737   6.579
 4292SOL    HW213776   5.765   4.593   6.574
 4293SOL     OW13777   0.173   3.056   6.899
 4293SOL    HW113778   0.220   3.058   6.987
 4293SOL    HW213779   0.092   2.998   6.906
 4294SOL     OW13780   4.101   2.232   5.937
 4294SOL    HW113781   4.058   2.307   5.887
 4294SOL    HW213782   4.077   2.145   5.894
 4295SOL     OW13783   3.707   0.226   4.382
 4295SOL    HW113784   3.727   0.128   4.388
 4295SOL    HW213785   3.704   0.265   4.474
 4296SOL     OW13786   2.410   1.732   1.388
 4296SOL    HW113787   2.343   1.770   1.325
 4296SOL    HW213788   2.476   1.803   1.413
 4297SOL     OW13789   5.744   0.806   5.542
 4297SOL    HW113790   5.780   0.747   5.615
 4297SOL    HW213791   5.794   0.790   5.457
 4298SOL     OW13792   2.875   5.965   1.421
 4298SOL    HW113793   2.882   5.950   1.520
 4298SOL    HW213794   2.785   5.933   1.390
 4299SOL     OW13795   0.926   3.681   6.333
 4299SOL    HW113796   1.018   3.702   6.299
 4299SOL    HW213797   0.859   3.704   6.263
 4300SOL     OW13798   3.901   1.272   6.899
 4300SOL    HW113799   3.842   1.249   6.822
 4300SOL    HW213800   3.992   1.295   6.865
 4301SOL     OW13801   2.578   1.849   0.643
 4301SOL    HW113802   2.516   1.917   0.682
 4301SOL    HW213803   2.622   1.798   0.716
 4302SOL     OW13804   1.137   6.468   0.024
 4302SOL    HW113805   1.103   6.501   6.960
 4302SOL    HW213806   1.133   6.541   0.092
 4303SOL     OW13807   0.003   3.665   2.211
 4303SOL    HW113808   0.021   3.740   2.146
 4303SOL    HW213809   0.058   3.585   2.186
 4304SOL     OW13810   3.528   3.506   3.864
 4304SOL    HW113811   3.532   3.414   3.904
 4304SOL    HW213812   3.438   3.546   3.880
 4305SOL     OW13813   6.219   1.285   3.772
 4305SOL    HW113814   6.137   1.228   3.779
 4305SOL    HW213815   6.262   1.271   3.683
 4306SOL     OW13816   6.662   4.308   5.831
 4306SOL    HW113817   6.675   4.388   5.891
 4306SOL    HW213818   6.690   4.225   5.880
 4307SOL     OW13819   4.837   4.100   6.125
 4307SOL    HW113820   4.793   4.123   6.212
 4307SOL    HW213821   4.779   4.130   6.049
 4308SOL     OW13822   5.056   5.665   4.690
 4308SOL    HW113823   5.091   5.749   4.731
 4308SOL    HW213824   5.004   5.614   4.758
 4309SOL     OW13825   1.663   1.220   0.513
 4309SOL    HW113826   1.713   1.142   0.553
 4309SOL    HW213827   1.708   1.305   0.540
 4310SOL     OW13828   1.927   2.062   2.906
 4310SOL    HW113829   1.978   2.060   2.819
 4310SOL    HW213830   1.944   2.149   2.952
 4311SOL     OW13831   1.884   6.083   3.407
 4311SOL    HW113832   1.957   6.016   3.417
 4311SOL    HW213833   1.876   6.137   3.491
 4312SOL     OW13834   2.096   5.566   2.157
 4312SOL    HW113835   2.191   5.540   2.142
 4312SOL    HW213836   2.036   5.490   2.132
 4313SOL     OW13837   4.631   1.539   1.821
 4313SOL    HW113838   4.583   1.548   1.909
 4313SOL    HW213839   4.595   1.461   1.771
 4314SOL     OW13840   4.964   3.427   2.547
 4314SOL    HW113841   4.971   3.394   2.453
 4314SOL    HW213842   4.942   3.350   2.608
 4315SOL     OW13843   2.793   0.516   2.039
 4315SOL    HW113844   2.835   0.445   1.983
 4315SOL    HW213845   2.740   0.577   1.981
 4316SOL     OW13846   5.730   0.598   1.812
 4316SOL    HW113847   5.726   0.570   1.908
 4316SOL    HW213848   5.725   0.698   1.805
 4317SOL     OW13849   3.410   1.242   4.108
 4317SOL    HW113850   3.335   1.199   4.058
 4317SOL    HW213851   3.379   1.329   4.147
 4318SOL     OW13852   0.561   3.185   3.596
 4318SOL    HW113853   0.469   3.187   3.637
 4318SOL    HW213854   0.588   3.091   3.581
 4319SOL     OW13855   2.847   3.553   6.348
 4319SOL    HW113856   2.800   3.620   6.405
 4319SOL    HW213857   2.896   3.488   6.406
 4320SOL     OW13858   0.599   6.836   2.952
 4320SOL    HW113859   0.539   6.760   2.929
 4320SOL    HW213860   0.596   6.853   3.051
 4321SOL     OW13861   6.791   0.333   5.163
 4321SOL    HW113862   6.839   0.247   5.179
 4321SOL    HW213863   6.846   0.393   5.106
 4322SOL     OW13864   6.119   0.959   0.250
 4322SOL    HW113865   6.148   0.889   0.316
 4322SOL    HW213866   6.172   0.949   0.166
 4323SOL     OW13867   6.659   3.322   2.436
 4323SOL    HW113868   6.653   3.259   2.359
 4323SOL    HW213869   6.568   3.335   2.475
 4324SOL     OW13870   6.080   4.446   6.346
 4324SOL    HW113871   6.137   4.365   6.335
 4324SOL    HW213872   6.041   4.446   6.438
 4325SOL     OW13873   1.851   1.430   6.811
 4325SOL    HW113874   1.817   1.390   6.896
 4325SOL    HW213875   1.773   1.461   6.756
 4326SOL     OW13876   6.311   2.932   5.536
 4326SOL    HW113877   6.338   2.983   5.618
 4326SOL    HW213878   6.251   2.990   5.480
 4327SOL     OW13879   6.130   6.309   1.928
 4327SOL    HW113880   6.228   6.325   1.914
 4327SOL    HW213881   6.091   6.388   1.974
 4328SOL     OW13882   4.857   5.491   6.718
 4328SOL    HW113883   4.838   5.511   6.815
 4328SOL    HW213884   4.816   5.562   6.661
 4329SOL     OW13885   3.984   2.022   5.810
 4329SOL    HW113886   3.945   2.088   5.746
 4329SOL    HW213887   3.989   1.932   5.766
 4330SOL     OW13888   1.258   0.346   6.037
 4330SOL    HW113889   1.267   0.426   6.097
 4330SOL    HW213890   1.162   0.318   6.033
 4331SOL     OW13891   5.867   2.570   6.552
 4331SOL    HW113892   5.805   2.543   6.626
 4331SOL    HW213893   5.901   2.662   6.570
 4332SOL     OW13894   5.030   3.223   1.997
 4332SOL    HW113895   5.115   3.172   1.983
 4332SOL    HW213896   4.955   3.159   2.015
 4333SOL     OW13897   5.650   1.094   4.776
 4333SOL    HW113898   5.612   1.059   4.861
 4333SOL    HW213899   5.650   1.194   4.778
 4334SOL     OW13900   3.973   2.173   2.333
 4334SOL    HW113901   3.910   2.103   2.298
 4334SOL    HW213902   3.924   2.234   2.396
 4335SOL     OW13903   3.254   4.115   4.894
 4335SOL    HW113904   3.224   4.104   4.989
 4335SOL    HW213905   3.201   4.055   4.834
 4336SOL     OW13906   1.256   6.441   5.017
 4336SOL    HW113907   1.163   6.441   4.981
 4336SOL    HW213908   1.308   6.516   4.975
 4337SOL     OW13909   6.846   5.184   0.213
 4337SOL    HW113910   6.758   5.223   0.186
 4337SOL    HW213911   6.897   5.158   0.130
 4338SOL     OW13912   6.509   6.134   4.168
 4338SOL    HW113913   6.575   6.081   4.222
 4338SOL    HW213914   6.555   6.169   4.086
 4339SOL     OW13915   5.942   1.992   5.247
 4339SOL    HW113916   5.912   2.010   5.154
 4339SOL    HW213917   5.981   1.900   5.252
 4340SOL     OW13918   5.605   4.181   1.156
 4340SOL    HW113919   5.697   4.161   1.189
 4340SOL    HW213920   5.545   4.103   1.172
 4341SOL     OW13921   1.860   4.133   1.712
 4341SOL    HW113922   1.955   4.120   1.740
 4341SOL    HW213923   1.821   4.211   1.761
 4342SOL     OW13924   0.821   2.902   2.731
 4342SOL    HW113925   0.899   2.931   2.676
 4342SOL    HW213926   0.769   2.833   2.680
 4343SOL     OW13927   2.899   1.503   0.965
 4343SOL    HW113928   2.877   1.572   1.035
 4343SOL    HW213929   2.890   1.412   1.005
 4344SOL     OW13930   1.824   5.075   3.247
 4344SOL    HW113931   1.844   5.029   3.333
 4344SOL    HW213932   1.906   5.073   3.189
 4345SOL     OW13933   1.699   2.524   5.276
 4345SOL    HW113934   1.742   2.435   5.263
 4345SOL    HW213935   1.627   2.517   5.345
 4346SOL     OW13936   2.001   3.450   1.884
 4346SOL    HW113937   2.084   3.487   1.925
 4346SOL    HW213938   2.018   3.423   1.790
 4347SOL     OW13939   5.760   6.952   2.724
 4347SOL    HW113940   5.805   6.875   2.769
 4347SOL    HW213941   5.739   7.023   2.793
 4348SOL     OW13942   1.715   3.833   0.480
 4348SOL    HW113943   1.661   3.779   0.416
 4348SOL    HW213944   1.732   3.924   0.441
 4349SOL     OW13945   0.274   1.219   3.672
 4349SOL    HW113946   0.354   1.162   3.651
 4349SOL    HW213947   0.251   1.274   3.592
 4350SOL     OW13948   5.538   2.291   4.276
 4350SOL    HW113949   5.539   2.229   4.198
 4350SOL    HW213950   5.510   2.240   4.358
 4351SOL     OW13951   3.115   5.961   1.928
 4351SOL    HW113952   3.052   6.029   1.966
 4351SOL    HW213953   3.064   5.880   1.902
 4352SOL     OW13954   6.523   1.482   2.126
 4352SOL    HW113955   6.536   1.580   2.141
 4352SOL    HW213956   6.488   1.440   2.210
 4353SOL     OW13957   3.626   5.825   6.835
 4353SOL    HW113958   3.528   5.808   6.829
 4353SOL    HW213959   3.644   5.894   6.905
 4354SOL     OW13960   2.677   0.127   6.951
 4354SOL    HW113961   2.613   0.115   6.875
 4354SOL    HW213962   2.738   0.204   6.931
 4355SOL     OW13963   4.191   1.344   0.511
 4355SOL    HW113964   4.121   1.292   0.561
 4355SOL    HW213965   4.239   1.405   0.574
 4356SOL     OW13966   4.118   4.215   0.579
 4356SOL    HW113967   4.120   4.123   0.618
 4356SOL    HW213968   4.036   4.225   0.523
 4357SOL     OW13969   6.464   0.334   0.204
 4357SOL    HW113970   6.547   0.317   0.151
 4357SOL    HW213971   6.386   0.293   0.157
 4358SOL     OW13972   0.631   0.109   1.694
 4358SOL    HW113973   0.716   0.150   1.727
 4358SOL    HW213974   0.586   0.173   1.631
 4359SOL     OW13975   0.392   2.373   3.923
 4359SOL    HW113976   0.430   2.394   4.013
 4359SOL    HW213977   0.293   2.362   3.931
 4360SOL     OW13978   1.019   3.000   1.471
 4360SOL    HW113979   1.087   2.929   1.482
 4360SOL    HW213980   0.927   2.960   1.476
 4361SOL     OW13981   5.008   2.652   1.916
 4361SOL    HW113982   4.942   2.712   1.872
 4361SOL    HW213983   5.053   2.701   1.991
 4362SOL     OW13984   6.554   4.176   4.926
 4362SOL    HW113985   6.457   4.172   4.952
 4362SOL    HW213986   6.561   4.183   4.826
 4363SOL     OW13987   5.139   3.039   5.400
 4363SOL    HW113988   5.153   3.018   5.304
 4363SOL    HW213989   5.095   3.128   5.409
 4364SOL     OW13990   3.099   4.020   4.531
 4364SOL    HW113991   3.056   4.094   4.480
 4364SOL    HW213992   3.138   3.954   4.466
 4365SOL     OW13993   4.241   2.139   2.684
 4365SOL    HW113994   4.291   2.225   2.672
 4365SOL    HW213995   4.290   2.065   2.638
 4366SOL     OW13996   5.588   5.846   1.306
 4366SOL    HW113997   5.648   5.910   1.257
 4366SOL    HW213998   5.512   5.820   1.247
 4367SOL     OW13999   1.570   6.102   6.213
 4367SOL    HW114000   1.631   6.152   6.152
 4367SOL    HW214001   1.622   6.068   6.292
 4368SOL     OW14002   5.556   3.999   1.638
 4368SOL    HW114003   5.615   3.952   1.572
 4368SOL    HW214004   5.507   4.073   1.592
 4369SOL     OW14005   4.067   5.484   1.986
 4369SOL    HW114006   4.018   5.471   1.899
 4369SOL    HW214007   4.115   5.572   1.983
 4370SOL     OW14008   5.912   4.672   4.152
 4370SOL    HW114009   5.854   4.707   4.225
 4370SOL    HW214010   5.858   4.656   4.070
 4371SOL     OW14011   5.678   1.172   2.209
 4371SOL    HW114012   5.658   1.189   2.306
 4371SOL    HW214013   5.692   1.259   2.162
 4372SOL     OW14014   4.175   1.407   3.675
 4372SOL    HW114015   4.157   1.500   3.708
 4372SOL    HW214016   4.181   1.346   3.754
 4373SOL     OW14017   6.397   1.876   6.548
 4373SOL    HW114018   6.484   1.825   6.553
 4373SOL    HW214019   6.323   1.812   6.528
 4374SOL     OW14020   2.199   2.643   1.791
 4374SOL    HW114021   2.104   2.663   1.767
 4374SOL    HW214022   2.257   2.718   1.760
 4375SOL     OW14023   2.585   6.608   4.932
 4375SOL    HW114024   2.523   6.682   4.957
 4375SOL    HW214025   2.679   6.637   4.947
 4376SOL     OW14026   5.796   0.607   3.071
 4376SOL    HW114027   5.871   0.653   3.117
 4376SOL    HW214028   5.817   0.600   2.973
 4377SOL     OW14029   5.823   4.221   6.682
 4377SOL    HW114030   5.765   4.140   6.685
 4377SOL    HW214031   5.915   4.198   6.715
 4378SOL     OW14032   1.693   0.097   4.308
 4378SOL    HW114033   1.752   0.070   4.233
 4378SOL    HW214034   1.730   0.179   4.352
 4379SOL     OW14035   2.590   2.143   4.944
 4379SOL    HW114036   2.495   2.136   4.916
 4379SOL    HW214037   2.625   2.234   4.924
 4380SOL     OW14038   0.199   1.366   1.939
 4380SOL    HW114039   0.282   1.352   1.994
 4380SOL    HW214040   0.121   1.325   1.986
 4381SOL     OW14041   2.392   6.356   5.834
 4381SOL    HW114042   2.384   6.281   5.899
 4381SOL    HW214043   2.473   6.342   5.777
 4382SOL     OW14044   0.131   3.475   5.703
 4382SOL    HW114045   0.082   3.519   5.628
 4382SOL    HW214046   0.069   3.412   5.751
 4383SOL     OW14047   5.321   2.889   6.721
 4383SOL    HW114048   5.385   2.877   6.797
 4383SOL    HW214049   5.291   2.799   6.689
 4384SOL     OW14050   6.280   6.523   3.642
 4384SOL    HW114051   6.364   6.501   3.693
 4384SOL    HW214052   6.216   6.570   3.703
 4385SOL     OW14053   5.832   1.750   4.370
 4385SOL    HW114054   5.891   1.797   4.305
 4385SOL    HW214055   5.868   1.761   4.462
 4386SOL     OW14056   0.777   3.261   5.128
 4386SOL    HW114057   0.829   3.187   5.172
 4386SOL    HW214058   0.680   3.250   5.147
 4387SOL     OW14059   6.633   1.969   0.340
 4387SOL    HW114060   6.540   1.934   0.353
 4387SOL    HW214061   6.696   1.915   0.396
 4388SOL     OW14062   4.618   1.795   6.393
 4388SOL    HW114063   4.701   1.773   6.444
 4388SOL    HW214064   4.641   1.805   6.296
 4389SOL     OW14065   0.103   3.655   1.584
 4389SOL    HW114066   0.194   3.696   1.575
 4389SOL    HW214067   0.059   3.652   1.494
 4390SOL     OW14068   6.120   0.812   1.660
 4390SOL    HW114069   6.083   0.774   1.745
 4390SOL    HW214070   6.046   0.849   1.605
 4391SOL     OW14071   2.222   5.986   6.393
 4391SOL    HW114072   2.318   5.986   6.365
 4391SOL    HW214073   2.179   5.900   6.365
 4392SOL     OW14074   2.050   2.322   5.075
 4392SOL    HW114075   1.996   2.238   5.074
 4392SOL    HW214076   2.101   2.329   4.989
 4393SOL     OW14077   4.858   0.059   1.852
 4393SOL    HW114078   4.882   0.016   1.940
 4393SOL    HW214079   4.939   0.062   1.794
 4394SOL     OW14080   1.264   0.456   1.479
 4394SOL    HW114081   1.202   0.395   1.429
 4394SOL    HW214082   1.331   0.401   1.529
 4395SOL     OW14083   2.639   5.483   1.069
 4395SOL    HW114084   2.580   5.403   1.083
 4395SOL    HW214085   2.626   5.547   1.145
 4396SOL     OW14086   2.078   0.397   3.429
 4396SOL    HW114087   2.176   0.397   3.410
 4396SOL    HW214088   2.033   0.330   3.370
 4397SOL     OW14089   2.928   2.012   4.163
 4397SOL    HW114090   2.895   1.950   4.234
 4397SOL    HW214091   3.018   2.048   4.188
 4398SOL     OW14092   2.035   2.960   5.717
 4398SOL    HW114093   2.036   3.059   5.730
 4398SOL    HW214094   2.044   2.939   5.619
 4399SOL     OW14095   3.396   6.888   1.981
 4399SOL    HW114096   3.478   6.934   2.015
 4399SOL    HW214097   3.377   6.918   1.887
 4400SOL     OW14098   2.363   5.651   5.061
 4400SOL    HW114099   2.434   5.613   5.002
 4400SOL    HW214100   2.402   5.670   5.151
 4401SOL     OW14101   3.673   6.830   6.121
 4401SOL    HW114102   3.701   6.897   6.189
 4401SOL    HW214103   3.600   6.867   6.065
 4402SOL     OW14104   1.137   0.416   3.202
 4402SOL    HW114105   1.164   0.351   3.273
 4402SOL    HW214106   1.153   0.375   3.112
 4403SOL     OW14107   1.198   4.788   1.055
 4403SOL    HW114108   1.119   4.819   1.109
 4403SOL    HW214109   1.282   4.810   1.105
 4404SOL     OW14110   0.335   6.151   6.534
 4404SOL    HW114111   0.388   6.221   6.486
 4404SOL    HW214112   0.380   6.063   6.525
 4405SOL     OW14113   1.984   4.922   3.471
 4405SOL    HW114114   1.926   4.927   3.552
 4405SOL    HW214115   2.052   4.850   3.482
 4406SOL     OW14116   6.033   3.602   2.306
 4406SOL    HW114117   6.049   3.520   2.251
 4406SOL    HW214118   5.937   3.606   2.333
 4407SOL     OW14119   6.419   6.426   1.967
 4407SOL    HW114120   6.445   6.520   1.947
 4407SOL    HW214121   6.441   6.405   2.062
 4408SOL     OW14122   4.143   0.433   1.397
 4408SOL    HW114123   4.207   0.356   1.392
 4408SOL    HW214124   4.053   0.399   1.425
 4409SOL     OW14125   3.632   0.767   2.340
 4409SOL    HW114126   3.649   0.865   2.349
 4409SOL    HW214127   3.534   0.751   2.327
 4410SOL     OW14128   0.844   5.917   1.239
 4410SOL    HW114129   0.881   5.882   1.153
 4410SOL    HW214130   0.763   5.972   1.221
 4411SOL     OW14131   3.338   4.421   5.280
 4411SOL    HW114132   3.310   4.340   5.332
 4411SOL    HW214133   3.257   4.463   5.238
 4412SOL     OW14134   4.792   6.340   2.523
 4412SOL    HW114135   4.709   6.296   2.489
 4412SOL    HW214136   4.768   6.405   2.595
 4413SOL     OW14137   4.540   6.441   3.426
 4413SOL    HW114138   4.471   6.504   3.461
 4413SOL    HW214139   4.563   6.375   3.498
 4414SOL     OW14140   4.292   4.128   1.158
 4414SOL    HW114141   4.276   4.225   1.172
 4414SOL    HW214142   4.373   4.115   1.101
 4415SOL     OW14143   3.130   3.828   1.387
 4415SOL    HW114144   3.134   3.817   1.487
 4415SOL    HW214145   3.035   3.844   1.359
 4416SOL     OW14146   4.693   2.639   3.068
 4416SOL    HW114147   4.698   2.665   3.164
 4416SOL    HW214148   4.786   2.629   3.031
 4417SOL     OW14149   0.796   3.629   3.763
 4417SOL    HW114150   0.818   3.540   3.802
 4417SOL    HW214151   0.783   3.620   3.664
 4418SOL     OW14152   6.268   6.975   0.078
 4418SOL    HW114153   6.279   6.935   0.169
 4418SOL    HW214154   6.212   6.914   0.022
 4419SOL     OW14155   6.324   5.711   6.601
 4419SOL    HW114156   6.421   5.731   6.591
 4419SOL    HW214157   6.278   5.725   6.514
 4420SOL     OW14158   3.463   2.504   0.813
 4420SOL    HW114159   3.519   2.437   0.861
 4420SOL    HW214160   3.518   2.550   0.743
 4421SOL     OW14161   1.369   2.712   5.016
 4421SOL    HW114162   1.469   2.719   5.020
 4421SOL    HW214163   1.331   2.715   5.108
 4422SOL     OW14164   6.885   4.499   6.829
 4422SOL    HW114165   6.940   4.416   6.820
 4422SOL    HW214166   6.932   4.564   6.890
 4423SOL     OW14167   5.316   4.089   4.978
 4423SOL    HW114168   5.330   4.005   5.030
 4423SOL    HW214169   5.243   4.143   5.020
 4424SOL     OW14170   4.696   5.754   3.688
 4424SOL    HW114171   4.684   5.667   3.734
 4424SOL    HW214172   4.613   5.776   3.636
 4425SOL     OW14173   1.569   5.681   1.751
 4425SOL    HW114174   1.496   5.665   1.818
 4425SOL    HW214175   1.580   5.779   1.737
 4426SOL     OW14176   1.109   6.987   4.188
 4426SOL    HW114177   1.090   6.897   4.227
 4426SOL    HW214178   1.118   6.979   4.089
 4427SOL     OW14179   2.980   6.225   2.642
 4427SOL    HW114180   2.999   6.127   2.638
 4427SOL    HW214181   2.887   6.242   2.609
 4428SOL     OW14182   6.111   0.720   3.884
 4428SOL    HW114183   6.124   0.818   3.874
 4428SOL    HW214184   6.092   0.698   3.980
 4429SOL     OW14185   2.182   6.305   3.794
 4429SOL    HW114186   2.139   6.387   3.832
 4429SOL    HW214187   2.236   6.331   3.714
 4430SOL     OW14188   4.922   4.494   5.122
 4430SOL    HW114189   4.845   4.431   5.128
 4430SOL    HW214190   4.922   4.537   5.031
 4431SOL     OW14191   3.310   0.317   4.055
 4431SOL    HW114192   3.225   0.306   4.003
 4431SOL    HW214193   3.288   0.331   4.152
 4432SOL     OW14194   1.263   3.899   6.365
 4432SOL    HW114195   1.219   3.989   6.365
 4432SOL    HW214196   1.361   3.911   6.380
 4433SOL     OW14197   0.900   0.798   4.991
 4433SOL    HW114198   0.916   0.801   4.892
 4433SOL    HW214199   0.932   0.883   5.033
 4434SOL     OW14200   6.931   0.611   2.068
 4434SOL    HW114201   6.871   0.555   2.125
 4434SOL    HW214202   6.919   0.707   2.091
 4435SOL     OW14203   2.578   3.657   0.122
 4435SOL    HW114204   2.674   3.664   0.095
 4435SOL    HW214205   2.520   3.650   0.041
 4436SOL     OW14206   4.479   1.345   1.644
 4436SOL    HW114207   4.473   1.330   1.545
 4436SOL    HW214208   4.448   1.438   1.665
 4437SOL     OW14209   6.946   3.854   1.157
 4437SOL    HW114210   0.005   3.908   1.168
 4437SOL    HW214211   6.943   3.815   1.064
 4438SOL     OW14212   3.961   0.376   6.246
 4438SOL    HW114213   3.961   0.473   6.270
 4438SOL    HW214214   4.023   0.326   6.306
 4439SOL     OW14215   2.058   6.472   2.180
 4439SOL    HW114216   2.050   6.476   2.080
 4439SOL    HW214217   2.150   6.441   2.205
 4440SOL     OW14218   1.517   4.833   6.938
 4440SOL    HW114219   1.450   4.815   6.867
 4440SOL    HW214220   1.494   4.917   6.986
 4441SOL     OW14221   0.264   1.184   0.423
 4441SOL    HW114222   0.202   1.119   0.380
 4441SOL    HW214223   0.317   1.138   0.494
 4442SOL     OW14224   2.176   4.665   6.423
 4442SOL    HW114225   2.098   4.604   6.441
 4442SOL    HW214226   2.175   4.692   6.327
 4443SOL     OW14227   0.163   5.315   6.227
 4443SOL    HW114228   0.262   5.332   6.221
 4443SOL    HW214229   0.127   5.296   6.136
 4444SOL     OW14230   5.263   4.080   0.014
 4444SOL    HW114231   5.331   4.121   0.074
 4444SOL    HW214232   5.191   4.146   7.018
 4445SOL     OW14233   0.129   5.660   0.413
 4445SOL    HW114234   0.163   5.736   0.359
 4445SOL    HW214235   0.061   5.608   0.361
 4446SOL     OW14236   5.115   0.620   0.994
 4446SOL    HW114237   5.064   0.697   0.956
 4446SOL    HW214238   5.128   0.633   1.092
 4447SOL     OW14239   5.232   5.116   5.475
 4447SOL    HW114240   5.137   5.089   5.456
 4447SOL    HW214241   5.259   5.186   5.410
 4448SOL     OW14242   3.833   6.542   2.160
 4448SOL    HW114243   3.769   6.466   2.164
 4448SOL    HW214244   3.904   6.531   2.230
 4449SOL     OW14245   3.401   1.143   5.240
 4449SOL    HW114246   3.319   1.118   5.292
 4449SOL    HW214247   3.466   1.188   5.301
 4450SOL     OW14248   3.653   0.139   0.191
 4450SOL    HW114249   3.682   0.214   0.251
 4450SOL    HW214250   3.711   0.059   0.208
 4451SOL     OW14251   4.894   4.259   3.095
 4451SOL    HW114252   4.876   4.248   2.997
 4451SOL    HW214253   4.861   4.178   3.144
 4452SOL     OW14254   4.793   5.847   4.681
 4452SOL    HW114255   4.766   5.929   4.733
 4452SOL    HW214256   4.893   5.843   4.677
 4453SOL     OW14257   0.207   3.811   0.919
 4453SOL    HW114258   0.229   3.862   0.835
 4453SOL    HW214259   0.247   3.859   0.997
 4454SOL     OW14260   0.895   2.744   6.841
 4454SOL    HW114261   0.859   2.833   6.870
 4454SOL    HW214262   0.888   2.737   6.741
 4455SOL     OW14263   0.559   6.503   5.054
 4455SOL    HW114264   0.656   6.510   5.033
 4455SOL    HW214265   0.545   6.512   5.153
 4456SOL     OW14266   2.002   6.959   4.814
 4456SOL    HW114267   1.942   0.004   4.774
 4456SOL    HW214268   2.071   6.933   4.748
 4457SOL     OW14269   0.901   2.406   4.722
 4457SOL    HW114270   0.964   2.443   4.789
 4457SOL    HW214271   0.814   2.382   4.766
 4458SOL     OW14272   1.925   3.467   0.168
 4458SOL    HW114273   1.924   3.412   0.085
 4458SOL    HW214274   1.998   3.435   0.228
 4459SOL     OW14275   1.102   2.463   3.024
 4459SOL    HW114276   1.141   2.391   2.966
 4459SOL    HW214277   1.140   2.456   3.116
 4460SOL     OW14278   6.734   3.301   4.065
 4460SOL    HW114279   6.635   3.289   4.074
 4460SOL    HW214280   6.770   3.340   4.150
 4461SOL     OW14281   2.830   0.850   1.190
 4461SOL    HW114282   2.905   0.911   1.163
 4461SOL    HW214283   2.817   0.856   1.289
 4462SOL     OW14284   6.470   4.623   2.973
 4462SOL    HW114285   6.481   4.569   3.056
 4462SOL    HW214286   6.410   4.700   2.991
 4463SOL     OW14287   5.972   1.780   0.560
 4463SOL    HW114288   5.961   1.720   0.480
 4463SOL    HW214289   5.968   1.724   0.643
 4464SOL     OW14290   0.491   5.289   0.318
 4464SOL    HW114291   0.493   5.318   0.414
 4464SOL    HW214292   0.443   5.202   0.311
 4465SOL     OW14293   2.755   5.878   1.025
 4465SOL    HW114294   2.718   5.888   0.933
 4465SOL    HW214295   2.779   5.968   1.061
 4466SOL     OW14296   1.675   1.851   3.361
 4466SOL    HW114297   1.647   1.913   3.287
 4466SOL    HW214298   1.689   1.903   3.445
 4467SOL     OW14299   4.069   6.192   3.113
 4467SOL    HW114300   4.128   6.197   3.033
 4467SOL    HW214301   3.980   6.234   3.092
 4468SOL     OW14302   1.501   3.245   1.466
 4468SOL    HW114303   1.561   3.185   1.413
 4468SOL    HW214304   1.549   3.276   1.548
 4469SOL     OW14305   3.313   6.415   0.986
 4469SOL    HW114306   3.317   6.342   0.919
 4469SOL    HW214307   3.374   6.394   1.062
 4470SOL     OW14308   1.445   0.350   2.603
 4470SOL    HW114309   1.542   0.350   2.579
 4470SOL    HW214310   1.393   0.309   2.528
 4471SOL     OW14311   1.122   1.089   6.356
 4471SOL    HW114312   1.079   1.001   6.371
 4471SOL    HW214313   1.185   1.109   6.432
 4472SOL     OW14314   1.644   2.329   0.539
 4472SOL    HW114315   1.662   2.238   0.501
 4472SOL    HW214316   1.631   2.322   0.638
 4473SOL     OW14317   6.934   3.184   4.551
 4473SOL    HW114318   6.861   3.249   4.571
 4473SOL    HW214319   6.909   3.131   4.469
 4474SOL     OW14320   3.054   5.870   0.929
 4474SOL    HW114321   2.983   5.881   0.859
 4474SOL    HW214322   3.029   5.794   0.989
 4475SOL     OW14323   1.375   3.543   1.546
 4475SOL    HW114324   1.380   3.553   1.447
 4475SOL    HW214325   1.322   3.462   1.570
 4476SOL     OW14326   4.694   1.421   3.570
 4476SOL    HW114327   4.718   1.361   3.646
 4476SOL    HW214328   4.642   1.500   3.605
 4477SOL     OW14329   1.654   0.721   5.346
 4477SOL    HW114330   1.748   0.712   5.376
 4477SOL    HW214331   1.592   0.694   5.420
 4478SOL     OW14332   1.484   0.348   0.642
 4478SOL    HW114333   1.449   0.272   0.587
 4478SOL    HW214334   1.409   0.387   0.696
 4479SOL     OW14335   1.621   2.804   0.683
 4479SOL    HW114336   1.629   2.720   0.629
 4479SOL    HW214337   1.527   2.837   0.680
 4480SOL     OW14338   0.826   5.433   4.048
 4480SOL    HW114339   0.828   5.390   4.139
 4480SOL    HW214340   0.916   5.469   4.026
 4481SOL     OW14341   2.222   3.871   6.469
 4481SOL    HW114342   2.169   3.950   6.439
 4481SOL    HW214343   2.210   3.797   6.403
 4482SOL     OW14344   2.887   5.861   6.593
 4482SOL    HW114345   2.893   5.764   6.569
 4482SOL    HW214346   2.976   5.893   6.625
 4483SOL     OW14347   0.702   3.142   1.280
 4483SOL    HW114348   0.658   3.228   1.256
 4483SOL    HW214349   0.800   3.148   1.264
 4484SOL     OW14350   2.173   2.617   0.045
 4484SOL    HW114351   2.078   2.590   0.058
 4484SOL    HW214352   2.233   2.547   0.083
 4485SOL     OW14353   5.321   2.667   5.033
 4485SOL    HW114354   5.225   2.642   5.049
 4485SOL    HW214355   5.359   2.609   4.962
 4486SOL     OW14356   4.858   5.245   5.587
 4486SOL    HW114357   4.772   5.197   5.605
 4486SOL    HW214358   4.910   5.196   5.517
 4487SOL     OW14359   1.077   3.215   0.044
 4487SOL    HW114360   1.029   3.302   0.034
 4487SOL    HW214361   1.076   3.166   6.980
 4488SOL     OW14362   6.845   3.817   4.423
 4488SOL    HW114363   6.834   3.781   4.331
 4488SOL    HW214364   6.940   3.845   4.436
 4489SOL     OW14365   4.562   5.360   5.759
 4489SOL    HW114366   4.597   5.269   5.739
 4489SOL    HW214367   4.638   5.422   5.777
 4490SOL     OW14368   5.153   1.284   0.981
 4490SOL    HW114369   5.079   1.350   0.996
 4490SOL    HW214370   5.241   1.331   0.986
 4491SOL     OW14371   0.809   3.012   2.983
 4491SOL    HW114372   0.801   2.947   2.908
 4491SOL    HW214373   0.830   2.962   3.068
 4492SOL     OW14374   6.019   0.725   1.906
 4492SOL    HW114375   6.084   0.656   1.938
 4492SOL    HW214376   5.926   0.693   1.922
 4493SOL     OW14377   4.659   1.473   4.620
 4493SOL    HW114378   4.706   1.394   4.658
 4493SOL    HW214379   4.567   1.480   4.660
 4494SOL     OW14380   1.033   0.050   1.088
 4494SOL    HW114381   1.103   7.009   1.118
 4494SOL    HW214382   0.996   0.021   1.000
 4495SOL     OW14383   4.523   5.351   1.521
 4495SOL    HW114384   4.493   5.297   1.600
 4495SOL    HW214385   4.601   5.305   1.478
 4496SOL     OW14386   3.450   6.169   6.554
 4496SOL    HW114387   3.490   6.079   6.536
 4496SOL    HW214388   3.399   6.200   6.474
 4497SOL     OW14389   3.913   1.690   6.358
 4497SOL    HW114390   3.882   1.780   6.389
 4497SOL    HW214391   3.992   1.701   6.297
 4498SOL     OW14392   1.751   5.319   5.531
 4498SOL    HW114393   1.756   5.253   5.456
 4498SOL    HW214394   1.656   5.348   5.544
 4499SOL     OW14395   5.845   2.243   2.187
 4499SOL    HW114396   5.784   2.185   2.240
 4499SOL    HW214397   5.939   2.232   2.220
 4500SOL     OW14398   3.832   5.661   6.742
 4500SOL    HW114399   3.818   5.573   6.699
 4500SOL    HW214400   3.753   5.720   6.726
 4501SOL     OW14401   5.127   0.970   3.065
 4501SOL    HW114402   5.032   0.944   3.083
 4501SOL    HW214403   5.130   1.055   3.014
 4502SOL     OW14404   0.610   3.776   6.619
 4502SOL    HW114405   0.597   3.869   6.656
 4502SOL    HW214406   0.521   3.732   6.608
 4503SOL     OW14407   2.417   0.426   2.821
 4503SOL    HW114408   2.454   0.518   2.813
 4503SOL    HW214409   2.321   0.426   2.794
 4504SOL     OW14410   0.621   2.462   2.758
 4504SOL    HW114411   0.617   2.379   2.703
 4504SOL    HW214412   0.531   2.481   2.798
 4505SOL     OW14413   6.212   3.924   4.098
 4505SOL    HW114414   6.243   3.877   4.181
 4505SOL    HW214415   6.219   4.022   4.112
 4506SOL     OW14416   4.762   2.898   4.728
 4506SOL    HW114417   4.827   2.839   4.777
 4506SOL    HW214418   4.776   2.993   4.756
 4507SOL     OW14419   6.463   2.446   3.163
 4507SOL    HW114420   6.537   2.424   3.100
 4507SOL    HW214421   6.386   2.485   3.113
 4508SOL     OW14422   0.397   5.119   0.799
 4508SOL    HW114423   0.417   5.021   0.795
 4508SOL    HW214424   0.455   5.167   0.733
 4509SOL     OW14425   4.694   2.735   2.076
 4509SOL    HW114426   4.601   2.763   2.052
 4509SOL    HW214427   4.759   2.802   2.041
 4510SOL     OW14428   4.201   1.751   4.383
 4510SOL    HW114429   4.113   1.762   4.336
 4510SOL    HW214430   4.197   1.793   4.473
 4511SOL     OW14431   0.375   4.083   0.887
 4511SOL    HW114432   0.464   4.113   0.853
 4511SOL    HW214433   0.318   4.053   0.811
 4512SOL     OW14434   3.259   2.823   5.708
 4512SOL    HW114435   3.334   2.787   5.652
 4512SOL    HW214436   3.293   2.846   5.799
 4513SOL     OW14437   0.937   6.519   0.373
 4513SOL    HW114438   1.033   6.541   0.383
 4513SOL    HW214439   0.926   6.448   0.303
 4514SOL     OW14440   3.068   4.453   6.723
 4514SOL    HW114441   3.002   4.402   6.778
 4514SOL    HW214442   3.145   4.394   6.700
 4515SOL     OW14443   5.011   0.627   6.291
 4515SOL    HW114444   4.951   0.548   6.277
 4515SOL    HW214445   4.965   0.709   6.258
 4516SOL     OW14446   3.311   2.127   4.721
 4516SOL    HW114447   3.373   2.092   4.791
 4516SOL    HW214448   3.221   2.086   4.734
 4517SOL     OW14449   4.018   0.575   5.730
 4517SOL    HW114450   3.961   0.609   5.656
 4517SOL    HW214451   3.965   0.574   5.815
 4518SOL     OW14452   1.517   6.850   1.094
 4518SOL    HW114453   1.601   6.825   1.143
 4518SOL    HW214454   1.524   6.820   0.999
 4519SOL     OW14455   4.935   6.558   6.966
 4519SOL    HW114456   4.894   6.468   6.952
 4519SOL    HW214457   4.924   6.586   0.038
 4520SOL     OW14458   4.490   5.832   4.967
 4520SOL    HW114459   4.556   5.905   4.950
 4520SOL    HW214460   4.406   5.850   4.917
 4521SOL     OW14461   4.280   2.313   4.478
 4521SOL    HW114462   4.291   2.347   4.385
 4521SOL    HW214463   4.339   2.366   4.540
 4522SOL     OW14464   5.070   4.396   3.266
 4522SOL    HW114465   5.033   4.397   3.359
 4522SOL    HW214466   5.010   4.342   3.207
 4523SOL     OW14467   0.348   3.428   5.524
 4523SOL    HW114468   0.286   3.428   5.602
 4523SOL    HW214469   0.334   3.511   5.471
 4524SOL     OW14470   0.863   3.488   3.067
 4524SOL    HW114471   0.882   3.577   3.023
 4524SOL    HW214472   0.916   3.481   3.151
 4525SOL     OW14473   2.794   2.019   5.062
 4525SOL    HW114474   2.863   2.010   4.990
 4525SOL    HW214475   2.720   2.077   5.030
 4526SOL     OW14476   0.537   0.168   5.395
 4526SOL    HW114477   0.498   0.078   5.412
 4526SOL    HW214478   0.476   0.238   5.432
 4527SOL     OW14479   7.019   0.608   2.780
 4527SOL    HW114480   6.941   0.623   2.719
 4527SOL    HW214481   0.039   0.522   2.758
 4528SOL     OW14482   4.247   0.907   5.124
 4528SOL    HW114483   4.171   0.880   5.065
 4528SOL    HW214484   4.311   0.831   5.134
 4529SOL     OW14485   2.343   0.941   4.339
 4529SOL    HW114486   2.309   0.938   4.245
 4529SOL    HW214487   2.289   0.880   4.396
 4530SOL     OW14488   3.607   5.116   6.062
 4530SOL    HW114489   3.644   5.147   6.149
 4530SOL    HW214490   3.539   5.181   6.029
 4531SOL     OW14491   0.849   5.592   6.017
 4531SOL    HW114492   0.905   5.551   6.089
 4531SOL    HW214493   0.896   5.583   5.929
 4532SOL     OW14494   5.830   0.561   2.803
 4532SOL    HW114495   5.926   0.554   2.775
 4532SOL    HW214496   5.790   0.644   2.764
 4533SOL     OW14497   2.928   0.306   1.917
 4533SOL    HW114498   3.028   0.303   1.929
 4533SOL    HW214499   2.900   0.231   1.857
 4534SOL     OW14500   4.417   1.268   3.636
 4534SOL    HW114501   4.343   1.334   3.646
 4534SOL    HW214502   4.489   1.306   3.579
 4535SOL     OW14503   2.657   1.012   1.024
 4535SOL    HW114504   2.700   0.958   1.096
 4535SOL    HW214505   2.607   1.089   1.065
 4536SOL     OW14506   2.931   0.981   5.697
 4536SOL    HW114507   2.836   0.980   5.726
 4536SOL    HW214508   2.937   0.989   5.598
 4537SOL     OW14509   3.104   3.053   3.693
 4537SOL    HW114510   3.069   3.146   3.703
 4537SOL    HW214511   3.034   2.988   3.721
 4538SOL     OW14512   0.170   2.184   0.688
 4538SOL    HW114513   0.180   2.162   0.591
 4538SOL    HW214514   0.199   2.278   0.704
 4539SOL     OW14515   1.834   6.085   5.456
 4539SOL    HW114516   1.870   6.173   5.425
 4539SOL    HW214517   1.744   6.070   5.416
 4540SOL     OW14518   0.281   0.669   0.077
 4540SOL    HW114519   0.307   0.666   0.174
 4540SOL    HW214520   0.362   0.685   0.021
 4541SOL     OW14521   4.404   2.930   5.608
 4541SOL    HW114522   4.365   2.839   5.620
 4541SOL    HW214523   4.335   3.000   5.624
 4542SOL     OW14524   6.752   2.264   0.690
 4542SOL    HW114525   6.813   2.187   0.669
 4542SOL    HW214526   6.657   2.232   0.688
 4543SOL     OW14527   3.366   2.332   0.276
 4543SOL    HW114528   3.303   2.257   0.256
 4543SOL    HW214529   3.330   2.417   0.238
 4544SOL     OW14530   5.479   6.176   0.495
 4544SOL    HW114531   5.437   6.253   0.447
 4544SOL    HW214532   5.452   6.179   0.591
 4545SOL     OW14533   2.061   3.141   4.565
 4545SOL    HW114534   1.999   3.214   4.594
 4545SOL    HW214535   2.080   3.082   4.643
 4546SOL     OW14536   3.001   1.411   6.166
 4546SOL    HW114537   3.099   1.420   6.182
 4546SOL    HW214538   2.979   1.316   6.143
 4547SOL     OW14539   6.673   0.611   6.861
 4547SOL    HW114540   6.670   0.544   6.935
 4547SOL    HW214541   6.740   0.682   6.883
 4548SOL     OW14542   2.328   2.236   2.635
 4548SOL    HW114543   2.353   2.207   2.727
 4548SOL    HW214544   2.391   2.196   2.569
 4549SOL     OW14545   6.193   3.789   4.631
 4549SOL    HW114546   6.204   3.885   4.657
 4549SOL    HW214547   6.232   3.730   4.701
 4550SOL     OW14548   1.599   4.771   3.218
 4550SOL    HW114549   1.663   4.826   3.165
 4550SOL    HW214550   1.543   4.716   3.157
 4551SOL     OW14551   1.310   2.976   4.852
 4551SOL    HW114552   1.310   2.879   4.875
 4551SOL    HW214553   1.395   3.018   4.885
 4552SOL     OW14554   5.590   1.080   1.026
 4552SOL    HW114555   5.671   1.020   1.028
 4552SOL    HW214556   5.508   1.024   1.009
 4553SOL     OW14557   6.667   5.403   6.626
 4553SOL    HW114558   6.597   5.419   6.556
 4553SOL    HW214559   6.747   5.459   6.605
 4554SOL     OW14560   6.476   6.205   2.913
 4554SOL    HW114561   6.459   6.132   2.847
 4554SOL    HW214562   6.567   6.194   2.953
 4555SOL     OW14563   1.665   0.795   6.859
 4555SOL    HW114564   1.708   0.838   6.780
 4555SOL    HW214565   1.718   0.716   6.888
 4556SOL     OW14566   5.940   4.873   5.304
 4556SOL    HW114567   5.956   4.957   5.356
 4556SOL    HW214568   5.998   4.800   5.340
 4557SOL     OW14569   6.734   4.697   2.910
 4557SOL    HW114570   6.720   4.790   2.945
 4557SOL    HW214571   6.662   4.637   2.947
 4558SOL     OW14572   0.524   3.198   5.182
 4558SOL    HW114573   0.454   3.180   5.113
 4558SOL    HW214574   0.523   3.126   5.251
 4559SOL     OW14575   7.020   2.837   2.441
 4559SOL    HW114576   0.090   2.860   2.468
 4559SOL    HW214577   6.983   2.768   2.503
 4560SOL     OW14578   6.113   4.466   2.735
 4560SOL    HW114579   6.084   4.464   2.830
 4560SOL    HW214580   6.189   4.403   2.721
 4561SOL     OW14581   4.020   1.986   4.116
 4561SOL    HW114582   3.965   1.954   4.193
 4561SOL    HW214583   3.961   1.998   4.036
 4562SOL     OW14584   3.183   1.088   1.363
 4562SOL    HW114585   3.152   1.071   1.457
 4562SOL    HW214586   3.277   1.057   1.353
 4563SOL     OW14587   1.000   4.099   2.053
 4563SOL    HW114588   0.978   4.017   2.001
 4563SOL    HW214589   0.974   4.180   1.999
 4564SOL     OW14590   1.206   3.800   2.575
 4564SOL    HW114591   1.223   3.779   2.479
 4564SOL    HW214592   1.177   3.718   2.623
 4565SOL     OW14593   2.448   5.558   6.296
 4565SOL    HW114594   2.428   5.614   6.216
 4565SOL    HW214595   2.362   5.532   6.340
 4566SOL     OW14596   5.996   4.928   2.421
 4566SOL    HW114597   5.948   5.004   2.377
 4566SOL    HW214598   6.091   4.953   2.435
 4567SOL     OW14599   0.461   0.542   6.640
 4567SOL    HW114600   0.542   0.569   6.587
 4567SOL    HW214601   0.490   0.501   6.726
 4568SOL     OW14602   1.142   5.725   3.724
 4568SOL    HW114603   1.210   5.659   3.756
 4568SOL    HW214604   1.188   5.803   3.683
 4569SOL     OW14605   2.295   0.715   3.400
 4569SOL    HW114606   2.372   0.718   3.336
 4569SOL    HW214607   2.248   0.803   3.399
 4570SOL     OW14608   5.547   5.898   2.192
 4570SOL    HW114609   5.535   5.799   2.198
 4570SOL    HW214610   5.631   5.919   2.141
 4571SOL     OW14611   2.943   3.346   6.553
 4571SOL    HW114612   3.015   3.412   6.574
 4571SOL    HW214613   2.985   3.260   6.524
 4572SOL     OW14614   2.878   3.269   1.876
 4572SOL    HW114615   2.841   3.269   1.783
 4572SOL    HW214616   2.978   3.269   1.872
 4573SOL     OW14617   2.167   5.499   1.517
 4573SOL    HW114618   2.154   5.583   1.570
 4573SOL    HW214619   2.093   5.489   1.451
 4574SOL     OW14620   5.040   1.326   1.301
 4574SOL    HW114621   5.124   1.302   1.351
 4574SOL    HW214622   4.967   1.262   1.326
 4575SOL     OW14623   0.110   6.651   4.838
 4575SOL    HW114624   0.173   6.592   4.788
 4575SOL    HW214625   0.016   6.625   4.817
 4576SOL     OW14626   2.674   4.983   5.017
 4576SOL    HW114627   2.589   4.934   5.036
 4576SOL    HW214628   2.730   4.929   4.954
 4577SOL     OW14629   1.541   1.805   2.144
 4577SOL    HW114630   1.494   1.729   2.189
 4577SOL    HW214631   1.485   1.840   2.069
 4578SOL     OW14632   1.694   1.116   2.470
 4578SOL    HW114633   1.616   1.069   2.428
 4578SOL    HW214634   1.723   1.192   2.411
 4579SOL     OW14635   4.140   1.611   2.351
 4579SOL    HW114636   4.104   1.699   2.323
 4579SOL    HW214637   4.169   1.615   2.447
 4580SOL     OW14638   6.772   2.638   0.420
 4580SOL    HW114639   6.756   2.728   0.380
 4580SOL    HW214640   6.685   2.592   0.436
 4581SOL     OW14641   3.496   0.551   1.528
 4581SOL    HW114642   3.503   0.454   1.550
 4581SOL    HW214643   3.431   0.595   1.590
 4582SOL     OW14644   5.951   1.401   3.647
 4582SOL    HW114645   6.037   1.451   3.660
 4582SOL    HW214646   5.883   1.462   3.606
 4583SOL     OW14647   1.165   0.252   6.605
 4583SOL    HW114648   1.181   0.158   6.575
 4583SOL    HW214649   1.250   0.290   6.642
 4584SOL     OW14650   1.417   0.364   5.068
 4584SOL    HW114651   1.387   0.457   5.090
 4584SOL    HW214652   1.463   0.324   5.147
 4585SOL     OW14653   1.698   3.511   3.502
 4585SOL    HW114654   1.633   3.570   3.454
 4585SOL    HW214655   1.754   3.462   3.435
 4586SOL     OW14656   5.324   4.825   6.532
 4586SOL    HW114657   5.239   4.851   6.488
 4586SOL    HW214658   5.371   4.756   6.477
 4587SOL     OW14659   3.063   3.392   4.823
 4587SOL    HW114660   3.019   3.471   4.866
 4587SOL    HW214661   3.104   3.333   4.893
 4588SOL     OW14662   3.312   3.702   6.149
 4588SOL    HW114663   3.213   3.710   6.140
 4588SOL    HW214664   3.339   3.606   6.134
 4589SOL     OW14665   6.073   0.096   2.666
 4589SOL    HW114666   6.120   0.016   2.704
 4589SOL    HW214667   6.021   0.141   2.739
 4590SOL     OW14668   3.248   5.783   1.163
 4590SOL    HW114669   3.242   5.883   1.154
 4590SOL    HW214670   3.159   5.742   1.140
 4591SOL     OW14671   1.901   0.656   5.501
 4591SOL    HW114672   1.989   0.703   5.496
 4591SOL    HW214673   1.875   0.645   5.597
 4592SOL     OW14674   1.912   1.491   3.877
 4592SOL    HW114675   1.924   1.423   3.805
 4592SOL    HW214676   1.995   1.546   3.885
 4593SOL     OW14677   1.744   6.010   4.419
 4593SOL    HW114678   1.751   5.951   4.338
 4593SOL    HW214679   1.705   6.098   4.393
 4594SOL     OW14680   1.928   0.575   2.939
 4594SOL    HW114681   1.976   0.635   3.003
 4594SOL    HW214682   1.860   0.521   2.989
 4595SOL     OW14683   5.250   2.159   6.486
 4595SOL    HW114684   5.231   2.172   6.389
 4595SOL    HW214685   5.336   2.109   6.497
 4596SOL     OW14686   0.437   1.013   2.476
 4596SOL    HW114687   0.394   0.923   2.464
 4596SOL    HW214688   0.461   1.050   2.386
 4597SOL     OW14689   2.758   6.431   6.935
 4597SOL    HW114690   2.720   6.362   6.872
 4597SOL    HW214691   2.800   6.504   6.882
 4598SOL     OW14692   1.689   4.758   0.430
 4598SOL    HW114693   1.655   4.665   0.438
 4598SOL    HW214694   1.780   4.757   0.388
 4599SOL     OW14695   2.387   5.641   2.288
 4599SOL    HW114696   2.308   5.596   2.331
 4599SOL    HW214697   2.394   5.610   2.193
 4600SOL     OW14698   0.141   6.919   5.836
 4600SOL    HW114699   0.133   6.907   5.935
 4600SOL    HW214700   0.084   6.996   5.807
 4601SOL     OW14701   1.736   1.079   4.963
 4601SOL    HW114702   1.800   1.008   4.935
 4601SOL    HW214703   1.642   1.046   4.954
 4602SOL     OW14704   2.600   2.152   6.589
 4602SOL    HW114705   2.692   2.181   6.562
 4602SOL    HW214706   2.534   2.224   6.567
 4603SOL     OW14707   4.998   0.177   0.770
 4603SOL    HW114708   4.974   0.274   0.756
 4603SOL    HW214709   5.010   0.133   0.682
 4604SOL     OW14710   5.744   0.141   5.590
 4604SOL    HW114711   5.773   0.232   5.619
 4604SOL    HW214712   5.799   0.113   5.511
 4605SOL     OW14713   3.580   0.523   2.125
 4605SOL    HW114714   3.678   0.519   2.143
 4605SOL    HW214715   3.532   0.455   2.181
 4606SOL     OW14716   6.804   6.542   4.242
 4606SOL    HW114717   6.848   6.513   4.157
 4606SOL    HW214718   6.874   6.575   4.306
 4607SOL     OW14719   2.151   2.747   1.187
 4607SOL    HW114720   2.204   2.695   1.121
 4607SOL    HW214721   2.085   2.805   1.139
 4608SOL     OW14722   6.539   3.068   4.323
 4608SOL    HW114723   6.486   3.078   4.408
 4608SOL    HW214724   6.509   3.135   4.256
 4609SOL     OW14725   4.092   6.206   6.807
 4609SOL    HW114726   4.058   6.278   6.867
 4609SOL    HW214727   4.184   6.180   6.835
 4610SOL     OW14728   5.169   3.342   0.230
 4610SOL    HW114729   5.141   3.425   0.279
 4610SOL    HW214730   5.256   3.358   0.184
 4611SOL     OW14731   1.025   0.797   6.397
 4611SOL    HW114732   1.026   0.755   6.488
 4611SOL    HW214733   1.111   0.776   6.350
 4612SOL     OW14734   2.245   0.517   1.228
 4612SOL    HW114735   2.146   0.512   1.239
 4612SOL    HW214736   2.268   0.532   1.132
 4613SOL     OW14737   1.882   4.644   1.378
 4613SOL    HW114738   1.914   4.578   1.446
 4613SOL    HW214739   1.785   4.627   1.358
 4614SOL     OW14740   6.252   4.041   4.730
 4614SOL    HW114741   6.212   4.113   4.673
 4614SOL    HW214742   6.256   4.071   4.825
 4615SOL     OW14743   1.164   2.226   0.281
 4615SOL    HW114744   1.250   2.251   0.326
 4615SOL    HW214745   1.107   2.308   0.270
 4616SOL     OW14746   6.518   2.694   6.090
 4616SOL    HW114747   6.509   2.653   6.181
 4616SOL    HW214748   6.462   2.643   6.025
 4617SOL     OW14749   0.121   3.074   3.256
 4617SOL    HW114750   0.220   3.066   3.247
 4617SOL    HW214751   0.095   3.058   3.352
 4618SOL     OW14752   2.028   4.494   5.545
 4618SOL    HW114753   1.989   4.429   5.610
 4618SOL    HW214754   1.954   4.544   5.499
 4619SOL     OW14755   3.889   6.355   5.931
 4619SOL    HW114756   3.819   6.354   6.002
 4619SOL    HW214757   3.855   6.404   5.851
 4620SOL     OW14758   0.115   4.690   2.366
 4620SOL    HW114759   0.050   4.618   2.391
 4620SOL    HW214760   0.064   4.775   2.346
 4621SOL     OW14761   4.037   0.500   3.049
 4621SOL    HW114762   4.063   0.487   3.145
 4621SOL    HW214763   4.092   0.440   2.991
 4622SOL     OW14764   5.039   5.880   1.977
 4622SOL    HW114765   5.096   5.814   2.027
 4622SOL    HW214766   5.097   5.935   1.917
 4623SOL     OW14767   2.884   4.696   1.019
 4623SOL    HW114768   2.794   4.727   0.987
 4623SOL    HW214769   2.923   4.767   1.078
 4624SOL     OW14770   4.496   0.802   2.058
 4624SOL    HW114771   4.436   0.728   2.088
 4624SOL    HW214772   4.536   0.847   2.138
 4625SOL     OW14773   1.289   5.774   1.689
 4625SOL    HW114774   1.193   5.746   1.686
 4625SOL    HW214775   1.342   5.705   1.738
 4626SOL     OW14776   4.055   3.928   1.901
 4626SOL    HW114777   4.076   4.022   1.875
 4626SOL    HW214778   4.105   3.865   1.841
 4627SOL     OW14779   5.882   6.716   5.060
 4627SOL    HW114780   5.926   6.741   4.974
 4627SOL    HW214781   5.815   6.643   5.045
 4628SOL     OW14782   5.264   4.750   4.216
 4628SOL    HW114783   5.171   4.764   4.181
 4628SOL    HW214784   5.272   4.794   4.306
 4629SOL     OW14785   1.996   6.141   6.273
 4629SOL    HW114786   2.093   6.145   6.296
 4629SOL    HW214787   1.946   6.096   6.347
 4630SOL     OW14788   1.745   3.353   2.235
 4630SOL    HW114789   1.776   3.431   2.181
 4630SOL    HW214790   1.825   3.303   2.269
 4631SOL     OW14791   6.709   1.040   3.325
 4631SOL    HW114792   6.692   0.961   3.265
 4631SOL    HW214793   6.757   1.009   3.407
 4632SOL     OW14794   3.313   4.925   2.240
 4632SOL    HW114795   3.411   4.909   2.250
 4632SOL    HW214796   3.273   4.944   2.330
 4633SOL     OW14797   5.454   1.176   4.225
 4633SOL    HW114798   5.442   1.275   4.213
 4633SOL    HW214799   5.502   1.158   4.310
 4634SOL     OW14800   2.894   3.666   4.553
 4634SOL    HW114801   2.954   3.605   4.605
 4634SOL    HW214802   2.807   3.621   4.536
 4635SOL     OW14803   4.983   6.657   1.232
 4635SOL    HW114804   4.947   6.741   1.273
 4635SOL    HW214805   4.907   6.604   1.194
 4636SOL     OW14806   2.203   5.367   0.404
 4636SOL    HW114807   2.232   5.369   0.499
 4636SOL    HW214808   2.249   5.440   0.353
 4637SOL     OW14809   2.597   1.156   2.717
 4637SOL    HW114810   2.611   1.147   2.619
 4637SOL    HW214811   2.508   1.118   2.742
 4638SOL     OW14812   3.278   4.854   0.084
 4638SOL    HW114813   3.354   4.790   0.076
 4638SOL    HW214814   3.250   4.884   7.017
 4639SOL     OW14815   2.642   2.196   1.131
 4639SOL    HW114816   2.672   2.259   1.203
 4639SOL    HW214817   2.712   2.192   1.059
 4640SOL     OW14818   6.440   2.719   6.851
 4640SOL    HW114819   6.341   2.730   6.844
 4640SOL    HW214820   6.483   2.807   6.874
 4641SOL     OW14821   1.093   5.542   4.038
 4641SOL    HW114822   1.164   5.612   4.035
 4641SOL    HW214823   1.133   5.452   4.022
 4642SOL     OW14824   0.065   1.288   3.847
 4642SOL    HW114825   0.022   1.376   3.824
 4642SOL    HW214826   0.158   1.286   3.810
 4643SOL     OW14827   0.218   1.861   0.216
 4643SOL    HW114828   0.220   1.961   0.205
 4643SOL    HW214829   0.127   1.827   0.196
 4644SOL     OW14830   1.405   1.025   0.427
 4644SOL    HW114831   1.474   1.098   0.429
 4644SOL    HW214832   1.316   1.063   0.453
 4645SOL     OW14833   0.780   1.635   3.962
 4645SOL    HW114834   0.878   1.654   3.969
 4645SOL    HW214835   0.762   1.579   3.881
 4646SOL     OW14836   2.245   4.888   3.769
 4646SOL    HW114837   2.295   4.808   3.803
 4646SOL    HW214838   2.206   4.938   3.846
 4647SOL     OW14839   1.305   6.313   2.203
 4647SOL    HW114840   1.361   6.303   2.122
 4647SOL    HW214841   1.349   6.376   2.267
 4648SOL     OW14842   2.791   1.740   4.892
 4648SOL    HW114843   2.781   1.832   4.856
 4648SOL    HW214844   2.882   1.705   4.871
 4649SOL     OW14845   6.296   0.666   0.125
 4649SOL    HW114846   6.349   0.655   0.208
 4649SOL    HW214847   6.329   0.603   0.055
 4650SOL     OW14848   5.405   6.086   1.504
 4650SOL    HW114849   5.478   6.019   1.486
 4650SOL    HW214850   5.393   6.096   1.602
 4651SOL     OW14851   6.659   3.676   6.370
 4651SOL    HW114852   6.664   3.761   6.319
 4651SOL    HW214853   6.565   3.661   6.402
 4652SOL     OW14854   0.165   6.445   4.463
 4652SOL    HW114855   0.130   6.422   4.554
 4652SOL    HW214856   0.107   6.515   4.422
 4653SOL     OW14857   5.602   5.547   0.665
 4653SOL    HW114858   5.516   5.583   0.630
 4653SOL    HW214859   5.612   5.572   0.761
 4654SOL     OW14860   0.356   6.710   4.977
 4654SOL    HW114861   0.288   6.657   4.925
 4654SOL    HW214862   0.438   6.655   4.990
 4655SOL     OW14863   4.338   2.295   1.175
 4655SOL    HW114864   4.397   2.343   1.240
 4655SOL    HW214865   4.244   2.293   1.209
 4656SOL     OW14866   0.815   1.044   2.145
 4656SOL    HW114867   0.793   1.136   2.113
 4656SOL    HW214868   0.742   0.982   2.119
 4657SOL     OW14869   5.178   0.206   2.030
 4657SOL    HW114870   5.103   0.153   2.069
 4657SOL    HW214871   5.195   0.174   1.936
 4658SOL     OW14872   1.836   2.536   5.886
 4658SOL    HW114873   1.868   2.455   5.836
 4658SOL    HW214874   1.750   2.569   5.845
 4659SOL     OW14875   2.860   4.520   0.598
 4659SOL    HW114876   2.806   4.604   0.592
 4659SOL    HW214877   2.873   4.496   0.694
 4660SOL     OW14878   1.359   6.238   4.606
 4660SOL    HW114879   1.288   6.247   4.537
 4660SOL    HW214880   1.396   6.146   4.605
 4661SOL     OW14881   1.094   2.451   5.476
 4661SOL    HW114882   1.140   2.539   5.482
 4661SOL    HW214883   1.162   2.378   5.488
 4662SOL     OW14884   2.815   6.360   5.180
 4662SOL    HW114885   2.767   6.292   5.125
 4662SOL    HW214886   2.754   6.437   5.200
 4663SOL     OW14887   1.411   6.933   0.292
 4663SOL    HW114888   1.396   6.934   0.193
 4663SOL    HW214889   1.498   6.977   0.313
 4664SOL     OW14890   6.888   6.662   6.897
 4664SOL    HW114891   6.818   6.669   6.825
 4664SOL    HW214892   6.844   6.638   6.983
 4665SOL     OW14893   2.272   0.324   4.629
 4665SOL    HW114894   2.315   0.393   4.569
 4665SOL    HW214895   2.269   0.237   4.581
 4666SOL     OW14896   2.422   2.075   5.173
 4666SOL    HW114897   2.442   2.172   5.168
 4666SOL    HW214898   2.347   2.052   5.110
 4667SOL     OW14899   6.518   3.884   1.530
 4667SOL    HW114900   6.593   3.947   1.547
 4667SOL    HW214901   6.488   3.842   1.616
 4668SOL     OW14902   4.321   2.159   3.772
 4668SOL    HW114903   4.356   2.247   3.740
 4668SOL    HW214904   4.235   2.138   3.725
 4669SOL     OW14905   5.708   0.025   6.437
 4669SOL    HW114906   5.723   6.960   6.481
 4669SOL    HW214907   5.699   0.012   6.339
 4670SOL     OW14908   0.497   2.598   0.765
 4670SOL    HW114909   0.536   2.681   0.806
 4670SOL    HW214910   0.474   2.533   0.838
 4671SOL     OW14911   0.811   3.718   1.078
 4671SOL    HW114912   0.716   3.707   1.048
 4671SOL    HW214913   0.812   3.756   1.170
 4672SOL     OW14914   2.550   3.574   6.329
 4672SOL    HW114915   2.456   3.588   6.297
 4672SOL    HW214916   2.605   3.655   6.306
 4673SOL     OW14917   6.072   0.668   6.957
 4673SOL    HW114918   5.998   0.735   6.959
 4673SOL    HW214919   6.132   0.682   0.013
 4674SOL     OW14920   1.551   1.988   0.894
 4674SOL    HW114921   1.633   1.996   0.838
 4674SOL    HW214922   1.513   1.895   0.885
 4675SOL     OW14923   1.953   6.131   6.792
 4675SOL    HW114924   1.878   6.122   6.727
 4675SOL    HW214925   2.040   6.115   6.745
 4676SOL     OW14926   0.350   6.124   3.969
 4676SOL    HW114927   0.379   6.199   4.029
 4676SOL    HW214928   0.343   6.039   4.022
 4677SOL     OW14929   4.654   0.395   6.608
 4677SOL    HW114930   4.683   0.344   6.528
 4677SOL    HW214931   4.671   0.340   6.690
 4678SOL     OW14932   2.266   4.536   6.649
 4678SOL    HW114933   2.281   4.589   6.733
 4678SOL    HW214934   2.270   4.598   6.570
 4679SOL     OW14935   3.272   0.901   6.068
 4679SOL    HW114936   3.359   0.940   6.098
 4679SOL    HW214937   3.255   0.927   5.973
 4680SOL     OW14938   1.648   4.700   0.748
 4680SOL    HW114939   1.563   4.750   0.759
 4680SOL    HW214940   1.630   4.613   0.703
 4681SOL     OW14941   0.719   5.654   5.239
 4681SOL    HW114942   0.759   5.638   5.329
 4681SOL    HW214943   0.655   5.580   5.218
 4682SOL     OW14944   4.066   6.634   0.722
 4682SOL    HW114945   4.103   6.543   0.707
 4682SOL    HW214946   4.041   6.645   0.818
 4683SOL     OW14947   6.212   4.433   3.545
 4683SOL    HW114948   6.199   4.491   3.625
 4683SOL    HW214949   6.293   4.376   3.559
 4684SOL     OW14950   1.594   0.940   4.603
 4684SOL    HW114951   1.611   1.026   4.652
 4684SOL    HW214952   1.513   0.950   4.546
 4685SOL     OW14953   5.167   4.839   4.705
 4685SOL    HW114954   5.237   4.781   4.666
 4685SOL    HW214955   5.124   4.893   4.633
 4686SOL     OW14956   3.910   6.032   0.330
 4686SOL    HW114957   3.909   5.932   0.326
 4686SOL    HW214958   3.962   6.062   0.410
 4687SOL     OW14959   6.024   6.165   4.557
 4687SOL    HW114960   5.956   6.237   4.543
 4687SOL    HW214961   6.087   6.163   4.480
 4688SOL     OW14962   0.893   2.130   6.566
 4688SOL    HW114963   0.977   2.088   6.599
 4688SOL    HW214964   0.903   2.156   6.470
 4689SOL     OW14965   1.426   5.931   5.137
 4689SOL    HW114966   1.447   5.917   5.040
 4689SOL    HW214967   1.385   5.848   5.174
 4690SOL     OW14968   1.536   2.315   6.880
 4690SOL    HW114969   1.480   2.259   6.940
 4690SOL    HW214970   1.546   2.407   6.918
 4691SOL     OW14971   2.461   5.757   0.816
 4691SOL    HW114972   2.480   5.671   0.863
 4691SOL    HW214973   2.546   5.809   0.807
 4692SOL     OW14974   0.221   5.222   3.333
 4692SOL    HW114975   0.258   5.286   3.265
 4692SOL    HW214976   0.282   5.218   3.412
 4693SOL     OW14977   0.484   1.289   3.421
 4693SOL    HW114978   0.389   1.285   3.390
 4693SOL    HW214979   0.512   1.200   3.457
 4694SOL     OW14980   1.202   2.110   6.235
 4694SOL    HW114981   1.265   2.086   6.161
 4694SOL    HW214982   1.213   2.046   6.311
 4695SOL     OW14983   3.409   3.224   1.847
 4695SOL    HW114984   3.468   3.276   1.909
 4695SOL    HW214985   3.452   3.219   1.757
 4696SOL     OW14986   0.198   3.099   6.585
 4696SOL    HW114987   0.176   3.082   6.682
 4696SOL    HW214988   0.126   3.060   6.528
 4697SOL     OW14989   0.910   5.136   0.133
 4697SOL    HW114990   0.841   5.066   0.152
 4697SOL    HW214991   0.957   5.115   0.047
 4698SOL     OW14992   6.016   3.296   0.905
 4698SOL    HW114993   6.082   3.370   0.912
 4698SOL    HW214994   6.024   3.253   0.815
 4699SOL     OW14995   7.006   0.292   2.987
 4699SOL    HW114996   0.080   0.274   2.995
 4699SOL    HW214997   6.969   0.241   2.910
 4700SOL     OW14998   4.676   0.827   1.257
 4700SOL    HW114999   4.588   0.811   1.301
 4700SOL    HW215000   4.664   0.833   1.158
 4701SOL     OW15001   0.606   0.954   0.824
 4701SOL    HW115002   0.655   0.998   0.900
 4701SOL    HW215003   0.508   0.973   0.832
 4702SOL     OW15004   3.408   4.040   0.219
 4702SOL    HW115005   3.453   4.105   0.279
 4702SOL    HW215006   3.351   3.979   0.274
 4703SOL     OW15007   1.990   0.582   1.573
 4703SOL    HW115008   2.014   0.538   1.486
 4703SOL    HW215009   1.990   0.681   1.561
 4704SOL     OW15010   5.204   6.664   0.723
 4704SOL    HW115011   5.211   6.748   0.670
 4704SOL    HW215012   5.291   6.645   0.768
 4705SOL     OW15013   3.251   3.854   4.351
 4705SOL    HW115014   3.313   3.786   4.312
 4705SOL    HW215015   3.238   3.929   4.285
 4706SOL     OW15016   3.846   5.775   0.314
 4706SOL    HW115017   3.804   5.705   0.257
 4706SOL    HW215018   3.864   5.738   0.405
 4707SOL     OW15019   2.375   5.643   1.225
 4707SOL    HW115020   2.327   5.576   1.168
 4707SOL    HW215021   2.323   5.728   1.228
 4708SOL     OW15022   2.392   2.630   2.120
 4708SOL    HW115023   2.389   2.671   2.212
 4708SOL    HW215024   2.361   2.698   2.053
 4709SOL     OW15025   3.995   4.474   5.826
 4709SOL    HW115026   3.915   4.505   5.878
 4709SOL    HW215027   4.062   4.548   5.819
 4710SOL     OW15028   4.804   1.540   0.449
 4710SOL    HW115029   4.872   1.582   0.509
 4710SOL    HW215030   4.823   1.442   0.441
 4711SOL     OW15031   3.020   0.428   2.771
 4711SOL    HW115032   3.016   0.402   2.675
 4711SOL    HW215033   3.035   0.526   2.779
 4712SOL     OW15034   2.094   4.976   0.731
 4712SOL    HW115035   2.151   4.901   0.767
 4712SOL    HW215036   2.014   4.937   0.685
 4713SOL     OW15037   1.853   5.734   0.801
 4713SOL    HW115038   1.779   5.667   0.797
 4713SOL    HW215039   1.939   5.691   0.775
 4714SOL     OW15040   2.858   2.436   1.119
 4714SOL    HW115041   2.893   2.343   1.112
 4714SOL    HW215042   2.793   2.442   1.195
 4715SOL     OW15043   6.859   3.065   3.545
 4715SOL    HW115044   6.957   3.080   3.541
 4715SOL    HW215045   6.835   3.015   3.628
 4716SOL     OW15046   3.522   6.004   0.832
 4716SOL    HW115047   3.491   6.011   0.738
 4716SOL    HW215048   3.470   5.932   0.880
 4717SOL     OW15049   1.807   6.005   3.800
 4717SOL    HW115050   1.722   5.989   3.750
 4717SOL    HW215051   1.841   6.097   3.778
 4718SOL     OW15052   5.944   1.357   5.800
 4718SOL    HW115053   5.980   1.418   5.730
 4718SOL    HW215054   5.856   1.320   5.770
 4719SOL     OW15055   4.138   2.738   0.804
 4719SOL    HW115056   4.175   2.676   0.736
 4719SOL    HW215057   4.088   2.812   0.759
 4720SOL     OW15058   2.742   0.504   4.660
 4720SOL    HW115059   2.773   0.565   4.734
 4720SOL    HW215060   2.657   0.460   4.687
 4721SOL     OW15061   1.394   1.804   1.519
 4721SOL    HW115062   1.315   1.759   1.476
 4721SOL    HW215063   1.385   1.903   1.509
 4722SOL     OW15064   2.431   0.240   0.532
 4722SOL    HW115065   2.430   0.335   0.563
 4722SOL    HW215066   2.433   0.238   0.432
 4723SOL     OW15067   2.357   6.699   6.874
 4723SOL    HW115068   2.348   6.756   6.792
 4723SOL    HW215069   2.304   6.615   6.863
 4724SOL     OW15070   4.245   5.896   1.528
 4724SOL    HW115071   4.214   5.908   1.434
 4724SOL    HW215072   4.344   5.911   1.532
 4725SOL     OW15073   5.078   6.482   3.157
 4725SOL    HW115074   5.054   6.554   3.223
 4725SOL    HW215075   5.072   6.393   3.201
 4726SOL     OW15076   0.133   5.091   6.427
 4726SOL    HW115077   0.215   5.038   6.405
 4726SOL    HW215078   0.128   5.171   6.367
 4727SOL     OW15079   0.459   5.999   0.179
 4727SOL    HW115080   0.534   6.052   0.138
 4727SOL    HW215081   0.376   6.054   0.178
 4728SOL     OW15082   6.929   0.836   0.087
 4728SOL    HW115083   6.878   0.860   0.004
 4728SOL    HW215084   0.002   0.857   0.073
 4729SOL     OW15085   3.417   0.786   1.659
 4729SOL    HW115086   3.410   0.779   1.758
 4729SOL    HW215087   3.501   0.834   1.635
 4730SOL     OW15088   1.922   0.231   5.616
 4730SOL    HW115089   1.992   0.206   5.550
 4730SOL    HW215090   1.957   0.304   5.676
 4731SOL     OW15091   5.341   1.457   5.246
 4731SOL    HW115092   5.366   1.365   5.276
 4731SOL    HW215093   5.424   1.511   5.234
 4732SOL     OW15094   0.167   2.120   0.206
 4732SOL    HW115095   0.206   2.211   0.195
 4732SOL    HW215096   0.089   2.125   0.268
 4733SOL     OW15097   6.673   2.837   3.245
 4733SOL    HW115098   6.711   2.927   3.263
 4733SOL    HW215099   6.747   2.773   3.223
 4734SOL     OW15100   4.198   4.458   6.552
 4734SOL    HW115101   4.259   4.463   6.631
 4734SOL    HW215102   4.207   4.369   6.508
 4735SOL     OW15103   1.122   5.081   3.368
 4735SOL    HW115104   1.065   5.162   3.358
 4735SOL    HW215105   1.179   5.070   3.287
 4736SOL     OW15106   1.103   0.841   0.639
 4736SOL    HW115107   1.112   0.921   0.580
 4736SOL    HW215108   1.090   0.870   0.734
 4737SOL     OW15109   2.400   5.066   1.862
 4737SOL    HW115110   2.486   5.047   1.815
 4737SOL    HW215111   2.339   5.117   1.801
 4738SOL     OW15112   6.734   6.224   2.371
 4738SOL    HW115113   6.674   6.272   2.435
 4738SOL    HW215114   6.769   6.141   2.416
 4739SOL     OW15115   4.479   0.571   1.213
 4739SOL    HW115116   4.409   0.625   1.167
 4739SOL    HW215117   4.564   0.574   1.160
 4740SOL     OW15118   0.816   2.181   3.281
 4740SOL    HW115119   0.804   2.128   3.365
 4740SOL    HW215120   0.734   2.235   3.264
 4741SOL     OW15121   3.915   3.686   1.846
 4741SOL    HW115122   3.821   3.666   1.818
 4741SOL    HW215123   3.920   3.777   1.887
 4742SOL     OW15124   3.366   6.706   0.640
 4742SOL    HW115125   3.462   6.697   0.612
 4742SOL    HW215126   3.334   6.798   0.620
 4743SOL     OW15127   2.455   5.104   1.158
 4743SOL    HW115128   2.419   5.011   1.161
 4743SOL    HW215129   2.390   5.163   1.111
 4744SOL     OW15130   2.248   5.906   0.908
 4744SOL    HW115131   2.270   5.823   0.857
 4744SOL    HW215132   2.240   5.885   1.005
 4745SOL     OW15133   1.067   4.555   0.224
 4745SOL    HW115134   1.030   4.621   0.159
 4745SOL    HW215135   0.996   4.489   0.248
 4746SOL     OW15136   4.580   5.275   4.200
 4746SOL    HW115137   4.494   5.320   4.178
 4746SOL    HW215138   4.591   5.194   4.143
 4747SOL     OW15139   1.594   2.083   0.413
 4747SOL    HW115140   1.505   2.109   0.449
 4747SOL    HW215141   1.582   2.026   0.332
 4748SOL     OW15142   1.481   6.827   2.915
 4748SOL    HW115143   1.509   6.902   2.855
 4748SOL    HW215144   1.562   6.775   2.944
 4749SOL     OW15145   2.025   0.811   6.502
 4749SOL    HW115146   2.104   0.861   6.535
 4749SOL    HW215147   1.956   0.806   6.574
 4750SOL     OW15148   4.931   2.886   5.556
 4750SOL    HW115149   5.005   2.945   5.523
 4750SOL    HW215150   4.845   2.937   5.555
 4751SOL     OW15151   4.000   0.784   3.081
 4751SOL    HW115152   4.027   0.696   3.043
 4751SOL    HW215153   3.973   0.773   3.177
 4752SOL     OW15154   4.513   1.676   0.039
 4752SOL    HW115155   4.569   1.715   0.112
 4752SOL    HW215156   4.454   1.747   0.000
 4753SOL     OW15157   3.274   5.868   5.075
 4753SOL    HW115158   3.358   5.921   5.078
 4753SOL    HW215159   3.292   5.779   5.033
 4754SOL     OW15160   4.905   5.089   6.465
 4754SOL    HW115161   4.880   5.158   6.533
 4754SOL    HW215162   4.889   5.125   6.373
 4755SOL     OW15163   1.376   1.082   1.426
 4755SOL    HW115164   1.321   1.164   1.417
 4755SOL    HW215165   1.320   1.002   1.404
 4756SOL     OW15166   5.994   3.971   6.551
 4756SOL    HW115167   5.967   4.020   6.468
 4756SOL    HW215168   6.082   4.006   6.583
 4757SOL     OW15169   2.077   3.807   1.332
 4757SOL    HW115170   2.112   3.820   1.239
 4757SOL    HW215171   1.994   3.861   1.344
 4758SOL     OW15172   3.079   6.027   3.373
 4758SOL    HW115173   3.068   5.927   3.369
 4758SOL    HW215174   3.106   6.054   3.465
 4759SOL     OW15175   0.689   5.286   1.363
 4759SOL    HW115176   0.602   5.285   1.412
 4759SOL    HW215177   0.671   5.289   1.264
 4760SOL     OW15178   1.526   5.893   1.353
 4760SOL    HW115179   1.582   5.926   1.429
 4760SOL    HW215180   1.429   5.895   1.379
 4761SOL     OW15181   6.458   6.570   1.132
 4761SOL    HW115182   6.369   6.601   1.167
 4761SOL    HW215183   6.464   6.471   1.139
 4762SOL     OW15184   1.607   0.256   1.880
 4762SOL    HW115185   1.530   0.298   1.833
 4762SOL    HW215186   1.608   0.157   1.862
 4763SOL     OW15187   5.483   4.816   1.783
 4763SOL    HW115188   5.549   4.857   1.845
 4763SOL    HW215189   5.531   4.758   1.717
 4764SOL     OW15190   4.146   3.265   6.868
 4764SOL    HW115191   4.131   3.302   6.960
 4764SOL    HW215192   4.057   3.246   6.826
 4765SOL     OW15193   3.464   1.743   4.424
 4765SOL    HW115194   3.459   1.655   4.472
 4765SOL    HW215195   3.548   1.791   4.452
 4766SOL     OW15196   0.529   0.116   4.380
 4766SOL    HW115197   0.466   0.189   4.405
 4766SOL    HW215198   0.620   0.138   4.415
 4767SOL     OW15199   1.446   4.523   3.692
 4767SOL    HW115200   1.472   4.441   3.642
 4767SOL    HW215201   1.528   4.569   3.727
 4768SOL     OW15202   3.674   2.649   6.985
 4768SOL    HW115203   3.680   2.637   6.886
 4768SOL    HW215204   3.766   2.662   7.022
 4769SOL     OW15205   2.406   4.750   0.627
 4769SOL    HW115206   2.377   4.655   0.641
 4769SOL    HW215207   2.332   4.800   0.582
 4770SOL     OW15208   0.675   1.478   5.816
 4770SOL    HW115209   0.648   1.464   5.721
 4770SOL    HW215210   0.754   1.540   5.820
 4771SOL     OW15211   2.139   6.207   5.213
 4771SOL    HW115212   2.129   6.118   5.257
 4771SOL    HW215213   2.228   6.247   5.236
 4772SOL     OW15214   2.980   5.311   1.758
 4772SOL    HW115215   2.999   5.218   1.788
 4772SOL    HW215216   3.032   5.332   1.676
 4773SOL     OW15217   2.030   5.070   4.819
 4773SOL    HW115218   2.063   5.072   4.913
 4773SOL    HW215219   2.086   5.129   4.762
 4774SOL     OW15220   1.290   4.143   0.078
 4774SOL    HW115221   1.240   4.229   0.062
 4774SOL    HW215222   1.227   4.066   0.070
 4775SOL     OW15223   6.502   5.962   4.993
 4775SOL    HW115224   6.466   6.044   5.038
 4775SOL    HW215225   6.559   5.989   4.915
 4776SOL     OW15226   0.216   1.044   6.637
 4776SOL    HW115227   0.141   1.069   6.698
 4776SOL    HW215228   0.251   0.953   6.661
 4777SOL     OW15229   0.824   6.902   2.398
 4777SOL    HW115230   0.791   6.987   2.437
 4777SOL    HW215231   0.807   6.902   2.299
 4778SOL     OW15232   0.725   1.642   6.311
 4778SOL    HW115233   0.757   1.583   6.385
 4778SOL    HW215234   0.782   1.628   6.230
 4779SOL     OW15235   5.523   0.260   4.182
 4779SOL    HW115236   5.424   0.273   4.186
 4779SOL    HW215237   5.552   0.201   4.257
 4780SOL     OW15238   6.273   3.041   5.023
 4780SOL    HW115239   6.201   2.972   5.015
 4780SOL    HW215240   6.362   3.000   5.003
 4781SOL     OW15241   2.372   6.090   2.630
 4781SOL    HW115242   2.365   6.021   2.703
 4781SOL    HW215243   2.358   6.046   2.541
 4782SOL     OW15244   6.958   6.485   4.035
 4782SOL    HW115245   6.912   6.532   3.959
 4782SOL    HW215246   0.029   6.515   4.040
 4783SOL     OW15247   6.526   3.496   0.279
 4783SOL    HW115248   6.533   3.564   0.352
 4783SOL    HW215249   6.442   3.512   0.226
 4784SOL     OW15250   4.763   3.022   6.819
 4784SOL    HW115251   4.716   2.956   6.878
 4784SOL    HW215252   4.853   3.042   6.858
 4785SOL     OW15253   0.442   6.366   4.136
 4785SOL    HW115254   0.425   6.464   4.146
 4785SOL    HW215255   0.540   6.351   4.124
 4786SOL     OW15256   1.725   5.911   0.362
 4786SOL    HW115257   1.779   5.837   0.321
 4786SOL    HW215258   1.695   5.883   0.453
 4787SOL     OW15259   3.642   1.302   3.951
 4787SOL    HW115260   3.566   1.288   4.014
 4787SOL    HW215261   3.684   1.391   3.969
 4788SOL     OW15262   5.974   6.392   0.390
 4788SOL    HW115263   5.984   6.370   0.293
 4788SOL    HW215264   5.932   6.316   0.438
 4789SOL     OW15265   5.536   1.189   3.272
 4789SOL    HW115266   5.513   1.111   3.213
 4789SOL    HW215267   5.477   1.266   3.250
 4790SOL     OW15268   6.840   1.959   5.088
 4790SOL    HW115269   6.794   2.043   5.115
 4790SOL    HW215270   6.778   1.882   5.101
 4791SOL     OW15271   0.008   0.645   0.381
 4791SOL    HW115272   7.022   0.734   0.426
 4791SOL    HW215273   6.973   0.578   0.427
 4792SOL     OW15274   2.174   3.033   2.818
 4792SOL    HW115275   2.197   2.953   2.762
 4792SOL    HW215276   2.219   3.114   2.780
 4793SOL     OW15277   0.862   3.736   5.905
 4793SOL    HW115278   0.891   3.783   5.822
 4793SOL    HW215279   0.910   3.648   5.912
 4794SOL     OW15280   4.442   1.686   4.712
 4794SOL    HW115281   4.423   1.675   4.614
 4794SOL    HW215282   4.479   1.778   4.728
 4795SOL     OW15283   0.001   0.773   6.098
 4795SOL    HW115284   0.001   0.856   6.154
 4795SOL    HW215285   6.950   0.776   6.032
 4796SOL     OW15286   4.177   1.354   4.818
 4796SOL    HW115287   4.240   1.430   4.834
 4796SOL    HW215288   4.228   1.273   4.790
 4797SOL     OW15289   1.613   5.092   5.118
 4797SOL    HW115290   1.682   5.092   5.045
 4797SOL    HW215291   1.659   5.091   5.207
 4798SOL     OW15292   3.947   5.021   6.729
 4798SOL    HW115293   4.041   5.041   6.702
 4798SOL    HW215294   3.942   4.929   6.766
 4799SOL     OW15295   3.681   3.325   7.021
 4799SOL    HW115296   3.688   3.324   6.921
 4799SOL    HW215297   3.758   3.274   0.036
 4800SOL     OW15298   0.861   4.452   0.649
 4800SOL    HW115299   0.936   4.463   0.584
 4800SOL    HW215300   0.897   4.420   0.736
 4801SOL     OW15301   5.308   2.711   1.773
 4801SOL    HW115302   5.240   2.783   1.788
 4801SOL    HW215303   5.330   2.706   1.676
 4802SOL     OW15304   6.671   6.835   3.973
 4802SOL    HW115305   6.609   6.810   3.898
 4802SOL    HW215306   6.654   6.930   3.999
 4803SOL     OW15307   4.835   4.388   6.249
 4803SOL    HW115308   4.817   4.482   6.220
 4803SOL    HW215309   4.761   4.356   6.308
 4804SOL     OW15310   4.814   1.466   0.996
 4804SOL    HW115311   4.769   1.535   0.940
 4804SOL    HW215312   4.898   1.503   1.034
 4805SOL     OW15313   6.554   1.052   0.218
 4805SOL    HW115314   6.467   1.088   0.253
 4805SOL    HW215315   6.596   1.118   0.156
 4806SOL     OW15316   1.087   1.100   3.178
 4806SOL    HW115317   1.157   1.156   3.222
 4806SOL    HW215318   1.068   1.137   3.087
 4807SOL     OW15319   0.638   3.687   5.427
 4807SOL    HW115320   0.562   3.740   5.391
 4807SOL    HW215321   0.625   3.590   5.406
 4808SOL     OW15322   4.144   5.605   1.092
 4808SOL    HW115323   4.093   5.674   1.039
 4808SOL    HW215324   4.220   5.648   1.139
 4809SOL     OW15325   3.462   4.352   1.477
 4809SOL    HW115326   3.474   4.363   1.378
 4809SOL    HW215327   3.434   4.439   1.517
 4810SOL     OW15328   0.317   4.732   3.774
 4810SOL    HW115329   0.348   4.713   3.867
 4810SOL    HW215330   0.248   4.804   3.775
 4811SOL     OW15331   3.303   4.106   4.202
 4811SOL    HW115332   3.251   4.191   4.193
 4811SOL    HW215333   3.360   4.093   4.121
 4812SOL     OW15334   1.050   0.290   2.083
 4812SOL    HW115335   1.055   0.247   2.173
 4812SOL    HW215336   1.072   0.223   2.013
 4813SOL     OW15337   6.157   1.830   5.865
 4813SOL    HW115338   6.074   1.783   5.834
 4813SOL    HW215339   6.234   1.802   5.807
 4814SOL     OW15340   6.163   3.928   1.705
 4814SOL    HW115341   6.225   3.939   1.783
 4814SOL    HW215342   6.110   4.011   1.692
 4815SOL     OW15343   5.602   5.299   2.190
 4815SOL    HW115344   5.555   5.315   2.104
 4815SOL    HW215345   5.540   5.315   2.267
 4816SOL     OW15346   2.179   1.268   2.633
 4816SOL    HW115347   2.214   1.197   2.572
 4816SOL    HW215348   2.256   1.321   2.669
 4817SOL     OW15349   3.866   2.190   0.787
 4817SOL    HW115350   3.900   2.266   0.731
 4817SOL    HW215351   3.797   2.224   0.850
 4818SOL     OW15352   3.787   0.288   5.739
 4818SOL    HW115353   3.723   0.356   5.773
 4818SOL    HW215354   3.873   0.332   5.714
 4819SOL     OW15355   3.206   0.740   1.250
 4819SOL    HW115356   3.273   0.811   1.229
 4819SOL    HW215357   3.250   0.650   1.244
 4820SOL     OW15358   5.918   4.372   2.180
 4820SOL    HW115359   5.916   4.377   2.080
 4820SOL    HW215360   5.871   4.451   2.219
 4821SOL     OW15361   0.175   4.279   1.498
 4821SOL    HW115362   0.133   4.337   1.428
 4821SOL    HW215363   0.109   4.209   1.527
 4822SOL     OW15364   2.008   4.096   2.803
 4822SOL    HW115365   2.079   4.087   2.873
 4822SOL    HW215366   1.921   4.066   2.840
 4823SOL     OW15367   1.301   0.949   4.555
 4823SOL    HW115368   1.268   0.863   4.517
 4823SOL    HW215369   1.258   1.025   4.506
 4824SOL     OW15370   5.061   2.857   2.109
 4824SOL    HW115371   5.117   2.938   2.095
 4824SOL    HW215372   4.976   2.882   2.154
 4825SOL     OW15373   0.499   3.028   2.977
 4825SOL    HW115374   0.471   2.957   2.913
 4825SOL    HW215375   0.594   3.052   2.961
 4826SOL     OW15376   6.417   6.480   0.043
 4826SOL    HW115377   6.381   6.460   0.135
 4826SOL    HW215378   6.492   6.545   0.050
 4827SOL     OW15379   5.542   0.709   1.080
 4827SOL    HW115380   5.477   0.773   1.040
 4827SOL    HW215381   5.551   0.629   1.021
 4828SOL     OW15382   5.701   3.503   0.534
 4828SOL    HW115383   5.743   3.519   0.624
 4828SOL    HW215384   5.605   3.479   0.545
 4829SOL     OW15385   2.776   0.584   6.088
 4829SOL    HW115386   2.875   0.591   6.099
 4829SOL    HW215387   2.753   0.491   6.058
 4830SOL     OW15388   4.379   6.859   4.566
 4830SOL    HW115389   4.337   6.923   4.630
 4830SOL    HW215390   4.342   6.767   4.583
 4831SOL     OW15391   6.137   3.879   5.899
 4831SOL    HW115392   6.174   3.808   5.959
 4831SOL    HW215393   6.202   3.898   5.825
 4832SOL     OW15394   2.400   3.641   6.597
 4832SOL    HW115395   2.431   3.614   6.506
 4832SOL    HW215396   2.366   3.735   6.594
 4833SOL     OW15397   4.908   1.601   2.805
 4833SOL    HW115398   4.949   1.513   2.829
 4833SOL    HW215399   4.878   1.599   2.710
 4834SOL     OW15400   5.292   1.075   2.634
 4834SOL    HW115401   5.200   1.092   2.669
 4834SOL    HW215402   5.299   0.980   2.604
 4835SOL     OW15403   2.290   0.599   6.670
 4835SOL    HW115404   2.219   0.630   6.734
 4835SOL    HW215405   2.347   0.530   6.714
 4836SOL     OW15406   5.429   2.390   3.851
 4836SOL    HW115407   5.446   2.382   3.949
 4836SOL    HW215408   5.515   2.382   3.801
 4837SOL     OW15409   1.521   3.745   0.309
 4837SOL    HW115410   1.446   3.696   0.353
 4837SOL    HW215411   1.538   3.705   0.219
 4838SOL     OW15412   2.997   5.942   2.602
 4838SOL    HW115413   3.056   5.878   2.651
 4838SOL    HW215414   2.913   5.957   2.654
 4839SOL     OW15415   0.309   6.102   6.805
 4839SOL    HW115416   0.273   6.186   6.847
 4839SOL    HW215417   0.334   6.120   6.710
 4840SOL     OW15418   0.262   6.858   0.419
 4840SOL    HW115419   0.177   6.879   0.371
 4840SOL    HW215420   0.249   6.871   0.517
 4841SOL     OW15421   2.926   5.762   1.868
 4841SOL    HW115422   2.859   5.750   1.941
 4841SOL    HW215423   2.994   5.690   1.872
 4842SOL     OW15424   4.442   5.965   1.141
 4842SOL    HW115425   4.391   6.049   1.126
 4842SOL    HW215426   4.540   5.986   1.152
 4843SOL     OW15427   0.211   3.345   6.854
 4843SOL    HW115428   0.294   3.375   6.901
 4843SOL    HW215429   0.203   3.246   6.860
 4844SOL     OW15430   5.826   2.107   6.250
 4844SOL    HW115431   5.789   2.185   6.302
 4844SOL    HW215432   5.788   2.022   6.287
 4845SOL     OW15433   6.239   5.676   3.884
 4845SOL    HW115434   6.289   5.642   3.963
 4845SOL    HW215435   6.299   5.734   3.829
 4846SOL     OW15436   1.186   4.171   0.583
 4846SOL    HW115437   1.131   4.092   0.609
 4846SOL    HW215438   1.271   4.140   0.540
 4847SOL     OW15439   3.619   2.095   4.374
 4847SOL    HW115440   3.588   2.157   4.303
 4847SOL    HW215441   3.680   2.026   4.334
 4848SOL     OW15442   2.637   2.321   2.669
 4848SOL    HW115443   2.561   2.342   2.607
 4848SOL    HW215444   2.608   2.253   2.736
 4849SOL     OW15445   1.401   6.632   0.580
 4849SOL    HW115446   1.439   6.703   0.639
 4849SOL    HW215447   1.475   6.572   0.549
 4850SOL     OW15448   4.292   0.679   2.350
 4850SOL    HW115449   4.265   0.669   2.254
 4850SOL    HW215450   4.256   0.602   2.403
 4851SOL     OW15451   5.343   5.853   4.656
 4851SOL    HW115452   5.343   5.891   4.748
 4851SOL    HW215453   5.279   5.905   4.598
 4852SOL     OW15454   1.798   0.927   0.264
 4852SOL    HW115455   1.734   0.852   0.283
 4852SOL    HW215456   1.881   0.915   0.319
 4853SOL     OW15457   2.973   1.909   2.248
 4853SOL    HW115458   3.038   1.873   2.314
 4853SOL    HW215459   2.973   2.009   2.252
 4854SOL     OW15460   5.279   6.866   1.390
 4854SOL    HW115461   5.235   6.851   1.478
 4854SOL    HW215462   5.252   6.956   1.354
 4855SOL     OW15463   6.934   1.992   2.503
 4855SOL    HW115464   6.984   1.923   2.451
 4855SOL    HW215465   6.941   2.080   2.458
 4856SOL     OW15466   2.716   4.747   3.495
 4856SOL    HW115467   2.648   4.674   3.501
 4856SOL    HW215468   2.750   4.769   3.587
 4857SOL     OW15469   6.456   1.938   5.797
 4857SOL    HW115470   6.521   1.873   5.836
 4857SOL    HW215471   6.399   1.892   5.729
 4858SOL     OW15472   1.364   1.579   4.260
 4858SOL    HW115473   1.399   1.488   4.235
 4858SOL    HW215474   1.426   1.623   4.324
 4859SOL     OW15475   2.673   5.908   4.655
 4859SOL    HW115476   2.651   5.958   4.571
 4859SOL    HW215477   2.601   5.924   4.723
 4860SOL     OW15478   4.321   5.215   0.844
 4860SOL    HW115479   4.284   5.167   0.764
 4860SOL    HW215480   4.384   5.155   0.893
 4861SOL     OW15481   5.132   3.935   4.815
 4861SOL    HW115482   5.141   3.891   4.904
 4861SOL    HW215483   5.181   4.022   4.815
 4862SOL     OW15484   1.241   6.670   2.276
 4862SOL    HW115485   1.203   6.761   2.292
 4862SOL    HW215486   1.182   6.601   2.317
 4863SOL     OW15487   5.976   4.058   0.048
 4863SOL    HW115488   5.912   4.041   6.997
 4863SOL    HW215489   6.068   4.065   0.011
 4864SOL     OW15490   2.888   1.062   3.224
 4864SOL    HW115491   2.840   1.124   3.164
 4864SOL    HW215492   2.921   1.111   3.305
 4865SOL     OW15493   2.326   6.401   4.521
 4865SOL    HW115494   2.398   6.434   4.461
 4865SOL    HW215495   2.265   6.476   4.546
 4866SOL     OW15496   6.900   3.792   0.629
 4866SOL    HW115497   6.860   3.730   0.561
 4866SOL    HW215498   6.908   3.745   0.717
 4867SOL     OW15499   4.939   0.092   3.139
 4867SOL    HW115500   5.025   0.085   3.088
 4867SOL    HW215501   4.868   0.039   3.094
 4868SOL     OW15502   6.700   4.886   1.096
 4868SOL    HW115503   6.766   4.821   1.058
 4868SOL    HW215504   6.631   4.837   1.149
 4869SOL     OW15505   0.493   1.246   0.029
 4869SOL    HW115506   0.523   1.231   0.124
 4869SOL    HW215507   0.476   1.343   0.014
 4870SOL     OW15508   0.573   6.281   2.202
 4870SOL    HW115509   0.522   6.365   2.218
 4870SOL    HW215510   0.627   6.291   2.119
 4871SOL     OW15511   0.976   1.503   4.458
 4871SOL    HW115512   1.042   1.558   4.407
 4871SOL    HW215513   0.889   1.552   4.463
 4872SOL     OW15514   5.648   0.150   3.968
 4872SOL    HW115515   5.722   0.107   4.019
 4872SOL    HW215516   5.594   0.208   4.030
 4873SOL     OW15517   6.473   5.912   5.571
 4873SOL    HW115518   6.404   5.982   5.591
 4873SOL    HW215519   6.541   5.948   5.508
 4874SOL     OW15520   4.825   2.964   3.023
 4874SOL    HW115521   4.800   2.962   3.120
 4874SOL    HW215522   4.851   3.057   2.997
 4875SOL     OW15523   5.623   6.286   5.636
 4875SOL    HW115524   5.599   6.367   5.584
 4875SOL    HW215525   5.645   6.312   5.730
 4876SOL     OW15526   2.050   0.991   2.776
 4876SOL    HW115527   2.041   0.932   2.695
 4876SOL    HW215528   2.110   1.068   2.754
 4877SOL     OW15529   0.181   2.178   4.821
 4877SOL    HW115530   0.207   2.165   4.916
 4877SOL    HW215531   0.249   2.236   4.775
 4878SOL     OW15532   0.719   2.678   2.586
 4878SOL    HW115533   0.785   2.657   2.514
 4878SOL    HW215534   0.712   2.600   2.648
 4879SOL     OW15535   5.136   1.497   3.005
 4879SOL    HW115536   5.082   1.548   3.072
 4879SOL    HW215537   5.205   1.557   2.965
 4880SOL     OW15538   6.003   2.733   6.336
 4880SOL    HW115539   5.918   2.681   6.343
 4880SOL    HW215540   5.998   2.814   6.395
 4881SOL     OW15541   1.617   3.621   2.014
 4881SOL    HW115542   1.707   3.603   2.055
 4881SOL    HW215543   1.603   3.720   2.008
 4882SOL     OW15544   4.505   2.515   4.861
 4882SOL    HW115545   4.481   2.418   4.863
 4882SOL    HW215546   4.476   2.555   4.774
 4883SOL     OW15547   6.360   3.970   1.888
 4883SOL    HW115548   6.301   4.012   1.957
 4883SOL    HW215549   6.429   3.914   1.934
 4884SOL     OW15550   2.354   6.351   1.584
 4884SOL    HW115551   2.279   6.414   1.565
 4884SOL    HW215552   2.439   6.390   1.547
 4885SOL     OW15553   1.093   4.639   0.854
 4885SOL    HW115554   1.029   4.569   0.885
 4885SOL    HW215555   1.136   4.682   0.934
 4886SOL     OW15556   3.010   1.539   2.325
 4886SOL    HW115557   3.015   1.453   2.275
 4886SOL    HW215558   3.054   1.611   2.271
 4887SOL     OW15559   0.308   6.921   1.340
 4887SOL    HW115560   0.403   6.893   1.360
 4887SOL    HW215561   0.275   6.980   1.414
 4888SOL     OW15562   3.282   6.387   3.121
 4888SOL    HW115563   3.299   6.369   3.024
 4888SOL    HW215564   3.235   6.475   3.131
 4889SOL     OW15565   6.957   2.797   3.442
 4889SOL    HW115566   6.890   2.848   3.496
 4889SOL    HW215567   0.006   2.764   3.502
 4890SOL     OW15568   0.445   1.369   4.874
 4890SOL    HW115569   0.450   1.349   4.776
 4890SOL    HW215570   0.392   1.453   4.888
 4891SOL     OW15571   2.702   5.720   6.056
 4891SOL    HW115572   2.758   5.779   5.997
 4891SOL    HW215573   2.703   5.756   6.149
 4892SOL     OW15574   5.196   6.185   3.016
 4892SOL    HW115575   5.247   6.130   3.083
 4892SOL    HW215576   5.110   6.216   3.058
 4893SOL     OW15577   0.601   3.584   1.829
 4893SOL    HW115578   0.625   3.501   1.880
 4893SOL    HW215579   0.527   3.564   1.766
 4894SOL     OW15580   4.317   6.681   2.136
 4894SOL    HW115581   4.384   6.687   2.209
 4894SOL    HW215582   4.336   6.600   2.079
 4895SOL     OW15583   6.709   4.668   4.007
 4895SOL    HW115584   6.631   4.606   4.000
 4895SOL    HW215585   6.785   4.632   3.952
 4896SOL     OW15586   2.176   5.015   4.226
 4896SOL    HW115587   2.171   4.915   4.217
 4896SOL    HW215588   2.153   5.040   4.320
 4897SOL     OW15589   1.986   6.325   5.595
 4897SOL    HW115590   2.070   6.370   5.627
 4897SOL    HW215591   1.950   6.375   5.517
 4898SOL     OW15592   3.949   1.914   3.854
 4898SOL    HW115593   3.940   1.925   3.755
 4898SOL    HW215594   4.031   1.859   3.873
 4899SOL     OW15595   6.935   5.081   1.364
 4899SOL    HW115596   6.897   5.151   1.425
 4899SOL    HW215597   6.989   5.016   1.418
 4900SOL     OW15598   3.829   6.205   5.497
 4900SOL    HW115599   3.915   6.252   5.519
 4900SOL    HW215600   3.849   6.120   5.448
 4901SOL     OW15601   0.195   1.376   6.226
 4901SOL    HW115602   0.245   1.322   6.294
 4901SOL    HW215603   0.258   1.407   6.155
 4902SOL     OW15604   1.974   0.443   6.059
 4902SOL    HW115605   2.011   0.441   6.152
 4902SOL    HW215606   1.874   0.442   6.063
 4903SOL     OW15607   5.516   5.110   1.515
 4903SOL    HW115608   5.553   5.031   1.564
 4903SOL    HW215609   5.466   5.079   1.434
 4904SOL     OW15610   1.723   0.403   0.521
 4904SOL    HW115611   1.638   0.383   0.569
 4904SOL    HW215612   1.774   0.473   0.571
 4905SOL     OW15613   3.281   6.638   2.547
 4905SOL    HW115614   3.339   6.714   2.576
 4905SOL    HW215615   3.293   6.622   2.449
 4906SOL     OW15616   5.539   3.251   5.000
 4906SOL    HW115617   5.536   3.329   4.938
 4906SOL    HW215618   5.459   3.253   5.060
 4907SOL     OW15619   4.342   1.530   6.236
 4907SOL    HW115620   4.416   1.586   6.199
 4907SOL    HW215621   4.379   1.446   6.275
 4908SOL     OW15622   4.529   6.708   0.078
 4908SOL    HW115623   4.629   6.708   0.075
 4908SOL    HW215624   4.498   6.784   0.135
 4909SOL     OW15625   5.641   4.294   4.310
 4909SOL    HW115626   5.602   4.330   4.225
 4909SOL    HW215627   5.693   4.365   4.356
 4910SOL     OW15628   4.597   1.348   5.709
 4910SOL    HW115629   4.635   1.256   5.701
 4910SOL    HW215630   4.566   1.363   5.803
 4911SOL     OW15631   0.375   2.190   1.765
 4911SOL    HW115632   0.343   2.217   1.857
 4911SOL    HW215633   0.296   2.175   1.706
 4912SOL     OW15634   6.129   2.127   4.065
 4912SOL    HW115635   6.042   2.168   4.036
 4912SOL    HW215636   6.190   2.199   4.097
 4913SOL     OW15637   6.629   2.656   5.571
 4913SOL    HW115638   6.606   2.580   5.631
 4913SOL    HW215639   6.665   2.620   5.484
 4914SOL     OW15640   4.773   0.525   4.001
 4914SOL    HW115641   4.794   0.530   3.903
 4914SOL    HW215642   4.762   0.617   4.038
 4915SOL     OW15643   3.965   5.730   5.657
 4915SOL    HW115644   3.911   5.813   5.670
 4915SOL    HW215645   4.056   5.744   5.697
 4916SOL     OW15646   6.028   1.883   3.759
 4916SOL    HW115647   5.963   1.809   3.779
 4916SOL    HW215648   6.094   1.891   3.834
 4917SOL     OW15649   4.788   0.252   0.970
 4917SOL    HW115650   4.848   0.239   0.890
 4917SOL    HW215651   4.838   0.300   1.042
 4918SOL     OW15652   6.211   5.458   2.223
 4918SOL    HW115653   6.298   5.411   2.239
 4918SOL    HW215654   6.174   5.430   2.135
 4919SOL     OW15655   3.688   4.073   2.270
 4919SOL    HW115656   3.723   4.103   2.358
 4919SOL    HW215657   3.592   4.099   2.261
 4920SOL     OW15658   5.972   0.777   5.412
 4920SOL    HW115659   6.060   0.794   5.457
 4920SOL    HW215660   5.957   0.678   5.404
 4921SOL     OW15661   0.199   7.001   2.209
 4921SOL    HW115662   0.136   0.032   2.154
 4921SOL    HW215663   0.206   0.016   2.301
 4922SOL     OW15664   3.683   2.382   6.304
 4922SOL    HW115665   3.697   2.360   6.208
 4922SOL    HW215666   3.647   2.302   6.352
 4923SOL     OW15667   3.302   1.773   2.740
 4923SOL    HW115668   3.354   1.786   2.824
 4923SOL    HW215669   3.205   1.767   2.762
 4924SOL     OW15670   2.469   0.744   5.633
 4924SOL    HW115671   2.523   0.686   5.694
 4924SOL    HW215672   2.410   0.687   5.577
 4925SOL     OW15673   5.464   6.115   3.767
 4925SOL    HW115674   5.495   6.133   3.673
 4925SOL    HW215675   5.456   6.201   3.817
 4926SOL     OW15676   5.439   2.023   0.961
 4926SOL    HW115677   5.502   1.970   1.018
 4926SOL    HW215678   5.460   2.120   0.971
 4927SOL     OW15679   3.676   1.530   6.291
 4927SOL    HW115680   3.595   1.589   6.278
 4927SOL    HW215681   3.748   1.582   6.336
 4928SOL     OW15682   0.390   2.245   0.445
 4928SOL    HW115683   0.349   2.167   0.397
 4928SOL    HW215684   0.450   2.294   0.382
 4929SOL     OW15685   0.595   6.237   4.723
 4929SOL    HW115686   0.649   6.156   4.700
 4929SOL    HW215687   0.498   6.211   4.728
 4930SOL     OW15688   5.433   6.807   2.281
 4930SOL    HW115689   5.413   6.836   2.374
 4930SOL    HW215690   5.516   6.851   2.249
 4931SOL     OW15691   6.010   6.157   0.635
 4931SOL    HW115692   5.991   6.073   0.686
 4931SOL    HW215693   5.925   6.198   0.605
 4932SOL     OW15694   3.051   3.061   2.200
 4932SOL    HW115695   2.984   3.118   2.247
 4932SOL    HW215696   3.004   2.992   2.145
 4933SOL     OW15697   3.177   5.945   5.408
 4933SOL    HW115698   3.239   5.869   5.388
 4933SOL    HW215699   3.130   5.972   5.324
 4934SOL     OW15700   3.903   4.831   3.098
 4934SOL    HW115701   3.978   4.770   3.124
 4934SOL    HW215702   3.940   4.918   3.067
 4935SOL     OW15703   0.767   0.936   6.414
 4935SOL    HW115704   0.741   0.892   6.500
 4935SOL    HW215705   0.856   0.900   6.384
 4936SOL     OW15706   2.737   3.526   1.023
 4936SOL    HW115707   2.759   3.544   1.119
 4936SOL    HW215708   2.738   3.612   0.972
 4937SOL     OW15709   4.631   2.728   5.286
 4937SOL    HW115710   4.558   2.797   5.285
 4937SOL    HW215711   4.643   2.692   5.194
 4938SOL     OW15712   4.199   5.760   5.782
 4938SOL    HW115713   4.188   5.829   5.853
 4938SOL    HW215714   4.254   5.797   5.707
 4939SOL     OW15715   4.680   3.135   5.676
 4939SOL    HW115716   4.606   3.089   5.724
 4939SOL    HW215717   4.766   3.118   5.724
 4940SOL     OW15718   2.546   6.496   4.391
 4940SOL    HW115719   2.590   6.581   4.419
 4940SOL    HW215720   2.527   6.499   4.292
 4941SOL     OW15721   5.669   0.546   0.460
 4941SOL    HW115722   5.760   0.535   0.501
 4941SOL    HW215723   5.600   0.541   0.531
 4942SOL     OW15724   5.028   3.715   5.204
 4942SOL    HW115725   5.103   3.673   5.255
 4942SOL    HW215726   4.972   3.644   5.162
 4943SOL     OW15727   4.191   2.215   0.945
 4943SOL    HW115728   4.124   2.284   0.920
 4943SOL    HW215729   4.256   2.253   1.011
 4944SOL     OW15730   2.272   4.440   2.342
 4944SOL    HW115731   2.298   4.457   2.247
 4944SOL    HW215732   2.173   4.452   2.352
 4945SOL     OW15733   0.445   6.667   4.503
 4945SOL    HW115734   0.469   6.764   4.504
 4945SOL    HW215735   0.489   6.621   4.581
 4946SOL     OW15736   1.433   3.896   2.698
 4946SOL    HW115737   1.355   3.855   2.650
 4946SOL    HW215738   1.418   3.994   2.708
 4947SOL     OW15739   0.562   6.674   0.567
 4947SOL    HW115740   0.476   6.663   0.616
 4947SOL    HW215741   0.578   6.594   0.509
 4948SOL     OW15742   2.285   1.401   2.040
 4948SOL    HW115743   2.344   1.477   2.066
 4948SOL    HW215744   2.245   1.360   2.122
 4949SOL     OW15745   5.713   1.475   4.136
 4949SOL    HW115746   5.676   1.534   4.064
 4949SOL    HW215747   5.737   1.386   4.098
 4950SOL     OW15748   3.091   5.641   4.506
 4950SOL    HW115749   3.095   5.568   4.438
 4950SOL    HW215750   3.122   5.606   4.595
 4951SOL     OW15751   4.349   2.406   3.634
 4951SOL    HW115752   4.409   2.447   3.566
 4951SOL    HW215753   4.265   2.373   3.589
 4952SOL     OW15754   1.009   5.980   5.428
 4952SOL    HW115755   0.929   6.020   5.472
 4952SOL    HW215756   0.999   5.987   5.328
 4953SOL     OW15757   1.730   5.208   1.671
 4953SOL    HW115758   1.646   5.190   1.722
 4953SOL    HW215759   1.789   5.270   1.723
 4954SOL     OW15760   5.377   6.213   6.940
 4954SOL    HW115761   5.368   6.270   6.859
 4954SOL    HW215762   5.460   6.157   6.934
 4955SOL     OW15763   1.093   6.355   1.273
 4955SOL    HW115764   1.070   6.272   1.323
 4955SOL    HW215765   1.188   6.381   1.293
 4956SOL     OW15766   4.468   6.273   4.168
 4956SOL    HW115767   4.466   6.223   4.254
 4956SOL    HW215768   4.558   6.261   4.125
 4957SOL     OW15769   0.877   0.419   4.186
 4957SOL    HW115770   0.928   0.415   4.272
 4957SOL    HW215771   0.779   0.420   4.205
 4958SOL     OW15772   6.937   5.812   0.135
 4958SOL    HW115773   6.894   5.818   0.045
 4958SOL    HW215774   6.872   5.842   0.205
 4959SOL     OW15775   0.767   1.038   1.053
 4959SOL    HW115776   0.829   1.115   1.064
 4959SOL    HW215777   0.766   0.983   1.136
 4960SOL     OW15778   4.266   6.928   4.893
 4960SOL    HW115779   4.360   6.916   4.925
 4960SOL    HW215780   4.231   6.840   4.859
 4961SOL     OW15781   4.628   0.622   5.433
 4961SOL    HW115782   4.657   0.541   5.383
 4961SOL    HW215783   4.531   0.614   5.456
 4962SOL     OW15784   6.929   1.086   0.938
 4962SOL    HW115785   6.979   1.143   0.873
 4962SOL    HW215786   6.994   1.027   0.986
 4963SOL     OW15787   0.501   4.780   1.589
 4963SOL    HW115788   0.557   4.752   1.666
 4963SOL    HW215789   0.452   4.701   1.552
 4964SOL     OW15790   3.779   6.760   3.284
 4964SOL    HW115791   3.838   6.829   3.242
 4964SOL    HW215792   3.808   6.669   3.256
 4965SOL     OW15793   0.069   6.912   4.318
 4965SOL    HW115794   0.017   6.916   4.233
 4965SOL    HW215795   0.132   6.989   4.324
 4966SOL     OW15796   3.801   4.848   3.739
 4966SOL    HW115797   3.709   4.867   3.706
 4966SOL    HW215798   3.812   4.886   3.830
 4967SOL     OW15799   3.966   2.442   5.799
 4967SOL    HW115800   3.887   2.407   5.750
 4967SOL    HW215801   3.944   2.531   5.839
 4968SOL     OW15802   5.869   2.757   5.543
 4968SOL    HW115803   5.899   2.814   5.466
 4968SOL    HW215804   5.948   2.710   5.583
 4969SOL     OW15805   1.211   1.656   1.906
 4969SOL    HW115806   1.169   1.602   1.833
 4969SOL    HW215807   1.146   1.667   1.981
 4970SOL     OW15808   0.739   2.524   5.810
 4970SOL    HW115809   0.810   2.555   5.747
 4970SOL    HW215810   0.767   2.437   5.851
 4971SOL     OW15811   5.690   5.753   3.660
 4971SOL    HW115812   5.784   5.750   3.627
 4971SOL    HW215813   5.681   5.693   3.739
 4972SOL     OW15814   1.477   2.571   6.261
 4972SOL    HW115815   1.531   2.516   6.198
 4972SOL    HW215816   1.394   2.520   6.286
 4973SOL     OW15817   5.160   6.537   2.467
 4973SOL    HW115818   5.137   6.441   2.484
 4973SOL    HW215819   5.119   6.594   2.538
 4974SOL     OW15820   5.660   6.936   2.203
 4974SOL    HW115821   5.734   6.991   2.164
 4974SOL    HW215822   5.667   6.938   2.303
 4975SOL     OW15823   5.674   6.045   0.844
 4975SOL    HW115824   5.754   6.017   0.790
 4975SOL    HW215825   5.703   6.099   0.923
 4976SOL     OW15826   3.844   0.551   4.670
 4976SOL    HW115827   3.785   0.472   4.650
 4976SOL    HW215828   3.938   0.520   4.682
 4977SOL     OW15829   3.631   4.094   0.612
 4977SOL    HW115830   3.583   4.133   0.533
 4977SOL    HW215831   3.568   4.034   0.662
 4978SOL     OW15832   5.553   3.373   6.304
 4978SOL    HW115833   5.494   3.314   6.359
 4978SOL    HW215834   5.631   3.321   6.271
 4979SOL     OW15835   1.168   1.020   5.706
 4979SOL    HW115836   1.261   0.984   5.701
 4979SOL    HW215837   1.122   0.982   5.787
 4980SOL     OW15838   2.310   5.426   2.021
 4980SOL    HW115839   2.359   5.349   2.063
 4980SOL    HW215840   2.264   5.395   1.938
 4981SOL     OW15841   4.575   6.529   5.424
 4981SOL    HW115842   4.661   6.479   5.422
 4981SOL    HW215843   4.571   6.587   5.505
 4982SOL     OW15844   2.576   3.149   0.535
 4982SOL    HW115845   2.476   3.145   0.534
 4982SOL    HW215846   2.613   3.064   0.573
 4983SOL     OW15847   5.370   2.982   4.463
 4983SOL    HW115848   5.402   2.960   4.370
 4983SOL    HW215849   5.308   3.061   4.458
 4984SOL     OW15850   4.707   4.138   2.585
 4984SOL    HW115851   4.726   4.044   2.613
 4984SOL    HW215852   4.741   4.153   2.492
 4985SOL     OW15853   5.723   4.753   2.499
 4985SOL    HW115854   5.733   4.669   2.552
 4985SOL    HW215855   5.786   4.822   2.534
 4986SOL     OW15856   4.376   4.798   1.861
 4986SOL    HW115857   4.312   4.846   1.921
 4986SOL    HW215858   4.410   4.717   1.908
 4987SOL     OW15859   0.043   3.370   1.583
 4987SOL    HW115860   0.049   3.470   1.594
 4987SOL    HW215861   6.972   3.342   1.595
 4988SOL     OW15862   0.540   1.981   4.766
 4988SOL    HW115863   0.501   2.017   4.850
 4988SOL    HW215864   0.470   1.931   4.715
 4989SOL     OW15865   0.586   0.864   0.578
 4989SOL    HW115866   0.597   0.872   0.677
 4989SOL    HW215867   0.542   0.776   0.556
 4990SOL     OW15868   0.956   2.280   5.677
 4990SOL    HW115869   1.013   2.350   5.635
 4990SOL    HW215870   1.000   2.245   5.760
 4991SOL     OW15871   1.332   2.929   4.253
 4991SOL    HW115872   1.396   2.954   4.325
 4991SOL    HW215873   1.376   2.941   4.164
 4992SOL     OW15874   3.320   0.642   6.102
 4992SOL    HW115875   3.288   0.737   6.104
 4992SOL    HW215876   3.396   0.632   6.167
 4993SOL     OW15877   2.874   5.995   4.016
 4993SOL    HW115878   2.974   5.996   4.011
 4993SOL    HW215879   2.837   5.946   3.937
 4994SOL     OW15880   0.396   6.774   2.627
 4994SOL    HW115881   0.429   6.714   2.555
 4994SOL    HW215882   0.442   6.862   2.621
 4995SOL     OW15883   5.607   2.948   6.044
 4995SOL    HW115884   5.698   2.956   6.002
 4995SOL    HW215885   5.611   2.882   6.119
 4996SOL     OW15886   1.125   1.255   3.910
 4996SOL    HW115887   1.176   1.172   3.885
 4996SOL    HW215888   1.129   1.320   3.834
 4997SOL     OW15889   0.481   2.555   3.671
 4997SOL    HW115890   0.574   2.591   3.677
 4997SOL    HW215891   0.451   2.522   3.760
 4998SOL     OW15892   1.912   5.475   4.831
 4998SOL    HW115893   2.007   5.474   4.864
 4998SOL    HW215894   1.895   5.559   4.779
 4999SOL     OW15895   6.293   4.777   1.492
 4999SOL    HW115896   6.219   4.830   1.533
 4999SOL    HW215897   6.264   4.745   1.401
 5000SOL     OW15898   0.013   6.238   4.629
 5000SOL    HW115899   0.022   6.197   4.538
 5000SOL    HW215900   6.949   6.285   4.636
 5001SOL     OW15901   4.367   4.480   5.741
 5001SOL    HW115902   4.444   4.465   5.679
 5001SOL    HW215903   4.297   4.411   5.724
 5002SOL     OW15904   2.045   1.181   1.977
 5002SOL    HW115905   2.098   1.241   2.036
 5002SOL    HW215906   2.043   1.219   1.884
 5003SOL     OW15907   6.336   5.974   2.819
 5003SOL    HW115908   6.311   5.986   2.723
 5003SOL    HW215909   6.378   5.883   2.830
 5004SOL     OW15910   3.302   5.807   0.055
 5004SOL    HW115911   3.212   5.808   0.098
 5004SOL    HW215912   3.352   5.890   0.079
 5005SOL     OW15913   4.549   2.013   6.768
 5005SOL    HW115914   4.577   2.101   6.807
 5005SOL    HW215915   4.482   2.029   6.696
 5006SOL     OW15916   5.605   5.634   3.932
 5006SOL    HW115917   5.525   5.670   3.884
 5006SOL    HW215918   5.624   5.690   4.012
 5007SOL     OW15919   3.745   1.610   5.111
 5007SOL    HW115920   3.838   1.604   5.149
 5007SOL    HW215921   3.734   1.696   5.062
 5008SOL     OW15922   6.181   1.556   3.618
 5008SOL    HW115923   6.267   1.548   3.669
 5008SOL    HW215924   6.197   1.607   3.534
 5009SOL     OW15925   1.621   6.201   3.519
 5009SOL    HW115926   1.535   6.224   3.565
 5009SOL    HW215927   1.696   6.253   3.560
 5010SOL     OW15928   4.074   3.246   4.466
 5010SOL    HW115929   4.007   3.315   4.490
 5010SOL    HW215930   4.050   3.159   4.509
 5011SOL     OW15931   1.359   2.716   2.487
 5011SOL    HW115932   1.373   2.661   2.569
 5011SOL    HW215933   1.433   2.783   2.478
 5012SOL     OW15934   6.178   3.032   6.458
 5012SOL    HW115935   6.136   3.119   6.432
 5012SOL    HW215936   6.235   2.999   6.383
 5013SOL     OW15937   4.000   0.983   6.843
 5013SOL    HW115938   4.074   1.050   6.836
 5013SOL    HW215939   3.999   0.944   6.935
 5014SOL     OW15940   6.063   6.758   0.066
 5014SOL    HW115941   6.008   6.675   0.083
 5014SOL    HW215942   6.071   6.809   0.152
 5015SOL     OW15943   4.876   2.524   3.375
 5015SOL    HW115944   4.811   2.480   3.313
 5015SOL    HW215945   4.869   2.482   3.465
 5016SOL     OW15946   1.942   0.015   2.779
 5016SOL    HW115947   1.977   6.956   2.734
 5016SOL    HW215948   1.895   7.014   2.863
 5017SOL     OW15949   2.612   2.873   1.361
 5017SOL    HW115950   2.562   2.819   1.429
 5017SOL    HW215951   2.552   2.896   1.285
 5018SOL     OW15952   6.684   5.633   4.030
 5018SOL    HW115953   6.585   5.628   4.016
 5018SOL    HW215954   6.732   5.603   3.948
 5019SOL     OW15955   2.726   5.007   6.524
 5019SOL    HW115956   2.748   4.965   6.612
 5019SOL    HW215957   2.706   4.936   6.457
 5020SOL     OW15958   4.914   5.847   6.376
 5020SOL    HW115959   4.874   5.816   6.290
 5020SOL    HW215960   5.014   5.839   6.371
 5021SOL     OW15961   1.613   4.700   6.162
 5021SOL    HW115962   1.680   4.756   6.211
 5021SOL    HW215963   1.633   4.603   6.178
 5022SOL     OW15964   1.367   5.362   0.450
 5022SOL    HW115965   1.274   5.399   0.445
 5022SOL    HW215966   1.372   5.297   0.526
 5023SOL     OW15967   6.267   3.007   2.569
 5023SOL    HW115968   6.198   2.935   2.571
 5023SOL    HW215969   6.294   3.023   2.474
 5024SOL     OW15970   5.860   3.387   4.719
 5024SOL    HW115971   5.852   3.460   4.787
 5024SOL    HW215972   5.956   3.372   4.698
 5025SOL     OW15973   5.970   1.312   3.324
 5025SOL    HW115974   5.997   1.240   3.389
 5025SOL    HW215975   6.040   1.384   3.324
 5026SOL     OW15976   0.632   6.553   3.837
 5026SOL    HW115977   0.637   6.494   3.918
 5026SOL    HW215978   0.543   6.544   3.794
 5027SOL     OW15979   1.068   6.597   3.554
 5027SOL    HW115980   1.052   6.696   3.554
 5027SOL    HW215981   1.023   6.556   3.634
 5028SOL     OW15982   0.886   0.625   2.596
 5028SOL    HW115983   0.909   0.532   2.623
 5028SOL    HW215984   0.840   0.671   2.672
 5029SOL     OW15985   0.086   0.886   1.778
 5029SOL    HW115986   0.062   0.917   1.870
 5029SOL    HW215987   0.114   0.790   1.781
 5030SOL     OW15988   1.368   6.060   0.200
 5030SOL    HW115989   1.336   6.141   0.249
 5030SOL    HW215990   1.366   5.981   0.261
 5031SOL     OW15991   5.325   0.291   4.928
 5031SOL    HW115992   5.414   0.287   4.973
 5031SOL    HW215993   5.334   0.260   4.833
 5032SOL     OW15994   1.495   5.937   0.919
 5032SOL    HW115995   1.462   5.843   0.923
 5032SOL    HW215996   1.593   5.939   0.937
 5033SOL     OW15997   2.014   4.502   5.877
 5033SOL    HW115998   2.013   4.554   5.962
 5033SOL    HW215999   1.925   4.511   5.831
 5034SOL     OW16000   6.941   3.740   0.918
 5034SOL    HW116001   0.014   3.754   0.897
 5034SOL    HW216002   6.925   3.643   0.938
 5035SOL     OW16003   5.818   4.218   0.681
 5035SOL    HW116004   5.912   4.206   0.712
 5035SOL    HW216005   5.758   4.156   0.731
 5036SOL     OW16006   1.885   0.430   2.218
 5036SOL    HW116007   1.807   0.418   2.157
 5036SOL    HW216008   1.852   0.451   2.310
 5037SOL     OW16009   4.680   2.393   3.554
 5037SOL    HW116010   4.641   2.471   3.504
 5037SOL    HW216011   4.695   2.419   3.649
 5038SOL     OW16012   3.076   6.324   5.626
 5038SOL    HW116013   3.023   6.391   5.678
 5038SOL    HW216014   3.017   6.279   5.560
 5039SOL     OW16015   2.016   1.455   4.506
 5039SOL    HW116016   1.961   1.396   4.565
 5039SOL    HW216017   2.071   1.516   4.563
 5040SOL     OW16018   2.633   3.455   5.945
 5040SOL    HW116019   2.614   3.546   5.909
 5040SOL    HW216020   2.618   3.386   5.874
 5041SOL     OW16021   1.263   5.044   0.937
 5041SOL    HW116022   1.216   5.010   1.019
 5041SOL    HW216023   1.209   5.117   0.896
 5042SOL     OW16024   5.589   2.629   6.413
 5042SOL    HW116025   5.644   2.590   6.339
 5042SOL    HW216026   5.511   2.569   6.431
 5043SOL     OW16027   4.120   0.387   3.279
 5043SOL    HW116028   4.151   0.293   3.291
 5043SOL    HW216029   4.198   0.449   3.288
 5044SOL     OW16030   6.567   4.488   3.197
 5044SOL    HW116031   6.644   4.484   3.261
 5044SOL    HW216032   6.492   4.540   3.238
 5045SOL     OW16033   6.497   3.058   6.494
 5045SOL    HW116034   6.455   3.131   6.440
 5045SOL    HW216035   6.476   3.073   6.591
 5046SOL     OW16036   3.551   2.886   5.295
 5046SOL    HW116037   3.621   2.888   5.225
 5046SOL    HW216038   3.491   2.966   5.285
 5047SOL     OW16039   0.917   1.247   2.679
 5047SOL    HW116040   0.818   1.261   2.671
 5047SOL    HW216041   0.956   1.238   2.588
 5048SOL     OW16042   5.758   2.968   1.290
 5048SOL    HW116043   5.762   2.894   1.357
 5048SOL    HW216044   5.846   2.975   1.242
 5049SOL     OW16045   1.236   2.361   2.752
 5049SOL    HW116046   1.295   2.299   2.805
 5049SOL    HW216047   1.289   2.440   2.723
 5050SOL     OW16048   0.655   3.428   1.309
 5050SOL    HW116049   0.589   3.502   1.301
 5050SOL    HW216050   0.744   3.465   1.334
 5051SOL     OW16051   3.075   5.161   0.191
 5051SOL    HW116052   3.147   5.216   0.147
 5051SOL    HW216053   3.026   5.109   0.121
 5052SOL     OW16054   5.658   4.453   1.084
 5052SOL    HW116055   5.635   4.359   1.107
 5052SOL    HW216056   5.742   4.455   1.030
 5053SOL     OW16057   2.241   4.478   0.363
 5053SOL    HW116058   2.334   4.459   0.334
 5053SOL    HW216059   2.179   4.474   0.285
 5054SOL     OW16060   3.920   5.816   4.556
 5054SOL    HW116061   3.854   5.778   4.622
 5054SOL    HW216062   3.897   5.912   4.538
 5055SOL     OW16063   1.564   2.026   4.346
 5055SOL    HW116064   1.505   2.003   4.423
 5055SOL    HW216065   1.595   1.942   4.301
 5056SOL     OW16066   2.005   2.890   5.463
 5056SOL    HW116067   1.975   2.795   5.473
 5056SOL    HW216068   2.045   2.904   5.373
 5057SOL     OW16069   0.676   4.666   2.869
 5057SOL    HW116070   0.739   4.689   2.794
 5057SOL    HW216071   0.726   4.617   2.940
 5058SOL     OW16072   3.419   4.052   6.698
 5058SOL    HW116073   3.458   4.083   6.611
 5058SOL    HW216074   3.476   3.979   6.735
 5059SOL     OW16075   3.007   1.440   3.618
 5059SOL    HW116076   3.032   1.421   3.523
 5059SOL    HW216077   2.943   1.517   3.620
 5060SOL     OW16078   0.395   3.290   5.876
 5060SOL    HW116079   0.444   3.377   5.870
 5060SOL    HW216080   0.446   3.227   5.934
 5061SOL     OW16081   3.726   2.847   5.821
 5061SOL    HW116082   3.726   2.769   5.882
 5061SOL    HW216083   3.812   2.897   5.830
 5062SOL     OW16084   5.394   1.356   3.108
 5062SOL    HW116085   5.296   1.374   3.121
 5062SOL    HW216086   5.407   1.294   3.031
 5063SOL     OW16087   1.064   0.775   2.438
 5063SOL    HW116088   1.057   0.737   2.346
 5063SOL    HW216089   1.001   0.726   2.499
 5064SOL     OW16090   4.891   5.870   1.058
 5064SOL    HW116091   4.822   5.825   1.115
 5064SOL    HW216092   4.948   5.801   1.014
 5065SOL     OW16093   2.351   0.505   2.536
 5065SOL    HW116094   2.322   0.554   2.619
 5065SOL    HW216095   2.440   0.463   2.551
 5066SOL     OW16096   2.568   4.946   2.053
 5066SOL    HW116097   2.486   4.955   1.995
 5066SOL    HW216098   2.545   4.895   2.135
 5067SOL     OW16099   4.924   2.933   0.454
 5067SOL    HW116100   5.004   2.888   0.494
 5067SOL    HW216101   4.951   2.983   0.372
 5068SOL     OW16102   3.079   6.412   0.715
 5068SOL    HW116103   3.028   6.413   0.629
 5068SOL    HW216104   3.027   6.461   0.785
 5069SOL     OW16105   3.353   4.866   5.493
 5069SOL    HW116106   3.436   4.828   5.452
 5069SOL    HW216107   3.310   4.797   5.551
 5070SOL     OW16108   5.953   3.491   4.114
 5070SOL    HW116109   5.967   3.554   4.038
 5070SOL    HW216110   5.952   3.397   4.079
 5071SOL     OW16111   2.968   0.809   4.301
 5071SOL    HW116112   3.002   0.718   4.275
 5071SOL    HW216113   2.881   0.800   4.348
 5072SOL     OW16114   0.657   1.496   0.366
 5072SOL    HW116115   0.729   1.452   0.420
 5072SOL    HW216116   0.578   1.434   0.358
 5073SOL     OW16117   2.441   0.935   2.536
 5073SOL    HW116118   2.427   0.972   2.628
 5073SOL    HW216119   2.352   0.913   2.496
 5074SOL     OW16120   3.514   2.310   1.614
 5074SOL    HW116121   3.427   2.260   1.614
 5074SOL    HW216122   3.553   2.308   1.706
 5075SOL     OW16123   1.086   3.493   0.377
 5075SOL    HW116124   1.066   3.572   0.320
 5075SOL    HW216125   1.009   3.476   0.439
 5076SOL     OW16126   6.010   0.377   6.093
 5076SOL    HW116127   5.984   0.473   6.104
 5076SOL    HW216128   5.933   0.326   6.053
 5077SOL     OW16129   0.810   4.424   3.884
 5077SOL    HW116130   0.797   4.353   3.954
 5077SOL    HW216131   0.830   4.511   3.928
 5078SOL     OW16132   0.448   1.733   4.376
 5078SOL    HW116133   0.368   1.794   4.374
 5078SOL    HW216134   0.473   1.708   4.283
 5079SOL     OW16135   0.846   3.170   5.415
 5079SOL    HW116136   0.916   3.209   5.356
 5079SOL    HW216137   0.845   3.218   5.503
 5080SOL     OW16138   5.626   5.829   6.687
 5080SOL    HW116139   5.618   5.794   6.780
 5080SOL    HW216140   5.723   5.840   6.663
 5081SOL     OW16141   3.329   5.120   5.536
 5081SOL    HW116142   3.336   5.020   5.528
 5081SOL    HW216143   3.386   5.151   5.613
 5082SOL     OW16144   5.060   6.010   2.365
 5082SOL    HW116145   4.985   6.071   2.338
 5082SOL    HW216146   5.135   6.019   2.299
 5083SOL     OW16147   1.522   0.104   3.201
 5083SOL    HW116148   1.460   0.178   3.175
 5083SOL    HW216149   1.601   0.103   3.140
 5084SOL     OW16150   1.995   5.050   5.458
 5084SOL    HW116151   2.054   5.086   5.530
 5084SOL    HW216152   1.936   4.978   5.495
 5085SOL     OW16153   0.333   4.460   6.084
 5085SOL    HW116154   0.249   4.510   6.064
 5085SOL    HW216155   0.400   4.478   6.012
 5086SOL     OW16156   1.884   5.363   2.107
 5086SOL    HW116157   1.902   5.294   2.177
 5086SOL    HW216158   1.792   5.401   2.120
 5087SOL     OW16159   6.558   4.931   1.955
 5087SOL    HW116160   6.639   4.952   1.899
 5087SOL    HW216161   6.495   4.874   1.902
 5088SOL     OW16162   5.126   6.324   2.118
 5088SOL    HW116163   5.201   6.299   2.179
 5088SOL    HW216164   5.113   6.251   2.050
 5089SOL     OW16165   5.869   5.311   5.534
 5089SOL    HW116166   5.801   5.342   5.467
 5089SOL    HW216167   5.871   5.375   5.611
 5090SOL     OW16168   3.253   6.958   4.887
 5090SOL    HW116169   3.164   6.982   4.848
 5090SOL    HW216170   3.325   7.004   4.836
 5091SOL     OW16171   6.381   0.146   6.697
 5091SOL    HW116172   6.325   0.226   6.719
 5091SOL    HW216173   6.466   0.150   6.750
 5092SOL     OW16174   2.915   3.522   4.237
 5092SOL    HW116175   2.924   3.450   4.306
 5092SOL    HW216176   2.950   3.608   4.274
 5093SOL     OW16177   2.237   2.256   3.100
 5093SOL    HW116178   2.257   2.158   3.095
 5093SOL    HW216179   2.320   2.307   3.081
 5094SOL     OW16180   2.637   5.481   5.561
 5094SOL    HW116181   2.712   5.534   5.523
 5094SOL    HW216182   2.647   5.385   5.534
 5095SOL     OW16183   6.664   1.556   3.370
 5095SOL    HW116184   6.619   1.589   3.287
 5095SOL    HW216185   6.745   1.503   3.345
 5096SOL     OW16186   5.716   3.406   5.550
 5096SOL    HW116187   5.662   3.329   5.584
 5096SOL    HW216188   5.791   3.424   5.613
 5097SOL     OW16189   1.139   0.503   6.376
 5097SOL    HW116190   1.129   0.407   6.349
 5097SOL    HW216191   1.089   0.520   6.461
 5098SOL     OW16192   3.463   3.060   1.588
 5098SOL    HW116193   3.430   2.979   1.540
 5098SOL    HW216194   3.541   3.033   1.646
 5099SOL     OW16195   1.288   0.129   1.705
 5099SOL    HW116196   1.338   0.214   1.690
 5099SOL    HW216197   1.291   0.073   1.622
 5100SOL     OW16198   5.715   4.546   2.691
 5100SOL    HW116199   5.695   4.571   2.786
 5100SOL    HW216200   5.741   4.449   2.687
 5101SOL     OW16201   3.893   0.190   6.612
 5101SOL    HW116202   3.833   0.213   6.688
 5101SOL    HW216203   3.876   0.252   6.535
 5102SOL     OW16204   5.060   4.260   4.548
 5102SOL    HW116205   5.148   4.224   4.516
 5102SOL    HW216206   4.994   4.186   4.557
 5103SOL     OW16207   0.978   0.977   6.642
 5103SOL    HW116208   1.077   0.971   6.653
 5103SOL    HW216209   0.937   0.887   6.657
 5104SOL     OW16210   3.529   3.605   1.482
 5104SOL    HW116211   3.480   3.677   1.433
 5104SOL    HW216212   3.573   3.545   1.416
 5105SOL     OW16213   4.276   3.876   6.397
 5105SOL    HW116214   4.191   3.868   6.344
 5105SOL    HW216215   4.280   3.802   6.464
 5106SOL     OW16216   4.461   2.521   0.779
 5106SOL    HW116217   4.455   2.528   0.879
 5106SOL    HW216218   4.516   2.440   0.755
 5107SOL     OW16219   4.597   3.428   0.239
 5107SOL    HW116220   4.542   3.489   0.183
 5107SOL    HW216221   4.541   3.393   0.315
 5108SOL     OW16222   4.025   4.669   0.064
 5108SOL    HW116223   4.103   4.610   0.086
 5108SOL    HW216224   3.958   4.666   0.138
 5109SOL     OW16225   1.249   2.816   1.414
 5109SOL    HW116226   1.319   2.772   1.470
 5109SOL    HW216227   1.291   2.888   1.359
 5110SOL     OW16228   4.966   0.610   5.812
 5110SOL    HW116229   5.007   0.694   5.847
 5110SOL    HW216230   4.974   0.609   5.712
 5111SOL     OW16231   0.850   6.549   5.006
 5111SOL    HW116232   0.813   6.615   4.941
 5111SOL    HW216233   0.914   6.595   5.067
 5112SOL     OW16234   0.222   0.164   3.009
 5112SOL    HW116235   0.296   0.189   2.946
 5112SOL    HW216236   0.233   0.069   3.038
 5113SOL     OW16237   1.643   3.978   0.084
 5113SOL    HW116238   1.610   4.072   0.095
 5113SOL    HW216239   1.739   3.973   0.110
 5114SOL     OW16240   4.760   5.527   0.998
 5114SOL    HW116241   4.680   5.497   1.049
 5114SOL    HW216242   4.732   5.592   0.926
 5115SOL     OW16243   1.957   3.566   0.973
 5115SOL    HW116244   1.980   3.481   0.926
 5115SOL    HW216245   1.977   3.556   1.070
 5116SOL     OW16246   2.188   7.011   6.716
 5116SOL    HW116247   2.199   0.078   6.676
 5116SOL    HW216248   2.099   7.005   6.761
 5117SOL     OW16249   1.308   2.403   4.001
 5117SOL    HW116250   1.254   2.467   3.946
 5117SOL    HW216251   1.246   2.336   4.043
 5118SOL     OW16252   5.159   6.144   6.181
 5118SOL    HW116253   5.108   6.230   6.178
 5118SOL    HW216254   5.240   6.154   6.239
 5119SOL     OW16255   5.276   1.454   0.276
 5119SOL    HW116256   5.341   1.517   0.318
 5119SOL    HW216257   5.197   1.505   0.242
 5120SOL     OW16258   5.430   6.968   5.564
 5120SOL    HW116259   5.482   6.987   5.481
 5120SOL    HW216260   5.473   7.015   5.641
 5121SOL     OW16261   1.530   3.956   6.470
 5121SOL    HW116262   1.619   3.987   6.438
 5121SOL    HW216263   1.520   3.979   6.567
 5122SOL     OW16264   5.030   5.105   4.103
 5122SOL    HW116265   5.104   5.172   4.116
 5122SOL    HW216266   4.978   5.129   4.020
 5123SOL     OW16267   5.164   2.950   1.769
 5123SOL    HW116268   5.186   3.005   1.688
 5123SOL    HW216269   5.065   2.947   1.781
 5124SOL     OW16270   2.305   5.896   4.335
 5124SOL    HW116271   2.365   5.850   4.400
 5124SOL    HW216272   2.358   5.965   4.285
 5125SOL     OW16273   0.312   1.818   3.825
 5125SOL    HW116274   0.395   1.870   3.805
 5125SOL    HW216275   0.261   1.864   3.898
 5126SOL     OW16276   2.474   0.313   0.277
 5126SOL    HW116277   2.437   0.379   0.212
 5126SOL    HW216278   2.554   0.268   0.238
 5127SOL     OW16279   1.686   5.355   6.818
 5127SOL    HW116280   1.754   5.283   6.828
 5127SOL    HW216281   1.630   5.337   6.737
 5128SOL     OW16282   6.295   0.108   1.893
 5128SOL    HW116283   6.282   0.028   1.835
 5128SOL    HW216284   6.299   0.079   1.989
 5129SOL     OW16285   5.683   6.865   1.178
 5129SOL    HW116286   5.744   6.811   1.236
 5129SOL    HW216287   5.709   6.961   1.183
 5130SOL     OW16288   6.747   4.923   3.067
 5130SOL    HW116289   6.817   4.930   3.138
 5130SOL    HW216290   6.724   5.014   3.035
 5131SOL     OW16291   2.468   2.431   3.049
 5131SOL    HW116292   2.429   2.505   2.995
 5131SOL    HW216293   2.566   2.425   3.032
 5132SOL     OW16294   2.751   5.681   5.087
 5132SOL    HW116295   2.761   5.699   5.185
 5132SOL    HW216296   2.833   5.711   5.039
 5133SOL     OW16297   3.710   6.543   6.175
 5133SOL    HW116298   3.803   6.529   6.209
 5133SOL    HW216299   3.689   6.641   6.173
 5134SOL     OW16300   0.174   3.699   0.479
 5134SOL    HW116301   0.088   3.688   0.530
 5134SOL    HW216302   0.227   3.614   0.485
 5135SOL     OW16303   6.468   1.789   4.556
 5135SOL    HW116304   6.487   1.695   4.526
 5135SOL    HW216305   6.554   1.834   4.582
 5136SOL     OW16306   4.044   1.555   4.077
 5136SOL    HW116307   4.089   1.643   4.061
 5136SOL    HW216308   4.059   1.494   3.999
 5137SOL     OW16309   3.368   4.553   6.152
 5137SOL    HW116310   3.413   4.561   6.241
 5137SOL    HW216311   3.416   4.486   6.096
 5138SOL     OW16312   2.573   3.696   5.866
 5138SOL    HW116313   2.667   3.714   5.837
 5138SOL    HW216314   2.519   3.780   5.856
 5139SOL     OW16315   0.738   0.448   3.523
 5139SOL    HW116316   0.712   0.508   3.599
 5139SOL    HW216317   0.772   0.361   3.559
 5140SOL     OW16318   3.184   2.839   1.329
 5140SOL    HW116319   3.273   2.798   1.348
 5140SOL    HW216320   3.188   2.938   1.342
 5141SOL     OW16321   6.465   3.328   6.903
 5141SOL    HW116322   6.488   3.271   6.982
 5141SOL    HW216323   6.388   3.388   6.927
 5142SOL     OW16324   5.610   3.313   4.172
 5142SOL    HW116325   5.649   3.280   4.258
 5142SOL    HW216326   5.621   3.244   4.102
 5143SOL     OW16327   6.764   5.538   4.418
 5143SOL    HW116328   6.714   5.454   4.439
 5143SOL    HW216329   6.815   5.526   4.332
 5144SOL     OW16330   1.229   1.206   5.414
 5144SOL    HW116331   1.144   1.176   5.457
 5144SOL    HW216332   1.307   1.160   5.457
 5145SOL     OW16333   3.067   5.513   5.962
 5145SOL    HW116334   3.127   5.537   6.039
 5145SOL    HW216335   3.049   5.415   5.962
 5146SOL     OW16336   2.942   5.069   7.005
 5146SOL    HW116337   2.920   4.984   6.956
 5146SOL    HW216338   2.934   5.146   6.942
 5147SOL     OW16339   6.016   4.621   6.782
 5147SOL    HW116340   6.024   4.697   6.718
 5147SOL    HW216341   6.003   4.656   6.874
 5148SOL     OW16342   0.430   5.807   1.595
 5148SOL    HW116343   0.424   5.852   1.506
 5148SOL    HW216344   0.483   5.722   1.586
 5149SOL     OW16345   6.885   1.292   4.753
 5149SOL    HW116346   6.961   1.278   4.816
 5149SOL    HW216347   6.841   1.379   4.774
 5150SOL     OW16348   1.743   5.061   4.463
 5150SOL    HW116349   1.728   5.137   4.527
 5150SOL    HW216350   1.676   4.989   4.480
 5151SOL     OW16351   4.339   0.876   6.782
 5151SOL    HW116352   4.387   0.960   6.805
 5151SOL    HW216353   4.291   0.887   6.695
 5152SOL     OW16354   0.538   4.950   0.086
 5152SOL    HW116355   0.499   4.867   0.045
 5152SOL    HW216356   0.476   4.985   0.155
 5153SOL     OW16357   1.779   1.969   0.747
 5153SOL    HW116358   1.757   1.913   0.667
 5153SOL    HW216359   1.876   1.990   0.747
 5154SOL     OW16360   1.872   3.021   4.788
 5154SOL    HW116361   1.848   3.088   4.718
 5154SOL    HW216362   1.939   2.957   4.752
 5155SOL     OW16363   2.993   0.485   2.474
 5155SOL    HW116364   2.973   0.471   2.377
 5155SOL    HW216365   3.036   0.574   2.488
 5156SOL     OW16366   5.838   2.746   5.074
 5156SOL    HW116367   5.740   2.766   5.079
 5156SOL    HW216368   5.856   2.659   5.120
 5157SOL     OW16369   5.357   3.193   3.517
 5157SOL    HW116370   5.408   3.231   3.595
 5157SOL    HW216371   5.421   3.169   3.444
 5158SOL     OW16372   4.379   1.620   1.469
 5158SOL    HW116373   4.385   1.643   1.566
 5158SOL    HW216374   4.461   1.568   1.442
 5159SOL     OW16375   1.584   3.175   4.089
 5159SOL    HW116376   1.603   3.256   4.034
 5159SOL    HW216377   1.665   3.149   4.140
 5160SOL     OW16378   1.818   3.118   4.217
 5160SOL    HW116379   1.837   3.029   4.260
 5160SOL    HW216380   1.819   3.189   4.287
 5161SOL     OW16381   1.523   3.084   6.174
 5161SOL    HW116382   1.495   2.999   6.219
 5161SOL    HW216383   1.599   3.064   6.112
 5162SOL     OW16384   6.767   6.295   4.361
 5162SOL    HW116385   6.774   6.382   4.313
 5162SOL    HW216386   6.810   6.223   4.306
 5163SOL     OW16387   5.615   3.850   0.788
 5163SOL    HW116388   5.686   3.840   0.718
 5163SOL    HW216389   5.569   3.762   0.802
 5164SOL     OW16390   5.889   4.432   6.146
 5164SOL    HW116391   5.935   4.431   6.235
 5164SOL    HW216392   5.958   4.431   6.073
 5165SOL     OW16393   6.585   4.059   4.431
 5165SOL    HW116394   6.607   3.963   4.448
 5165SOL    HW216395   6.501   4.064   4.376
 5166SOL     OW16396   1.376   6.547   1.839
 5166SOL    HW116397   1.437   6.581   1.768
 5166SOL    HW216398   1.313   6.480   1.799
 5167SOL     OW16399   0.503   6.551   5.894
 5167SOL    HW116400   0.565   6.527   5.819
 5167SOL    HW216401   0.480   6.648   5.889
 5168SOL     OW16402   4.320   2.098   2.935
 5168SOL    HW116403   4.269   2.119   2.852
 5168SOL    HW216404   4.414   2.131   2.926
 5169SOL     OW16405   3.532   4.327   6.065
 5169SOL    HW116406   3.490   4.247   6.108
 5169SOL    HW216407   3.631   4.327   6.083
 5170SOL     OW16408   5.551   3.854   4.759
 5170SOL    HW116409   5.551   3.948   4.794
 5170SOL    HW216410   5.625   3.844   4.692
 5171SOL     OW16411   2.682   4.767   4.664
 5171SOL    HW116412   2.641   4.784   4.574
 5171SOL    HW216413   2.780   4.787   4.660
 5172SOL     OW16414   1.135   5.152   1.588
 5172SOL    HW116415   1.159   5.077   1.527
 5172SOL    HW216416   1.050   5.195   1.557
 5173SOL     OW16417   5.566   3.531   6.002
 5173SOL    HW116418   5.596   3.438   5.984
 5173SOL    HW216419   5.476   3.546   5.959
 5174SOL     OW16420   1.061   4.609   6.016
 5174SOL    HW116421   0.994   4.662   6.068
 5174SOL    HW216422   1.019   4.524   5.984
 5175SOL     OW16423   0.391   4.830   6.514
 5175SOL    HW116424   0.407   4.913   6.461
 5175SOL    HW216425   0.424   4.750   6.463
 5176SOL     OW16426   5.420   3.449   0.571
 5176SOL    HW116427   5.359   3.527   0.584
 5176SOL    HW216428   5.368   3.371   0.534
 5177SOL     OW16429   5.459   0.189   6.450
 5177SOL    HW116430   5.388   0.130   6.412
 5177SOL    HW216431   5.546   0.140   6.453
 5178SOL     OW16432   2.476   2.367   2.129
 5178SOL    HW116433   2.393   2.312   2.139
 5178SOL    HW216434   2.451   2.464   2.127
 5179SOL     OW16435   3.308   6.144   5.907
 5179SOL    HW116436   3.280   6.112   5.816
 5179SOL    HW216437   3.315   6.065   5.969
 5180SOL     OW16438   2.931   2.148   1.262
 5180SOL    HW116439   2.940   2.109   1.170
 5180SOL    HW216440   3.012   2.203   1.283
 5181SOL     OW16441   3.766   6.151   2.373
 5181SOL    HW116442   3.858   6.151   2.334
 5181SOL    HW216443   3.763   6.214   2.450
 5182SOL     OW16444   4.975   4.635   1.802
 5182SOL    HW116445   5.009   4.680   1.884
 5182SOL    HW216446   5.051   4.591   1.753
 5183SOL     OW16447   4.497   0.246   2.373
 5183SOL    HW116448   4.450   0.203   2.449
 5183SOL    HW216449   4.568   0.185   2.339
 5184SOL     OW16450   0.975   1.239   2.940
 5184SOL    HW116451   0.889   1.207   2.981
 5184SOL    HW216452   0.965   1.244   2.841
 5185SOL     OW16453   3.841   0.618   2.452
 5185SOL    HW116454   3.869   0.655   2.541
 5185SOL    HW216455   3.768   0.674   2.414
 5186SOL     OW16456   6.320   4.720   0.445
 5186SOL    HW116457   6.383   4.647   0.418
 5186SOL    HW216458   6.371   4.805   0.458
 5187SOL     OW16459   5.205   1.818   3.801
 5187SOL    HW116460   5.129   1.853   3.747
 5187SOL    HW216461   5.275   1.890   3.809
 5188SOL     OW16462   1.093   4.067   5.735
 5188SOL    HW116463   1.139   4.153   5.758
 5188SOL    HW216464   1.159   3.992   5.739
 5189SOL     OW16465   4.697   5.420   6.287
 5189SOL    HW116466   4.608   5.433   6.243
 5189SOL    HW216467   4.691   5.446   6.383
 5190SOL     OW16468   1.381   2.378   3.503
 5190SOL    HW116469   1.453   2.403   3.568
 5190SOL    HW216470   1.421   2.327   3.427
 5191SOL     OW16471   3.654   0.232   1.779
 5191SOL    HW116472   3.707   0.316   1.771
 5191SOL    HW216473   3.629   0.216   1.874
 5192SOL     OW16474   6.376   5.137   2.608
 5192SOL    HW116475   6.307   5.065   2.611
 5192SOL    HW216476   6.330   5.226   2.599
 5193SOL     OW16477   4.870   3.861   2.635
 5193SOL    HW116478   4.903   3.803   2.561
 5193SOL    HW216479   4.942   3.924   2.664
 5194SOL     OW16480   6.198   0.831   5.602
 5194SOL    HW116481   6.171   0.910   5.657
 5194SOL    HW216482   6.297   0.833   5.588
 5195SOL     OW16483   6.451   5.956   6.273
 5195SOL    HW116484   6.528   5.931   6.216
 5195SOL    HW216485   6.371   5.977   6.216
 5196SOL     OW16486   0.245   3.699   1.979
 5196SOL    HW116487   0.297   3.614   1.995
 5196SOL    HW216488   0.172   3.682   1.913
 5197SOL     OW16489   3.424   6.009   4.697
 5197SOL    HW116490   3.374   5.970   4.619
 5197SOL    HW216491   3.474   5.937   4.744
 5198SOL     OW16492   4.526   6.662   5.170
 5198SOL    HW116493   4.549   6.633   5.263
 5198SOL    HW216494   4.442   6.616   5.140
 5199SOL     OW16495   1.245   4.966   1.867
 5199SOL    HW116496   1.282   5.058   1.885
 5199SOL    HW216497   1.199   4.933   1.948
 5200SOL     OW16498   6.936   0.544   5.033
 5200SOL    HW116499   0.000   0.590   5.029
 5200SOL    HW216500   6.866   0.602   4.990
 5201SOL     OW16501   6.733   5.263   4.280
 5201SOL    HW116502   6.696   5.181   4.324
 5201SOL    HW216503   6.833   5.255   4.273
 5202SOL     OW16504   3.711   3.114   6.275
 5202SOL    HW116505   3.739   3.196   6.226
 5202SOL    HW216506   3.764   3.106   6.360
 5203SOL     OW16507   2.056   0.047   0.131
 5203SOL    HW116508   2.045   0.100   0.214
 5203SOL    HW216509   2.150   0.053   0.099
 5204SOL     OW16510   3.017   0.598   0.579
 5204SOL    HW116511   3.095   0.640   0.534
 5204SOL    HW216512   2.938   0.600   0.519
 5205SOL     OW16513   0.421   5.699   0.674
 5205SOL    HW116514   0.515   5.729   0.653
 5205SOL    HW216515   0.374   5.771   0.725
 5206SOL     OW16516   1.033   4.645   4.223
 5206SOL    HW116517   1.084   4.728   4.243
 5206SOL    HW216518   0.998   4.605   4.308
 5207SOL     OW16519   6.930   0.115   3.609
 5207SOL    HW116520   6.870   0.052   3.558
 5207SOL    HW216521   7.010   0.065   3.642
 5208SOL     OW16522   5.089   1.972   0.251
 5208SOL    HW116523   5.071   2.067   0.230
 5208SOL    HW216524   5.003   1.920   0.253
 5209SOL     OW16525   5.883   6.112   2.631
 5209SOL    HW116526   5.879   6.193   2.690
 5209SOL    HW216527   5.941   6.132   2.551
 5210SOL     OW16528   5.409   4.285   6.865
 5210SOL    HW116529   5.322   4.296   6.817
 5210SOL    HW216530   5.478   4.344   6.823
 5211SOL     OW16531   4.944   2.755   4.537
 5211SOL    HW116532   5.012   2.779   4.607
 5211SOL    HW216533   4.853   2.775   4.571
 5212SOL     OW16534   1.135   3.679   0.738
 5212SOL    HW116535   1.117   3.581   0.724
 5212SOL    HW216536   1.232   3.698   0.723
 5213SOL     OW16537   4.153   3.552   2.931
 5213SOL    HW116538   4.249   3.581   2.938
 5213SOL    HW216539   4.140   3.468   2.983
 5214SOL     OW16540   5.234   3.583   5.338
 5214SOL    HW116541   5.321   3.631   5.353
 5214SOL    HW216542   5.184   3.578   5.424
 5215SOL     OW16543   0.365   3.767   4.823
 5215SOL    HW116544   0.453   3.814   4.832
 5215SOL    HW216545   0.380   3.669   4.813
 5216SOL     OW16546   5.336   5.109   1.322
 5216SOL    HW116547   5.369   5.157   1.241
 5216SOL    HW216548   5.241   5.133   1.339
 5217SOL     OW16549   4.412   6.266   3.266
 5217SOL    HW116550   4.460   6.345   3.304
 5217SOL    HW216551   4.360   6.221   3.339
 5218SOL     OW16552   0.891   6.761   1.150
 5218SOL    HW116553   0.892   6.815   1.234
 5218SOL    HW216554   0.797   6.755   1.115
 5219SOL     OW16555   3.259   1.367   4.811
 5219SOL    HW116556   3.301   1.380   4.722
 5219SOL    HW216557   3.330   1.364   4.881
 5220SOL     OW16558   2.187   4.729   4.182
 5220SOL    HW116559   2.276   4.700   4.149
 5220SOL    HW216560   2.143   4.654   4.232
 5221SOL     OW16561   6.250   5.618   1.056
 5221SOL    HW116562   6.314   5.672   1.111
 5221SOL    HW216563   6.299   5.580   0.977
 5222SOL     OW16564   5.967   3.938   1.188
 5222SOL    HW116565   5.953   3.850   1.233
 5222SOL    HW216566   5.906   4.007   1.228
 5223SOL     OW16567   7.007   2.967   0.818
 5223SOL    HW116568   0.075   2.931   0.799
 5223SOL    HW216569   6.945   2.938   0.745
 5224SOL     OW16570   0.247   2.182   5.125
 5224SOL    HW116571   0.272   2.272   5.161
 5224SOL    HW216572   0.326   2.121   5.132
 5225SOL     OW16573   6.860   1.922   4.801
 5225SOL    HW116574   6.927   1.851   4.818
 5225SOL    HW216575   6.855   1.982   4.881
 5226SOL     OW16576   0.895   6.627   3.811
 5226SOL    HW116577   0.897   6.709   3.868
 5226SOL    HW216578   0.801   6.595   3.802
 5227SOL     OW16579   6.993   2.796   5.161
 5227SOL    HW116580   7.006   2.859   5.237
 5227SOL    HW216581   6.898   2.763   5.161
 5228SOL     OW16582   1.024   1.471   5.970
 5228SOL    HW116583   1.015   1.400   6.040
 5228SOL    HW216584   1.115   1.513   5.977
 5229SOL     OW16585   3.250   1.340   5.933
 5229SOL    HW116586   3.208   1.253   5.905
 5229SOL    HW216587   3.320   1.366   5.866
 5230SOL     OW16588   6.754   6.501   2.235
 5230SOL    HW116589   6.733   6.457   2.322
 5230SOL    HW216590   6.831   6.563   2.246
 5231SOL     OW16591   6.930   2.267   1.339
 5231SOL    HW116592   6.992   2.194   1.309
 5231SOL    HW216593   6.959   2.354   1.299
 5232SOL     OW16594   1.642   2.924   5.674
 5232SOL    HW116595   1.670   2.943   5.580
 5232SOL    HW216596   1.646   3.009   5.727
 5233SOL     OW16597   2.810   0.174   3.065
 5233SOL    HW116598   2.808   0.238   2.987
 5233SOL    HW216599   2.890   0.193   3.121
 5234SOL     OW16600   1.903   1.958   0.019
 5234SOL    HW116601   1.944   1.906   0.094
 5234SOL    HW216602   1.898   1.901   6.962
 5235SOL     OW16603   2.356   2.697   1.392
 5235SOL    HW116604   2.293   2.629   1.431
 5235SOL    HW216605   2.328   2.719   1.299
 5236SOL     OW16606   3.291   5.384   1.708
 5236SOL    HW116607   3.385   5.390   1.674
 5236SOL    HW216608   3.228   5.374   1.630
 5237SOL     OW16609   1.737   2.021   2.571
 5237SOL    HW116610   1.783   2.096   2.524
 5237SOL    HW216611   1.680   1.971   2.505
 5238SOL     OW16612   0.702   6.406   2.862
 5238SOL    HW116613   0.617   6.454   2.885
 5238SOL    HW216614   0.687   6.348   2.782
 5239SOL     OW16615   2.207   3.878   0.888
 5239SOL    HW116616   2.239   3.831   0.806
 5239SOL    HW216617   2.115   3.915   0.871
 5240SOL     OW16618   1.885   3.712   5.738
 5240SOL    HW116619   1.972   3.668   5.760
 5240SOL    HW216620   1.897   3.773   5.660
 5241SOL     OW16621   0.347   5.502   2.139
 5241SOL    HW116622   0.402   5.460   2.066
 5241SOL    HW216623   0.279   5.437   2.171
 5242SOL     OW16624   4.730   0.549   0.134
 5242SOL    HW116625   4.742   0.523   0.038
 5242SOL    HW216626   4.633   0.542   0.158
 5243SOL     OW16627   2.401   7.023   1.968
 5243SOL    HW116628   2.448   6.952   2.020
 5243SOL    HW216629   2.394   0.082   2.024
 5244SOL     OW16630   4.494   2.126   0.049
 5244SOL    HW116631   4.446   2.213   0.038
 5244SOL    HW216632   4.495   2.100   0.145
 5245SOL     OW16633   3.650   3.699   1.754
 5245SOL    HW116634   3.625   3.777   1.812
 5245SOL    HW216635   3.577   3.684   1.687
 5246SOL     OW16636   6.260   3.635   0.127
 5246SOL    HW116637   6.184   3.667   0.070
 5246SOL    HW216638   6.276   3.701   0.200
 5247SOL     OW16639   4.246   1.985   6.271
 5247SOL    HW116640   4.286   1.994   6.363
 5247SOL    HW216641   4.157   2.030   6.269
 5248SOL     OW16642   6.337   0.981   3.427
 5248SOL    HW116643   6.282   0.900   3.450
 5248SOL    HW216644   6.321   1.005   3.331
 5249SOL     OW16645   0.195   4.740   6.970
 5249SOL    HW116646   0.189   4.746   6.870
 5249SOL    HW216647   0.185   4.831   7.010
 5250SOL     OW16648   1.770   5.569   1.141
 5250SOL    HW116649   1.774   5.474   1.110
 5250SOL    HW216650   1.675   5.593   1.160
 5251SOL     OW16651   0.690   4.623   0.344
 5251SOL    HW116652   0.758   4.551   0.330
 5251SOL    HW216653   0.685   4.646   0.441
 5252SOL     OW16654   4.006   6.387   2.570
 5252SOL    HW116655   3.918   6.375   2.617
 5252SOL    HW216656   3.989   6.418   2.477
 5253SOL     OW16657   6.929   6.001   4.845
 5253SOL    HW116658   6.987   6.080   4.864
 5253SOL    HW216659   6.963   5.921   4.895
 5254SOL     OW16660   5.661   6.911   3.879
 5254SOL    HW116661   5.643   7.001   3.919
 5254SOL    HW216662   5.677   6.920   3.781
 5255SOL     OW16663   6.144   1.794   5.434
 5255SOL    HW116664   6.078   1.861   5.467
 5255SOL    HW216665   6.117   1.764   5.343
 5256SOL     OW16666   0.174   1.635   2.422
 5256SOL    HW116667   0.165   1.536   2.431
 5256SOL    HW216668   0.271   1.659   2.410
 5257SOL     OW16669   3.972   0.660   6.314
 5257SOL    HW116670   4.068   0.687   6.316
 5257SOL    HW216671   3.915   0.740   6.333
 5258SOL     OW16672   4.080   1.497   3.052
 5258SOL    HW116673   4.052   1.537   3.139
 5258SOL    HW216674   4.163   1.542   3.019
 5259SOL     OW16675   6.405   5.185   3.576
 5259SOL    HW116676   6.481   5.217   3.632
 5259SOL    HW216677   6.400   5.085   3.581
 5260SOL     OW16678   2.762   0.977   0.750
 5260SOL    HW116679   2.716   1.058   0.714
 5260SOL    HW216680   2.736   0.964   0.846
 5261SOL     OW16681   5.529   4.030   6.869
 5261SOL    HW116682   5.507   4.116   6.915
 5261SOL    HW216683   5.447   3.974   6.860
 5262SOL     OW16684   2.106   0.834   2.520
 5262SOL    HW116685   2.075   0.784   2.439
 5262SOL    HW216686   2.151   0.770   2.583
 5263SOL     OW16687   0.976   6.306   2.120
 5263SOL    HW116688   0.946   6.322   2.214
 5263SOL    HW216689   1.055   6.244   2.121
 5264SOL     OW16690   6.159   1.515   2.008
 5264SOL    HW116691   6.187   1.568   2.088
 5264SOL    HW216692   6.066   1.481   2.021
 5265SOL     OW16693   6.531   5.070   4.690
 5265SOL    HW116694   6.532   5.169   4.708
 5265SOL    HW216695   6.466   5.051   4.616
 5266SOL     OW16696   2.059   0.488   0.055
 5266SOL    HW116697   2.008   0.490   0.141
 5266SOL    HW216698   2.018   0.553   7.015
 5267SOL     OW16699   5.365   2.864   4.724
 5267SOL    HW116700   5.367   2.929   4.648
 5267SOL    HW216701   5.411   2.904   4.803
 5268SOL     OW16702   5.565   0.587   6.129
 5268SOL    HW116703   5.587   0.677   6.093
 5268SOL    HW216704   5.472   0.588   6.167
 5269SOL     OW16705   0.534   6.947   4.175
 5269SOL    HW116706   0.494   6.997   4.252
 5269SOL    HW216707   0.631   6.969   4.168
 5270SOL     OW16708   0.054   2.043   6.039
 5270SOL    HW116709   0.081   1.948   6.025
 5270SOL    HW216710   0.111   2.103   5.982
 5271SOL     OW16711   0.368   4.761   3.056
 5271SOL    HW116712   0.312   4.803   3.127
 5271SOL    HW216713   0.424   4.689   3.097
 5272SOL     OW16714   4.814   0.513   0.382
 5272SOL    HW116715   4.778   0.540   0.293
 5272SOL    HW216716   4.770   0.567   0.454
 5273SOL     OW16717   1.668   2.030   2.862
 5273SOL    HW116718   1.670   2.013   2.763
 5273SOL    HW216719   1.759   2.055   2.893
 5274SOL     OW16720   4.811   5.209   1.506
 5274SOL    HW116721   4.755   5.195   1.425
 5274SOL    HW216722   4.890   5.147   1.504
 5275SOL     OW16723   4.543   2.100   6.438
 5275SOL    HW116724   4.635   2.138   6.448
 5275SOL    HW216725   4.547   2.018   6.380
 5276SOL     OW16726   4.341   5.895   1.830
 5276SOL    HW116727   4.387   5.920   1.745
 5276SOL    HW216728   4.409   5.891   1.904
 5277SOL     OW16729   2.434   2.842   1.793
 5277SOL    HW116730   2.491   2.917   1.760
 5277SOL    HW216731   2.491   2.760   1.806
 5278SOL     OW16732   4.249   3.824   1.737
 5278SOL    HW116733   4.330   3.882   1.734
 5278SOL    HW216734   4.275   3.730   1.714
 5279SOL     OW16735   2.347   5.614   2.723
 5279SOL    HW116736   2.408   5.686   2.757
 5279SOL    HW216737   2.390   5.525   2.737
 5280SOL     OW16738   5.049   6.012   4.607
 5280SOL    HW116739   5.019   6.107   4.614
 5280SOL    HW216740   5.014   5.972   4.522
 5281SOL     OW16741   0.138   2.191   1.636
 5281SOL    HW116742   0.112   2.286   1.654
 5281SOL    HW216743   0.056   2.137   1.616
 5282SOL     OW16744   5.186   2.018   2.109
 5282SOL    HW116745   5.098   2.014   2.156
 5282SOL    HW216746   5.173   1.999   2.012
 5283SOL     OW16747   5.242   5.282   6.731
 5283SOL    HW116748   5.173   5.309   6.664
 5283SOL    HW216749   5.282   5.194   6.703
 5284SOL     OW16750   5.814   2.768   3.549
 5284SOL    HW116751   5.746   2.777   3.621
 5284SOL    HW216752   5.888   2.708   3.581
 5285SOL     OW16753   3.138   5.750   2.770
 5285SOL    HW116754   3.118   5.664   2.725
 5285SOL    HW216755   3.176   5.732   2.861
 5286SOL     OW16756   2.173   4.736   2.085
 5286SOL    HW116757   2.075   4.729   2.104
 5286SOL    HW216758   2.202   4.831   2.094
 5287SOL     OW16759   0.744   1.389   1.361
 5287SOL    HW116760   0.664   1.449   1.358
 5287SOL    HW216761   0.734   1.316   1.293
 5288SOL     OW16762   4.310   1.011   0.657
 5288SOL    HW116763   4.333   1.097   0.703
 5288SOL    HW216764   4.214   1.013   0.629
 5289SOL     OW16765   2.142   5.517   1.105
 5289SOL    HW116766   2.087   5.575   1.045
 5289SOL    HW216767   2.084   5.482   1.179
 5290SOL     OW16768   5.368   5.630   0.871
 5290SOL    HW116769   5.381   5.677   0.783
 5290SOL    HW216770   5.417   5.679   0.943
 5291SOL     OW16771   1.659   5.263   6.041
 5291SOL    HW116772   1.573   5.293   5.999
 5291SOL    HW216773   1.641   5.193   6.109
 5292SOL     OW16774   5.055   2.975   6.292
 5292SOL    HW116775   5.062   3.045   6.363
 5292SOL    HW216776   4.987   3.003   6.224
 5293SOL     OW16777   0.939   0.942   4.732
 5293SOL    HW116778   1.002   0.982   4.666
 5293SOL    HW216779   0.896   1.015   4.786
 5294SOL     OW16780   5.137   2.227   5.242
 5294SOL    HW116781   5.176   2.263   5.157
 5294SOL    HW216782   5.050   2.183   5.222
 5295SOL     OW16783   5.676   0.893   2.449
 5295SOL    HW116784   5.616   0.969   2.423
 5295SOL    HW216785   5.740   0.874   2.375
 5296SOL     OW16786   0.913   3.855   0.482
 5296SOL    HW116787   0.915   3.902   0.394
 5296SOL    HW216788   0.872   3.764   0.471
 5297SOL     OW16789   1.683   3.139   1.291
 5297SOL    HW116790   1.706   3.220   1.236
 5297SOL    HW216791   1.737   3.140   1.375
 5298SOL     OW16792   1.003   5.277   1.851
 5298SOL    HW116793   1.022   5.272   1.753
 5298SOL    HW216794   1.084   5.249   1.902
 5299SOL     OW16795   2.999   0.365   1.508
 5299SOL    HW116796   2.938   0.374   1.428
 5299SOL    HW216797   3.000   0.451   1.558
 5300SOL     OW16798   6.593   5.370   3.151
 5300SOL    HW116799   6.680   5.360   3.198
 5300SOL    HW216800   6.520   5.326   3.204
 5301SOL     OW16801   5.079   0.720   0.347
 5301SOL    HW116802   4.986   0.735   0.314
 5301SOL    HW216803   5.137   0.797   0.321
 5302SOL     OW16804   6.372   4.617   3.356
 5302SOL    HW116805   6.317   4.574   3.428
 5302SOL    HW216806   6.451   4.662   3.398
 5303SOL     OW16807   0.351   4.925   3.395
 5303SOL    HW116808   0.418   4.866   3.349
 5303SOL    HW216809   0.396   5.008   3.426
 5304SOL     OW16810   5.345   2.068   5.370
 5304SOL    HW116811   5.279   2.136   5.337
 5304SOL    HW216812   5.301   2.010   5.438
 5305SOL     OW16813   2.804   0.871   2.732
 5305SOL    HW116814   2.723   0.877   2.790
 5305SOL    HW216815   2.782   0.816   2.651
 5306SOL     OW16816   2.491   0.387   4.771
 5306SOL    HW116817   2.508   0.373   4.869
 5306SOL    HW216818   2.403   0.347   4.747
 5307SOL     OW16819   4.525   6.990   6.684
 5307SOL    HW116820   4.452   6.948   6.738
 5307SOL    HW216821   4.497   6.994   6.588
 5308SOL     OW16822   6.828   1.043   2.858
 5308SOL    HW116823   6.848   1.119   2.920
 5308SOL    HW216824   6.902   0.976   2.863
 5309SOL     OW16825   3.597   3.476   4.193
 5309SOL    HW116826   3.682   3.459   4.241
 5309SOL    HW216827   3.563   3.389   4.155
 5310SOL     OW16828   5.671   1.924   0.610
 5310SOL    HW116829   5.628   1.873   0.685
 5310SOL    HW216830   5.745   1.870   0.571
 5311SOL     OW16831   1.968   5.699   6.922
 5311SOL    HW116832   2.001   5.631   6.987
 5311SOL    HW216833   2.008   5.788   6.943
 5312SOL     OW16834   0.583   2.455   2.046
 5312SOL    HW116835   0.599   2.529   2.112
 5312SOL    HW216836   0.542   2.492   1.963
 5313SOL     OW16837   1.595   5.771   6.981
 5313SOL    HW116838   1.670   5.713   7.011
 5313SOL    HW216839   1.610   5.864   7.013
 5314SOL     OW16840   3.434   4.980   1.069
 5314SOL    HW116841   3.347   4.937   1.091
 5314SOL    HW216842   3.504   4.910   1.054
 5315SOL     OW16843   5.232   3.365   2.495
 5315SOL    HW116844   5.266   3.341   2.586
 5315SOL    HW216845   5.151   3.310   2.475
 5316SOL     OW16846   6.574   5.385   5.092
 5316SOL    HW116847   6.533   5.298   5.068
 5316SOL    HW216848   6.503   5.449   5.123
 5317SOL     OW16849   5.302   5.858   2.887
 5317SOL    HW116850   5.238   5.885   2.815
 5317SOL    HW216851   5.347   5.772   2.861
 5318SOL     OW16852   0.349   2.430   5.212
 5318SOL    HW116853   0.278   2.494   5.241
 5318SOL    HW216854   0.404   2.404   5.291
 5319SOL     OW16855   4.013   6.913   1.458
 5319SOL    HW116856   4.023   6.982   1.530
 5319SOL    HW216857   4.102   6.873   1.437
 5320SOL     OW16858   5.719   3.748   5.945
 5320SOL    HW116859   5.660   3.668   5.943
 5320SOL    HW216860   5.769   3.755   5.859
 5321SOL     OW16861   1.717   5.380   6.360
 5321SOL    HW116862   1.755   5.467   6.388
 5321SOL    HW216863   1.764   5.347   6.278
 5322SOL     OW16864   3.366   6.234   0.368
 5322SOL    HW116865   3.450   6.269   0.327
 5322SOL    HW216866   3.309   6.192   0.297
 5323SOL     OW16867   6.005   3.342   0.138
 5323SOL    HW116868   5.962   3.395   0.211
 5323SOL    HW216869   6.078   3.395   0.096
 5324SOL     OW16870   3.950   2.908   1.769
 5324SOL    HW116871   3.897   2.966   1.708
 5324SOL    HW216872   3.970   2.820   1.724
 5325SOL     OW16873   4.784   5.766   4.396
 5325SOL    HW116874   4.741   5.682   4.364
 5325SOL    HW216875   4.780   5.769   4.496
 5326SOL     OW16876   6.989   0.278   2.358
 5326SOL    HW116877   0.016   0.243   2.279
 5326SOL    HW216878   6.953   0.202   2.411
 5327SOL     OW16879   6.956   0.835   4.773
 5327SOL    HW116880   0.015   0.856   4.721
 5327SOL    HW216881   6.969   0.860   4.869
 5328SOL     OW16882   3.629   4.811   0.944
 5328SOL    HW116883   3.675   4.769   1.022
 5328SOL    HW216884   3.698   4.854   0.885
 5329SOL     OW16885   6.477   5.315   0.217
 5329SOL    HW116886   6.404   5.248   0.205
 5329SOL    HW216887   6.485   5.337   0.315
 5330SOL     OW16888   3.632   5.003   0.492
 5330SOL    HW116889   3.534   5.018   0.506
 5330SOL    HW216890   3.648   4.977   0.397
 5331SOL     OW16891   4.058   2.502   6.487
 5331SOL    HW116892   4.088   2.449   6.408
 5331SOL    HW216893   4.132   2.562   6.517
 5332SOL     OW16894   6.253   3.177   0.210
 5332SOL    HW116895   6.168   3.221   0.183
 5332SOL    HW216896   6.242   3.135   0.300
 5333SOL     OW16897   1.205   1.968   4.054
 5333SOL    HW116898   1.238   1.877   4.077
 5333SOL    HW216899   1.167   1.968   3.961
 5334SOL     OW16900   3.349   5.831   1.712
 5334SOL    HW116901   3.314   5.924   1.714
 5334SOL    HW216902   3.449   5.832   1.719
 5335SOL     OW16903   0.441   4.143   1.529
 5335SOL    HW116904   0.475   4.231   1.563
 5335SOL    HW216905   0.341   4.145   1.525
 5336SOL     OW16906   1.534   3.066   4.949
 5336SOL    HW116907   1.534   3.148   4.892
 5336SOL    HW216908   1.628   3.042   4.972
 5337SOL     OW16909   6.468   5.194   0.584
 5337SOL    HW116910   6.440   5.098   0.593
 5337SOL    HW216911   6.536   5.216   0.654
 5338SOL     OW16912   6.194   3.497   0.968
 5338SOL    HW116913   6.160   3.556   1.042
 5338SOL    HW216914   6.242   3.553   0.901
 5339SOL     OW16915   5.286   3.516   2.838
 5339SOL    HW116916   5.369   3.553   2.879
 5339SOL    HW216917   5.283   3.540   2.741
 5340SOL     OW16918   4.904   3.957   2.226
 5340SOL    HW116919   4.882   3.943   2.129
 5340SOL    HW216920   4.881   3.874   2.278
 5341SOL     OW16921   4.381   4.608   3.876
 5341SOL    HW116922   4.367   4.652   3.788
 5341SOL    HW216923   4.384   4.509   3.864
 5342SOL     OW16924   7.006   5.760   4.958
 5342SOL    HW116925   0.022   5.695   5.023
 5342SOL    HW216926   6.907   5.762   4.971
 5343SOL     OW16927   3.150   2.828   6.358
 5343SOL    HW116928   3.118   2.905   6.412
 5343SOL    HW216929   3.196   2.761   6.417
 5344SOL     OW16930   0.523   1.277   6.266
 5344SOL    HW116931   0.613   1.241   6.290
 5344SOL    HW216932   0.453   1.214   6.299
 5345SOL     OW16933   4.692   1.474   6.725
 5345SOL    HW116934   4.730   1.384   6.702
 5345SOL    HW216935   4.593   1.467   6.733
 5346SOL     OW16936   2.821   6.061   3.158
 5346SOL    HW116937   2.883   6.139   3.162
 5346SOL    HW216938   2.782   6.044   3.248
 5347SOL     OW16939   5.686   1.836   4.036
 5347SOL    HW116940   5.766   1.852   4.095
 5347SOL    HW216941   5.695   1.747   3.992
 5348SOL     OW16942   4.922   2.503   4.408
 5348SOL    HW116943   4.982   2.456   4.343
 5348SOL    HW216944   4.964   2.589   4.436
 5349SOL     OW16945   0.864   3.603   1.406
 5349SOL    HW116946   0.866   3.588   1.505
 5349SOL    HW216947   0.856   3.700   1.387
 5350SOL     OW16948   0.824   5.981   6.744
 5350SOL    HW116949   0.730   5.967   6.775
 5350SOL    HW216950   0.846   5.913   6.674
 5351SOL     OW16951   6.565   5.974   3.458
 5351SOL    HW116952   6.616   5.972   3.543
 5351SOL    HW216953   6.550   6.070   3.431
 5352SOL     OW16954   1.229   3.211   5.872
 5352SOL    HW116955   1.235   3.178   5.966
 5352SOL    HW216956   1.142   3.184   5.832
 5353SOL     OW16957   3.934   4.847   3.519
 5353SOL    HW116958   3.977   4.757   3.515
 5353SOL    HW216959   3.902   4.864   3.612
 5354SOL     OW16960   4.023   5.856   1.000
 5354SOL    HW116961   3.976   5.896   1.078
 5354SOL    HW216962   4.096   5.918   0.970
 5355SOL     OW16963   5.223   4.516   5.132
 5355SOL    HW116964   5.126   4.498   5.144
 5355SOL    HW216965   5.276   4.442   5.174
 5356SOL     OW16966   0.296   5.521   0.858
 5356SOL    HW116967   0.268   5.598   0.914
 5356SOL    HW216968   0.377   5.546   0.805
 5357SOL     OW16969   6.321   3.542   2.977
 5357SOL    HW116970   6.273   3.623   2.945
 5357SOL    HW216971   6.278   3.507   3.060
 5358SOL     OW16972   4.183   1.296   6.870
 5358SOL    HW116973   4.211   1.368   6.934
 5358SOL    HW216974   4.207   1.323   6.777
 5359SOL     OW16975   3.279   2.233   6.514
 5359SOL    HW116976   3.216   2.286   6.458
 5359SOL    HW216977   3.229   2.191   6.590
 5360SOL     OW16978   5.602   4.828   4.227
 5360SOL    HW116979   5.595   4.814   4.128
 5360SOL    HW216980   5.526   4.781   4.273
 5361SOL     OW16981   1.378   5.465   2.165
 5361SOL    HW116982   1.369   5.404   2.243
 5361SOL    HW216983   1.310   5.539   2.172
 5362SOL     OW16984   5.810   1.484   2.398
 5362SOL    HW116985   5.810   1.384   2.385
 5362SOL    HW216986   5.786   1.505   2.492
 5363SOL     OW16987   6.024   4.988   3.885
 5363SOL    HW116988   6.037   5.086   3.870
 5363SOL    HW216989   5.996   4.972   3.980
 5364SOL     OW16990   4.849   1.804   2.996
 5364SOL    HW116991   4.782   1.784   3.068
 5364SOL    HW216992   4.854   1.726   2.932
 5365SOL     OW16993   2.929   3.343   4.428
 5365SOL    HW116994   2.849   3.319   4.484
 5365SOL    HW216995   3.011   3.337   4.485
 5366SOL     OW16996   6.173   6.456   3.237
 5366SOL    HW116997   6.187   6.391   3.162
 5366SOL    HW216998   6.110   6.416   3.304
 5367SOL     OW16999   6.165   5.725   1.306
 5367SOL    HW117000   6.257   5.750   1.278
 5367SOL    HW217001   6.121   5.673   1.232
 5368SOL     OW17002   6.968   5.958   3.943
 5368SOL    HW117003   6.927   6.030   3.888
 5368SOL    HW217004   6.981   5.875   3.888
 5369SOL     OW17005   3.576   5.682   2.646
 5369SOL    HW117006   3.668   5.691   2.607
 5369SOL    HW217007   3.566   5.745   2.723
 5370SOL     OW17008   1.455   3.104   0.589
 5370SOL    HW117009   1.512   3.125   0.509
 5370SOL    HW217010   1.423   3.190   0.630
 5371SOL     OW17011   6.087   5.221   4.964
 5371SOL    HW117012   6.001   5.262   4.933
 5371SOL    HW217013   6.071   5.128   4.996
 5372SOL     OW17014   1.561   0.014   2.779
 5372SOL    HW117015   1.473   0.061   2.791
 5372SOL    HW217016   1.634   0.073   2.812
 5373SOL     OW17017   3.013   1.238   6.714
 5373SOL    HW117018   3.006   1.236   6.814
 5373SOL    HW217019   2.933   1.193   6.675
 5374SOL     OW17020   2.073   4.326   1.948
 5374SOL    HW117021   2.001   4.258   1.966
 5374SOL    HW217022   2.042   4.389   1.877
 5375SOL     OW17023   2.406   4.831   4.748
 5375SOL    HW117024   2.490   4.786   4.716
 5375SOL    HW217025   2.417   4.855   4.844
 5376SOL     OW17026   0.664   0.093   5.793
 5376SOL    HW117027   0.566   0.074   5.806
 5376SOL    HW217028   0.690   0.173   5.847
 5377SOL     OW17029   1.548   1.053   2.690
 5377SOL    HW117030   1.610   1.095   2.624
 5377SOL    HW217031   1.601   1.014   2.765
 5378SOL     OW17032   4.475   0.569   2.627
 5378SOL    HW117033   4.515   0.604   2.542
 5378SOL    HW217034   4.516   0.616   2.705
 5379SOL     OW17035   1.808   2.203   4.875
 5379SOL    HW117036   1.851   2.288   4.846
 5379SOL    HW217037   1.839   2.180   4.967
 5380SOL     OW17038   4.071   6.304   1.693
 5380SOL    HW117039   4.100   6.295   1.789
 5380SOL    HW217040   4.030   6.394   1.679
 5381SOL     OW17041   2.882   0.091   3.812
 5381SOL    HW117042   2.825   0.093   3.894
 5381SOL    HW217043   2.838   0.033   3.743
 5382SOL     OW17044   4.625   0.914   2.314
 5382SOL    HW117045   4.583   0.945   2.399
 5382SOL    HW217046   4.702   0.973   2.291
 5383SOL     OW17047   2.203   2.793   4.305
 5383SOL    HW117048   2.169   2.862   4.241
 5383SOL    HW217049   2.195   2.828   4.398
 5384SOL     OW17050   5.781   5.495   5.140
 5384SOL    HW117051   5.857   5.434   5.163
 5384SOL    HW217052   5.715   5.445   5.083
 5385SOL     OW17053   3.791   3.350   6.138
 5385SOL    HW117054   3.838   3.405   6.207
 5385SOL    HW217055   3.737   3.410   6.079
 5386SOL     OW17056   4.995   4.447   4.333
 5386SOL    HW117057   4.931   4.439   4.257
 5386SOL    HW217058   4.995   4.362   4.386
 5387SOL     OW17059   0.952   1.950   4.227
 5387SOL    HW117060   0.945   2.049   4.234
 5387SOL    HW217061   0.922   1.921   4.136
 5388SOL     OW17062   0.488   6.599   2.864
 5388SOL    HW117063   0.425   6.522   2.860
 5388SOL    HW217064   0.483   6.651   2.778
 5389SOL     OW17065   4.916   1.550   3.481
 5389SOL    HW117066   4.968   1.540   3.565
 5389SOL    HW217067   4.835   1.491   3.483
 5390SOL     OW17068   0.062   3.480   3.455
 5390SOL    HW117069   0.045   3.454   3.550
 5390SOL    HW217070   7.004   3.524   3.417
 5391SOL     OW17071   2.962   2.606   0.523
 5391SOL    HW117072   3.057   2.577   0.514
 5391SOL    HW217073   2.906   2.561   0.453
 5392SOL     OW17074   6.293   0.974   3.781
 5392SOL    HW117075   6.384   0.967   3.739
 5392SOL    HW217076   6.283   1.063   3.824
 5393SOL     OW17077   4.504   2.511   4.591
 5393SOL    HW117078   4.559   2.434   4.559
 5393SOL    HW217079   4.545   2.596   4.558
 5394SOL     OW17080   0.957   1.787   1.252
 5394SOL    HW117081   0.999   1.866   1.207
 5394SOL    HW217082   0.907   1.818   1.333
 5395SOL     OW17083   6.366   1.430   0.787
 5395SOL    HW117084   6.382   1.458   0.693
 5395SOL    HW217085   6.395   1.503   0.850
 5396SOL     OW17086   4.528   3.997   0.467
 5396SOL    HW117087   4.493   4.065   0.531
 5396SOL    HW217088   4.574   4.044   0.391
 5397SOL     OW17089   0.260   0.706   2.848
 5397SOL    HW117090   0.167   0.681   2.824
 5397SOL    HW217091   0.261   0.743   2.941
 5398SOL     OW17092   6.285   3.016   2.275
 5398SOL    HW117093   6.217   2.967   2.220
 5398SOL    HW217094   6.296   3.109   2.239
 5399SOL     OW17095   1.564   1.932   0.164
 5399SOL    HW117096   1.648   1.951   0.113
 5399SOL    HW217097   1.486   1.973   0.116
 5400SOL     OW17098   4.807   3.068   1.266
 5400SOL    HW117099   4.773   3.103   1.178
 5400SOL    HW217100   4.730   3.034   1.320
 5401SOL     OW17101   5.113   2.737   1.119
 5401SOL    HW117102   5.052   2.781   1.184
 5401SOL    HW217103   5.179   2.680   1.169
 5402SOL     OW17104   1.450   6.451   2.425
 5402SOL    HW117105   1.460   6.546   2.394
 5402SOL    HW217106   1.530   6.425   2.478
 5403SOL     OW17107   4.418   2.373   6.980
 5403SOL    HW117108   4.462   2.451   0.001
 5403SOL    HW217109   4.448   2.368   6.885
 5404SOL     OW17110   4.931   0.381   6.962
 5404SOL    HW117111   4.849   0.437   6.950
 5404SOL    HW217112   5.004   0.438   7.001
 5405SOL     OW17113   0.158   4.552   0.132
 5405SOL    HW117114   0.233   4.535   0.195
 5405SOL    HW217115   0.182   4.627   0.070
 5406SOL     OW17116   2.355   0.987   6.081
 5406SOL    HW117117   2.358   0.923   6.004
 5406SOL    HW217118   2.310   0.943   6.159
 5407SOL     OW17119   1.635   0.030   3.436
 5407SOL    HW117120   1.729   0.062   3.436
 5407SOL    HW217121   1.585   0.073   3.361
 5408SOL     OW17122   2.127   1.624   4.691
 5408SOL    HW117123   2.128   1.568   4.774
 5408SOL    HW217124   2.213   1.674   4.684
 5409SOL     OW17125   1.245   2.778   2.143
 5409SOL    HW117126   1.255   2.829   2.229
 5409SOL    HW217127   1.305   2.819   2.073
 5410SOL     OW17128   6.581   2.453   0.531
 5410SOL    HW117129   6.624   2.399   0.603
 5410SOL    HW217130   6.544   2.392   0.461
 5411SOL     OW17131   3.305   5.607   6.914
 5411SOL    HW117132   3.292   5.639   7.007
 5411SOL    HW217133   3.396   5.566   6.905
 5412SOL     OW17134   6.780   2.293   6.394
 5412SOL    HW117135   6.862   2.251   6.356
 5412SOL    HW217136   6.719   2.222   6.430
 5413SOL     OW17137   1.039   5.238   4.707
 5413SOL    HW117138   0.978   5.311   4.675
 5413SOL    HW217139   1.129   5.248   4.665
 5414SOL     OW17140   5.078   4.594   5.760
 5414SOL    HW117141   5.099   4.509   5.807
 5414SOL    HW217142   5.163   4.636   5.729
 5415SOL     OW17143   4.047   0.912   0.696
 5415SOL    HW117144   3.965   0.890   0.642
 5415SOL    HW217145   4.046   1.008   0.721
 5416SOL     OW17146   3.584   5.565   6.919
 5416SOL    HW117147   3.616   5.539   7.010
 5416SOL    HW217148   3.645   5.632   6.879
 5417SOL     OW17149   4.427   6.897   4.069
 5417SOL    HW117150   4.448   6.875   4.164
 5417SOL    HW217151   4.337   6.861   4.045
 5418SOL     OW17152   6.710   2.920   5.524
 5418SOL    HW117153   6.702   2.823   5.497
 5418SOL    HW217154   6.804   2.940   5.549
 5419SOL     OW17155   4.282   1.309   6.027
 5419SOL    HW117156   4.366   1.356   6.054
 5419SOL    HW217157   4.250   1.346   5.940
 5420SOL     OW17158   1.788   2.452   1.851
 5420SOL    HW117159   1.715   2.391   1.821
 5420SOL    HW217160   1.805   2.438   1.949
 5421SOL     OW17161   3.662   4.989   2.214
 5421SOL    HW117162   3.733   4.957   2.151
 5421SOL    HW217163   3.589   5.032   2.162
 5422SOL     OW17164   2.809   5.137   3.974
 5422SOL    HW117165   2.768   5.083   4.048
 5422SOL    HW217166   2.884   5.085   3.933
 5423SOL     OW17167   4.850   6.565   1.818
 5423SOL    HW117168   4.926   6.567   1.883
 5423SOL    HW217169   4.885   6.561   1.725
 5424SOL     OW17170   4.043   3.527   5.370
 5424SOL    HW117171   4.128   3.530   5.319
 5424SOL    HW217172   4.019   3.432   5.389
 5425SOL     OW17173   1.621   4.585   5.280
 5425SOL    HW117174   1.523   4.583   5.264
 5425SOL    HW217175   1.667   4.632   5.205
 5426SOL     OW17176   6.544   5.336   1.281
 5426SOL    HW117177   6.515   5.426   1.315
 5426SOL    HW217178   6.617   5.349   1.214
 5427SOL     OW17179   4.158   2.883   0.315
 5427SOL    HW117180   4.213   2.964   0.297
 5427SOL    HW217181   4.197   2.804   0.266
 5428SOL     OW17182   5.560   5.218   3.100
 5428SOL    HW117183   5.478   5.274   3.106
 5428SOL    HW217184   5.631   5.255   3.160
 5429SOL     OW17185   3.342   0.535   4.521
 5429SOL    HW117186   3.377   0.566   4.609
 5429SOL    HW217187   3.307   0.613   4.469
 5430SOL     OW17188   2.757   3.950   5.226
 5430SOL    HW117189   2.717   4.032   5.186
 5430SOL    HW217190   2.684   3.892   5.263
 5431SOL     OW17191   4.995   4.673   0.508
 5431SOL    HW117192   4.946   4.586   0.517
 5431SOL    HW217193   4.934   4.748   0.534
 5432SOL     OW17194   0.430   5.410   6.679
 5432SOL    HW117195   0.383   5.324   6.664
 5432SOL    HW217196   0.440   5.426   6.778
 5433SOL     OW17197   3.358   0.503   1.268
 5433SOL    HW117198   3.372   0.501   1.367
 5433SOL    HW217199   3.308   0.421   1.240
 5434SOL     OW17200   4.946   0.711   4.406
 5434SOL    HW117201   4.916   0.616   4.407
 5434SOL    HW217202   4.968   0.739   4.500
 5435SOL     OW17203   6.453   4.923   0.561
 5435SOL    HW117204   6.551   4.934   0.549
 5435SOL    HW217205   6.434   4.872   0.645
 5436SOL     OW17206   1.995   4.470   2.975
 5436SOL    HW117207   1.906   4.437   3.006
 5436SOL    HW217208   2.013   4.438   2.882
 5437SOL     OW17209   3.471   6.360   1.225
 5437SOL    HW117210   3.548   6.297   1.237
 5437SOL    HW217211   3.506   6.454   1.221
 5438SOL     OW17212   4.628   5.776   2.391
 5438SOL    HW117213   4.553   5.765   2.326
 5438SOL    HW217214   4.679   5.859   2.368
 5439SOL     OW17215   1.063   4.759   1.700
 5439SOL    HW117216   1.113   4.829   1.751
 5439SOL    HW217217   1.024   4.799   1.618
 5440SOL     OW17218   6.033   7.020   3.751
 5440SOL    HW117219   5.985   0.048   3.681
 5440SOL    HW217220   6.029   0.045   3.838
 5441SOL     OW17221   5.673   2.598   4.629
 5441SOL    HW117222   5.759   2.554   4.601
 5441SOL    HW217223   5.693   2.673   4.692
 5442SOL     OW17224   3.281   0.318   6.663
 5442SOL    HW117225   3.325   0.406   6.678
 5442SOL    HW217226   3.344   0.255   6.618
 5443SOL     OW17227   4.862   1.093   3.368
 5443SOL    HW117228   4.960   1.110   3.373
 5443SOL    HW217229   4.840   1.010   3.420
 5444SOL     OW17230   6.418   0.694   6.055
 5444SOL    HW117231   6.468   0.712   6.139
 5444SOL    HW217232   6.375   0.778   6.022
 5445SOL     OW17233   5.624   5.785   5.941
 5445SOL    HW117234   5.599   5.770   5.846
 5445SOL    HW217235   5.574   5.865   5.976
 5446SOL     OW17236   6.979   3.950   6.132
 5446SOL    HW117237   0.006   4.029   6.099
 5446SOL    HW217238   6.999   3.935   6.229
 5447SOL     OW17239   6.937   1.552   1.597
 5447SOL    HW117240   7.023   1.509   1.570
 5447SOL    HW217241   6.861   1.510   1.546
 5448SOL     OW17242   5.254   4.605   3.040
 5448SOL    HW117243   5.217   4.551   2.964
 5448SOL    HW217244   5.207   4.693   3.043
 5449SOL     OW17245   3.038   0.981   1.881
 5449SOL    HW117246   3.081   1.049   1.822
 5449SOL    HW217247   3.051   0.890   1.843
 5450SOL     OW17248   4.200   5.619   1.568
 5450SOL    HW117249   4.195   5.719   1.564
 5450SOL    HW217250   4.293   5.590   1.549
 5451SOL     OW17251   6.409   0.012   3.058
 5451SOL    HW117252   6.355   6.961   3.096
 5451SOL    HW217253   6.499   0.014   3.103
 5452SOL     OW17254   2.170   3.961   2.267
 5452SOL    HW117255   2.090   4.010   2.232
 5452SOL    HW217256   2.248   4.023   2.271
 5453SOL     OW17257   6.290   4.111   3.647
 5453SOL    HW117258   6.214   4.127   3.709
 5453SOL    HW217259   6.324   4.018   3.658
 5454SOL     OW17260   6.615   4.023   3.351
 5454SOL    HW117261   6.607   3.986   3.259
 5454SOL    HW217262   6.711   4.029   3.377
 5455SOL     OW17263   2.560   1.977   3.590
 5455SOL    HW117264   2.555   2.036   3.671
 5455SOL    HW217265   2.520   2.024   3.512
 5456SOL     OW17266   5.057   2.311   0.746
 5456SOL    HW117267   5.106   2.229   0.715
 5456SOL    HW217268   5.113   2.360   0.812
 5457SOL     OW17269   5.311   1.395   6.399
 5457SOL    HW117270   5.275   1.318   6.347
 5457SOL    HW217271   5.293   1.480   6.351
 5458SOL     OW17272   5.792   3.242   0.658
 5458SOL    HW117273   5.743   3.323   0.625
 5458SOL    HW217274   5.749   3.209   0.742
 5459SOL     OW17275   1.780   3.637   5.044
 5459SOL    HW117276   1.817   3.608   5.132
 5459SOL    HW217277   1.848   3.622   4.972
 5460SOL     OW17278   0.895   0.901   1.447
 5460SOL    HW117279   0.895   0.968   1.521
 5460SOL    HW217280   0.987   0.895   1.407
 5461SOL     OW17281   6.468   0.810   5.554
 5461SOL    HW117282   6.489   0.727   5.606
 5461SOL    HW217283   6.540   0.877   5.570
 5462SOL     OW17284   4.913   4.378   6.556
 5462SOL    HW117285   4.857   4.448   6.600
 5462SOL    HW217286   4.895   4.378   6.457
 5463SOL     OW17287   1.106   2.787   6.066
 5463SOL    HW117288   1.129   2.874   6.110
 5463SOL    HW217289   1.132   2.712   6.126
 5464SOL     OW17290   2.109   5.634   5.969
 5464SOL    HW117291   2.134   5.682   5.884
 5464SOL    HW217292   2.015   5.600   5.961
 5465SOL     OW17293   0.541   6.928   4.585
 5465SOL    HW117294   0.506   6.978   4.505
 5465SOL    HW217295   0.587   6.992   4.646
 5466SOL     OW17296   6.265   2.293   4.779
 5466SOL    HW117297   6.268   2.392   4.769
 5466SOL    HW217298   6.306   2.250   4.699
 5467SOL     OW17299   4.912   2.803   4.253
 5467SOL    HW117300   4.828   2.751   4.236
 5467SOL    HW217301   4.948   2.780   4.343
 5468SOL     OW17302   0.095   0.931   1.037
 5468SOL    HW117303   0.093   0.863   0.964
 5468SOL    HW217304   0.135   0.889   1.119
 5469SOL     OW17305   3.901   0.160   4.174
 5469SOL    HW117306   3.997   0.164   4.203
 5469SOL    HW217307   3.844   0.210   4.239
 5470SOL     OW17308   3.710   5.525   3.820
 5470SOL    HW117309   3.661   5.441   3.840
 5470SOL    HW217310   3.686   5.595   3.887
 5471SOL     OW17311   4.790   0.869   3.485
 5471SOL    HW117312   4.752   0.783   3.451
 5471SOL    HW217313   4.856   0.850   3.558
 5472SOL     OW17314   3.097   3.597   6.662
 5472SOL    HW117315   3.023   3.627   6.723
 5472SOL    HW217316   3.157   3.675   6.643
 5473SOL     OW17317   2.331   4.745   1.803
 5473SOL    HW117318   2.293   4.782   1.888
 5473SOL    HW217319   2.427   4.723   1.817
 5474SOL     OW17320   1.169   5.014   2.690
 5474SOL    HW117321   1.222   5.089   2.651
 5474SOL    HW217322   1.211   4.985   2.776
 5475SOL     OW17323   0.856   1.118   4.911
 5475SOL    HW117324   0.848   1.214   4.882
 5475SOL    HW217325   0.866   1.115   5.011
 5476SOL     OW17326   2.602   0.044   5.201
 5476SOL    HW117327   2.658   0.104   5.142
 5476SOL    HW217328   2.505   0.065   5.186
 5477SOL     OW17329   1.719   3.797   3.897
 5477SOL    HW117330   1.634   3.755   3.867
 5477SOL    HW217331   1.742   3.762   3.989
 5478SOL     OW17332   5.242   4.854   6.147
 5478SOL    HW117333   5.166   4.878   6.087
 5478SOL    HW217334   5.214   4.864   6.242
 5479SOL     OW17335   4.856   1.786   4.832
 5479SOL    HW117336   4.844   1.766   4.735
 5479SOL    HW217337   4.881   1.703   4.881
 5480SOL     OW17338   0.710   3.793   4.108
 5480SOL    HW117339   0.660   3.850   4.043
 5480SOL    HW217340   0.669   3.702   4.110
 5481SOL     OW17341   4.736   1.559   6.086
 5481SOL    HW117342   4.662   1.617   6.118
 5481SOL    HW217343   4.700   1.468   6.065
 5482SOL     OW17344   5.227   2.972   1.244
 5482SOL    HW117345   5.250   2.998   1.151
 5482SOL    HW217346   5.230   2.873   1.253
 5483SOL     OW17347   6.567   2.669   6.574
 5483SOL    HW117348   6.552   2.757   6.619
 5483SOL    HW217349   6.504   2.660   6.497
 5484SOL     OW17350   7.016   6.659   4.395
 5484SOL    HW117351   7.009   6.696   4.488
 5484SOL    HW217352   0.040   6.724   4.337
 5485SOL     OW17353   3.473   0.113   5.450
 5485SOL    HW117354   3.399   0.180   5.458
 5485SOL    HW217355   3.439   0.030   5.407
 5486SOL     OW17356   0.982   0.690   4.158
 5486SOL    HW117357   0.960   0.770   4.214
 5486SOL    HW217358   0.909   0.622   4.166
 5487SOL     OW17359   4.531   5.066   0.981
 5487SOL    HW117360   4.471   5.037   1.056
 5487SOL    HW217361   4.626   5.067   1.013
 5488SOL     OW17362   4.663   1.295   5.992
 5488SOL    HW117363   4.621   1.206   6.011
 5488SOL    HW217364   4.755   1.282   5.957
 5489SOL     OW17365   0.837   3.906   3.540
 5489SOL    HW117366   0.814   3.849   3.461
 5489SOL    HW217367   0.758   3.914   3.600
 5490SOL     OW17368   1.809   1.763   6.842
 5490SOL    HW117369   1.716   1.799   6.833
 5490SOL    HW217370   1.808   1.664   6.829
 5491SOL     OW17371   0.585   5.096   1.128
 5491SOL    HW117372   0.682   5.114   1.148
 5491SOL    HW217373   0.577   5.054   1.038
 5492SOL     OW17374   1.317   0.882   5.275
 5492SOL    HW117375   1.249   0.892   5.347
 5492SOL    HW217376   1.402   0.926   5.304
 5493SOL     OW17377   3.272   3.232   6.957
 5493SOL    HW117378   3.252   3.302   0.001
 5493SOL    HW217379   3.285   3.275   6.867
 5494SOL     OW17380   5.897   3.161   2.050
 5494SOL    HW117381   5.876   3.157   1.952
 5494SOL    HW217382   5.813   3.179   2.101
 5495SOL     OW17383   3.617   2.893   2.596
 5495SOL    HW117384   3.598   2.886   2.498
 5495SOL    HW217385   3.600   2.986   2.627
 5496SOL     OW17386   3.503   5.803   1.354
 5496SOL    HW117387   3.506   5.894   1.395
 5496SOL    HW217388   3.436   5.803   1.280
 5497SOL     OW17389   6.583   6.667   1.996
 5497SOL    HW117390   6.533   6.645   2.079
 5497SOL    HW217391   6.655   6.599   1.980
 5498SOL     OW17392   4.423   1.115   5.083
 5498SOL    HW117393   4.470   1.124   5.171
 5498SOL    HW217394   4.379   1.026   5.078
 5499SOL     OW17395   0.275   2.010   4.011
 5499SOL    HW117396   0.229   2.061   4.083
 5499SOL    HW217397   0.374   2.011   4.027
 5500SOL     OW17398   1.845   5.930   1.903
 5500SOL    HW117399   1.768   5.958   1.846
 5500SOL    HW217400   1.918   5.997   1.896
 5501SOL     OW17401   2.094   6.878   2.588
 5501SOL    HW117402   2.103   6.801   2.525
 5501SOL    HW217403   2.044   6.952   2.544
 5502SOL     OW17404   4.384   4.143   6.667
 5502SOL    HW117405   4.346   4.225   6.710
 5502SOL    HW217406   4.310   4.082   6.640
 5503SOL     OW17407   1.741   5.533   3.933
 5503SOL    HW117408   1.816   5.599   3.942
 5503SOL    HW217409   1.672   5.551   4.004
 5504SOL     OW17410   3.182   2.032   5.081
 5504SOL    HW117411   3.279   2.047   5.065
 5504SOL    HW217412   3.138   2.118   5.108
 5505SOL     OW17413   2.460   5.007   5.933
 5505SOL    HW117414   2.524   5.062   5.987
 5505SOL    HW217415   2.433   5.058   5.851
 5506SOL     OW17416   6.441   6.964   5.489
 5506SOL    HW117417   6.467   6.925   5.401
 5506SOL    HW217418   6.433   0.039   5.481
 5507SOL     OW17419   2.847   6.261   3.993
 5507SOL    HW117420   2.864   6.167   4.021
 5507SOL    HW217421   2.886   6.324   4.061
 5508SOL     OW17422   2.606   0.853   6.034
 5508SOL    HW117423   2.571   0.920   6.100
 5508SOL    HW217424   2.641   0.900   5.954
 5509SOL     OW17425   5.611   6.124   6.574
 5509SOL    HW117426   5.682   6.093   6.636
 5509SOL    HW217427   5.525   6.077   6.594
 5510SOL     OW17428   5.315   0.756   5.262
 5510SOL    HW117429   5.216   0.754   5.271
 5510SOL    HW217430   5.348   0.850   5.275
 5511SOL     OW17431   0.331   1.355   2.393
 5511SOL    HW117432   0.424   1.328   2.368
 5511SOL    HW217433   0.333   1.398   2.484
 5512SOL     OW17434   1.493   0.132   1.096
 5512SOL    HW117435   1.519   0.037   1.080
 5512SOL    HW217436   1.477   0.146   1.194
 5513SOL     OW17437   3.711   4.899   4.557
 5513SOL    HW117438   3.652   4.924   4.633
 5513SOL    HW217439   3.662   4.912   4.471
 5514SOL     OW17440   5.974   5.306   2.989
 5514SOL    HW117441   6.020   5.350   3.067
 5514SOL    HW217442   5.912   5.372   2.946
 5515SOL     OW17443   6.487   2.747   1.149
 5515SOL    HW117444   6.569   2.800   1.169
 5515SOL    HW217445   6.462   2.692   1.229
 5516SOL     OW17446   1.564   3.346   6.181
 5516SOL    HW117447   1.542   3.391   6.268
 5516SOL    HW217448   1.546   3.248   6.189
 5517SOL     OW17449   2.541   1.623   2.755
 5517SOL    HW117450   2.620   1.684   2.768
 5517SOL    HW217451   2.470   1.671   2.703
 5518SOL     OW17452   6.231   4.809   4.968
 5518SOL    HW117453   6.303   4.844   4.908
 5518SOL    HW217454   6.149   4.866   4.957
 5519SOL     OW17455   5.245   3.344   4.077
 5519SOL    HW117456   5.334   3.306   4.101
 5519SOL    HW217457   5.231   3.339   3.978
 5520SOL     OW17458   1.878   3.702   1.580
 5520SOL    HW117459   1.805   3.644   1.616
 5520SOL    HW217460   1.845   3.796   1.574
 5521SOL     OW17461   5.249   5.116   1.626
 5521SOL    HW117462   5.254   5.035   1.683
 5521SOL    HW217463   5.334   5.126   1.574
 5522SOL     OW17464   2.198   3.554   1.643
 5522SOL    HW117465   2.228   3.517   1.731
 5522SOL    HW217466   2.278   3.585   1.592
 5523SOL     OW17467   2.602   0.805   1.980
 5523SOL    HW117468   2.540   0.752   1.922
 5523SOL    HW217469   2.549   0.861   2.043
 5524SOL     OW17470   0.219   6.024   6.026
 5524SOL    HW117471   0.141   6.008   6.087
 5524SOL    HW217472   0.287   5.952   6.039
 5525SOL     OW17473   0.072   5.496   5.111
 5525SOL    HW117474   0.100   5.510   5.206
 5525SOL    HW217475   0.151   5.503   5.051
 5526SOL     OW17476   6.518   3.020   4.624
 5526SOL    HW117477   6.479   2.968   4.700
 5526SOL    HW217478   6.604   2.977   4.595
 5527SOL     OW17479   1.907   3.556   1.243
 5527SOL    HW117480   1.856   3.642   1.248
 5527SOL    HW217481   1.845   3.482   1.216
 5528SOL     OW17482   0.453   3.702   2.899
 5528SOL    HW117483   0.476   3.725   2.805
 5528SOL    HW217484   0.370   3.645   2.901
 5529SOL     OW17485   1.543   1.427   5.114
 5529SOL    HW117486   1.459   1.377   5.136
 5529SOL    HW217487   1.596   1.440   5.198
 5530SOL     OW17488   0.929   2.525   0.830
 5530SOL    HW117489   0.834   2.540   0.857
 5530SOL    HW217490   0.956   2.431   0.853
 5531SOL     OW17491   3.465   2.486   6.073
 5531SOL    HW117492   3.467   2.506   6.171
 5531SOL    HW217493   3.487   2.569   6.021
 5532SOL     OW17494   2.563   1.528   1.277
 5532SOL    HW117495   2.632   1.513   1.348
 5532SOL    HW217496   2.502   1.602   1.305
 5533SOL     OW17497   4.165   0.685   1.557
 5533SOL    HW117498   4.152   0.596   1.512
 5533SOL    HW217499   4.177   0.671   1.655
 5534SOL     OW17500   0.213   3.995   5.765
 5534SOL    HW117501   0.126   3.973   5.808
 5534SOL    HW217502   0.237   4.091   5.785
 5535SOL     OW17503   6.269   2.661   3.150
 5535SOL    HW117504   6.176   2.696   3.151
 5535SOL    HW217505   6.299   2.643   3.244
 5536SOL     OW17506   1.986   0.614   3.873
 5536SOL    HW117507   1.925   0.659   3.939
 5536SOL    HW217508   1.932   0.562   3.807
 5537SOL     OW17509   4.520   0.881   4.463
 5537SOL    HW117510   4.491   0.820   4.390
 5537SOL    HW217511   4.445   0.944   4.485
 5538SOL     OW17512   5.008   1.522   0.221
 5538SOL    HW117513   4.938   1.511   0.291
 5538SOL    HW217514   4.979   1.476   0.137
 5539SOL     OW17515   3.453   0.055   0.372
 5539SOL    HW117516   3.507   0.098   0.300
 5539SOL    HW217517   3.493   0.076   0.462
 5540SOL     OW17518   5.211   0.824   6.461
 5540SOL    HW117519   5.298   0.806   6.507
 5540SOL    HW217520   5.150   0.746   6.473
 5541SOL     OW17521   4.563   3.814   6.234
 5541SOL    HW117522   4.549   3.867   6.318
 5541SOL    HW217523   4.569   3.717   6.258
 5542SOL     OW17524   4.219   4.442   0.511
 5542SOL    HW117525   4.176   4.371   0.567
 5542SOL    HW217526   4.305   4.471   0.553
 5543SOL     OW17527   1.086   0.607   0.993
 5543SOL    HW117528   1.039   0.631   0.908
 5543SOL    HW217529   1.168   0.664   1.003
 5544SOL     OW17530   4.303   5.528   5.911
 5544SOL    HW117531   4.302   5.492   5.817
 5544SOL    HW217532   4.240   5.605   5.917
 5545SOL     OW17533   3.613   0.304   3.166
 5545SOL    HW117534   3.616   0.207   3.186
 5545SOL    HW217535   3.562   0.352   3.238
 5546SOL     OW17536   1.089   5.672   5.130
 5546SOL    HW117537   1.084   5.628   5.040
 5546SOL    HW217538   1.050   5.611   5.199
 5547SOL     OW17539   5.610   1.577   4.813
 5547SOL    HW117540   5.710   1.582   4.824
 5547SOL    HW217541   5.567   1.649   4.868
 5548SOL     OW17542   6.736   4.567   5.433
 5548SOL    HW117543   6.716   4.582   5.336
 5548SOL    HW217544   6.830   4.593   5.452
 5549SOL     OW17545   4.314   2.840   1.020
 5549SOL    HW117546   4.268   2.844   1.109
 5549SOL    HW217547   4.269   2.772   0.963
 5550SOL     OW17548   1.560   3.562   2.390
 5550SOL    HW117549   1.612   3.502   2.328
 5550SOL    HW217550   1.593   3.656   2.380
 5551SOL     OW17551   2.074   5.007   3.961
 5551SOL    HW117552   2.122   5.002   4.048
 5551SOL    HW217553   1.999   4.941   3.960
 5552SOL     OW17554   0.536   6.885   6.696
 5552SOL    HW117555   0.480   6.907   6.615
 5552SOL    HW217556   0.559   6.788   6.695
 5553SOL     OW17557   4.903   0.104   6.950
 5553SOL    HW117558   4.931   0.200   6.948
 5553SOL    HW217559   4.804   0.099   6.934
 5554SOL     OW17560   5.437   2.763   1.508
 5554SOL    HW117561   5.434   2.786   1.411
 5554SOL    HW217562   5.490   2.679   1.521
 5555SOL     OW17563   1.811   4.124   2.432
 5555SOL    HW117564   1.879   4.054   2.454
 5555SOL    HW217565   1.743   4.128   2.506
 5556SOL     OW17566   0.063   0.334   4.890
 5556SOL    HW117567   0.131   0.353   4.819
 5556SOL    HW217568   0.020   0.419   4.920
 5557SOL     OW17569   3.154   6.420   1.901
 5557SOL    HW117570   3.149   6.500   1.961
 5557SOL    HW217571   3.247   6.383   1.903
 5558SOL     OW17572   3.791   4.604   6.884
 5558SOL    HW117573   3.793   4.616   6.983
 5558SOL    HW217574   3.844   4.522   6.860
 5559SOL     OW17575   1.761   0.198   2.761
 5559SOL    HW117576   1.836   0.132   2.758
 5559SOL    HW217577   1.735   0.224   2.668
 5560SOL     OW17578   0.497   5.952   2.941
 5560SOL    HW117579   0.451   5.917   3.022
 5560SOL    HW217580   0.496   5.882   2.869
 5561SOL     OW17581   3.386   0.452   3.834
 5561SOL    HW117582   3.406   0.550   3.837
 5561SOL    HW217583   3.347   0.424   3.922
 5562SOL     OW17584   4.116   3.886   0.984
 5562SOL    HW117585   4.017   3.871   0.976
 5562SOL    HW217586   4.139   3.901   1.080
 5563SOL     OW17587   2.641   4.785   2.652
 5563SOL    HW117588   2.699   4.733   2.589
 5563SOL    HW217589   2.571   4.724   2.690
 5564SOL     OW17590   5.458   0.945   5.664
 5564SOL    HW117591   5.433   1.039   5.689
 5564SOL    HW217592   5.550   0.926   5.697
 5565SOL     OW17593   2.925   2.397   6.725
 5565SOL    HW117594   2.846   2.444   6.763
 5565SOL    HW217595   2.921   2.400   6.625
 5566SOL     OW17596   1.123   3.381   6.596
 5566SOL    HW117597   1.150   3.428   6.512
 5566SOL    HW217598   1.081   3.293   6.573
 5567SOL     OW17599   6.428   4.188   1.719
 5567SOL    HW117600   6.436   4.255   1.793
 5567SOL    HW217601   6.425   4.096   1.757
 5568SOL     OW17602   4.395   6.517   1.819
 5568SOL    HW117603   4.348   6.580   1.756
 5568SOL    HW217604   4.327   6.461   1.866
 5569SOL     OW17605   2.350   2.698   3.898
 5569SOL    HW117606   2.404   2.639   3.958
 5569SOL    HW217607   2.352   2.661   3.805
 5570SOL     OW17608   0.144   3.326   2.963
 5570SOL    HW117609   0.223   3.339   2.903
 5570SOL    HW217610   0.163   3.366   3.053
 5571SOL     OW17611   6.806   5.112   1.865
 5571SOL    HW117612   6.863   5.030   1.860
 5571SOL    HW217613   6.856   5.184   1.913
 5572SOL     OW17614   1.073   3.104   4.414
 5572SOL    HW117615   1.050   3.186   4.361
 5572SOL    HW217616   1.124   3.041   4.357
 5573SOL     OW17617   2.464   5.414   4.396
 5573SOL    HW117618   2.471   5.324   4.439
 5573SOL    HW217619   2.391   5.413   4.328
 5574SOL     OW17620   0.455   2.302   6.515
 5574SOL    HW117621   0.396   2.378   6.543
 5574SOL    HW217622   0.435   2.222   6.570
 5575SOL     OW17623   0.649   0.578   1.222
 5575SOL    HW117624   0.693   0.667   1.211
 5575SOL    HW217625   0.550   0.589   1.213
 5576SOL     OW17626   1.886   3.950   3.757
 5576SOL    HW117627   1.934   4.009   3.823
 5576SOL    HW217628   1.807   3.909   3.802
 5577SOL     OW17629   1.598   3.501   6.439
 5577SOL    HW117630   1.624   3.417   6.486
 5577SOL    HW217631   1.519   3.542   6.485
 5578SOL     OW17632   3.618   3.158   2.631
 5578SOL    HW117633   3.573   3.222   2.568
 5578SOL    HW217634   3.672   3.210   2.698
 5579SOL     OW17635   0.145   2.618   1.498
 5579SOL    HW117636   0.212   2.630   1.425
 5579SOL    HW217637   0.067   2.679   1.483
 5580SOL     OW17638   4.591   2.097   5.173
 5580SOL    HW117639   4.554   2.077   5.264
 5580SOL    HW217640   4.577   2.019   5.113
 5581SOL     OW17641   0.674   1.762   0.376
 5581SOL    HW117642   0.697   1.665   0.369
 5581SOL    HW217643   0.638   1.794   0.288
 5582SOL     OW17644   2.124   3.423   6.358
 5582SOL    HW117645   2.071   3.422   6.443
 5582SOL    HW217646   2.164   3.333   6.343
 5583SOL     OW17647   4.911   1.543   1.943
 5583SOL    HW117648   4.821   1.569   1.907
 5583SOL    HW217649   4.932   1.449   1.917
 5584SOL     OW17650   0.246   4.619   4.983
 5584SOL    HW117651   0.342   4.599   5.000
 5584SOL    HW217652   0.195   4.534   4.972
 5585SOL     OW17653   4.523   4.983   2.338
 5585SOL    HW117654   4.475   5.012   2.255
 5585SOL    HW217655   4.564   5.062   2.383
 5586SOL     OW17656   6.765   3.075   6.143
 5586SOL    HW117657   6.838   3.017   6.107
 5586SOL    HW217658   6.712   3.022   6.210
 5587SOL     OW17659   4.782   0.911   6.445
 5587SOL    HW117660   4.791   0.943   6.351
 5587SOL    HW217661   4.732   0.980   6.498
 5588SOL     OW17662   3.102   6.725   1.457
 5588SOL    HW117663   3.120   6.697   1.551
 5588SOL    HW217664   3.145   6.661   1.393
 5589SOL     OW17665   5.607   4.665   6.821
 5589SOL    HW117666   5.615   4.568   6.841
 5589SOL    HW217667   5.673   4.690   6.750
 5590SOL     OW17668   6.063   5.999   4.144
 5590SOL    HW117669   6.062   6.098   4.137
 5590SOL    HW217670   5.996   5.969   4.213
 5591SOL     OW17671   6.196   1.449   1.249
 5591SOL    HW117672   6.167   1.425   1.341
 5591SOL    HW217673   6.272   1.514   1.254
 5592SOL     OW17674   0.846   4.399   3.397
 5592SOL    HW117675   0.773   4.333   3.417
 5592SOL    HW217676   0.817   4.490   3.427
 5593SOL     OW17677   6.300   2.099   6.966
 5593SOL    HW117678   6.309   2.120   6.869
 5593SOL    HW217679   6.360   2.022   6.990
 5594SOL     OW17680   5.592   1.950   5.313
 5594SOL    HW117681   5.589   1.976   5.217
 5594SOL    HW217682   5.512   1.987   5.360
 5595SOL     OW17683   0.881   2.512   5.198
 5595SOL    HW117684   0.913   2.436   5.255
 5595SOL    HW217685   0.889   2.598   5.249
 5596SOL     OW17686   4.540   6.956   3.177
 5596SOL    HW117687   4.486   0.012   3.151
 5596SOL    HW217688   4.618   6.985   3.232
 5597SOL     OW17689   5.218   2.893   3.468
 5597SOL    HW117690   5.317   2.888   3.458
 5597SOL    HW217691   5.191   2.989   3.482
 5598SOL     OW17692   5.419   2.562   4.555
 5598SOL    HW117693   5.518   2.575   4.554
 5598SOL    HW217694   5.373   2.650   4.545
 5599SOL     OW17695   0.412   1.752   4.642
 5599SOL    HW117696   0.337   1.818   4.658
 5599SOL    HW217697   0.428   1.743   4.544
 5600SOL     OW17698   1.631   2.688   4.142
 5600SOL    HW117699   1.567   2.618   4.174
 5600SOL    HW217700   1.673   2.658   4.056
 5601SOL     OW17701   2.642   1.035   5.781
 5601SOL    HW117702   2.546   1.015   5.758
 5601SOL    HW217703   2.645   1.117   5.839
 5602SOL     OW17704   0.879   1.351   0.807
 5602SOL    HW117705   0.887   1.316   0.900
 5602SOL    HW217706   0.830   1.438   0.808
 5603SOL     OW17707   5.305   2.060   7.018
 5603SOL    HW117708   5.399   2.087   0.010
 5603SOL    HW217709   5.290   1.968   0.029
 5604SOL     OW17710   5.896   2.190   5.773
 5604SOL    HW117711   5.854   2.115   5.824
 5604SOL    HW217712   5.923   2.263   5.836
 5605SOL     OW17713   0.778   1.869   4.436
 5605SOL    HW117714   0.750   1.774   4.443
 5605SOL    HW217715   0.833   1.881   4.354
 5606SOL     OW17716   4.868   6.892   1.411
 5606SOL    HW117717   4.917   6.934   1.334
 5606SOL    HW217718   4.927   6.894   1.492
 5607SOL     OW17719   5.173   1.529   1.638
 5607SOL    HW117720   5.158   1.596   1.711
 5607SOL    HW217721   5.222   1.573   1.563
 5608SOL     OW17722   4.387   0.360   4.777
 5608SOL    HW117723   4.394   0.305   4.860
 5608SOL    HW217724   4.435   0.446   4.790
 5609SOL     OW17725   2.551   6.314   6.567
 5609SOL    HW117726   2.609   6.234   6.585
 5609SOL    HW217727   2.478   6.318   6.635
 5610SOL     OW17728   5.157   0.538   0.060
 5610SOL    HW117729   5.217   0.538   7.004
 5610SOL    HW217730   5.160   0.628   0.103
 5611SOL     OW17731   1.549   5.165   3.230
 5611SOL    HW117732   1.640   5.123   3.235
 5611SOL    HW217733   1.545   5.243   3.293
 5612SOL     OW17734   3.599   0.689   5.818
 5612SOL    HW117735   3.558   0.664   5.730
 5612SOL    HW217736   3.631   0.606   5.865
 5613SOL     OW17737   4.439   4.484   2.404
 5613SOL    HW117738   4.375   4.548   2.362
 5613SOL    HW217739   4.498   4.445   2.333
 5614SOL     OW17740   4.687   2.730   3.348
 5614SOL    HW117741   4.708   2.707   3.443
 5614SOL    HW217742   4.692   2.829   3.336
 5615SOL     OW17743   1.589   0.333   0.267
 5615SOL    HW117744   1.492   0.358   0.276
 5615SOL    HW217745   1.633   0.340   0.357
 5616SOL     OW17746   1.984   1.120   4.374
 5616SOL    HW117747   2.050   1.177   4.422
 5616SOL    HW217748   1.902   1.173   4.352
 5617SOL     OW17749   2.144   0.570   4.934
 5617SOL    HW117750   2.055   0.568   4.980
 5617SOL    HW217751   2.215   0.540   4.998
 5618SOL     OW17752   6.064   4.078   3.819
 5618SOL    HW117753   6.012   4.136   3.757
 5618SOL    HW217754   6.006   4.049   3.895
 5619SOL     OW17755   2.069   3.806   5.477
 5619SOL    HW117756   1.995   3.873   5.471
 5619SOL    HW217757   2.098   3.779   5.385
 5620SOL     OW17758   3.612   2.132   6.780
 5620SOL    HW117759   3.662   2.216   6.799
 5620SOL    HW217760   3.536   2.122   6.844
 5621SOL     OW17761   1.540   1.631   5.369
 5621SOL    HW117762   1.453   1.633   5.321
 5621SOL    HW217763   1.539   1.558   5.437
 5622SOL     OW17764   4.697   0.768   6.018
 5622SOL    HW117765   4.658   0.722   5.937
 5622SOL    HW217766   4.767   0.833   5.989
 5623SOL     OW17767   1.775   6.574   6.374
 5623SOL    HW117768   1.677   6.573   6.353
 5623SOL    HW217769   1.791   6.630   6.456
 5624SOL     OW17770   1.303   4.718   3.509
 5624SOL    HW117771   1.361   4.651   3.553
 5624SOL    HW217772   1.247   4.674   3.439
 5625SOL     OW17773   6.542   2.641   4.579
 5625SOL    HW117774   6.589   2.696   4.510
 5625SOL    HW217775   6.610   2.596   4.637
 5626SOL     OW17776   3.848   6.854   5.145
 5626SOL    HW117777   3.812   6.945   5.164
 5626SOL    HW217778   3.805   6.818   5.062
 5627SOL     OW17779   1.664   6.154   1.481
 5627SOL    HW117780   1.578   6.175   1.528
 5627SOL    HW217781   1.726   6.107   1.544
 5628SOL     OW17782   1.987   1.870   5.177
 5628SOL    HW117783   1.922   1.795   5.173
 5628SOL    HW217784   2.046   1.860   5.257
 5629SOL     OW17785   3.509   4.016   2.682
 5629SOL    HW117786   3.565   4.016   2.599
 5629SOL    HW217787   3.555   4.071   2.753
 5630SOL     OW17788   0.451   4.723   1.186
 5630SOL    HW117789   0.427   4.635   1.229
 5630SOL    HW217790   0.501   4.707   1.101
 5631SOL     OW17791   4.588   1.285   0.425
 5631SOL    HW117792   4.599   1.299   0.327
 5631SOL    HW217793   4.556   1.369   0.468
 5632SOL     OW17794   4.414   4.135   6.308
 5632SOL    HW117795   4.431   4.175   6.218
 5632SOL    HW217796   4.398   4.037   6.299
 5633SOL     OW17797   6.630   2.822   4.205
 5633SOL    HW117798   6.548   2.777   4.169
 5633SOL    HW217799   6.604   2.904   4.255
 5634SOL     OW17800   3.765   5.272   4.619
 5634SOL    HW117801   3.735   5.225   4.536
 5634SOL    HW217802   3.840   5.222   4.661
 5635SOL     OW17803   2.414   2.615   4.739
 5635SOL    HW117804   2.369   2.705   4.738
 5635SOL    HW217805   2.408   2.575   4.647
 5636SOL     OW17806   4.179   5.503   2.876
 5636SOL    HW117807   4.233   5.421   2.896
 5636SOL    HW217808   4.180   5.564   2.955
 5637SOL     OW17809   5.875   0.196   4.169
 5637SOL    HW117810   5.835   0.134   4.236
 5637SOL    HW217811   5.856   0.291   4.195
 5638SOL     OW17812   5.065   3.035   6.833
 5638SOL    HW117813   5.122   3.009   6.755
 5638SOL    HW217814   5.101   2.993   6.917
 5639SOL     OW17815   1.046   1.543   6.322
 5639SOL    HW117816   0.993   1.578   6.245
 5639SOL    HW217817   1.121   1.486   6.289
 5640SOL     OW17818   2.397   6.943   3.688
 5640SOL    HW117819   2.491   6.919   3.666
 5640SOL    HW217820   2.349   6.863   3.722
 5641SOL     OW17821   6.425   5.008   5.585
 5641SOL    HW117822   6.486   4.931   5.570
 5641SOL    HW217823   6.400   5.048   5.496
 5642SOL     OW17824   1.762   1.666   6.278
 5642SOL    HW117825   1.830   1.698   6.212
 5642SOL    HW217826   1.773   1.715   6.364
 5643SOL     OW17827   6.247   2.322   4.209
 5643SOL    HW117828   6.339   2.288   4.229
 5643SOL    HW217829   6.249   2.422   4.205
 5644SOL     OW17830   3.134   0.000   6.377
 5644SOL    HW117831   3.127   0.096   6.349
 5644SOL    HW217832   3.045   6.980   6.367
 5645SOL     OW17833   6.073   3.401   3.512
 5645SOL    HW117834   6.074   3.494   3.548
 5645SOL    HW217835   6.124   3.398   3.426
 5646SOL     OW17836   1.753   4.403   3.074
 5646SOL    HW117837   1.757   4.304   3.089
 5646SOL    HW217838   1.660   4.430   3.051
 5647SOL     OW17839   5.901   6.115   3.171
 5647SOL    HW117840   5.867   6.115   3.077
 5647SOL    HW217841   5.987   6.063   3.176
 5648SOL     OW17842   3.828   6.234   2.740
 5648SOL    HW117843   3.839   6.135   2.734
 5648SOL    HW217844   3.750   6.263   2.685
 5649SOL     OW17845   0.716   5.876   3.729
 5649SOL    HW117846   0.650   5.806   3.702
 5649SOL    HW217847   0.791   5.834   3.779
 5650SOL     OW17848   7.012   4.382   0.821
 5650SOL    HW117849   0.007   4.287   0.795
 5650SOL    HW217850   0.000   4.392   0.919
 5651SOL     OW17851   1.579   0.802   1.488
 5651SOL    HW117852   1.485   0.769   1.489
 5651SOL    HW217853   1.642   0.724   1.491
 5652SOL     OW17854   0.880   5.352   1.589
 5652SOL    HW117855   0.820   5.352   1.670
 5652SOL    HW217856   0.834   5.306   1.514
 5653SOL     OW17857   0.074   6.244   1.872
 5653SOL    HW117858   7.011   6.294   1.873
 5653SOL    HW217859   0.112   6.247   1.779
 5654SOL     OW17860   2.360   5.975   4.615
 5654SOL    HW117861   2.340   5.899   4.554
 5654SOL    HW217862   2.327   5.954   4.707
 5655SOL     OW17863   6.401   2.764   4.062
 5655SOL    HW117864   6.408   2.849   4.009
 5655SOL    HW217865   6.445   2.690   4.012
 5656SOL     OW17866   0.458   3.031   6.705
 5656SOL    HW117867   0.394   3.090   6.656
 5656SOL    HW217868   0.429   2.936   6.697
 5657SOL     OW17869   4.325   5.178   4.953
 5657SOL    HW117870   4.302   5.264   4.908
 5657SOL    HW217871   4.348   5.110   4.883
 5658SOL     OW17872   1.886   2.018   5.732
 5658SOL    HW117873   1.931   1.980   5.651
 5658SOL    HW217874   1.956   2.049   5.797
 5659SOL     OW17875   3.504   4.103   6.404
 5659SOL    HW117876   3.595   4.118   6.445
 5659SOL    HW217877   3.513   4.042   6.326
 5660SOL     OW17878   4.342   0.311   6.763
 5660SOL    HW117879   4.375   0.302   6.857
 5660SOL    HW217880   4.387   0.390   6.720
 5661SOL     OW17881   1.076   5.539   5.850
 5661SOL    HW117882   1.112   5.629   5.826
 5661SOL    HW217883   1.109   5.471   5.785
 5662SOL     OW17884   2.723   6.075   2.131
 5662SOL    HW117885   2.823   6.072   2.126
 5662SOL    HW217886   2.692   6.029   2.214
 5663SOL     OW17887   1.359   2.839   0.569
 5663SOL    HW117888   1.368   2.935   0.598
 5663SOL    HW217889   1.373   2.833   0.470
 5664SOL     OW17890   5.283   4.098   4.457
 5664SOL    HW117891   5.349   4.023   4.457
 5664SOL    HW217892   5.218   4.087   4.382
 5665SOL     OW17893   2.341   0.782   1.268
 5665SOL    HW117894   2.315   0.844   1.194
 5665SOL    HW217895   2.310   0.689   1.246
 5666SOL     OW17896   6.363   1.006   4.983
 5666SOL    HW117897   6.378   0.958   4.897
 5666SOL    HW217898   6.292   0.959   5.035
 5667SOL     OW17899   2.781   5.606   4.731
 5667SOL    HW117900   2.710   5.676   4.726
 5667SOL    HW217901   2.798   5.569   4.640
 5668SOL     OW17902   5.494   2.802   3.396
 5668SOL    HW117903   5.532   2.839   3.311
 5668SOL    HW217904   5.563   2.805   3.468
 5669SOL     OW17905   6.275   4.239   6.820
 5669SOL    HW117906   6.347   4.302   6.848
 5669SOL    HW217907   6.234   4.196   6.901
 5670SOL     OW17908   1.157   2.395   2.369
 5670SOL    HW117909   1.239   2.429   2.322
 5670SOL    HW217910   1.147   2.443   2.457
 5671SOL     OW17911   0.382   0.077   3.499
 5671SOL    HW117912   0.318   0.119   3.562
 5671SOL    HW217913   0.333   0.010   3.442
 5672SOL     OW17914   5.208   3.948   5.298
 5672SOL    HW117915   5.112   3.963   5.276
 5672SOL    HW217916   5.220   3.944   5.397
 5673SOL     OW17917   0.674   0.459   0.929
 5673SOL    HW117918   0.663   0.539   0.869
 5673SOL    HW217919   0.637   0.480   1.019
 5674SOL     OW17920   1.910   5.576   5.167
 5674SOL    HW117921   1.921   5.505   5.098
 5674SOL    HW217922   1.813   5.597   5.178
 5675SOL     OW17923   2.233   1.815   0.438
 5675SOL    HW117924   2.237   1.735   0.378
 5675SOL    HW217925   2.314   1.871   0.425
 5676SOL     OW17926   2.658   2.153   1.686
 5676SOL    HW117927   2.668   2.201   1.773
 5676SOL    HW217928   2.738   2.170   1.629
 5677SOL     OW17929   6.801   0.282   1.346
 5677SOL    HW117930   6.703   0.304   1.346
 5677SOL    HW217931   6.820   0.215   1.418
 5678SOL     OW17932   3.427   1.975   1.627
 5678SOL    HW117933   3.376   2.055   1.597
 5678SOL    HW217934   3.503   2.004   1.686
 5679SOL     OW17935   5.995   3.625   5.438
 5679SOL    HW117936   5.934   3.603   5.363
 5679SOL    HW217937   5.992   3.724   5.456
 5680SOL     OW17938   1.578   5.897   5.818
 5680SOL    HW117939   1.673   5.926   5.824
 5680SOL    HW217940   1.537   5.895   5.910
 5681SOL     OW17941   0.662   4.121   3.196
 5681SOL    HW117942   0.629   4.173   3.116
 5681SOL    HW217943   0.644   4.174   3.279
 5682SOL     OW17944   2.286   4.126   2.025
 5682SOL    HW117945   2.236   4.040   2.040
 5682SOL    HW217946   2.223   4.196   1.992
 5683SOL     OW17947   4.806   1.607   6.522
 5683SOL    HW117948   4.870   1.680   6.545
 5683SOL    HW217949   4.732   1.604   6.590
 5684SOL     OW17950   2.240   2.674   5.253
 5684SOL    HW117951   2.307   2.635   5.190
 5684SOL    HW217952   2.267   2.652   5.347
 5685SOL     OW17953   2.740   1.767   4.124
 5685SOL    HW117954   2.698   1.703   4.188
 5685SOL    HW217955   2.673   1.838   4.099
 5686SOL     OW17956   3.342   6.213   6.318
 5686SOL    HW117957   3.285   6.288   6.284
 5686SOL    HW217958   3.432   6.216   6.273
 5687SOL     OW17959   2.405   6.510   6.061
 5687SOL    HW117960   2.398   6.483   5.965
 5687SOL    HW217961   2.457   6.441   6.111
 5688SOL     OW17962   2.184   2.973   3.529
 5688SOL    HW117963   2.159   3.068   3.508
 5688SOL    HW217964   2.219   2.967   3.622
 5689SOL     OW17965   0.793   1.582   1.603
 5689SOL    HW117966   0.841   1.667   1.627
 5689SOL    HW217967   0.713   1.604   1.547
 5690SOL     OW17968   1.584   5.601   0.331
 5690SOL    HW117969   1.558   5.508   0.357
 5690SOL    HW217970   1.625   5.600   0.240
 5691SOL     OW17971   3.817   1.245   2.637
 5691SOL    HW117972   3.808   1.164   2.695
 5691SOL    HW217973   3.847   1.322   2.693
 5692SOL     OW17974   3.976   4.970   1.128
 5692SOL    HW117975   4.019   5.060   1.118
 5692SOL    HW217976   4.028   4.902   1.078
 5693SOL     OW17977   3.641   0.929   1.523
 5693SOL    HW117978   3.704   0.998   1.489
 5693SOL    HW217979   3.672   0.897   1.613
 5694SOL     OW17980   0.813   0.141   2.228
 5694SOL    HW117981   0.803   0.229   2.182
 5694SOL    HW217982   0.889   0.145   2.292
 5695SOL     OW17983   1.323   0.734   0.949
 5695SOL    HW117984   1.336   0.791   0.868
 5695SOL    HW217985   1.352   0.784   1.031
 5696SOL     OW17986   1.431   6.641   3.805
 5696SOL    HW117987   1.463   6.563   3.752
 5696SOL    HW217988   1.500   6.713   3.804
 5697SOL     OW17989   6.074   2.531   0.097
 5697SOL    HW117990   6.163   2.514   0.055
 5697SOL    HW217991   6.087   2.562   0.191
 5698SOL     OW17992   2.416   2.612   3.654
 5698SOL    HW117993   2.504   2.650   3.624
 5698SOL    HW217994   2.353   2.609   3.577
 5699SOL     OW17995   2.106   2.804   2.659
 5699SOL    HW117996   2.113   2.766   2.567
 5699SOL    HW217997   2.120   2.732   2.727
 5700SOL     OW17998   6.179   0.819   3.584
 5700SOL    HW117999   6.230   0.882   3.643
 5700SOL    HW218000   6.181   0.727   3.623
 5701SOL     OW18001   6.874   0.360   0.915
 5701SOL    HW118002   6.964   0.352   0.873
 5701SOL    HW218003   6.871   0.304   0.998
 5702SOL     OW18004   2.460   6.913   4.720
 5702SOL    HW118005   2.542   6.969   4.712
 5702SOL    HW218006   2.480   6.820   4.689
 5703SOL     OW18007   6.947   2.877   6.890
 5703SOL    HW118008   6.876   2.948   6.887
 5703SOL    HW218009   6.980   2.859   6.797
 5704SOL     OW18010   5.547   4.406   4.081
 5704SOL    HW118011   5.526   4.365   3.992
 5704SOL    HW218012   5.464   4.447   4.119
 5705SOL     OW18013   5.974   6.804   6.020
 5705SOL    HW118014   5.933   6.860   5.948
 5705SOL    HW218015   6.000   6.861   6.097
 5706SOL     OW18016   5.481   2.157   6.780
 5706SOL    HW118017   5.502   2.096   6.704
 5706SOL    HW218018   5.528   2.126   6.862
 5707SOL     OW18019   5.512   6.214   2.746
 5707SOL    HW118020   5.514   6.181   2.840
 5707SOL    HW218021   5.474   6.143   2.687
 5708SOL     OW18022   4.414   5.830   3.039
 5708SOL    HW118023   4.373   5.890   2.969
 5708SOL    HW218024   4.504   5.801   3.009
 5709SOL     OW18025   0.636   1.613   2.228
 5709SOL    HW118026   0.636   1.617   2.128
 5709SOL    HW218027   0.718   1.564   2.259
 5710SOL     OW18028   2.287   2.409   0.681
 5710SOL    HW118029   2.217   2.477   0.701
 5710SOL    HW218030   2.376   2.454   0.673
 5711SOL     OW18031   5.541   2.129   1.894
 5711SOL    HW118032   5.630   2.102   1.930
 5711SOL    HW218033   5.518   2.071   1.816
 5712SOL     OW18034   6.245   6.249   1.522
 5712SOL    HW118035   6.250   6.277   1.618
 5712SOL    HW218036   6.337   6.233   1.488
 5713SOL     OW18037   2.147   6.356   0.666
 5713SOL    HW118038   2.225   6.294   0.676
 5713SOL    HW218039   2.152   6.428   0.735
 5714SOL     OW18040   6.261   6.548   1.383
 5714SOL    HW118041   6.320   6.467   1.384
 5714SOL    HW218042   6.170   6.523   1.351
 5715SOL     OW18043   0.814   0.174   1.428
 5715SOL    HW118044   0.827   0.204   1.522
 5715SOL    HW218045   0.803   0.254   1.368
 5716SOL     OW18046   6.653   4.352   6.135
 5716SOL    HW118047   6.584   4.358   6.063
 5716SOL    HW218048   6.624   4.286   6.204
 5717SOL     OW18049   1.115   5.129   3.044
 5717SOL    HW118050   1.109   5.140   2.944
 5717SOL    HW218051   1.204   5.089   3.067
 5718SOL     OW18052   0.680   3.300   0.199
 5718SOL    HW118053   0.742   3.373   0.227
 5718SOL    HW218054   0.706   3.215   0.244
 5719SOL     OW18055   2.648   3.835   0.750
 5719SOL    HW118056   2.551   3.818   0.733
 5719SOL    HW218057   2.703   3.768   0.700
 5720SOL     OW18058   2.044   4.869   5.724
 5720SOL    HW118059   2.091   4.957   5.722
 5720SOL    HW218060   2.089   4.806   5.661
 5721SOL     OW18061   4.071   4.205   0.176
 5721SOL    HW118062   4.103   4.299   0.166
 5721SOL    HW218063   4.136   4.154   0.233
 5722SOL     OW18064   0.543   1.160   5.506
 5722SOL    HW118065   0.527   1.138   5.410
 5722SOL    HW218066   0.513   1.083   5.563
 5723SOL     OW18067   4.145   2.834   6.833
 5723SOL    HW118068   4.222   2.888   6.866
 5723SOL    HW218069   4.178   2.762   6.771
 5724SOL     OW18070   5.442   2.169   3.524
 5724SOL    HW118071   5.364   2.230   3.532
 5724SOL    HW218072   5.417   2.089   3.469
 5725SOL     OW18073   6.787   3.870   3.869
 5725SOL    HW118074   6.806   3.813   3.790
 5725SOL    HW218075   6.815   3.965   3.850
 5726SOL     OW18076   5.358   4.450   2.619
 5726SOL    HW118077   5.364   4.353   2.640
 5726SOL    HW218078   5.448   4.484   2.593
 5727SOL     OW18079   0.436   2.556   4.974
 5727SOL    HW118080   0.427   2.507   5.061
 5727SOL    HW218081   0.419   2.494   4.898
 5728SOL     OW18082   5.302   6.215   4.811
 5728SOL    HW118083   5.236   6.270   4.864
 5728SOL    HW218084   5.308   6.123   4.851
 5729SOL     OW18085   1.774   1.471   5.621
 5729SOL    HW118086   1.811   1.544   5.679
 5729SOL    HW218087   1.832   1.460   5.541
 5730SOL     OW18088   6.298   4.187   5.619
 5730SOL    HW118089   6.308   4.270   5.674
 5730SOL    HW218090   6.333   4.204   5.526
 5731SOL     OW18091   0.497   6.585   1.752
 5731SOL    HW118092   0.568   6.615   1.815
 5731SOL    HW218093   0.434   6.523   1.799
 5732SOL     OW18094   1.220   6.981   3.675
 5732SOL    HW118095   1.213   0.049   3.637
 5732SOL    HW218096   1.310   6.943   3.656
 5733SOL     OW18097   3.921   0.292   5.257
 5733SOL    HW118098   3.987   0.255   5.322
 5733SOL    HW218099   3.862   0.359   5.304
 5734SOL     OW18100   2.023   6.409   2.966
 5734SOL    HW118101   1.937   6.368   2.997
 5734SOL    HW218102   2.060   6.357   2.889
 5735SOL     OW18103   2.943   1.335   2.147
 5735SOL    HW118104   2.960   1.388   2.064
 5735SOL    HW218105   2.850   1.299   2.145
 5736SOL     OW18106   1.422   5.244   0.230
 5736SOL    HW118107   1.404   5.295   0.314
 5736SOL    HW218108   1.336   5.213   0.190
 5737SOL     OW18109   5.602   4.859   0.731
 5737SOL    HW118110   5.577   4.773   0.776
 5737SOL    HW218111   5.527   4.889   0.672
 5738SOL     OW18112   1.449   4.099   6.176
 5738SOL    HW118113   1.449   4.134   6.270
 5738SOL    HW218114   1.538   4.060   6.154
 5739SOL     OW18115   1.180   1.207   1.236
 5739SOL    HW118116   1.187   1.115   1.196
 5739SOL    HW218117   1.263   1.259   1.216
 5740SOL     OW18118   4.110   6.117   6.132
 5740SOL    HW118119   4.039   6.085   6.068
 5740SOL    HW218120   4.198   6.076   6.107
 5741SOL     OW18121   0.750   4.912   3.692
 5741SOL    HW118122   0.777   4.962   3.774
 5741SOL    HW218123   0.681   4.844   3.715
 5742SOL     OW18124   6.565   6.668   4.170
 5742SOL    HW118125   6.638   6.603   4.189
 5742SOL    HW218126   6.598   6.737   4.106
 5743SOL     OW18127   1.718   6.568   5.533
 5743SOL    HW118128   1.755   6.558   5.440
 5743SOL    HW218129   1.768   6.641   5.580
 5744SOL     OW18130   6.119   0.305   2.478
 5744SOL    HW118131   6.101   0.229   2.541
 5744SOL    HW218132   6.107   0.392   2.527
 5745SOL     OW18133   1.318   1.958   3.506
 5745SOL    HW118134   1.412   1.991   3.498
 5745SOL    HW218135   1.315   1.860   3.488
 5746SOL     OW18136   5.594   3.711   0.194
 5746SOL    HW118137   5.582   3.612   0.206
 5746SOL    HW218138   5.525   3.745   0.130
 5747SOL     OW18139   1.135   5.872   3.133
 5747SOL    HW118140   1.046   5.912   3.152
 5747SOL    HW218141   1.204   5.945   3.128
 5748SOL     OW18142   2.515   6.252   2.447
 5748SOL    HW118143   2.517   6.176   2.382
 5748SOL    HW218144   2.500   6.217   2.539
 5749SOL     OW18145   2.433   1.704   3.554
 5749SOL    HW118146   2.442   1.800   3.580
 5749SOL    HW218147   2.381   1.655   3.624
 5750SOL     OW18148   6.646   6.012   2.669
 5750SOL    HW118149   6.555   6.021   2.629
 5750SOL    HW218150   6.712   5.993   2.596
 5751SOL     OW18151   2.415   3.941   5.774
 5751SOL    HW118152   2.320   3.921   5.751
 5751SOL    HW218153   2.418   4.010   5.846
 5752SOL     OW18154   6.635   0.383   6.712
 5752SOL    HW118155   6.652   0.466   6.765
 5752SOL    HW218156   6.629   0.305   6.774
 5753SOL     OW18157   3.463   2.290   0.532
 5753SOL    HW118158   3.466   2.379   0.577
 5753SOL    HW218159   3.418   2.299   0.443
 5754SOL     OW18160   5.966   4.631   1.378
 5754SOL    HW118161   6.038   4.647   1.310
 5754SOL    HW218162   5.891   4.695   1.363
 5755SOL     OW18163   3.648   3.978   1.049
 5755SOL    HW118164   3.573   3.912   1.036
 5755SOL    HW218165   3.708   3.945   1.122
 5756SOL     OW18166   0.258   5.895   4.533
 5756SOL    HW118167   0.224   5.821   4.591
 5756SOL    HW218168   0.180   5.945   4.494
 5757SOL     OW18169   0.435   4.790   0.797
 5757SOL    HW118170   0.521   4.777   0.846
 5757SOL    HW218171   0.359   4.757   0.853
 5758SOL     OW18172   0.813   1.723   5.744
 5758SOL    HW118173   0.798   1.801   5.805
 5758SOL    HW218174   0.886   1.746   5.679
 5759SOL     OW18175   5.278   1.889   4.763
 5759SOL    HW118176   5.283   1.864   4.859
 5759SOL    HW218177   5.224   1.972   4.752
 5760SOL     OW18178   1.694   5.559   2.195
 5760SOL    HW118179   1.720   5.655   2.184
 5760SOL    HW218180   1.603   5.545   2.154
 5761SOL     OW18181   5.054   0.063   4.933
 5761SOL    HW118182   5.044   7.007   4.991
 5761SOL    HW218183   5.056   0.034   4.837
 5762SOL     OW18184   5.416   6.039   1.767
 5762SOL    HW118185   5.510   6.073   1.774
 5762SOL    HW218186   5.408   5.952   1.815
 5763SOL     OW18187   0.903   1.132   1.753
 5763SOL    HW118188   0.986   1.184   1.734
 5763SOL    HW218189   0.833   1.153   1.684
 5764SOL     OW18190   4.316   3.937   5.318
 5764SOL    HW118191   4.310   3.944   5.417
 5764SOL    HW218192   4.224   3.944   5.279
 5765SOL     OW18193   5.566   5.116   0.375
 5765SOL    HW118194   5.643   5.051   0.371
 5765SOL    HW218195   5.574   5.172   0.457
 5766SOL     OW18196   2.931   1.132   3.480
 5766SOL    HW118197   2.938   1.194   3.559
 5766SOL    HW218198   2.993   1.055   3.492
 5767SOL     OW18199   0.169   6.590   1.548
 5767SOL    HW118200   0.215   6.508   1.514
 5767SOL    HW218201   0.087   6.607   1.494
 5768SOL     OW18202   6.843   1.516   2.925
 5768SOL    HW118203   6.906   1.451   2.965
 5768SOL    HW218204   6.813   1.483   2.835
 5769SOL     OW18205   2.320   5.677   3.493
 5769SOL    HW118206   2.230   5.652   3.528
 5769SOL    HW218207   2.353   5.606   3.431
 5770SOL     OW18208   6.350   0.395   1.803
 5770SOL    HW118209   6.435   0.378   1.853
 5770SOL    HW218210   6.328   0.316   1.747
 5771SOL     OW18211   0.587   1.617   1.928
 5771SOL    HW118212   0.674   1.660   1.953
 5771SOL    HW218213   0.605   1.533   1.877
 5772SOL     OW18214   6.535   3.948   0.191
 5772SOL    HW118215   6.454   3.905   0.230
 5772SOL    HW218216   6.580   3.884   0.128
 5773SOL     OW18217   5.657   5.314   3.828
 5773SOL    HW118218   5.750   5.314   3.864
 5773SOL    HW218219   5.604   5.386   3.872
 5774SOL     OW18220   2.379   5.423   3.341
 5774SOL    HW118221   2.290   5.387   3.371
 5774SOL    HW218222   2.451   5.383   3.397
 5775SOL     OW18223   0.101   0.225   0.418
 5775SOL    HW118224   0.015   0.263   0.452
 5775SOL    HW218225   0.084   0.178   0.331
 5776SOL     OW18226   5.386   1.189   5.717
 5776SOL    HW118227   5.345   1.209   5.806
 5776SOL    HW218228   5.314   1.172   5.650
 5777SOL     OW18229   6.552   0.656   5.331
 5777SOL    HW118230   6.491   0.668   5.252
 5777SOL    HW218231   6.508   0.692   5.413
 5778SOL     OW18232   2.664   0.063   3.993
 5778SOL    HW118233   2.672   0.155   4.031
 5778SOL    HW218234   2.686   7.020   4.063
 5779SOL     OW18235   4.706   1.286   2.516
 5779SOL    HW118236   4.763   1.230   2.456
 5779SOL    HW218237   4.689   1.237   2.602
 5780SOL     OW18238   5.962   3.798   1.593
 5780SOL    HW118239   5.887   3.749   1.637
 5780SOL    HW218240   6.031   3.822   1.661
 5781SOL     OW18241   2.320   5.404   4.766
 5781SOL    HW118242   2.337   5.306   4.782
 5781SOL    HW218243   2.259   5.415   4.688
 5782SOL     OW18244   2.551   1.369   2.897
 5782SOL    HW118245   2.554   1.457   2.849
 5782SOL    HW218246   2.577   1.296   2.834
 5783SOL     OW18247   1.963   6.720   0.880
 5783SOL    HW118248   2.037   6.655   0.860
 5783SOL    HW218249   1.878   6.686   0.840
 5784SOL     OW18250   1.750   5.574   0.092
 5784SOL    HW118251   1.807   5.643   0.136
 5784SOL    HW218252   1.800   5.488   0.085
 5785SOL     OW18253   1.992   1.729   0.222
 5785SOL    HW118254   2.084   1.761   0.200
 5785SOL    HW218255   1.964   1.659   0.156
 5786SOL     OW18256   1.250   3.151   1.005
 5786SOL    HW118257   1.277   3.176   1.098
 5786SOL    HW218258   1.152   3.133   1.003
 5787SOL     OW18259   7.005   3.013   5.671
 5787SOL    HW118260   0.027   3.101   5.677
 5787SOL    HW218261   6.925   3.012   5.731
 5788SOL     OW18262   2.226   2.394   1.790
 5788SOL    HW118263   2.224   2.494   1.788
 5788SOL    HW218264   2.149   2.359   1.736
 5789SOL     OW18265   3.295   5.176   6.812
 5789SOL    HW118266   3.370   5.192   6.748
 5789SOL    HW218267   3.279   5.078   6.822
 5790SOL     OW18268   6.164   5.968   3.666
 5790SOL    HW118269   6.143   6.000   3.758
 5790SOL    HW218270   6.112   6.022   3.600
 5791SOL     OW18271   3.809   1.291   2.341
 5791SOL    HW118272   3.901   1.320   2.311
 5791SOL    HW218273   3.813   1.261   2.436
 5792SOL     OW18274   4.896   3.171   2.646
 5792SOL    HW118275   4.988   3.138   2.666
 5792SOL    HW218276   4.843   3.097   2.604
 5793SOL     OW18277   4.126   2.306   6.211
 5793SOL    HW118278   4.109   2.268   6.120
 5793SOL    HW218279   4.222   2.334   6.218
 5794SOL     OW18280   4.121   6.760   6.973
 5794SOL    HW118281   4.032   6.730   7.007
 5794SOL    HW218282   4.183   6.770   0.027
 5795SOL     OW18283   2.222   5.803   1.523
 5795SOL    HW118284   2.204   5.857   1.442
 5795SOL    HW218285   2.298   5.740   1.506
 5796SOL     OW18286   5.113   1.103   6.407
 5796SOL    HW118287   5.140   1.011   6.375
 5796SOL    HW218288   5.133   1.111   6.504
 5797SOL     OW18289   6.166   2.584   1.241
 5797SOL    HW118290   6.163   2.557   1.145
 5797SOL    HW218291   6.251   2.552   1.282
 5798SOL     OW18292   1.778   3.476   4.660
 5798SOL    HW118293   1.783   3.388   4.708
 5798SOL    HW218294   1.723   3.540   4.715
 5799SOL     OW18295   2.322   6.672   3.683
 5799SOL    HW118296   2.272   6.616   3.749
 5799SOL    HW218297   2.414   6.634   3.671
 5800SOL     OW18298   1.554   0.154   1.412
 5800SOL    HW118299   1.456   0.137   1.421
 5800SOL    HW218300   1.605   0.078   1.453
 5801SOL     OW18301   2.226   1.774   2.011
 5801SOL    HW118302   2.134   1.758   1.974
 5801SOL    HW218303   2.289   1.791   1.936
 5802SOL     OW18304   0.553   0.627   1.640
 5802SOL    HW118305   0.528   0.576   1.722
 5802SOL    HW218306   0.564   0.724   1.662
 5803SOL     OW18307   0.402   5.627   4.118
 5803SOL    HW118308   0.409   5.572   4.201
 5803SOL    HW218309   0.492   5.633   4.075
 5804SOL     OW18310   5.810   1.972   3.025
 5804SOL    HW118311   5.743   2.020   3.081
 5804SOL    HW218312   5.824   2.022   2.940
 5805SOL     OW18313   1.363   2.581   1.922
 5805SOL    HW118314   1.369   2.506   1.856
 5805SOL    HW218315   1.278   2.630   1.909
 5806SOL     OW18316   6.925   4.306   2.021
 5806SOL    HW118317   6.828   4.289   2.035
 5806SOL    HW218318   6.937   4.383   1.959
 5807SOL     OW18319   1.953   0.499   1.267
 5807SOL    HW118320   1.904   0.415   1.243
 5807SOL    HW218321   1.906   0.577   1.227
 5808SOL     OW18322   6.842   0.464   5.708
 5808SOL    HW118323   6.840   0.371   5.671
 5808SOL    HW218324   6.763   0.478   5.767
 5809SOL     OW18325   0.249   2.206   5.567
 5809SOL    HW118326   0.343   2.187   5.596
 5809SOL    HW218327   0.227   2.302   5.586
 5810SOL     OW18328   3.096   6.515   5.016
 5810SOL    HW118329   3.156   6.595   5.022
 5810SOL    HW218330   3.094   6.468   5.104
 5811SOL     OW18331   3.876   4.725   6.371
 5811SOL    HW118332   3.902   4.671   6.451
 5811SOL    HW218333   3.837   4.812   6.401
 5812SOL     OW18334   5.162   2.778   6.960
 5812SOL    HW118335   5.252   2.749   6.994
 5812SOL    HW218336   5.111   2.698   6.930
 5813SOL     OW18337   4.836   5.534   0.313
 5813SOL    HW118338   4.875   5.538   0.405
 5813SOL    HW218339   4.736   5.533   0.320
 5814SOL     OW18340   5.114   1.275   1.699
 5814SOL    HW118341   5.122   1.368   1.664
 5814SOL    HW218342   5.078   1.278   1.793
 5815SOL     OW18343   6.555   2.567   3.939
 5815SOL    HW118344   6.554   2.600   3.844
 5815SOL    HW218345   6.648   2.568   3.974
 5816SOL     OW18346   0.179   3.607   2.610
 5816SOL    HW118347   0.131   3.546   2.547
 5816SOL    HW218348   0.169   3.701   2.580
 5817SOL     OW18349   5.969   4.034   3.355
 5817SOL    HW118350   6.036   4.108   3.346
 5817SOL    HW218351   5.899   4.061   3.421
 5818SOL     OW18352   2.275   0.754   4.562
 5818SOL    HW118353   2.284   0.790   4.655
 5818SOL    HW218354   2.184   0.713   4.551
 5819SOL     OW18355   4.322   4.896   0.411
 5819SOL    HW118356   4.393   4.860   0.350
 5819SOL    HW218357   4.252   4.826   0.425
 5820SOL     OW18358   5.630   6.300   2.431
 5820SOL    HW118359   5.713   6.263   2.389
 5820SOL    HW218360   5.636   6.292   2.530
 5821SOL     OW18361   0.185   0.162   1.060
 5821SOL    HW118362   0.086   0.152   1.071
 5821SOL    HW218363   0.205   0.239   1.000
 5822SOL     OW18364   1.486   3.654   3.285
 5822SOL    HW118365   1.539   3.724   3.237
 5822SOL    HW218366   1.515   3.563   3.255
 5823SOL     OW18367   1.551   5.929   3.406
 5823SOL    HW118368   1.594   6.019   3.407
 5823SOL    HW218369   1.609   5.865   3.355
 5824SOL     OW18370   1.030   0.240   2.387
 5824SOL    HW118371   1.037   0.157   2.443
 5824SOL    HW218372   0.969   0.305   2.432
 5825SOL     OW18373   5.288   1.340   4.011
 5825SOL    HW118374   5.292   1.386   4.100
 5825SOL    HW218375   5.366   1.278   4.003
 5826SOL     OW18376   0.850   6.581   5.612
 5826SOL    HW118377   0.894   6.493   5.595
 5826SOL    HW218378   0.920   6.651   5.624
 5827SOL     OW18379   2.129   4.153   3.637
 5827SOL    HW118380   2.129   4.244   3.594
 5827SOL    HW218381   2.158   4.085   3.570
 5828SOL     OW18382   3.826   0.711   5.542
 5828SOL    HW118383   3.876   0.698   5.456
 5828SOL    HW218384   3.735   0.745   5.522
 5829SOL     OW18385   2.167   0.660   3.641
 5829SOL    HW118386   2.239   0.704   3.587
 5829SOL    HW218387   2.159   0.564   3.612
 5830SOL     OW18388   4.067   4.858   4.738
 5830SOL    HW118389   4.044   4.854   4.641
 5830SOL    HW218390   4.153   4.810   4.754
 5831SOL     OW18391   1.703   2.217   5.730
 5831SOL    HW118392   1.646   2.184   5.654
 5831SOL    HW218393   1.766   2.145   5.758
 5832SOL     OW18394   3.049   5.181   2.040
 5832SOL    HW118395   3.114   5.237   2.092
 5832SOL    HW218396   2.982   5.142   2.103
 5833SOL     OW18397   3.757   4.989   0.124
 5833SOL    HW118398   3.821   5.065   0.139
 5833SOL    HW218399   3.697   5.011   0.047
 5834SOL     OW18400   5.994   2.881   6.590
 5834SOL    HW118401   6.044   2.959   6.554
 5834SOL    HW218402   6.051   2.833   6.657
 5835SOL     OW18403   4.979   2.414   2.748
 5835SOL    HW118404   4.955   2.365   2.832
 5835SOL    HW218405   5.070   2.455   2.758
 5836SOL     OW18406   4.709   6.183   2.975
 5836SOL    HW118407   4.766   6.106   2.947
 5836SOL    HW218408   4.767   6.262   2.994
 5837SOL     OW18409   2.678   5.463   6.609
 5837SOL    HW118410   2.588   5.420   6.602
 5837SOL    HW218411   2.689   5.504   6.700
 5838SOL     OW18412   3.961   2.457   0.665
 5838SOL    HW118413   3.870   2.462   0.705
 5838SOL    HW218414   3.957   2.487   0.569
 5839SOL     OW18415   1.951   2.501   0.158
 5839SOL    HW118416   1.953   2.553   0.243
 5839SOL    HW218417   1.944   2.404   0.179
 5840SOL     OW18418   0.191   3.337   3.250
 5840SOL    HW118419   0.152   3.248   3.225
 5840SOL    HW218420   0.131   3.383   3.315
 5841SOL     OW18421   5.011   1.275   0.719
 5841SOL    HW118422   5.040   1.249   0.811
 5841SOL    HW218423   4.990   1.372   0.716
 5842SOL     OW18424   2.190   2.273   0.946
 5842SOL    HW118425   2.120   2.342   0.964
 5842SOL    HW218426   2.252   2.308   0.875
 5843SOL     OW18427   2.738   3.848   1.003
 5843SOL    HW118428   2.681   3.918   1.045
 5843SOL    HW218429   2.704   3.829   0.911
 5844SOL     OW18430   0.685   5.915   4.685
 5844SOL    HW118431   0.745   5.912   4.605
 5844SOL    HW218432   0.731   5.965   4.759
 5845SOL     OW18433   1.314   0.255   2.389
 5845SOL    HW118434   1.361   0.179   2.345
 5845SOL    HW218435   1.215   0.248   2.373
 5846SOL     OW18436   0.041   3.825   5.200
 5846SOL    HW118437   0.127   3.803   5.154
 5846SOL    HW218438   0.059   3.887   5.276
 5847SOL     OW18439   1.845   3.902   6.577
 5847SOL    HW118440   1.934   3.918   6.621
 5847SOL    HW218441   1.821   3.982   6.522
 5848SOL     OW18442   1.833   5.546   2.431
 5848SOL    HW118443   1.805   5.552   2.335
 5848SOL    HW218444   1.900   5.473   2.442
 5849SOL     OW18445   3.553   5.976   5.701
 5849SOL    HW118446   3.575   5.942   5.793
 5849SOL    HW218447   3.454   5.973   5.688
 5850SOL     OW18448   0.955   1.220   2.400
 5850SOL    HW118449   1.051   1.209   2.377
 5850SOL    HW218450   0.901   1.148   2.355
 5851SOL     OW18451   6.495   3.452   4.402
 5851SOL    HW118452   6.467   3.477   4.309
 5851SOL    HW218453   6.448   3.368   4.429
 5852SOL     OW18454   4.933   4.339   2.065
 5852SOL    HW118455   4.902   4.422   2.111
 5852SOL    HW218456   5.028   4.350   2.036
 5853SOL     OW18457   4.876   5.125   6.210
 5853SOL    HW118458   4.933   5.067   6.152
 5853SOL    HW218459   4.845   5.204   6.158
 5854SOL     OW18460   3.106   4.666   5.258
 5854SOL    HW118461   3.036   4.601   5.230
 5854SOL    HW218462   3.085   4.700   5.350
 5855SOL     OW18463   2.285   2.879   3.285
 5855SOL    HW118464   2.256   2.951   3.223
 5855SOL    HW218465   2.278   2.912   3.380
 5856SOL     OW18466   1.114   6.105   2.848
 5856SOL    HW118467   1.022   6.065   2.857
 5856SOL    HW218468   1.149   6.128   2.939
 5857SOL     OW18469   5.418   5.052   6.649
 5857SOL    HW118470   5.497   5.049   6.709
 5857SOL    HW218471   5.414   4.969   6.594
 5858SOL     OW18472   2.050   0.698   2.285
 5858SOL    HW118473   1.952   0.686   2.299
 5858SOL    HW218474   2.066   0.742   2.196
 5859SOL     OW18475   5.316   5.740   1.474
 5859SOL    HW118476   5.410   5.733   1.440
 5859SOL    HW218477   5.266   5.808   1.422
 5860SOL     OW18478   0.374   4.261   3.434
 5860SOL    HW118479   0.474   4.267   3.440
 5860SOL    HW218480   0.343   4.178   3.480
 5861SOL     OW18481   5.085   0.844   4.942
 5861SOL    HW118482   5.135   0.823   4.858
 5861SOL    HW218483   5.039   0.761   4.974
 5862SOL     OW18484   6.052   5.824   2.517
 5862SOL    HW118485   5.969   5.778   2.547
 5862SOL    HW218486   6.078   5.790   2.426
 5863SOL     OW18487   3.995   6.679   6.521
 5863SOL    HW118488   3.972   6.748   6.590
 5863SOL    HW218489   4.094   6.661   6.524
 5864SOL     OW18490   3.369   4.091   2.250
 5864SOL    HW118491   3.362   4.189   2.231
 5864SOL    HW218492   3.335   4.040   2.171
 5865SOL     OW18493   6.820   0.417   6.043
 5865SOL    HW118494   6.834   0.358   6.123
 5865SOL    HW218495   6.895   0.403   5.978
 5866SOL     OW18496   3.324   3.297   2.921
 5866SOL    HW118497   3.367   3.252   2.999
 5866SOL    HW218498   3.239   3.340   2.950
 5867SOL     OW18499   2.829   1.788   2.020
 5867SOL    HW118500   2.889   1.829   2.088
 5867SOL    HW218501   2.885   1.747   1.947
 5868SOL     OW18502   1.009   1.272   6.158
 5868SOL    HW118503   1.069   1.211   6.209
 5868SOL    HW218504   0.916   1.267   6.195
 5869SOL     OW18505   1.143   6.179   3.135
 5869SOL    HW118506   1.189   6.168   3.223
 5869SOL    HW218507   1.058   6.231   3.147
 5870SOL     OW18508   3.319   5.833   4.508
 5870SOL    HW118509   3.232   5.790   4.532
 5870SOL    HW218510   3.348   5.801   4.418
 5871SOL     OW18511   2.914   3.422   3.966
 5871SOL    HW118512   2.942   3.340   4.017
 5871SOL    HW218513   2.882   3.491   4.030
 5872SOL     OW18514   4.932   5.734   1.607
 5872SOL    HW118515   4.947   5.665   1.536
 5872SOL    HW218516   5.019   5.774   1.633
 5873SOL     OW18517   4.459   6.203   2.138
 5873SOL    HW118518   4.403   6.124   2.163
 5873SOL    HW218519   4.555   6.183   2.156
 5874SOL     OW18520   1.542   4.158   5.002
 5874SOL    HW118521   1.637   4.188   4.993
 5874SOL    HW218522   1.532   4.068   4.961
 5875SOL     OW18523   2.873   1.735   1.133
 5875SOL    HW118524   2.947   1.794   1.166
 5875SOL    HW218525   2.795   1.742   1.195
 5876SOL     OW18526   3.369   2.955   1.881
 5876SOL    HW118527   3.414   3.040   1.856
 5876SOL    HW218528   3.428   2.877   1.858
 5877SOL     OW18529   5.810   4.401   1.446
 5877SOL    HW118530   5.714   4.430   1.441
 5877SOL    HW218531   5.870   4.478   1.426
 5878SOL     OW18532   2.153   4.570   2.569
 5878SOL    HW118533   2.079   4.517   2.609
 5878SOL    HW218534   2.224   4.508   2.534
 5879SOL     OW18535   0.455   4.706   4.570
 5879SOL    HW118536   0.422   4.738   4.482
 5879SOL    HW218537   0.424   4.612   4.585
 5880SOL     OW18538   3.148   5.752   0.650
 5880SOL    HW118539   3.205   5.722   0.727
 5880SOL    HW218540   3.182   5.711   0.566
 5881SOL     OW18541   1.642   5.801   4.571
 5881SOL    HW118542   1.710   5.755   4.626
 5881SOL    HW218543   1.681   5.884   4.530
 5882SOL     OW18544   4.915   0.667   2.132
 5882SOL    HW118545   4.944   0.582   2.088
 5882SOL    HW218546   4.817   0.661   2.154
 5883SOL     OW18547   6.997   3.472   5.236
 5883SOL    HW118548   6.914   3.419   5.251
 5883SOL    HW218549   0.010   3.453   5.145
 5884SOL     OW18550   1.005   1.633   3.466
 5884SOL    HW118551   0.907   1.617   3.453
 5884SOL    HW218552   1.056   1.593   3.390
 5885SOL     OW18553   5.976   6.960   0.996
 5885SOL    HW118554   5.883   6.996   0.985
 5885SOL    HW218555   6.034   0.006   1.037
 5886SOL     OW18556   0.317   0.834   6.247
 5886SOL    HW118557   0.286   0.818   6.154
 5886SOL    HW218558   0.406   0.789   6.261
 5887SOL     OW18559   4.718   6.578   3.278
 5887SOL    HW118560   4.671   6.501   3.321
 5887SOL    HW218561   4.700   6.661   3.330
 5888SOL     OW18562   1.662   0.629   3.354
 5888SOL    HW118563   1.608   0.581   3.285
 5888SOL    HW218564   1.606   0.643   3.436
 5889SOL     OW18565   2.897   0.694   0.814
 5889SOL    HW118566   2.860   0.787   0.808
 5889SOL    HW218567   2.924   0.662   0.723
 5890SOL     OW18568   3.327   4.855   6.154
 5890SOL    HW118569   3.303   4.893   6.064
 5890SOL    HW218570   3.285   4.765   6.165
 5891SOL     OW18571   2.260   3.609   0.138
 5891SOL    HW118572   2.225   3.542   0.204
 5891SOL    HW218573   2.316   3.562   0.069
 5892SOL     OW18574   1.088   0.103   1.888
 5892SOL    HW118575   1.072   0.004   1.888
 5892SOL    HW218576   1.151   0.127   1.814
 5893SOL     OW18577   1.726   1.107   3.089
 5893SOL    HW118578   1.714   1.202   3.061
 5893SOL    HW218579   1.648   1.078   3.145
 5894SOL     OW18580   0.615   3.255   3.238
 5894SOL    HW118581   0.667   3.265   3.323
 5894SOL    HW218582   0.674   3.272   3.160
 5895SOL     OW18583   5.437   3.760   4.038
 5895SOL    HW118584   5.460   3.804   3.951
 5895SOL    HW218585   5.491   3.676   4.047
 5896SOL     OW18586   3.952   2.177   5.602
 5896SOL    HW118587   4.018   2.249   5.583
 5896SOL    HW218588   3.895   2.161   5.522
 5897SOL     OW18589   3.842   0.455   1.770
 5897SOL    HW118590   3.887   0.511   1.839
 5897SOL    HW218591   3.909   0.424   1.702
 5898SOL     OW18592   1.699   0.099   2.283
 5898SOL    HW118593   1.612   0.049   2.289
 5898SOL    HW218594   1.691   0.171   2.213
 5899SOL     OW18595   5.377   0.062   3.824
 5899SOL    HW118596   5.325   0.049   3.908
 5899SOL    HW218597   5.473   0.040   3.841
 5900SOL     OW18598   4.591   5.158   2.659
 5900SOL    HW118599   4.554   5.067   2.678
 5900SOL    HW218600   4.518   5.217   2.625
 5901SOL     OW18601   3.911   6.766   5.423
 5901SOL    HW118602   3.971   6.686   5.432
 5901SOL    HW218603   3.876   6.770   5.329
 5902SOL     OW18604   6.142   1.259   6.665
 5902SOL    HW118605   6.149   1.357   6.684
 5902SOL    HW218606   6.063   1.242   6.607
 5903SOL     OW18607   6.691   3.313   6.271
 5903SOL    HW118608   6.753   3.246   6.231
 5903SOL    HW218609   6.729   3.346   6.357
 5904SOL     OW18610   0.514   4.556   2.513
 5904SOL    HW118611   0.540   4.462   2.533
 5904SOL    HW218612   0.422   4.574   2.548
 5905SOL     OW18613   6.770   5.302   2.486
 5905SOL    HW118614   6.860   5.258   2.487
 5905SOL    HW218615   6.781   5.399   2.466
 5906SOL     OW18616   6.616   1.491   3.971
 5906SOL    HW118617   6.716   1.491   3.976
 5906SOL    HW218618   6.585   1.404   3.933
 5907SOL     OW18619   1.700   6.989   1.556
 5907SOL    HW118620   1.779   6.947   1.512
 5907SOL    HW218621   1.726   7.023   1.646
 5908SOL     OW18622   0.381   2.795   6.249
 5908SOL    HW118623   0.457   2.838   6.298
 5908SOL    HW218624   0.310   2.863   6.232
 5909SOL     OW18625   6.893   4.096   1.032
 5909SOL    HW118626   6.805   4.142   1.022
 5909SOL    HW218627   6.884   4.023   1.099
 5910SOL     OW18628   2.218   2.019   3.925
 5910SOL    HW118629   2.174   1.931   3.946
 5910SOL    HW218630   2.194   2.085   3.996
 5911SOL     OW18631   6.908   5.576   6.147
 5911SOL    HW118632   6.815   5.557   6.118
 5911SOL    HW218633   6.959   5.615   6.070
 5912SOL     OW18634   0.622   0.828   4.061
 5912SOL    HW118635   0.659   0.921   4.064
 5912SOL    HW218636   0.624   0.788   4.153
 5913SOL     OW18637   5.418   1.849   6.805
 5913SOL    HW118638   5.337   1.903   6.782
 5913SOL    HW218639   5.399   1.792   6.885
 5914SOL     OW18640   0.042   5.553   0.674
 5914SOL    HW118641   0.101   5.598   0.608
 5914SOL    HW218642   0.096   5.520   0.751
 5915SOL     OW18643   3.710   1.320   5.977
 5915SOL    HW118644   3.751   1.406   6.006
 5915SOL    HW218645   3.780   1.250   5.969
 5916SOL     OW18646   0.936   6.213   2.602
 5916SOL    HW118647   0.987   6.183   2.682
 5916SOL    HW218648   0.993   6.273   2.547
 5917SOL     OW18649   3.632   4.502   0.396
 5917SOL    HW118650   3.705   4.508   0.464
 5917SOL    HW218651   3.544   4.518   0.441
 5918SOL     OW18652   2.979   6.237   5.365
 5918SOL    HW118653   2.914   6.294   5.313
 5918SOL    HW218654   3.015   6.165   5.306
 5919SOL     OW18655   3.411   2.887   3.968
 5919SOL    HW118656   3.379   2.968   3.919
 5919SOL    HW218657   3.367   2.806   3.928
 5920SOL     OW18658   6.314   0.172   4.909
 5920SOL    HW118659   6.383   0.177   4.981
 5920SOL    HW218660   6.356   0.193   4.821
 5921SOL     OW18661   2.691   4.668   6.113
 5921SOL    HW118662   2.739   4.582   6.095
 5921SOL    HW218663   2.593   4.650   6.123
 5922SOL     OW18664   5.212   3.691   3.092
 5922SOL    HW118665   5.169   3.615   3.044
 5922SOL    HW218666   5.311   3.691   3.075
 5923SOL     OW18667   6.860   0.522   3.135
 5923SOL    HW118668   6.782   0.470   3.102
 5923SOL    HW218669   6.942   0.495   3.084
 5924SOL     OW18670   5.894   0.201   3.575
 5924SOL    HW118671   5.808   0.215   3.623
 5924SOL    HW218672   5.953   0.280   3.590
 5925SOL     OW18673   4.312   0.223   1.435
 5925SOL    HW118674   4.394   0.228   1.492
 5925SOL    HW218675   4.321   0.147   1.370
 5926SOL     OW18676   4.687   4.737   3.955
 5926SOL    HW118677   4.634   4.665   3.911
 5926SOL    HW218678   4.673   4.734   4.054
 5927SOL     OW18679   0.888   4.697   2.118
 5927SOL    HW118680   0.874   4.765   2.190
 5927SOL    HW218681   0.878   4.606   2.157
 5928SOL     OW18682   3.509   0.694   0.591
 5928SOL    HW118683   3.548   0.618   0.643
 5928SOL    HW218684   3.495   0.665   0.497
 5929SOL     OW18685   1.906   0.715   6.293
 5929SOL    HW118686   1.825   0.768   6.272
 5929SOL    HW218687   1.950   0.752   6.375
 5930SOL     OW18688   1.122   3.356   2.305
 5930SOL    HW118689   1.057   3.325   2.236
 5930SOL    HW218690   1.180   3.428   2.267
 5931SOL     OW18691   4.831   6.161   3.446
 5931SOL    HW118692   4.768   6.162   3.368
 5931SOL    HW218693   4.846   6.254   3.478
 5932SOL     OW18694   2.898   0.754   7.003
 5932SOL    HW118695   2.813   0.704   6.990
 5932SOL    HW218696   2.941   0.771   6.914
 5933SOL     OW18697   6.210   6.133   3.915
 5933SOL    HW118698   6.278   6.084   3.969
 5933SOL    HW218699   6.185   6.217   3.962
 5934SOL     OW18700   3.391   3.430   6.060
 5934SOL    HW118701   3.440   3.344   6.070
 5934SOL    HW218702   3.301   3.422   6.102
 5935SOL     OW18703   0.942   5.997   5.947
 5935SOL    HW118704   0.881   5.963   5.876
 5935SOL    HW218705   0.891   6.054   6.011
 5936SOL     OW18706   3.291   3.446   1.556
 5936SOL    HW118707   3.256   3.487   1.472
 5936SOL    HW218708   3.390   3.462   1.561
 5937SOL     OW18709   0.057   2.916   1.685
 5937SOL    HW118710   6.985   2.889   1.681
 5937SOL    HW218711   0.069   3.006   1.642
 5938SOL     OW18712   0.195   4.847   4.819
 5938SOL    HW118713   0.244   4.928   4.853
 5938SOL    HW218714   0.202   4.774   4.886
 5939SOL     OW18715   3.364   0.787   4.981
 5939SOL    HW118716   3.289   0.852   4.994
 5939SOL    HW218717   3.450   0.837   4.975
 5940SOL     OW18718   5.034   5.694   2.692
 5940SOL    HW118719   5.083   5.608   2.708
 5940SOL    HW218720   4.944   5.675   2.654
 5941SOL     OW18721   6.950   2.242   2.379
 5941SOL    HW118722   0.019   2.277   2.391
 5941SOL    HW218723   6.917   2.265   2.287
 5942SOL     OW18724   5.070   3.248   6.374
 5942SOL    HW118725   4.986   3.226   6.424
 5942SOL    HW218726   5.047   3.280   6.282
 5943SOL     OW18727   2.950   4.235   1.701
 5943SOL    HW118728   2.931   4.318   1.754
 5943SOL    HW218729   3.043   4.238   1.665
 5944SOL     OW18730   0.182   3.358   6.484
 5944SOL    HW118731   0.126   3.338   6.405
 5944SOL    HW218732   0.219   3.272   6.521
 5945SOL     OW18733   0.386   5.785   5.161
 5945SOL    HW118734   0.474   5.748   5.130
 5945SOL    HW218735   0.334   5.820   5.083
 5946SOL     OW18736   3.368   4.264   0.652
 5946SOL    HW118737   3.432   4.333   0.685
 5946SOL    HW218738   3.339   4.206   0.728
 5947SOL     OW18739   3.672   3.303   4.787
 5947SOL    HW118740   3.619   3.361   4.726
 5947SOL    HW218741   3.645   3.207   4.775
 5948SOL     OW18742   4.672   3.828   1.696
 5948SOL    HW118743   4.651   3.745   1.644
 5948SOL    HW218744   4.647   3.908   1.642
 5949SOL     OW18745   6.666   4.303   2.165
 5949SOL    HW118746   6.602   4.236   2.128
 5949SOL    HW218747   6.690   4.278   2.259
 5950SOL     OW18748   4.534   0.394   5.155
 5950SOL    HW118749   4.546   0.317   5.092
 5950SOL    HW218750   4.472   0.461   5.115
 5951SOL     OW18751   0.867   3.802   6.572
 5951SOL    HW118752   0.769   3.788   6.583
 5951SOL    HW218753   0.898   3.756   6.489
 5952SOL     OW18754   3.854   4.926   0.798
 5952SOL    HW118755   3.863   5.023   0.819
 5952SOL    HW218756   3.934   4.877   0.833
 5953SOL     OW18757   6.455   2.828   4.885
 5953SOL    HW118758   6.511   2.751   4.916
 5953SOL    HW218759   6.361   2.798   4.870
 5954SOL     OW18760   1.658   5.972   4.028
 5954SOL    HW118761   1.715   5.925   4.095
 5954SOL    HW218762   1.714   6.000   3.950
 5955SOL     OW18763   5.820   3.818   0.605
 5955SOL    HW118764   5.850   3.733   0.650
 5955SOL    HW218765   5.897   3.881   0.599
 5956SOL     OW18766   5.100   2.581   5.149
 5956SOL    HW118767   5.042   2.658   5.174
 5956SOL    HW218768   5.061   2.496   5.184
 5957SOL     OW18769   0.670   1.413   3.046
 5957SOL    HW118770   0.669   1.436   2.949
 5957SOL    HW218771   0.743   1.463   3.092
 5958SOL     OW18772   3.678   6.844   2.784
 5958SOL    HW118773   3.750   6.837   2.715
 5958SOL    HW218774   3.711   6.900   2.860
 5959SOL     OW18775   5.210   2.460   4.418
 5959SOL    HW118776   5.300   2.481   4.456
 5959SOL    HW218777   5.211   2.369   4.377
 5960SOL     OW18778   4.501   0.286   6.114
 5960SOL    HW118779   4.508   0.386   6.117
 5960SOL    HW218780   4.449   0.259   6.033
 5961SOL     OW18781   2.574   2.045   3.119
 5961SOL    HW118782   2.555   2.119   3.054
 5961SOL    HW218783   2.658   1.997   3.092
 5962SOL     OW18784   4.837   6.671   0.533
 5962SOL    HW118785   4.854   6.700   0.438
 5962SOL    HW218786   4.825   6.752   0.591
 5963SOL     OW18787   3.308   4.310   6.701
 5963SOL    HW118788   3.349   4.356   6.780
 5963SOL    HW218789   3.348   4.218   6.692
 5964SOL     OW18790   2.172   6.887   2.974
 5964SOL    HW118791   2.143   6.982   2.975
 5964SOL    HW218792   2.230   6.870   2.893
 5965SOL     OW18793   2.166   0.418   0.355
 5965SOL    HW118794   2.082   0.366   0.371
 5965SOL    HW218795   2.244   0.367   0.391
 5966SOL     OW18796   2.846   1.190   4.839
 5966SOL    HW118797   2.924   1.196   4.901
 5966SOL    HW218798   2.862   1.118   4.772
 5967SOL     OW18799   3.138   1.750   4.130
 5967SOL    HW118800   3.128   1.835   4.078
 5967SOL    HW218801   3.158   1.772   4.225
 5968SOL     OW18802   5.345   2.654   1.261
 5968SOL    HW118803   5.336   2.567   1.310
 5968SOL    HW218804   5.440   2.668   1.233
 5969SOL     OW18805   4.903   1.025   7.007
 5969SOL    HW118806   4.823   1.079   6.981
 5969SOL    HW218807   4.921   0.957   6.936
 5970SOL     OW18808   0.453   3.339   0.839
 5970SOL    HW118809   0.403   3.261   0.876
 5970SOL    HW218810   0.423   3.423   0.883
 5971SOL     OW18811   0.787   6.792   4.005
 5971SOL    HW118812   0.783   6.880   4.053
 5971SOL    HW218813   0.790   6.718   4.072
 5972SOL     OW18814   4.804   5.072   1.049
 5972SOL    HW118815   4.847   5.154   1.014
 5972SOL    HW218816   4.870   4.996   1.048
 5973SOL     OW18817   2.047   2.367   2.503
 5973SOL    HW118818   2.078   2.380   2.409
 5973SOL    HW218819   1.947   2.356   2.503
 5974SOL     OW18820   5.287   1.996   5.787
 5974SOL    HW118821   5.287   1.920   5.721
 5974SOL    HW218822   5.377   2.038   5.790
 5975SOL     OW18823   4.706   5.051   0.608
 5975SOL    HW118824   4.625   5.079   0.555
 5975SOL    HW218825   4.676   5.003   0.690
 5976SOL     OW18826   2.382   3.468   5.746
 5976SOL    HW118827   2.438   3.387   5.764
 5976SOL    HW218828   2.408   3.541   5.810
 5977SOL     OW18829   6.673   4.309   0.618
 5977SOL    HW118830   6.682   4.387   0.680
 5977SOL    HW218831   6.692   4.338   0.525
 5978SOL     OW18832   3.192   4.650   0.918
 5978SOL    HW118833   3.147   4.593   0.987
 5978SOL    HW218834   3.155   4.628   0.827
 5979SOL     OW18835   5.524   0.476   1.581
 5979SOL    HW118836   5.574   0.449   1.663
 5979SOL    HW218837   5.490   0.569   1.592
 5980SOL     OW18838   3.200   3.134   1.274
 5980SOL    HW118839   3.154   3.102   1.191
 5980SOL    HW218840   3.146   3.206   1.317
 5981SOL     OW18841   2.520   2.544   0.636
 5981SOL    HW118842   2.598   2.518   0.578
 5981SOL    HW218843   2.549   2.614   0.700
 5982SOL     OW18844   5.906   2.626   0.841
 5982SOL    HW118845   5.866   2.714   0.815
 5982SOL    HW218846   5.851   2.586   0.914
 5983SOL     OW18847   6.957   0.506   3.503
 5983SOL    HW118848   6.927   0.570   3.433
 5983SOL    HW218849   6.878   0.469   3.551
 5984SOL     OW18850   6.696   6.728   3.549
 5984SOL    HW118851   6.737   6.786   3.479
 5984SOL    HW218852   6.757   6.651   3.568
 5985SOL     OW18853   5.543   2.901   2.784
 5985SOL    HW118854   5.480   2.899   2.861
 5985SOL    HW218855   5.509   2.964   2.714
 5986SOL     OW18856   4.110   3.643   5.050
 5986SOL    HW118857   4.200   3.611   5.080
 5986SOL    HW218858   4.110   3.743   5.045
 5987SOL     OW18859   7.005   0.233   5.561
 5987SOL    HW118860   0.019   0.315   5.519
 5987SOL    HW218861   0.013   0.226   5.655
 5988SOL     OW18862   1.235   2.356   6.322
 5988SOL    HW118863   1.284   2.344   6.408
 5988SOL    HW218864   1.211   2.267   6.284
 5989SOL     OW18865   0.492   5.912   6.532
 5989SOL    HW118866   0.414   5.861   6.494
 5989SOL    HW218867   0.549   5.849   6.586
 5990SOL     OW18868   3.632   4.990   1.817
 5990SOL    HW118869   3.648   4.939   1.902
 5990SOL    HW218870   3.544   5.037   1.823
 5991SOL     OW18871   5.220   0.068   0.884
 5991SOL    HW118872   5.182   7.010   0.927
 5991SOL    HW218873   5.148   0.118   0.837
 5992SOL     OW18874   3.919   6.721   1.914
 5992SOL    HW118875   3.874   6.651   1.969
 5992SOL    HW218876   3.989   6.767   1.969
 5993SOL     OW18877   6.226   1.727   0.144
 5993SOL    HW118878   6.269   1.775   0.220
 5993SOL    HW218879   6.258   1.767   0.058
 5994SOL     OW18880   0.810   3.602   0.719
 5994SOL    HW118881   0.898   3.649   0.718
 5994SOL    HW218882   0.738   3.665   0.690
 5995SOL     OW18883   4.408   3.956   1.470
 5995SOL    HW118884   4.344   3.921   1.402
 5995SOL    HW218885   4.395   4.055   1.479
 5996SOL     OW18886   3.099   5.194   1.028
 5996SOL    HW118887   3.057   5.133   0.960
 5996SOL    HW218888   3.040   5.197   1.109
 5997SOL     OW18889   0.009   6.786   3.689
 5997SOL    HW118890   0.058   6.862   3.647
 5997SOL    HW218891   0.011   6.707   3.628
 5998SOL     OW18892   6.204   6.870   1.430
 5998SOL    HW118893   6.223   6.823   1.344
 5998SOL    HW218894   6.202   6.802   1.504
 5999SOL     OW18895   5.063   2.870   0.863
 5999SOL    HW118896   5.017   2.956   0.887
 5999SOL    HW218897   5.105   2.831   0.945
 6000SOL     OW18898   0.183   3.978   1.559
 6000SOL    HW118899   0.084   3.964   1.550
 6000SOL    HW218900   0.211   3.964   1.654
 6001SOL     OW18901   6.467   5.291   5.469
 6001SOL    HW118902   6.480   5.286   5.568
 6001SOL    HW218903   6.548   5.256   5.423
 6002SOL     OW18904   6.079   5.598   4.300
 6002SOL    HW118905   6.165   5.648   4.303
 6002SOL    HW218906   6.097   5.502   4.279
 6003SOL     OW18907   0.442   3.050   4.753
 6003SOL    HW118908   0.430   3.029   4.656
 6003SOL    HW218909   0.467   2.967   4.803
 6004SOL     OW18910   5.285   2.659   4.102
 6004SOL    HW118911   5.372   2.617   4.128
 6004SOL    HW218912   5.210   2.607   4.144
 6005SOL     OW18913   3.728   5.158   6.311
 6005SOL    HW118914   3.719   5.087   6.381
 6005SOL    HW218915   3.670   5.236   6.335
 6006SOL     OW18916   3.566   6.250   5.917
 6006SOL    HW118917   3.633   6.178   5.932
 6006SOL    HW218918   3.474   6.211   5.921
 6007SOL     OW18919   2.041   5.777   6.539
 6007SOL    HW118920   1.990   5.706   6.491
 6007SOL    HW218921   2.063   5.746   6.632
 6008SOL     OW18922   3.450   3.943   6.193
 6008SOL    HW118923   3.397   3.859   6.177
 6008SOL    HW218924   3.399   4.021   6.157
 6009SOL     OW18925   3.466   5.056   3.021
 6009SOL    HW118926   3.413   5.141   3.020
 6009SOL    HW218927   3.506   5.041   2.930
 6010SOL     OW18928   0.815   5.602   4.900
 6010SOL    HW118929   0.819   5.656   4.984
 6010SOL    HW218930   0.743   5.639   4.840
 6011SOL     OW18931   6.084   1.734   1.694
 6011SOL    HW118932   6.180   1.722   1.719
 6011SOL    HW218933   6.033   1.652   1.720
 6012SOL     OW18934   6.856   0.258   6.264
 6012SOL    HW118935   6.842   0.252   6.363
 6012SOL    HW218936   6.800   0.189   6.218
 6013SOL     OW18937   6.050   1.618   2.561
 6013SOL    HW118938   6.023   1.714   2.570
 6013SOL    HW218939   5.968   1.561   2.557
 6014SOL     OW18940   3.756   3.217   4.343
 6014SOL    HW118941   3.799   3.186   4.427
 6014SOL    HW218942   3.805   3.296   4.307
 6015SOL     OW18943   5.829   1.433   4.386
 6015SOL    HW118944   5.791   1.483   4.309
 6015SOL    HW218945   5.787   1.343   4.391
 6016SOL     OW18946   5.272   1.119   4.652
 6016SOL    HW118947   5.292   1.216   4.663
 6016SOL    HW218948   5.192   1.108   4.594
 6017SOL     OW18949   6.812   2.215   5.291
 6017SOL    HW118950   6.760   2.237   5.374
 6017SOL    HW218951   6.910   2.221   5.311
 6018SOL     OW18952   3.197   0.969   5.415
 6018SOL    HW118953   3.106   1.001   5.442
 6018SOL    HW218954   3.189   0.914   5.331
 6019SOL     OW18955   6.977   3.367   6.837
 6019SOL    HW118956   6.954   3.455   6.796
 6019SOL    HW218957   0.053   3.359   6.844
 6020SOL     OW18958   0.662   4.712   6.886
 6020SOL    HW118959   0.592   4.694   6.954
 6020SOL    HW218960   0.622   4.767   6.812
 6021SOL     OW18961   4.883   0.327   3.276
 6021SOL    HW118962   4.897   0.399   3.209
 6021SOL    HW218963   4.916   0.240   3.239
 6022SOL     OW18964   5.944   1.495   1.770
 6022SOL    HW118965   5.922   1.525   1.863
 6022SOL    HW218966   5.874   1.430   1.739
 6023SOL     OW18967   4.247   0.613   2.083
 6023SOL    HW118968   4.287   0.551   2.015
 6023SOL    HW218969   4.170   0.662   2.042
 6024SOL     OW18970   0.760   5.660   0.254
 6024SOL    HW118971   0.789   5.624   0.343
 6024SOL    HW218972   0.792   5.754   0.244
 6025SOL     OW18973   3.135   0.982   4.429
 6025SOL    HW118974   3.095   1.073   4.437
 6025SOL    HW218975   3.068   0.920   4.388
 6026SOL     OW18976   6.628   4.221   4.665
 6026SOL    HW118977   6.727   4.226   4.653
 6026SOL    HW218978   6.591   4.146   4.610
 6027SOL     OW18979   5.566   4.054   6.590
 6027SOL    HW118980   5.582   4.152   6.572
 6027SOL    HW218981   5.548   4.041   6.687
 6028SOL     OW18982   5.685   5.155   6.522
 6028SOL    HW118983   5.741   5.189   6.447
 6028SOL    HW218984   5.712   5.200   6.607
 6029SOL     OW18985   2.273   0.779   2.966
 6029SOL    HW118986   2.258   0.696   3.019
 6029SOL    HW218987   2.244   0.858   3.020
 6030SOL     OW18988   5.573   3.539   4.361
 6030SOL    HW118989   5.572   3.497   4.452
 6030SOL    HW218990   5.575   3.468   4.291
 6031SOL     OW18991   0.986   5.999   5.155
 6031SOL    HW118992   1.028   6.087   5.179
 6031SOL    HW218993   1.031   5.963   5.073
 6032SOL     OW18994   3.445   6.201   3.560
 6032SOL    HW118995   3.399   6.162   3.481
 6032SOL    HW218996   3.436   6.138   3.638
 6033SOL     OW18997   1.993   1.736   2.261
 6033SOL    HW118998   2.083   1.714   2.223
 6033SOL    HW218999   1.965   1.662   2.322
 6034SOL     OW19000   0.355   0.678   0.531
 6034SOL    HW119001   0.375   0.615   0.456
 6034SOL    HW219002   0.297   0.752   0.497
 6035SOL     OW19003   1.787   0.512   2.448
 6035SOL    HW119004   1.754   0.577   2.380
 6035SOL    HW219005   1.826   0.562   2.525
 6036SOL     OW19006   6.481   2.175   0.731
 6036SOL    HW119007   6.459   2.207   0.823
 6036SOL    HW219008   6.397   2.147   0.684
 6037SOL     OW19009   5.053   2.237   0.232
 6037SOL    HW119010   4.998   2.259   0.314
 6037SOL    HW219011   5.126   2.304   0.223
 6038SOL     OW19012   0.184   1.807   6.055
 6038SOL    HW119013   0.144   1.723   6.089
 6038SOL    HW219014   0.213   1.795   5.960
 6039SOL     OW19015   3.644   3.622   3.584
 6039SOL    HW119016   3.586   3.586   3.511
 6039SOL    HW219017   3.669   3.548   3.647
 6040SOL     OW19018   0.420   1.845   0.421
 6040SOL    HW119019   0.501   1.792   0.395
 6040SOL    HW219020   0.357   1.850   0.344
 6041SOL     OW19021   2.529   3.225   5.808
 6041SOL    HW119022   2.495   3.186   5.723
 6041SOL    HW219023   2.465   3.205   5.882
 6042SOL     OW19024   3.705   6.208   3.228
 6042SOL    HW119025   3.749   6.235   3.142
 6042SOL    HW219026   3.614   6.250   3.233
 6043SOL     OW19027   2.342   0.412   3.687
 6043SOL    HW119028   2.332   0.321   3.647
 6043SOL    HW219029   2.406   0.466   3.632
 6044SOL     OW19030   0.730   2.940   1.461
 6044SOL    HW119031   0.649   2.889   1.488
 6044SOL    HW219032   0.703   3.025   1.417
 6045SOL     OW19033   5.117   2.083   3.387
 6045SOL    HW119034   5.131   2.173   3.345
 6045SOL    HW219035   5.072   2.023   3.320
 6046SOL     OW19036   3.292   3.056   2.520
 6046SOL    HW119037   3.365   3.013   2.467
 6046SOL    HW219038   3.281   3.151   2.492
 6047SOL     OW19039   6.021   1.281   0.743
 6047SOL    HW119040   6.089   1.218   0.781
 6047SOL    HW219041   5.955   1.229   0.688
 6048SOL     OW19042   5.995   5.767   4.497
 6048SOL    HW119043   6.050   5.716   4.431
 6048SOL    HW219044   6.055   5.827   4.551
 6049SOL     OW19045   4.399   4.845   5.321
 6049SOL    HW119046   4.402   4.807   5.413
 6049SOL    HW219047   4.478   4.905   5.307
 6050SOL     OW19048   3.939   6.571   1.685
 6050SOL    HW119049   3.983   6.607   1.603
 6050SOL    HW219050   3.971   6.621   1.766
 6051SOL     OW19051   1.243   1.157   3.543
 6051SOL    HW119052   1.151   1.196   3.544
 6051SOL    HW219053   1.289   1.185   3.459
 6052SOL     OW19054   5.509   6.721   0.380
 6052SOL    HW119055   5.514   6.764   0.289
 6052SOL    HW219056   5.516   6.622   0.371
 6053SOL     OW19057   4.062   2.718   6.240
 6053SOL    HW119058   4.001   2.644   6.212
 6053SOL    HW219059   4.142   2.720   6.180
 6054SOL     OW19060   3.716   4.251   1.065
 6054SOL    HW119061   3.662   4.309   1.005
 6054SOL    HW219062   3.666   4.166   1.082
 6055SOL     OW19063   3.424   4.559   0.586
 6055SOL    HW119064   3.462   4.612   0.662
 6055SOL    HW219065   3.327   4.581   0.576
 6056SOL     OW19066   5.313   5.655   5.099
 6056SOL    HW119067   5.399   5.697   5.131
 6056SOL    HW219068   5.236   5.701   5.143
 6057SOL     OW19069   4.952   0.401   4.202
 6057SOL    HW119070   4.899   0.442   4.128
 6057SOL    HW219071   4.892   0.388   4.282
 6058SOL     OW19072   5.516   2.186   6.107
 6058SOL    HW119073   5.418   2.171   6.119
 6058SOL    HW219074   5.563   2.097   6.104
 6059SOL     OW19075   4.250   3.680   6.827
 6059SOL    HW119076   4.192   3.731   6.891
 6059SOL    HW219077   4.197   3.654   6.747
 6060SOL     OW19078   2.300   3.117   6.462
 6060SOL    HW119079   2.281   3.135   6.366
 6060SOL    HW219080   2.215   3.123   6.515
 6061SOL     OW19081   3.555   5.029   6.918
 6061SOL    HW119082   3.530   5.092   6.844
 6061SOL    HW219083   3.568   4.937   6.880
 6062SOL     OW19084   1.958   2.202   6.929
 6062SOL    HW119085   1.966   2.112   6.971
 6062SOL    HW219086   1.884   2.253   6.974
 6063SOL     OW19087   4.173   4.448   6.088
 6063SOL    HW119088   4.094   4.505   6.107
 6063SOL    HW219089   4.254   4.506   6.078
 6064SOL     OW19090   6.742   5.712   0.935
 6064SOL    HW119091   6.790   5.741   1.018
 6064SOL    HW219092   6.655   5.762   0.928
 6065SOL     OW19093   0.769   6.055   2.309
 6065SOL    HW119094   0.733   6.014   2.392
 6065SOL    HW219095   0.699   6.111   2.265
 6066SOL     OW19096   5.602   6.404   3.334
 6066SOL    HW119097   5.632   6.484   3.282
 6066SOL    HW219098   5.507   6.416   3.363
 6067SOL     OW19099   5.738   0.680   6.349
 6067SOL    HW119100   5.801   0.616   6.392
 6067SOL    HW219101   5.664   0.629   6.305
 6068SOL     OW19102   4.622   1.780   5.281
 6068SOL    HW119103   4.656   1.686   5.281
 6068SOL    HW219104   4.604   1.809   5.187
 6069SOL     OW19105   0.213   3.578   6.637
 6069SOL    HW119106   0.210   3.491   6.589
 6069SOL    HW219107   0.166   3.570   6.725
 6070SOL     OW19108   2.728   1.668   0.776
 6070SOL    HW119109   2.688   1.649   0.866
 6070SOL    HW219110   2.783   1.590   0.747
 6071SOL     OW19111   6.201   0.083   5.232
 6071SOL    HW119112   6.201   0.011   5.163
 6071SOL    HW219113   6.155   0.164   5.195
 6072SOL     OW19114   0.203   2.697   0.858
 6072SOL    HW119115   0.226   2.759   0.783
 6072SOL    HW219116   0.104   2.684   0.862
 6073SOL     OW19117   4.703   2.553   0.239
 6073SOL    HW119118   4.722   2.609   0.319
 6073SOL    HW219119   4.604   2.540   0.231
 6074SOL     OW19120   0.311   6.425   2.884
 6074SOL    HW119121   0.346   6.349   2.829
 6074SOL    HW219122   0.212   6.428   2.877
 6075SOL     OW19123   4.975   6.835   6.767
 6075SOL    HW119124   5.074   6.834   6.751
 6075SOL    HW219125   4.945   6.928   6.787
 6076SOL     OW19126   1.314   5.029   3.582
 6076SOL    HW119127   1.394   4.984   3.543
 6076SOL    HW219128   1.254   5.060   3.509
 6077SOL     OW19129   5.421   6.564   1.945
 6077SOL    HW119130   5.514   6.544   1.974
 6077SOL    HW219131   5.360   6.560   2.023
 6078SOL     OW19132   4.141   3.320   0.495
 6078SOL    HW119133   4.130   3.314   0.594
 6078SOL    HW219134   4.076   3.386   0.458
 6079SOL     OW19135   3.196   3.883   6.668
 6079SOL    HW119136   3.240   3.963   6.708
 6079SOL    HW219137   3.235   3.864   6.577
 6080SOL     OW19138   0.029   4.276   6.869
 6080SOL    HW119139   0.097   4.272   6.796
 6080SOL    HW219140   0.073   4.262   6.958
 6081SOL     OW19141   1.776   3.384   4.416
 6081SOL    HW119142   1.780   3.450   4.491
 6081SOL    HW219143   1.812   3.427   4.333
 6082SOL     OW19144   4.628   0.887   0.993
 6082SOL    HW119145   4.563   0.964   0.994
 6082SOL    HW219146   4.583   0.806   0.955
 6083SOL     OW19147   4.932   0.111   6.572
 6083SOL    HW119148   4.850   0.151   6.530
 6083SOL    HW219149   4.985   0.183   6.618
 6084SOL     OW19150   0.043   6.433   2.908
 6084SOL    HW119151   0.015   6.442   2.813
 6084SOL    HW219152   6.998   6.474   2.968
 6085SOL     OW19153   0.463   5.954   0.800
 6085SOL    HW119154   0.400   5.953   0.877
 6085SOL    HW219155   0.552   5.991   0.829
 6086SOL     OW19156   3.621   3.778   6.320
 6086SOL    HW119157   3.556   3.728   6.377
 6086SOL    HW219158   3.574   3.815   6.239
 6087SOL     OW19159   5.100   6.843   0.966
 6087SOL    HW119160   5.028   6.790   0.920
 6087SOL    HW219161   5.139   6.789   1.040
 6088SOL     OW19162   5.182   6.660   3.611
 6088SOL    HW119163   5.222   6.570   3.596
 6088SOL    HW219164   5.115   6.680   3.539
 6089SOL     OW19165   6.165   3.842   3.280
 6089SOL    HW119166   6.088   3.891   3.322
 6089SOL    HW219167   6.199   3.895   3.202
 6090SOL     OW19168   4.111   6.393   4.145
 6090SOL    HW119169   4.038   6.343   4.097
 6090SOL    HW219170   4.193   6.395   4.088
 6091SOL     OW19171   1.891   1.330   1.805
 6091SOL    HW119172   1.811   1.280   1.773
 6091SOL    HW219173   1.890   1.423   1.766
 6092SOL     OW19174   4.335   6.204   1.082
 6092SOL    HW119175   4.267   6.262   1.127
 6092SOL    HW219176   4.425   6.246   1.089
 6093SOL     OW19177   2.286   1.973   2.245
 6093SOL    HW119178   2.376   1.975   2.289
 6093SOL    HW219179   2.284   1.901   2.176
 6094SOL     OW19180   0.819   6.052   4.876
 6094SOL    HW119181   0.802   5.978   4.941
 6094SOL    HW219182   0.820   6.140   4.925
 6095SOL     OW19183   4.665   5.670   0.803
 6095SOL    HW119184   4.622   5.759   0.795
 6095SOL    HW219185   4.602   5.599   0.771
 6096SOL     OW19186   5.853   6.431   3.064
 6096SOL    HW119187   5.773   6.481   3.097
 6096SOL    HW219188   5.826   6.340   3.035
 6097SOL     OW19189   2.128   5.981   2.386
 6097SOL    HW119190   2.083   5.998   2.474
 6097SOL    HW219191   2.094   5.894   2.348
 6098SOL     OW19192   6.450   0.733   4.867
 6098SOL    HW119193   6.538   0.687   4.873
 6098SOL    HW219194   6.451   0.797   4.790
 6099SOL     OW19195   4.400   0.255   5.876
 6099SOL    HW119196   4.335   0.314   5.829
 6099SOL    HW219197   4.393   0.162   5.841
 6100SOL     OW19198   0.307   6.137   4.704
 6100SOL    HW119199   0.309   6.051   4.655
 6100SOL    HW219200   0.243   6.200   4.660
 6101SOL     OW19201   6.080   2.855   1.108
 6101SOL    HW119202   6.161   2.914   1.103
 6101SOL    HW219203   6.108   2.763   1.137
 6102SOL     OW19204   4.747   6.971   2.982
 6102SOL    HW119205   4.662   6.920   2.993
 6102SOL    HW219206   4.728   0.034   2.936
 6103SOL     OW19207   0.028   1.807   1.608
 6103SOL    HW119208   6.993   1.727   1.595
 6103SOL    HW219209   6.995   1.886   1.634
 6104SOL     OW19210   6.684   0.930   4.491
 6104SOL    HW119211   6.665   0.975   4.578
 6104SOL    HW219212   6.658   0.991   4.416
 6105SOL     OW19213   2.950   4.597   5.479
 6105SOL    HW119214   2.906   4.587   5.390
 6105SOL    HW219215   2.952   4.509   5.525
 6106SOL     OW19216   6.256   5.034   6.809
 6106SOL    HW119217   6.294   4.947   6.778
 6106SOL    HW219218   6.189   5.067   6.743
 6107SOL     OW19219   5.279   4.773   5.715
 6107SOL    HW119220   5.258   4.870   5.704
 6107SOL    HW219221   5.324   4.739   5.632
 6108SOL     OW19222   2.278   1.303   1.091
 6108SOL    HW119223   2.352   1.311   1.158
 6108SOL    HW219224   2.257   1.207   1.076
 6109SOL     OW19225   6.096   0.071   3.282
 6109SOL    HW119226   6.044   0.149   3.245
 6109SOL    HW219227   6.044   0.029   3.356
 6110SOL     OW19228   1.617   1.824   5.047
 6110SOL    HW119229   1.653   1.876   4.970
 6110SOL    HW219230   1.693   1.785   5.099
 6111SOL     OW19231   1.755   4.369   1.184
 6111SOL    HW119232   1.692   4.292   1.176
 6111SOL    HW219233   1.847   4.340   1.161
 6112SOL     OW19234   4.796   0.064   2.659
 6112SOL    HW119235   4.771   0.102   2.748
 6112SOL    HW219236   4.830   0.137   2.600
 6113SOL     OW19237   2.516   5.751   0.073
 6113SOL    HW119238   2.540   5.689   0.148
 6113SOL    HW219239   2.574   5.832   0.077
 6114SOL     OW19240   4.953   1.542   0.698
 6114SOL    HW119241   5.045   1.582   0.694
 6114SOL    HW219242   4.897   1.596   0.761
 6115SOL     OW19243   1.058   0.319   5.309
 6115SOL    HW119244   0.977   0.261   5.298
 6115SOL    HW219245   1.034   0.414   5.285
 6116SOL     OW19246   5.022   1.994   5.468
 6116SOL    HW119247   4.963   2.075   5.478
 6116SOL    HW219248   5.010   1.934   5.547
 6117SOL     OW19249   1.869   2.231   1.418
 6117SOL    HW119250   1.819   2.155   1.378
 6117SOL    HW219251   1.805   2.293   1.463
 6118SOL     OW19252   6.004   0.327   0.221
 6118SOL    HW119253   5.948   0.407   0.200
 6118SOL    HW219254   5.952   0.244   0.201
 6119SOL     OW19255   6.668   1.789   0.740
 6119SOL    HW119256   6.687   1.697   0.772
 6119SOL    HW219257   6.702   1.856   0.806
 6120SOL     OW19258   2.157   0.981   5.374
 6120SOL    HW119259   2.184   1.074   5.351
 6120SOL    HW219260   2.081   0.953   5.315
 6121SOL     OW19261   0.404   2.884   5.168
 6121SOL    HW119262   0.420   2.879   5.069
 6121SOL    HW219263   0.317   2.931   5.185
 6122SOL     OW19264   5.257   5.761   5.743
 6122SOL    HW119265   5.235   5.746   5.840
 6122SOL    HW219266   5.356   5.759   5.731
 6123SOL     OW19267   5.538   1.799   4.939
 6123SOL    HW119268   5.440   1.815   4.948
 6123SOL    HW219269   5.588   1.882   4.961
 6124SOL     OW19270   2.224   6.990   4.206
 6124SOL    HW119271   2.259   7.019   4.117
 6124SOL    HW219272   2.287   7.020   4.278
 6125SOL     OW19273   1.980   2.006   6.541
 6125SOL    HW119274   2.005   1.997   6.637
 6125SOL    HW219275   1.967   2.103   6.519
 6126SOL     OW19276   6.347   2.660   5.593
 6126SOL    HW119277   6.442   2.629   5.595
 6126SOL    HW219278   6.345   2.760   5.591
 6127SOL     OW19279   3.884   2.033   1.973
 6127SOL    HW119280   3.846   1.948   1.936
 6127SOL    HW219281   3.811   2.099   1.986
 6128SOL     OW19282   5.888   6.101   0.286
 6128SOL    HW119283   5.968   6.040   0.283
 6128SOL    HW219284   5.904   6.179   0.226
 6129SOL     OW19285   1.640   5.612   2.654
 6129SOL    HW119286   1.567   5.626   2.588
 6129SOL    HW219287   1.728   5.609   2.606
 6130SOL     OW19288   5.177   2.348   1.105
 6130SOL    HW119289   5.274   2.324   1.094
 6130SOL    HW219290   5.158   2.434   1.059
 6131SOL     OW19291   7.012   2.011   2.802
 6131SOL    HW119292   6.963   1.980   2.720
 6131SOL    HW219293   0.086   2.018   2.782
 6132SOL     OW19294   3.476   1.211   6.587
 6132SOL    HW119295   3.513   1.122   6.614
 6132SOL    HW219296   3.388   1.198   6.542
 6133SOL     OW19297   1.716   1.481   4.055
 6133SOL    HW119298   1.786   1.483   3.983
 6133SOL    HW219299   1.750   1.530   4.135
 6134SOL     OW19300   5.316   7.001   6.385
 6134SOL    HW119301   5.359   6.912   6.374
 6134SOL    HW219302   5.216   6.991   6.383
 6135SOL     OW19303   6.544   0.095   6.484
 6135SOL    HW119304   6.485   0.129   6.558
 6135SOL    HW219305   6.518   0.002   6.460
 6136SOL     OW19306   1.443   3.172   2.324
 6136SOL    HW119307   1.380   3.100   2.296
 6136SOL    HW219308   1.480   3.217   2.243
 6137SOL     OW19309   6.771   4.230   2.399
 6137SOL    HW119310   6.852   4.252   2.344
 6137SOL    HW219311   6.782   4.139   2.440
 6138SOL     OW19312   3.588   0.201   2.035
 6138SOL    HW119313   3.595   0.106   2.066
 6138SOL    HW219314   3.552   0.257   2.110
 6139SOL     OW19315   1.954   0.448   5.775
 6139SOL    HW119316   1.965   0.429   5.872
 6139SOL    HW219317   1.912   0.538   5.763
 6140SOL     OW19318   1.661   6.798   3.324
 6140SOL    HW119319   1.677   6.883   3.374
 6140SOL    HW219320   1.731   6.788   3.253
 6141SOL     OW19321   0.834   0.329   5.944
 6141SOL    HW119322   0.825   0.406   6.008
 6141SOL    HW219323   0.927   0.326   5.908
 6142SOL     OW19324   0.520   0.165   1.011
 6142SOL    HW119325   0.616   0.139   1.004
 6142SOL    HW219326   0.463   0.082   1.014
 6143SOL     OW19327   6.412   4.124   5.940
 6143SOL    HW119328   6.487   4.058   5.945
 6143SOL    HW219329   6.446   4.215   5.965
 6144SOL     OW19330   3.881   4.943   2.664
 6144SOL    HW119331   3.810   4.937   2.593
 6144SOL    HW219332   3.842   4.916   2.752
 6145SOL     OW19333   5.000   3.055   4.763
 6145SOL    HW119334   5.038   3.103   4.683
 6145SOL    HW219335   5.016   2.957   4.753
 6146SOL     OW19336   5.285   0.261   5.192
 6146SOL    HW119337   5.307   0.164   5.209
 6146SOL    HW219338   5.269   0.275   5.094
 6147SOL     OW19339   1.713   2.197   3.736
 6147SOL    HW119340   1.800   2.227   3.776
 6147SOL    HW219341   1.641   2.204   3.805
 6148SOL     OW19342   3.218   6.009   0.614
 6148SOL    HW119343   3.170   5.922   0.622
 6148SOL    HW219344   3.304   5.997   0.565
 6149SOL     OW19345   3.155   0.098   2.148
 6149SOL    HW119346   3.160   0.174   2.082
 6149SOL    HW219347   3.120   0.016   2.102
 6150SOL     OW19348   6.254   4.094   6.587
 6150SOL    HW119349   6.276   4.121   6.681
 6150SOL    HW219350   6.280   4.167   6.525
 6151SOL     OW19351   4.601   4.454   4.429
 6151SOL    HW119352   4.552   4.421   4.349
 6151SOL    HW219353   4.660   4.382   4.465
 6152SOL     OW19354   0.841   4.657   4.023
 6152SOL    HW119355   0.827   4.738   3.966
 6152SOL    HW219356   0.913   4.675   4.090
 6153SOL     OW19357   5.323   5.215   1.057
 6153SOL    HW119358   5.229   5.239   1.082
 6153SOL    HW219359   5.332   5.217   0.957
 6154SOL     OW19360   6.068   3.377   2.147
 6154SOL    HW119361   6.079   3.438   2.068
 6154SOL    HW219362   5.996   3.311   2.127
 6155SOL     OW19363   2.106   1.275   3.068
 6155SOL    HW119364   2.152   1.355   3.029
 6155SOL    HW219365   2.007   1.285   3.058
 6156SOL     OW19366   4.998   5.039   1.492
 6156SOL    HW119367   4.958   4.965   1.546
 6156SOL    HW219368   5.089   5.060   1.527
 6157SOL     OW19369   1.538   1.950   2.361
 6157SOL    HW119370   1.542   1.880   2.289
 6157SOL    HW219371   1.489   2.030   2.326
 6158SOL     OW19372   2.983   2.776   5.708
 6158SOL    HW119373   2.961   2.786   5.611
 6158SOL    HW219374   3.082   2.787   5.721
 6159SOL     OW19375   5.493   3.083   0.075
 6159SOL    HW119376   5.496   2.991   0.035
 6159SOL    HW219377   5.475   3.077   0.173
 6160SOL     OW19378   0.747   0.114   6.880
 6160SOL    HW119379   0.686   0.129   6.958
 6160SOL    HW219380   0.825   0.177   6.887
 6161SOL     OW19381   4.547   2.642   6.315
 6161SOL    HW119382   4.622   2.706   6.330
 6161SOL    HW219383   4.554   2.567   6.381
 6162SOL     OW19384   6.417   5.506   2.542
 6162SOL    HW119385   6.399   5.468   2.632
 6162SOL    HW219386   6.360   5.587   2.528
 6163SOL     OW19387   5.650   5.866   3.146
 6163SOL    HW119388   5.662   5.880   3.245
 6163SOL    HW219389   5.737   5.838   3.106
 6164SOL     OW19390   3.735   4.165   4.803
 6164SOL    HW119391   3.780   4.156   4.892
 6164SOL    HW219392   3.684   4.251   4.801
 6165SOL     OW19393   3.796   2.095   0.338
 6165SOL    HW119394   3.729   2.054   0.400
 6165SOL    HW219395   3.888   2.069   0.366
 6166SOL     OW19396   0.510   2.224   0.166
 6166SOL    HW119397   0.431   2.260   0.116
 6166SOL    HW219398   0.550   2.148   0.115
 6167SOL     OW19399   1.149   3.675   3.464
 6167SOL    HW119400   1.249   3.678   3.474
 6167SOL    HW219401   1.106   3.704   3.550
 6168SOL     OW19402   0.715   3.352   4.385
 6168SOL    HW119403   0.801   3.393   4.414
 6168SOL    HW219404   0.709   3.259   4.421
 6169SOL     OW19405   2.462   6.977   0.221
 6169SOL    HW119406   2.410   6.892   0.225
 6169SOL    HW219407   2.485   7.007   0.313
 6170SOL     OW19408   3.865   3.991   6.726
 6170SOL    HW119409   3.897   3.897   6.738
 6170SOL    HW219410   3.884   4.043   6.810
 6171SOL     OW19411   1.846   4.640   2.445
 6171SOL    HW119412   1.933   4.648   2.493
 6171SOL    HW219413   1.824   4.726   2.400
 6172SOL     OW19414   1.258   6.394   3.016
 6172SOL    HW119415   1.281   6.468   3.079
 6172SOL    HW219416   1.242   6.310   3.068
 6173SOL     OW19417   1.363   5.232   2.674
 6173SOL    HW119418   1.435   5.240   2.744
 6173SOL    HW219419   1.402   5.253   2.584
 6174SOL     OW19420   5.178   5.184   2.980
 6174SOL    HW119421   5.235   5.242   3.038
 6174SOL    HW219422   5.235   5.133   2.917
 6175SOL     OW19423   4.437   0.761   3.644
 6175SOL    HW119424   4.386   0.846   3.643
 6175SOL    HW219425   4.479   0.748   3.734
 6176SOL     OW19426   6.222   3.351   5.925
 6176SOL    HW119427   6.171   3.346   5.839
 6176SOL    HW219428   6.320   3.358   5.905
 6177SOL     OW19429   5.281   2.097   0.722
 6177SOL    HW119430   5.307   2.149   0.641
 6177SOL    HW219431   5.354   2.102   0.790
 6178SOL     OW19432   5.504   3.598   0.836
 6178SOL    HW119433   5.545   3.524   0.888
 6178SOL    HW219434   5.463   3.561   0.752
 6179SOL     OW19435   0.169   2.464   5.631
 6179SOL    HW119436   0.078   2.498   5.606
 6179SOL    HW219437   0.213   2.529   5.692
 6180SOL     OW19438   4.203   6.868   1.098
 6180SOL    HW119439   4.163   6.787   1.055
 6180SOL    HW219440   4.156   6.950   1.066
 6181SOL     OW19441   4.966   6.388   6.673
 6181SOL    HW119442   4.990   6.381   6.576
 6181SOL    HW219443   4.976   6.298   6.716
 6182SOL     OW19444   4.872   6.121   6.449
 6182SOL    HW119445   4.796   6.168   6.405
 6182SOL    HW219446   4.890   6.035   6.401
 6183SOL     OW19447   2.811   6.947   3.622
 6183SOL    HW119448   2.910   6.930   3.624
 6183SOL    HW219449   2.775   6.924   3.532
 6184SOL     OW19450   0.846   0.347   6.326
 6184SOL    HW119451   0.928   0.291   6.327
 6184SOL    HW219452   0.782   0.315   6.396
 6185SOL     OW19453   0.036   3.324   6.249
 6185SOL    HW119454   0.087   3.301   6.166
 6185SOL    HW219455   7.021   3.416   6.239
 6186SOL     OW19456   5.488   0.409   4.529
 6186SOL    HW119457   5.399   0.429   4.488
 6186SOL    HW219458   5.540   0.494   4.541
 6187SOL     OW19459   4.509   4.450   4.148
 6187SOL    HW119460   4.544   4.438   4.055
 6187SOL    HW219461   4.477   4.544   4.160
 6188SOL     OW19462   2.573   6.704   1.229
 6188SOL    HW119463   2.644   6.654   1.179
 6188SOL    HW219464   2.596   6.703   1.327
 6189SOL     OW19465   5.593   5.008   3.445
 6189SOL    HW119466   5.561   5.080   3.506
 6189SOL    HW219467   5.591   4.920   3.493
 6190SOL     OW19468   5.275   2.644   6.639
 6190SOL    HW119469   5.301   2.624   6.544
 6190SOL    HW219470   5.220   2.568   6.675
 6191SOL     OW19471   5.632   1.779   6.980
 6191SOL    HW119472   5.731   1.794   6.975
 6191SOL    HW219473   5.609   1.739   0.044
 6192SOL     OW19474   2.514   2.903   6.807
 6192SOL    HW119475   2.451   2.971   6.768
 6192SOL    HW219476   2.581   2.949   6.865
 6193SOL     OW19477   5.629   0.198   1.954
 6193SOL    HW119478   5.539   0.164   1.930
 6193SOL    HW219479   5.621   0.264   2.028
 6194SOL     OW19480   3.051   0.523   0.958
 6194SOL    HW119481   2.987   0.598   0.943
 6194SOL    HW219482   3.007   0.453   1.015
 6195SOL     OW19483   3.168   6.752   6.539
 6195SOL    HW119484   3.242   6.692   6.509
 6195SOL    HW219485   3.161   6.830   6.477
 6196SOL     OW19486   0.924   1.935   6.132
 6196SOL    HW119487   0.956   1.888   6.214
 6196SOL    HW219488   0.824   1.936   6.131
 6197SOL     OW19489   2.360   3.756   0.673
 6197SOL    HW119490   2.358   3.791   0.580
 6197SOL    HW219491   2.415   3.672   0.676
 6198SOL     OW19492   3.682   4.958   2.489
 6198SOL    HW119493   3.668   4.970   2.391
 6198SOL    HW219494   3.597   4.928   2.531
 6199SOL     OW19495   1.630   6.679   0.317
 6199SOL    HW119496   1.540   6.707   0.282
 6199SOL    HW219497   1.618   6.619   0.396
 6200SOL     OW19498   3.876   0.911   6.456
 6200SOL    HW119499   3.840   0.926   6.548
 6200SOL    HW219500   3.941   0.984   6.435
 6201SOL     OW19501   1.886   4.038   5.319
 6201SOL    HW119502   1.834   4.044   5.234
 6201SOL    HW219503   1.984   4.041   5.299
 6202SOL     OW19504   2.832   2.138   0.950
 6202SOL    HW119505   2.889   2.171   0.874
 6202SOL    HW219506   2.840   2.039   0.957
 6203SOL     OW19507   5.050   1.156   4.457
 6203SOL    HW119508   5.091   1.248   4.455
 6203SOL    HW219509   4.952   1.163   4.442
 6204SOL     OW19510   2.409   6.094   5.306
 6204SOL    HW119511   2.333   6.032   5.290
 6204SOL    HW219512   2.440   6.133   5.219
 6205SOL     OW19513   5.166   6.030   7.005
 6205SOL    HW119514   5.224   6.095   6.956
 6205SOL    HW219515   5.221   5.978   0.046
 6206SOL     OW19516   5.988   0.226   2.911
 6206SOL    HW119517   5.942   0.310   2.940
 6206SOL    HW219518   6.084   0.229   2.941
 6207SOL     OW19519   1.579   4.008   4.748
 6207SOL    HW119520   1.538   3.965   4.668
 6207SOL    HW219521   1.678   4.010   4.738
 6208SOL     OW19522   5.960   6.979   6.233
 6208SOL    HW119523   6.038   0.004   6.270
 6208SOL    HW219524   5.903   0.017   6.179
 6209SOL     OW19525   4.321   6.539   0.122
 6209SOL    HW119526   4.357   6.451   0.154
 6209SOL    HW219527   4.397   6.599   0.098
 6210SOL     OW19528   5.812   4.403   3.298
 6210SOL    HW119529   5.736   4.357   3.252
 6210SOL    HW219530   5.779   4.481   3.350
 6211SOL     OW19531   3.018   0.118   4.743
 6211SOL    HW119532   3.021   0.184   4.818
 6211SOL    HW219533   2.925   0.082   4.734
 6212SOL     OW19534   6.484   6.461   3.859
 6212SOL    HW119535   6.443   6.485   3.947
 6212SOL    HW219536   6.539   6.378   3.870
 6213SOL     OW19537   6.582   0.728   6.495
 6213SOL    HW119538   6.580   0.628   6.482
 6213SOL    HW219539   6.489   0.764   6.493
 6214SOL     OW19540   6.641   4.838   2.598
 6214SOL    HW119541   6.649   4.916   2.660
 6214SOL    HW219542   6.571   4.775   2.633
 6215SOL     OW19543   2.965   2.896   1.078
 6215SOL    HW119544   2.950   2.805   1.038
 6215SOL    HW219545   3.037   2.943   1.028
 6216SOL     OW19546   5.561   1.777   2.131
 6216SOL    HW119547   5.603   1.822   2.052
 6216SOL    HW219548   5.561   1.840   2.209
 6217SOL     OW19549   4.699   2.239   1.044
 6217SOL    HW119550   4.664   2.171   1.108
 6217SOL    HW219551   4.744   2.193   0.967
 6218SOL     OW19552   2.515   5.063   4.418
 6218SOL    HW119553   2.560   4.974   4.411
 6218SOL    HW219554   2.569   5.123   4.477
 6219SOL     OW19555   1.051   2.379   4.990
 6219SOL    HW119556   1.124   2.402   5.053
 6219SOL    HW219557   0.963   2.398   5.033
 6220SOL     OW19558   2.427   4.832   5.050
 6220SOL    HW119559   2.398   4.737   5.050
 6220SOL    HW219560   2.461   4.857   5.140
 6221SOL     OW19561   3.969   4.853   4.490
 6221SOL    HW119562   3.873   4.835   4.509
 6221SOL    HW219563   3.976   4.931   4.427
 6222SOL     OW19564   6.590   0.109   2.040
 6222SOL    HW119565   6.513   0.126   2.102
 6222SOL    HW219566   6.565   0.039   1.974
 6223SOL     OW19567   5.661   2.953   4.559
 6223SOL    HW119568   5.562   2.959   4.574
 6223SOL    HW219569   5.700   2.885   4.621
 6224SOL     OW19570   2.299   1.765   5.285
 6224SOL    HW119571   2.319   1.667   5.291
 6224SOL    HW219572   2.339   1.802   5.201
 6225SOL     OW19573   3.281   3.274   0.498
 6225SOL    HW119574   3.251   3.237   0.410
 6225SOL    HW219575   3.293   3.200   0.564
 6226SOL     OW19576   5.429   0.563   4.036
 6226SOL    HW119577   5.473   0.619   4.106
 6226SOL    HW219578   5.375   0.491   4.081
 6227SOL     OW19579   3.509   4.428   5.788
 6227SOL    HW119580   3.515   4.396   5.883
 6227SOL    HW219581   3.413   4.429   5.759
 6228SOL     OW19582   7.005   1.380   3.311
 6228SOL    HW119583   6.911   1.357   3.336
 6228SOL    HW219584   7.006   1.426   3.222
 6229SOL     OW19585   2.274   2.616   2.807
 6229SOL    HW119586   2.291   2.672   2.888
 6229SOL    HW219587   2.360   2.597   2.761
 6230SOL     OW19588   2.181   2.201   4.110
 6230SOL    HW119589   2.191   2.184   4.208
 6230SOL    HW219590   2.169   2.298   4.093
 6231SOL     OW19591   0.181   5.254   1.380
 6231SOL    HW119592   0.106   5.189   1.371
 6231SOL    HW219593   0.174   5.322   1.308
 6232SOL     OW19594   0.269   0.464   0.367
 6232SOL    HW119595   0.252   0.367   0.348
 6232SOL    HW219596   0.183   0.515   0.364
 6233SOL     OW19597   4.964   2.213   6.483
 6233SOL    HW119598   4.938   2.160   6.565
 6233SOL    HW219599   5.049   2.261   6.500
 6234SOL     OW19600   1.437   1.932   4.570
 6234SOL    HW119601   1.489   1.906   4.652
 6234SOL    HW219602   1.342   1.906   4.582
 6235SOL     OW19603   1.703   0.264   2.511
 6235SOL    HW119604   1.719   0.190   2.446
 6235SOL    HW219605   1.737   0.350   2.473
 6236SOL     OW19606   6.936   4.699   1.031
 6236SOL    HW119607   6.925   4.675   1.127
 6236SOL    HW219608   0.007   4.723   1.013
 6237SOL     OW19609   4.248   6.495   0.973
 6237SOL    HW119610   4.270   6.452   1.060
 6237SOL    HW219611   4.162   6.546   0.981
 6238SOL     OW19612   4.708   5.537   1.760
 6238SOL    HW119613   4.768   5.459   1.741
 6238SOL    HW219614   4.764   5.619   1.776
 6239SOL     OW19615   2.306   6.848   2.752
 6239SOL    HW119616   2.238   6.870   2.682
 6239SOL    HW219617   2.380   6.795   2.710
 6240SOL     OW19618   1.741   3.064   0.657
 6240SOL    HW119619   1.656   3.116   0.649
 6240SOL    HW219620   1.721   2.966   0.660
 6241SOL     OW19621   2.831   0.174   1.700
 6241SOL    HW119622   2.783   0.121   1.630
 6241SOL    HW219623   2.876   0.252   1.657
 6242SOL     OW19624   5.047   1.989   3.630
 6242SOL    HW119625   4.969   2.049   3.649
 6242SOL    HW219626   5.098   2.025   3.552
 6243SOL     OW19627   5.501   6.353   4.151
 6243SOL    HW119628   5.437   6.278   4.171
 6243SOL    HW219629   5.584   6.316   4.109
 6244SOL     OW19630   2.687   1.850   2.273
 6244SOL    HW119631   2.786   1.847   2.262
 6244SOL    HW219632   2.645   1.895   2.195
 6245SOL     OW19633   2.942   4.672   1.430
 6245SOL    HW119634   2.870   4.660   1.499
 6245SOL    HW219635   2.940   4.594   1.366
 6246SOL     OW19636   2.917   2.080   5.486
 6246SOL    HW119637   2.904   2.113   5.392
 6246SOL    HW219638   2.842   2.112   5.544
 6247SOL     OW19639   0.567   6.660   3.447
 6247SOL    HW119640   0.628   6.670   3.525
 6247SOL    HW219641   0.545   6.564   3.433
 6248SOL     OW19642   0.726   4.606   1.356
 6248SOL    HW119643   0.667   4.684   1.334
 6248SOL    HW219644   0.747   4.607   1.454
 6249SOL     OW19645   6.779   3.944   0.329
 6249SOL    HW119646   6.689   3.967   0.293
 6249SOL    HW219647   6.788   3.978   0.422
 6250SOL     OW19648   6.017   6.551   6.716
 6250SOL    HW119649   5.953   6.627   6.727
 6250SOL    HW219650   6.073   6.543   6.799
 6251SOL     OW19651   4.246   1.492   0.749
 6251SOL    HW119652   4.147   1.502   0.754
 6251SOL    HW219653   4.288   1.581   0.732
 6252SOL     OW19654   3.223   5.656   4.793
 6252SOL    HW119655   3.240   5.573   4.846
 6252SOL    HW219656   3.129   5.687   4.809
 6253SOL     OW19657   2.442   4.057   1.785
 6253SOL    HW119658   2.409   4.050   1.879
 6253SOL    HW219659   2.509   4.131   1.778
 6254SOL     OW19660   5.787   0.233   0.089
 6254SOL    HW119661   5.710   0.266   0.143
 6254SOL    HW219662   5.769   0.250   7.016
 6255SOL     OW19663   0.633   1.265   2.568
 6255SOL    HW119664   0.597   1.172   2.562
 6255SOL    HW219665   0.672   1.291   2.480
 6256SOL     OW19666   4.082   4.740   2.679
 6256SOL    HW119667   4.029   4.795   2.614
 6256SOL    HW219668   4.121   4.661   2.633
 6257SOL     OW19669   5.404   2.630   0.121
 6257SOL    HW119670   5.336   2.662   0.186
 6257SOL    HW219671   5.484   2.597   0.171
 6258SOL     OW19672   4.472   2.004   2.176
 6258SOL    HW119673   4.410   2.077   2.206
 6258SOL    HW219674   4.520   1.967   2.255
 6259SOL     OW19675   3.197   2.166   1.903
 6259SOL    HW119676   3.141   2.085   1.886
 6259SOL    HW219677   3.150   2.225   1.968
 6260SOL     OW19678   3.210   4.109   0.036
 6260SOL    HW119679   3.226   4.206   0.020
 6260SOL    HW219680   3.257   4.081   0.120
 6261SOL     OW19681   4.154   1.248   0.259
 6261SOL    HW119682   4.063   1.279   0.233
 6261SOL    HW219683   4.179   1.288   0.347
 6262SOL     OW19684   1.383   4.575   6.739
 6262SOL    HW119685   1.419   4.598   6.649
 6262SOL    HW219686   1.294   4.618   6.752
 6263SOL     OW19687   6.947   6.808   0.573
 6263SOL    HW119688   6.895   6.893   0.579
 6263SOL    HW219689   0.006   6.816   0.629
 6264SOL     OW19690   2.288   2.145   0.589
 6264SOL    HW119691   2.284   2.237   0.628
 6264SOL    HW219692   2.296   2.078   0.662
 6265SOL     OW19693   4.184   3.937   1.290
 6265SOL    HW119694   4.155   3.951   1.385
 6265SOL    HW219695   4.207   4.026   1.250
 6266SOL     OW19696   3.409   0.732   2.873
 6266SOL    HW119697   3.333   0.714   2.935
 6266SOL    HW219698   3.459   0.648   2.856
 6267SOL     OW19699   3.254   0.288   6.960
 6267SOL    HW119700   3.249   0.328   6.869
 6267SOL    HW219701   3.162   0.283   6.999
 6268SOL     OW19702   3.202   4.976   2.480
 6268SOL    HW119703   3.177   5.054   2.537
 6268SOL    HW219704   3.119   4.924   2.456
 6269SOL     OW19705   5.999   5.976   1.494
 6269SOL    HW119706   5.957   5.887   1.473
 6269SOL    HW219707   6.081   5.962   1.548
 6270SOL     OW19708   1.296   0.410   4.718
 6270SOL    HW119709   1.351   0.427   4.636
 6270SOL    HW219710   1.325   0.472   4.791
 6271SOL     OW19711   0.160   1.422   0.141
 6271SOL    HW119712   0.131   1.354   0.073
 6271SOL    HW219713   0.260   1.427   0.142
 6272SOL     OW19714   2.183   2.449   3.785
 6272SOL    HW119715   2.240   2.509   3.728
 6272SOL    HW219716   2.213   2.355   3.774
 6273SOL     OW19717   2.283   0.972   1.465
 6273SOL    HW119718   2.284   1.067   1.434
 6273SOL    HW219719   2.300   0.912   1.387
 6274SOL     OW19720   3.550   5.940   6.333
 6274SOL    HW119721   3.553   6.035   6.304
 6274SOL    HW219722   3.639   5.897   6.315
 6275SOL     OW19723   1.847   0.124   4.644
 6275SOL    HW119724   1.850   0.149   4.548
 6275SOL    HW219725   1.761   0.158   4.685
 6276SOL     OW19726   1.355   5.538   3.765
 6276SOL    HW119727   1.449   5.567   3.747
 6276SOL    HW219728   1.344   5.442   3.736
 6277SOL     OW19729   5.190   2.780   2.512
 6277SOL    HW119730   5.099   2.750   2.540
 6277SOL    HW219731   5.185   2.874   2.478
 6278SOL     OW19732   5.044   0.104   4.209
 6278SOL    HW119733   5.009   0.018   4.246
 6278SOL    HW219734   4.967   0.160   4.176
 6279SOL     OW19735   4.081   1.783   0.829
 6279SOL    HW119736   4.041   1.692   0.817
 6279SOL    HW219737   4.176   1.782   0.799
 6280SOL     OW19738   0.181   4.493   5.563
 6280SOL    HW119739   0.092   4.539   5.563
 6280SOL    HW219740   0.209   4.476   5.468
 6281SOL     OW19741   2.364   0.599   5.448
 6281SOL    HW119742   2.406   0.518   5.406
 6281SOL    HW219743   2.269   0.605   5.419
 6282SOL     OW19744   2.203   6.945   4.621
 6282SOL    HW119745   2.213   6.961   4.523
 6282SOL    HW219746   2.285   6.975   4.668
 6283SOL     OW19747   0.099   2.553   5.289
 6283SOL    HW119748   0.051   2.609   5.220
 6283SOL    HW219749   0.048   2.557   5.375
 6284SOL     OW19750   1.225   4.994   5.392
 6284SOL    HW119751   1.277   4.976   5.476
 6284SOL    HW219752   1.287   5.030   5.322
 6285SOL     OW19753   1.559   3.055   3.122
 6285SOL    HW119754   1.584   3.130   3.061
 6285SOL    HW219755   1.462   3.034   3.110
 6286SOL     OW19756   5.560   1.542   3.308
 6286SOL    HW119757   5.594   1.636   3.295
 6286SOL    HW219758   5.536   1.504   3.218
 6287SOL     OW19759   5.221   3.981   1.597
 6287SOL    HW119760   5.206   3.929   1.513
 6287SOL    HW219761   5.165   3.943   1.670
 6288SOL     OW19762   5.290   3.779   0.348
 6288SOL    HW119763   5.255   3.872   0.357
 6288SOL    HW219764   5.342   3.771   0.263
 6289SOL     OW19765   1.591   1.684   3.808
 6289SOL    HW119766   1.663   1.656   3.872
 6289SOL    HW219767   1.622   1.764   3.758
 6290SOL     OW19768   4.826   4.077   3.678
 6290SOL    HW119769   4.893   4.148   3.696
 6290SOL    HW219770   4.777   4.097   3.593
 6291SOL     OW19771   3.678   4.111   3.482
 6291SOL    HW119772   3.770   4.103   3.446
 6291SOL    HW219773   3.644   4.021   3.508
 6292SOL     OW19774   1.128   1.934   2.229
 6292SOL    HW119775   1.089   1.924   2.321
 6292SOL    HW219776   1.136   2.032   2.207
 6293SOL     OW19777   5.013   0.104   0.487
 6293SOL    HW119778   4.992   0.034   0.418
 6293SOL    HW219779   4.940   0.173   0.487
 6294SOL     OW19780   4.010   5.064   2.998
 6294SOL    HW119781   3.935   5.119   3.035
 6294SOL    HW219782   4.009   5.069   2.898
 6295SOL     OW19783   5.612   5.790   6.364
 6295SOL    HW119784   5.556   5.822   6.288
 6295SOL    HW219785   5.568   5.814   6.451
 6296SOL     OW19786   6.458   0.915   2.940
 6296SOL    HW119787   6.381   0.866   2.898
 6296SOL    HW219788   6.536   0.854   2.949
 6297SOL     OW19789   5.452   6.332   6.039
 6297SOL    HW119790   5.537   6.315   5.988
 6297SOL    HW219791   5.414   6.420   6.011
 6298SOL     OW19792   0.207   3.014   5.298
 6298SOL    HW119793   0.140   2.969   5.357
 6298SOL    HW219794   0.209   3.112   5.319
 6299SOL     OW19795   6.751   3.059   6.597
 6299SOL    HW119796   6.661   3.050   6.555
 6299SOL    HW219797   6.810   3.116   6.538
 6300SOL     OW19798   4.513   1.005   3.887
 6300SOL    HW119799   4.516   0.916   3.931
 6300SOL    HW219800   4.465   0.998   3.799
 6301SOL     OW19801   3.470   6.913   0.990
 6301SOL    HW119802   3.447   6.820   0.959
 6301SOL    HW219803   3.392   6.974   0.974
 6302SOL     OW19804   2.123   0.990   3.479
 6302SOL    HW119805   2.092   0.942   3.561
 6302SOL    HW219806   2.044   1.011   3.420
 6303SOL     OW19807   1.578   6.214   5.046
 6303SOL    HW119808   1.605   6.118   5.056
 6303SOL    HW219809   1.497   6.220   4.988
 6304SOL     OW19810   2.646   1.378   0.043
 6304SOL    HW119811   2.702   1.422   0.113
 6304SOL    HW219812   2.665   1.419   6.978
 6305SOL     OW19813   6.649   6.965   1.289
 6305SOL    HW119814   6.576   7.004   1.232
 6305SOL    HW219815   6.612   6.894   1.348
 6306SOL     OW19816   6.687   3.119   3.821
 6306SOL    HW119817   6.720   3.045   3.880
 6306SOL    HW219818   6.731   3.205   3.847
 6307SOL     OW19819   1.821   5.031   0.070
 6307SOL    HW119820   1.830   4.962   7.023
 6307SOL    HW219821   1.911   5.049   0.110
 6308SOL     OW19822   2.721   1.785   5.210
 6308SOL    HW119823   2.667   1.851   5.262
 6308SOL    HW219824   2.760   1.829   5.130
 6309SOL     OW19825   5.437   2.111   4.087
 6309SOL    HW119826   5.469   2.119   3.992
 6309SOL    HW219827   5.420   2.015   4.109
 6310SOL     OW19828   1.282   4.930   4.667
 6310SOL    HW119829   1.370   4.961   4.702
 6310SOL    HW219830   1.217   4.918   4.742
 6311SOL     OW19831   6.097   0.292   4.626
 6311SOL    HW119832   6.017   0.243   4.662
 6311SOL    HW219833   6.138   0.238   4.552
 6312SOL     OW19834   4.564   5.163   6.034
 6312SOL    HW119835   4.585   5.090   5.970
 6312SOL    HW219836   4.631   5.237   6.024
 6313SOL     OW19837   2.168   6.205   3.344
 6313SOL    HW119838   2.094   6.137   3.345
 6313SOL    HW219839   2.255   6.160   3.325
 6314SOL     OW19840   2.850   6.026   2.820
 6314SOL    HW119841   2.812   5.965   2.889
 6314SOL    HW219842   2.812   6.118   2.833
 6315SOL     OW19843   3.214   3.857   0.353
 6315SOL    HW119844   3.161   3.940   0.339
 6315SOL    HW219845   3.163   3.778   0.320
 6316SOL     OW19846   4.664   2.658   5.571
 6316SOL    HW119847   4.652   2.699   5.481
 6316SOL    HW219848   4.742   2.701   5.617
 6317SOL     OW19849   5.313   6.923   3.576
 6317SOL    HW119850   5.277   6.832   3.596
 6317SOL    HW219851   5.343   6.966   3.661
 6318SOL     OW19852   2.421   2.340   5.182
 6318SOL    HW119853   2.348   2.354   5.249
 6318SOL    HW219854   2.423   2.416   5.118
 6319SOL     OW19855   0.879   1.881   3.230
 6319SOL    HW119856   0.798   1.847   3.278
 6319SOL    HW219857   0.942   1.923   3.296
 6320SOL     OW19858   5.791   3.820   2.904
 6320SOL    HW119859   5.738   3.877   2.840
 6320SOL    HW219860   5.733   3.747   2.939
 6321SOL     OW19861   2.372   5.189   0.813
 6321SOL    HW119862   2.316   5.152   0.740
 6321SOL    HW219863   2.412   5.114   0.866
 6322SOL     OW19864   1.375   1.208   6.729
 6322SOL    HW119865   1.473   1.218   6.710
 6322SOL    HW219866   1.363   1.186   6.826
 6323SOL     OW19867   3.661   2.721   0.632
 6323SOL    HW119868   3.704   2.679   0.552
 6323SOL    HW219869   3.725   2.787   0.673
 6324SOL     OW19870   4.124   1.063   5.956
 6324SOL    HW119871   4.157   1.016   5.874
 6324SOL    HW219872   4.195   1.123   5.992
 6325SOL     OW19873   0.650   2.668   2.230
 6325SOL    HW119874   0.742   2.641   2.258
 6325SOL    HW219875   0.637   2.766   2.247
 6326SOL     OW19876   5.171   5.853   1.694
 6326SOL    HW119877   5.123   5.930   1.651
 6326SOL    HW219878   5.234   5.813   1.628
 6327SOL     OW19879   6.056   5.752   5.511
 6327SOL    HW119880   6.010   5.753   5.600
 6327SOL    HW219881   6.035   5.666   5.464
 6328SOL     OW19882   2.763   4.205   6.397
 6328SOL    HW119883   2.825   4.274   6.433
 6328SOL    HW219884   2.733   4.145   6.472
 6329SOL     OW19885   1.322   1.236   3.271
 6329SOL    HW119886   1.364   1.226   3.181
 6329SOL    HW219887   1.359   1.318   3.316
 6330SOL     OW19888   3.982   1.190   0.760
 6330SOL    HW119889   3.887   1.220   0.761
 6330SOL    HW219890   4.023   1.207   0.850
 6331SOL     OW19891   6.491   2.119   1.547
 6331SOL    HW119892   6.560   2.084   1.483
 6331SOL    HW219893   6.400   2.092   1.516
 6332SOL     OW19894   6.081   5.387   1.072
 6332SOL    HW119895   6.152   5.456   1.058
 6332SOL    HW219896   6.112   5.320   1.140
 6333SOL     OW19897   3.179   4.920   3.227
 6333SOL    HW119898   3.263   4.867   3.242
 6333SOL    HW219899   3.104   4.879   3.279
 6334SOL     OW19900   2.329   0.703   2.334
 6334SOL    HW119901   2.353   0.630   2.398
 6334SOL    HW219902   2.237   0.687   2.298
 6335SOL     OW19903   6.595   1.200   6.265
 6335SOL    HW119904   6.539   1.156   6.335
 6335SOL    HW219905   6.635   1.131   6.206
 6336SOL     OW19906   6.978   2.345   4.456
 6336SOL    HW119907   6.905   2.390   4.404
 6336SOL    HW219908   0.042   2.383   4.428
 6337SOL     OW19909   5.932   4.365   5.727
 6337SOL    HW119910   5.845   4.345   5.773
 6337SOL    HW219911   5.927   4.335   5.632
 6338SOL     OW19912   3.466   1.482   2.903
 6338SOL    HW119913   3.532   1.432   2.958
 6338SOL    HW219914   3.513   1.549   2.846
 6339SOL     OW19915   0.558   1.948   4.027
 6339SOL    HW119916   0.529   1.949   3.931
 6339SOL    HW219917   0.618   2.025   4.045
 6340SOL     OW19918   2.716   5.644   3.674
 6340SOL    HW119919   2.638   5.698   3.708
 6340SOL    HW219920   2.693   5.604   3.586
 6341SOL     OW19921   7.005   4.192   3.643
 6341SOL    HW119922   0.073   4.156   3.658
 6341SOL    HW219923   7.011   4.280   3.597
 6342SOL     OW19924   1.288   2.037   1.350
 6342SOL    HW119925   1.211   2.098   1.369
 6342SOL    HW219926   1.341   2.073   1.273
 6343SOL     OW19927   3.626   1.410   6.739
 6343SOL    HW119928   3.709   1.366   6.706
 6343SOL    HW219929   3.551   1.393   6.675
 6344SOL     OW19930   0.498   4.055   4.729
 6344SOL    HW119931   0.461   4.095   4.813
 6344SOL    HW219932   0.567   3.986   4.753
 6345SOL     OW19933   3.702   1.403   2.119
 6345SOL    HW119934   3.725   1.374   2.212
 6345SOL    HW219935   3.607   1.435   2.117
 6346SOL     OW19936   0.554   3.973   3.486
 6346SOL    HW119937   0.537   3.901   3.554
 6346SOL    HW219938   0.533   3.938   3.395
 6347SOL     OW19939   3.272   6.976   0.750
 6347SOL    HW119940   3.225   6.920   0.820
 6347SOL    HW219941   3.211   0.026   0.721
 6348SOL     OW19942   0.700   2.826   3.906
 6348SOL    HW119943   0.669   2.895   3.972
 6348SOL    HW219944   0.713   2.739   3.952
 6349SOL     OW19945   2.895   1.240   1.035
 6349SOL    HW119946   2.932   1.160   1.083
 6349SOL    HW219947   2.795   1.232   1.031
 6350SOL     OW19948   1.490   6.032   2.215
 6350SOL    HW119949   1.529   6.024   2.123
 6350SOL    HW219950   1.402   5.984   2.217
 6351SOL     OW19951   0.152   1.159   2.260
 6351SOL    HW119952   0.206   1.236   2.292
 6351SOL    HW219953   0.079   1.193   2.200
 6352SOL     OW19954   0.994   5.478   2.144
 6352SOL    HW119955   0.898   5.479   2.171
 6352SOL    HW219956   1.013   5.396   2.089
 6353SOL     OW19957   0.533   0.123   0.558
 6353SOL    HW119958   0.604   0.068   0.604
 6353SOL    HW219959   0.468   0.062   0.513
 6354SOL     OW19960   0.977   0.097   2.657
 6354SOL    HW119961   0.998   0.116   2.752
 6354SOL    HW219962   0.987   7.023   2.639
 6355SOL     OW19963   1.652   2.810   2.765
 6355SOL    HW119964   1.720   2.839   2.832
 6355SOL    HW219965   1.586   2.883   2.751
 6356SOL     OW19966   3.387   4.345   1.137
 6356SOL    HW119967   3.377   4.263   1.193
 6356SOL    HW219968   3.299   4.366   1.093
 6357SOL     OW19969   3.973   2.069   0.095
 6357SOL    HW119970   3.914   2.077   0.175
 6357SOL    HW219971   3.919   2.042   0.016
 6358SOL     OW19972   0.151   2.059   3.614
 6358SOL    HW119973   0.216   2.127   3.580
 6358SOL    HW219974   0.201   1.982   3.654
 6359SOL     OW19975   0.151   0.725   6.450
 6359SOL    HW119976   0.053   0.744   6.458
 6359SOL    HW219977   0.184   0.753   6.360
 6360SOL     OW19978   3.086   5.264   3.989
 6360SOL    HW119979   3.079   5.345   3.932
 6360SOL    HW219980   3.062   5.183   3.936
 6361SOL     OW19981   4.277   6.002   5.916
 6361SOL    HW119982   4.344   5.999   5.991
 6361SOL    HW219983   4.321   6.034   5.833
 6362SOL     OW19984   6.097   5.131   6.604
 6362SOL    HW119985   6.038   5.212   6.600
 6362SOL    HW219986   6.123   5.104   6.511
 6363SOL     OW19987   1.763   5.805   4.228
 6363SOL    HW119988   1.820   5.757   4.295
 6363SOL    HW219989   1.699   5.741   4.187
 6364SOL     OW19990   2.322   2.580   6.180
 6364SOL    HW119991   2.286   2.665   6.217
 6364SOL    HW219992   2.265   2.503   6.209
 6365SOL     OW19993   5.132   0.025   2.968
 6365SOL    HW119994   5.232   0.014   2.965
 6365SOL    HW219995   5.091   6.989   2.899
 6366SOL     OW19996   0.857   5.526   5.461
 6366SOL    HW119997   0.853   5.610   5.515
 6366SOL    HW219998   0.952   5.494   5.457
 6367SOL     OW19999   5.260   6.665   4.313
 6367SOL    HW120000   5.161   6.671   4.301
 6367SOL    HW220001   5.285   6.700   4.404
 6368SOL     OW20002   3.312   6.683   4.536
 6368SOL    HW120003   3.301   6.776   4.501
 6368SOL    HW220004   3.254   6.671   4.616
 6369SOL     OW20005   2.659   4.758   4.020
 6369SOL    HW120006   2.707   4.740   4.106
 6369SOL    HW220007   2.596   4.835   4.034
 6370SOL     OW20008   5.881   2.131   1.211
 6370SOL    HW120009   5.785   2.159   1.209
 6370SOL    HW220010   5.915   2.138   1.305
 6371SOL     OW20011   4.712   2.674   2.422
 6371SOL    HW120012   4.661   2.593   2.451
 6371SOL    HW220013   4.768   2.652   2.343
 6372SOL     OW20014   3.621   5.914   2.278
 6372SOL    HW120015   3.572   5.905   2.365
 6372SOL    HW220016   3.702   5.970   2.292
 6373SOL     OW20017   4.236   3.990   6.016
 6373SOL    HW120018   4.165   4.060   6.017
 6373SOL    HW220019   4.315   4.023   5.964
 6374SOL     OW20020   3.003   3.176   2.900
 6374SOL    HW120021   2.981   3.273   2.907
 6374SOL    HW220022   2.998   3.134   2.990
 6375SOL     OW20023   1.271   6.483   2.744
 6375SOL    HW120024   1.351   6.530   2.708
 6375SOL    HW220025   1.281   6.470   2.842
 6376SOL     OW20026   6.364   2.159   4.585
 6376SOL    HW120027   6.362   2.108   4.498
 6376SOL    HW220028   6.451   2.209   4.591
 6377SOL     OW20029   0.650   1.346   4.457
 6377SOL    HW120030   0.738   1.366   4.412
 6377SOL    HW220031   0.648   1.250   4.484
 6378SOL     OW20032   5.131   4.043   4.199
 6378SOL    HW120033   5.034   4.049   4.223
 6378SOL    HW220034   5.154   3.950   4.173
 6379SOL     OW20035   2.240   4.425   3.821
 6379SOL    HW120036   2.184   4.418   3.903
 6379SOL    HW220037   2.219   4.349   3.759
 6380SOL     OW20038   0.692   0.569   6.475
 6380SOL    HW120039   0.755   0.610   6.541
 6380SOL    HW220040   0.723   0.477   6.453
 6381SOL     OW20041   3.135   3.990   3.145
 6381SOL    HW120042   3.087   3.983   3.057
 6381SOL    HW220043   3.228   4.023   3.130
 6382SOL     OW20044   1.133   3.605   5.925
 6382SOL    HW120045   1.214   3.561   5.964
 6382SOL    HW220046   1.057   3.539   5.924
 6383SOL     OW20047   2.535   1.969   4.118
 6383SOL    HW120048   2.544   1.965   4.018
 6383SOL    HW220049   2.441   1.951   4.144
 6384SOL     OW20050   6.897   4.743   2.574
 6384SOL    HW120051   6.916   4.652   2.538
 6384SOL    HW220052   6.798   4.757   2.580
 6385SOL     OW20053   0.787   5.130   4.698
 6385SOL    HW120054   0.764   5.129   4.601
 6385SOL    HW220055   0.874   5.177   4.712
 6386SOL     OW20056   2.811   5.150   1.063
 6386SOL    HW120057   2.768   5.088   1.129
 6386SOL    HW220058   2.757   5.153   0.980
 6387SOL     OW20059   6.401   0.643   5.122
 6387SOL    HW120060   6.386   0.671   5.027
 6387SOL    HW220061   6.313   0.622   5.165
 6388SOL     OW20062   3.124   4.816   2.087
 6388SOL    HW120063   3.194   4.854   2.147
 6388SOL    HW220064   3.034   4.854   2.112
 6389SOL     OW20065   1.413   5.943   3.139
 6389SOL    HW120066   1.460   5.904   3.218
 6389SOL    HW220067   1.450   6.034   3.119
 6390SOL     OW20068   0.911   2.592   3.845
 6390SOL    HW120069   0.887   2.544   3.929
 6390SOL    HW220070   1.010   2.605   3.841
 6391SOL     OW20071   2.435   2.043   0.379
 6391SOL    HW120072   2.394   2.097   0.453
 6391SOL    HW220073   2.529   2.020   0.403
 6392SOL     OW20074   1.408   6.227   3.666
 6392SOL    HW120075   1.357   6.295   3.613
 6392SOL    HW220076   1.348   6.186   3.735
 6393SOL     OW20077   6.279   6.330   0.321
 6393SOL    HW120078   6.191   6.378   0.327
 6393SOL    HW220079   6.299   6.288   0.409
 6394SOL     OW20080   2.217   4.769   0.422
 6394SOL    HW120081   2.122   4.775   0.390
 6394SOL    HW220082   2.250   4.675   0.411
 6395SOL     OW20083   6.271   1.192   0.872
 6395SOL    HW120084   6.316   1.103   0.867
 6395SOL    HW220085   6.339   1.264   0.857
 6396SOL     OW20086   4.982   4.142   5.747
 6396SOL    HW120087   5.071   4.181   5.725
 6396SOL    HW220088   4.992   4.045   5.770
 6397SOL     OW20089   0.061   1.348   0.519
 6397SOL    HW120090   0.135   1.296   0.476
 6397SOL    HW220091   0.010   1.398   0.449
 6398SOL     OW20092   3.031   1.567   1.410
 6398SOL    HW120093   3.040   1.657   1.453
 6398SOL    HW220094   3.121   1.533   1.383
 6399SOL     OW20095   1.817   5.585   6.735
 6399SOL    HW120096   1.768   5.510   6.780
 6399SOL    HW220097   1.869   5.637   6.803
 6400SOL     OW20098   2.691   5.847   3.400
 6400SOL    HW120099   2.739   5.761   3.387
 6400SOL    HW220100   2.692   5.872   3.497
 6401SOL     OW20101   0.212   4.724   3.521
 6401SOL    HW120102   0.249   4.716   3.614
 6401SOL    HW220103   0.241   4.811   3.482
 6402SOL     OW20104   2.334   0.989   3.233
 6402SOL    HW120105   2.257   1.020   3.177
 6402SOL    HW220106   2.390   0.925   3.180
 6403SOL     OW20107   1.205   5.069   6.523
 6403SOL    HW120108   1.140   5.007   6.480
 6403SOL    HW220109   1.208   5.052   6.622
 6404SOL     OW20110   4.934   1.356   3.168
 6404SOL    HW120111   4.843   1.316   3.155
 6404SOL    HW220112   4.927   1.456   3.162
 6405SOL     OW20113   2.633   1.444   2.326
 6405SOL    HW120114   2.628   1.485   2.235
 6405SOL    HW220115   2.676   1.509   2.389
 6406SOL     OW20116   2.367   1.337   4.274
 6406SOL    HW120117   2.418   1.261   4.314
 6406SOL    HW220118   2.291   1.301   4.219
 6407SOL     OW20119   3.630   5.419   5.913
 6407SOL    HW120120   3.647   5.502   5.965
 6407SOL    HW220121   3.540   5.382   5.936
 6408SOL     OW20122   5.227   1.787   6.369
 6408SOL    HW120123   5.193   1.843   6.293
 6408SOL    HW220124   5.151   1.759   6.427
 6409SOL     OW20125   0.241   3.878   2.688
 6409SOL    HW120126   0.193   3.855   2.773
 6409SOL    HW220127   0.325   3.823   2.682
 6410SOL     OW20128   1.846   1.675   0.759
 6410SOL    HW120129   1.881   1.691   0.851
 6410SOL    HW220130   1.866   1.754   0.701
 6411SOL     OW20131   0.855   0.991   3.721
 6411SOL    HW120132   0.911   1.005   3.640
 6411SOL    HW220133   0.911   0.954   3.795
 6412SOL     OW20134   0.363   2.631   5.776
 6412SOL    HW120135   0.456   2.661   5.752
 6412SOL    HW220136   0.308   2.710   5.803
 6413SOL     OW20137   6.705   4.331   1.065
 6413SOL    HW120138   6.714   4.347   1.163
 6413SOL    HW220139   6.681   4.417   1.019
 6414SOL     OW20140   6.413   6.659   2.200
 6414SOL    HW120141   6.397   6.610   2.285
 6414SOL    HW220142   6.325   6.686   2.161
 6415SOL     OW20143   1.870   1.555   1.604
 6415SOL    HW120144   1.912   1.645   1.612
 6415SOL    HW220145   1.779   1.564   1.563
 6416SOL     OW20146   1.513   0.752   6.494
 6416SOL    HW120147   1.519   0.827   6.429
 6416SOL    HW220148   1.473   0.785   6.580
 6417SOL     OW20149   0.895   0.034   3.381
 6417SOL    HW120150   0.829   0.071   3.446
 6417SOL    HW220151   0.869   0.060   3.288
 6418SOL     OW20152   0.190   6.187   2.130
 6418SOL    HW120153   0.130   6.190   2.051
 6418SOL    HW220154   0.282   6.160   2.102
 6419SOL     OW20155   3.742   4.940   1.520
 6419SOL    HW120156   3.709   5.015   1.577
 6419SOL    HW220157   3.839   4.955   1.499
 6420SOL     OW20158   2.254   4.218   6.218
 6420SOL    HW120159   2.278   4.219   6.120
 6420SOL    HW220160   2.335   4.197   6.272
 6421SOL     OW20161   5.760   1.083   1.455
 6421SOL    HW120162   5.815   1.011   1.411
 6421SOL    HW220163   5.731   1.149   1.386
 6422SOL     OW20164   6.839   1.655   3.580
 6422SOL    HW120165   6.897   1.734   3.563
 6422SOL    HW220166   6.770   1.648   3.508
 6423SOL     OW20167   5.124   3.600   0.863
 6423SOL    HW120168   5.073   3.679   0.829
 6423SOL    HW220169   5.210   3.630   0.904
 6424SOL     OW20170   6.991   3.879   5.865
 6424SOL    HW120171   6.987   3.897   5.964
 6424SOL    HW220172   0.031   3.804   5.848
 6425SOL     OW20173   0.919   4.393   2.523
 6425SOL    HW120174   0.988   4.381   2.451
 6425SOL    HW220175   0.874   4.481   2.511
 6426SOL     OW20176   1.063   2.268   3.253
 6426SOL    HW120177   1.090   2.347   3.309
 6426SOL    HW220178   0.964   2.258   3.257
 6427SOL     OW20179   1.487   3.691   5.629
 6427SOL    HW120180   1.528   3.753   5.562
 6427SOL    HW220181   1.540   3.607   5.634
 6428SOL     OW20182   6.733   3.596   1.890
 6428SOL    HW120183   6.691   3.581   1.800
 6428SOL    HW220184   6.708   3.521   1.951
 6429SOL     OW20185   1.284   0.022   4.393
 6429SOL    HW120186   1.243   7.023   4.305
 6429SOL    HW220187   1.212   0.049   4.457
 6430SOL     OW20188   5.920   1.898   1.072
 6430SOL    HW120189   5.832   1.853   1.058
 6430SOL    HW220190   5.908   1.976   1.133
 6431SOL     OW20191   5.671   6.471   2.767
 6431SOL    HW120192   5.699   6.500   2.858
 6431SOL    HW220193   5.608   6.393   2.775
 6432SOL     OW20194   4.936   3.347   0.824
 6432SOL    HW120195   4.991   3.430   0.835
 6432SOL    HW220196   4.900   3.344   0.731
 6433SOL     OW20197   2.830   4.438   1.241
 6433SOL    HW120198   2.808   4.380   1.320
 6433SOL    HW220199   2.847   4.380   1.162
 6434SOL     OW20200   1.392   3.734   0.676
 6434SOL    HW120201   1.463   3.804   0.675
 6434SOL    HW220202   1.428   3.651   0.719
 6435SOL     OW20203   4.374   4.665   6.422
 6435SOL    HW120204   4.307   4.595   6.450
 6435SOL    HW220205   4.466   4.636   6.450
 6436SOL     OW20206   1.503   3.047   3.393
 6436SOL    HW120207   1.507   3.049   3.293
 6436SOL    HW220208   1.463   3.133   3.426
 6437SOL     OW20209   1.437   6.748   6.855
 6437SOL    HW120210   1.370   6.725   6.785
 6437SOL    HW220211   1.529   6.730   6.821
 6438SOL     OW20212   1.050   4.063   3.919
 6438SOL    HW120213   1.030   4.014   3.834
 6438SOL    HW220214   1.146   4.092   3.918
 6439SOL     OW20215   1.242   6.938   1.187
 6439SOL    HW120216   1.321   6.954   1.128
 6439SOL    HW220217   1.240   6.841   1.214
 6440SOL     OW20218   1.493   1.512   2.770
 6440SOL    HW120219   1.536   1.577   2.834
 6440SOL    HW220220   1.549   1.504   2.688
 6441SOL     OW20221   2.042   1.143   3.795
 6441SOL    HW120222   2.031   1.047   3.768
 6441SOL    HW220223   1.995   1.160   3.881
 6442SOL     OW20224   2.273   2.109   4.390
 6442SOL    HW120225   2.316   2.018   4.387
 6442SOL    HW220226   2.342   2.178   4.411
 6443SOL     OW20227   2.743   2.360   0.159
 6443SOL    HW120228   2.681   2.284   0.139
 6443SOL    HW220229   2.746   2.421   0.080
 6444SOL     OW20230   0.745   1.203   3.357
 6444SOL    HW120231   0.762   1.228   3.262
 6444SOL    HW220232   0.675   1.264   3.396
 6445SOL     OW20233   4.097   2.966   5.285
 6445SOL    HW120234   4.085   3.059   5.248
 6445SOL    HW220235   4.010   2.935   5.323
 6446SOL     OW20236   6.115   1.259   0.016
 6446SOL    HW120237   6.213   1.264   7.020
 6446SOL    HW220238   6.085   1.344   0.058
 6447SOL     OW20239   1.646   0.341   2.146
 6447SOL    HW120240   1.651   0.317   2.049
 6447SOL    HW220241   1.554   0.375   2.168
 6448SOL     OW20242   5.702   2.584   3.242
 6448SOL    HW120243   5.711   2.679   3.212
 6448SOL    HW220244   5.783   2.532   3.214
 6449SOL     OW20245   3.097   3.236   0.906
 6449SOL    HW120246   3.018   3.241   0.966
 6449SOL    HW220247   3.176   3.278   0.951
 6450SOL     OW20248   5.614   3.707   1.379
 6450SOL    HW120249   5.522   3.670   1.367
 6450SOL    HW220250   5.680   3.632   1.377
 6451SOL     OW20251   2.746   5.693   5.375
 6451SOL    HW120252   2.740   5.784   5.416
 6451SOL    HW220253   2.837   5.654   5.393
 6452SOL     OW20254   3.459   6.697   4.215
 6452SOL    HW120255   3.551   6.714   4.180
 6452SOL    HW220256   3.456   6.608   4.260
 6453SOL     OW20257   1.627   6.401   6.769
 6453SOL    HW120258   1.683   6.355   6.700
 6453SOL    HW220259   1.634   6.351   6.856
 6454SOL     OW20260   3.261   1.671   4.788
 6454SOL    HW120261   3.235   1.766   4.806
 6454SOL    HW220262   3.207   1.636   4.712
 6455SOL     OW20263   6.354   2.665   5.141
 6455SOL    HW120264   6.421   2.735   5.164
 6455SOL    HW220265   6.315   2.627   5.225
 6456SOL     OW20266   0.627   0.588   3.006
 6456SOL    HW120267   0.676   0.569   3.091
 6456SOL    HW220268   0.561   0.515   2.988
 6457SOL     OW20269   6.536   2.340   1.227
 6457SOL    HW120270   6.561   2.417   1.285
 6457SOL    HW220271   6.603   2.266   1.239
 6458SOL     OW20272   1.392   5.533   3.483
 6458SOL    HW120273   1.322   5.587   3.437
 6458SOL    HW220274   1.409   5.570   3.574
 6459SOL     OW20275   5.649   4.382   6.838
 6459SOL    HW120276   5.701   4.325   6.774
 6459SOL    HW220277   5.680   4.364   6.931
 6460SOL     OW20278   3.479   4.989   6.329
 6460SOL    HW120279   3.432   4.951   6.250
 6460SOL    HW220280   3.469   5.088   6.330
 6461SOL     OW20281   3.719   5.052   5.434
 6461SOL    HW120282   3.676   4.965   5.410
 6461SOL    HW220283   3.744   5.051   5.531
 6462SOL     OW20284   2.232   3.517   5.158
 6462SOL    HW120285   2.227   3.602   5.210
 6462SOL    HW220286   2.288   3.450   5.209
 6463SOL     OW20287   2.040   4.451   6.165
 6463SOL    HW120288   1.955   4.399   6.176
 6463SOL    HW220289   2.118   4.388   6.166
 6464SOL     OW20290   0.241   5.336   3.092
 6464SOL    HW120291   0.255   5.274   3.015
 6464SOL    HW220292   0.278   5.426   3.070
 6465SOL     OW20293   6.395   1.802   3.497
 6465SOL    HW120294   6.305   1.846   3.496
 6465SOL    HW220295   6.425   1.790   3.592
 6466SOL     OW20296   0.543   2.268   5.367
 6466SOL    HW120297   0.596   2.324   5.430
 6466SOL    HW220298   0.585   2.178   5.359
 6467SOL     OW20299   2.776   1.078   6.601
 6467SOL    HW120300   2.725   1.100   6.518
 6467SOL    HW220301   2.862   1.034   6.577
 6468SOL     OW20302   4.664   6.108   1.214
 6468SOL    HW120303   4.759   6.091   1.240
 6468SOL    HW220304   4.619   6.163   1.285
 6469SOL     OW20305   6.647   1.046   5.551
 6469SOL    HW120306   6.662   1.008   5.460
 6469SOL    HW220307   6.731   1.041   5.604
 6470SOL     OW20308   6.102   0.045   5.860
 6470SOL    HW120309   6.148   7.023   5.936
 6470SOL    HW220310   6.158   0.037   5.777
 6471SOL     OW20311   6.477   4.845   6.633
 6471SOL    HW120312   6.496   4.849   6.535
 6471SOL    HW220313   6.416   4.768   6.652
 6472SOL     OW20314   0.936   6.557   1.992
 6472SOL    HW120315   1.026   6.600   1.978
 6472SOL    HW220316   0.946   6.477   2.050
 6473SOL     OW20317   2.253   1.422   6.306
 6473SOL    HW120318   2.224   1.331   6.335
 6473SOL    HW220319   2.257   1.483   6.385
 6474SOL     OW20320   1.290   3.609   5.418
 6474SOL    HW120321   1.359   3.559   5.365
 6474SOL    HW220322   1.322   3.622   5.511
 6475SOL     OW20323   4.310   6.116   3.975
 6475SOL    HW120324   4.360   6.170   4.042
 6475SOL    HW220325   4.225   6.082   4.015
 6476SOL     OW20326   4.981   4.638   2.632
 6476SOL    HW120327   4.993   4.619   2.535
 6476SOL    HW220328   4.887   4.615   2.658
 6477SOL     OW20329   6.562   5.537   0.417
 6477SOL    HW120330   6.575   5.636   0.422
 6477SOL    HW220331   6.638   5.490   0.461
 6478SOL     OW20332   5.043   6.574   2.006
 6478SOL    HW120333   5.066   6.496   2.064
 6478SOL    HW220334   5.018   6.653   2.063
 6479SOL     OW20335   4.285   5.170   2.308
 6479SOL    HW120336   4.308   5.246   2.369
 6479SOL    HW220337   4.235   5.099   2.360
 6480SOL     OW20338   2.990   2.558   0.119
 6480SOL    HW120339   2.909   2.543   0.062
 6480SOL    HW220340   3.014   2.656   0.117
 6481SOL     OW20341   3.982   0.973   1.687
 6481SOL    HW120342   3.913   0.991   1.617
 6481SOL    HW220343   4.068   1.018   1.663
 6482SOL     OW20344   0.069   0.348   6.667
 6482SOL    HW120345   0.138   0.321   6.735
 6482SOL    HW220346   0.115   0.389   6.588
 6483SOL     OW20347   1.255   6.966   2.598
 6483SOL    HW120348   1.259   0.012   2.670
 6483SOL    HW220349   1.348   6.935   2.577
 6484SOL     OW20350   4.320   0.553   3.203
 6484SOL    HW120351   4.342   0.643   3.240
 6484SOL    HW220352   4.375   0.536   3.122
 6485SOL     OW20353   1.807   2.539   3.255
 6485SOL    HW120354   1.709   2.525   3.261
 6485SOL    HW220355   1.835   2.540   3.159
 6486SOL     OW20356   1.465   3.771   3.805
 6486SOL    HW120357   1.384   3.744   3.859
 6486SOL    HW220358   1.450   3.747   3.709
 6487SOL     OW20359   6.065   6.546   4.370
 6487SOL    HW120360   6.138   6.595   4.418
 6487SOL    HW220361   6.017   6.609   4.309
 6488SOL     OW20362   3.022   5.018   5.848
 6488SOL    HW120363   2.966   4.966   5.912
 6488SOL    HW220364   2.994   4.996   5.754
 6489SOL     OW20365   1.654   1.849   5.461
 6489SOL    HW120366   1.601   1.769   5.436
 6489SOL    HW220367   1.745   1.821   5.493
 6490SOL     OW20368   3.563   1.735   0.361
 6490SOL    HW120369   3.559   1.827   0.400
 6490SOL    HW220370   3.658   1.710   0.344
 6491SOL     OW20371   4.478   1.686   6.027
 6491SOL    HW120372   4.524   1.681   5.938
 6491SOL    HW220373   4.430   1.773   6.035
 6492SOL     OW20374   6.196   6.566   6.917
 6492SOL    HW120375   6.270   6.519   6.967
 6492SOL    HW220376   6.152   6.631   6.979
 6493SOL     OW20377   1.616   6.667   6.048
 6493SOL    HW120378   1.714   6.649   6.055
 6493SOL    HW220379   1.600   6.766   6.045
 6494SOL     OW20380   0.749   0.502   3.253
 6494SOL    HW120381   0.837   0.543   3.225
 6494SOL    HW220382   0.748   0.490   3.352
 6495SOL     OW20383   5.583   4.957   2.967
 6495SOL    HW120384   5.664   4.930   2.914
 6495SOL    HW220385   5.585   5.056   2.983
 6496SOL     OW20386   1.083   6.889   2.378
 6496SOL    HW120387   0.988   6.867   2.399
 6496SOL    HW220388   1.134   6.901   2.464
 6497SOL     OW20389   1.760   4.085   0.364
 6497SOL    HW120390   1.701   4.150   0.316
 6497SOL    HW220391   1.826   4.047   0.299
 6498SOL     OW20392   2.237   4.188   4.037
 6498SOL    HW120393   2.254   4.116   4.105
 6498SOL    HW220394   2.258   4.153   3.945
 6499SOL     OW20395   5.389   1.468   3.492
 6499SOL    HW120396   5.313   1.422   3.445
 6499SOL    HW220397   5.459   1.493   3.425
 6500SOL     OW20398   4.737   4.687   3.395
 6500SOL    HW120399   4.737   4.775   3.443
 6500SOL    HW220400   4.828   4.669   3.358
 6501SOL     OW20401   6.249   3.895   1.438
 6501SOL    HW120402   6.189   3.891   1.517
 6501SOL    HW220403   6.338   3.932   1.465
 6502SOL     OW20404   0.964   4.893   3.175
 6502SOL    HW120405   1.009   4.981   3.159
 6502SOL    HW220406   0.889   4.905   3.241
 6503SOL     OW20407   4.840   6.769   4.803
 6503SOL    HW120408   4.920   6.739   4.751
 6503SOL    HW220409   4.818   6.700   4.872
 6504SOL     OW20410   3.555   0.932   0.706
 6504SOL    HW120411   3.536   0.843   0.664
 6504SOL    HW220412   3.514   1.004   0.650
 6505SOL     OW20413   5.829   5.121   1.110
 6505SOL    HW120414   5.753   5.066   1.077
 6505SOL    HW220415   5.879   5.160   1.032
 6506SOL     OW20416   1.663   2.933   1.115
 6506SOL    HW120417   1.576   2.889   1.094
 6506SOL    HW220418   1.648   3.014   1.172
 6507SOL     OW20419   2.318   6.731   1.413
 6507SOL    HW120420   2.343   6.811   1.468
 6507SOL    HW220421   2.257   6.672   1.466
 6508SOL     OW20422   2.236   2.086   3.461
 6508SOL    HW120423   2.186   2.018   3.407
 6508SOL    HW220424   2.317   2.115   3.411
 6509SOL     OW20425   1.040   2.930   4.846
 6509SOL    HW120426   1.139   2.937   4.833
 6509SOL    HW220427   1.010   2.836   4.828
 6510SOL     OW20428   6.013   4.835   6.595
 6510SOL    HW120429   6.051   4.818   6.504
 6510SOL    HW220430   6.032   4.929   6.622
 6511SOL     OW20431   6.616   6.526   6.017
 6511SOL    HW120432   6.611   6.430   6.045
 6511SOL    HW220433   6.707   6.562   6.036
 6512SOL     OW20434   5.498   6.980   3.328
 6512SOL    HW120435   5.479   0.054   3.330
 6512SOL    HW220436   5.425   6.931   3.375
 6513SOL     OW20437   3.940   6.823   3.039
 6513SOL    HW120438   4.035   6.826   3.007
 6513SOL    HW220439   3.894   6.908   3.014
 6514SOL     OW20440   4.231   0.320   4.037
 6514SOL    HW120441   4.295   0.396   4.053
 6514SOL    HW220442   4.137   0.355   4.040
 6515SOL     OW20443   0.552   6.503   4.713
 6515SOL    HW120444   0.613   6.561   4.768
 6515SOL    HW220445   0.576   6.407   4.727
 6516SOL     OW20446   0.958   1.805   5.528
 6516SOL    HW120447   0.991   1.720   5.487
 6516SOL    HW220448   0.922   1.865   5.457
 6517SOL     OW20449   0.834   1.311   0.454
 6517SOL    HW120450   0.922   1.309   0.501
 6517SOL    HW220451   0.784   1.226   0.473
 6518SOL     OW20452   6.900   6.088   1.038
 6518SOL    HW120453   6.948   6.174   1.054
 6518SOL    HW220454   6.878   6.079   0.941
 6519SOL     OW20455   1.920   2.079   4.426
 6519SOL    HW120456   1.832   2.104   4.467
 6519SOL    HW220457   1.961   2.159   4.383
 6520SOL     OW20458   6.190   5.790   1.664
 6520SOL    HW120459   6.175   5.770   1.567
 6520SOL    HW220460   6.281   5.829   1.676
 6521SOL     OW20461   0.016   1.891   5.253
 6521SOL    HW120462   0.019   1.969   5.316
 6521SOL    HW220463   6.986   1.916   5.172
 6522SOL     OW20464   2.427   5.339   6.603
 6522SOL    HW120465   2.362   5.283   6.655
 6522SOL    HW220466   2.393   5.351   6.510
 6523SOL     OW20467   1.845   1.387   6.036
 6523SOL    HW120468   1.903   1.466   6.013
 6523SOL    HW220469   1.750   1.417   6.045
 6524SOL     OW20470   4.078   3.458   3.373
 6524SOL    HW120471   4.075   3.358   3.373
 6524SOL    HW220472   4.065   3.492   3.466
 6525SOL     OW20473   0.380   3.059   3.211
 6525SOL    HW120474   0.408   3.057   3.115
 6525SOL    HW220475   0.424   3.136   3.257
 6526SOL     OW20476   1.712   5.906   5.158
 6526SOL    HW120477   1.674   5.813   5.158
 6526SOL    HW220478   1.695   5.949   5.247
 6527SOL     OW20479   1.099   6.774   4.927
 6527SOL    HW120480   1.199   6.776   4.914
 6527SOL    HW220481   1.079   6.761   5.024
 6528SOL     OW20482   0.114   1.748   4.502
 6528SOL    HW120483   0.046   1.737   4.575
 6528SOL    HW220484   0.124   1.661   4.453
 6529SOL     OW20485   6.705   1.281   1.694
 6529SOL    HW120486   6.611   1.317   1.700
 6529SOL    HW220487   6.724   1.226   1.776
 6530SOL     OW20488   6.792   1.779   0.476
 6530SOL    HW120489   6.823   1.705   0.418
 6530SOL    HW220490   6.734   1.742   0.549
 6531SOL     OW20491   5.639   3.093   4.002
 6531SOL    HW120492   5.621   3.003   4.040
 6531SOL    HW220493   5.653   3.086   3.903
 6532SOL     OW20494   6.553   1.473   6.123
 6532SOL    HW120495   6.636   1.492   6.070
 6532SOL    HW220496   6.530   1.376   6.117
 6533SOL     OW20497   4.935   0.186   1.428
 6533SOL    HW120498   4.898   0.161   1.339
 6533SOL    HW220499   4.944   0.103   1.485
 6534SOL     OW20500   2.264   4.375   1.021
 6534SOL    HW120501   2.288   4.449   1.084
 6534SOL    HW220502   2.347   4.345   0.973
 6535SOL     OW20503   0.300   3.664   5.415
 6535SOL    HW120504   0.254   3.728   5.476
 6535SOL    HW220505   0.237   3.636   5.343
 6536SOL     OW20506   5.901   1.793   6.889
 6536SOL    HW120507   5.947   1.716   6.843
 6536SOL    HW220508   5.968   1.847   6.938
 6537SOL     OW20509   0.939   6.791   0.305
 6537SOL    HW120510   0.856   6.847   0.302
 6537SOL    HW220511   0.918   6.701   0.344
 6538SOL     OW20512   2.963   3.784   0.087
 6538SOL    HW120513   3.029   3.820   0.021
 6538SOL    HW220514   3.011   3.746   0.166
 6539SOL     OW20515   2.585   1.714   7.008
 6539SOL    HW120516   2.637   1.656   6.945
 6539SOL    HW220517   2.488   1.708   6.987
 6540SOL     OW20518   2.890   1.372   4.600
 6540SOL    HW120519   2.829   1.451   4.596
 6540SOL    HW220520   2.877   1.324   4.687
 6541SOL     OW20521   2.615   2.526   6.216
 6541SOL    HW120522   2.638   2.443   6.165
 6541SOL    HW220523   2.519   2.549   6.200
 6542SOL     OW20524   6.236   4.280   3.918
 6542SOL    HW120525   6.192   4.190   3.914
 6542SOL    HW220526   6.171   4.347   3.951
 6543SOL     OW20527   6.375   6.128   6.791
 6543SOL    HW120528   6.402   6.058   6.725
 6543SOL    HW220529   6.351   6.212   6.743
 6544SOL     OW20530   6.328   6.587   4.102
 6544SOL    HW120531   6.406   6.645   4.125
 6544SOL    HW220532   6.246   6.643   4.091
 6545SOL     OW20533   5.066   1.842   5.231
 6545SOL    HW120534   5.044   1.745   5.232
 6545SOL    HW220535   5.054   1.880   5.323
 6546SOL     OW20536   3.000   4.710   6.110
 6546SOL    HW120537   2.976   4.724   6.206
 6546SOL    HW220538   2.929   4.751   6.052
 6547SOL     OW20539   5.151   2.399   6.670
 6547SOL    HW120540   5.164   2.360   6.761
 6547SOL    HW220541   5.233   2.383   6.614
 6548SOL     OW20542   6.921   4.417   6.056
 6548SOL    HW120543   6.996   4.358   6.088
 6548SOL    HW220544   6.833   4.376   6.082
 6549SOL     OW20545   2.996   2.285   0.784
 6549SOL    HW120546   3.066   2.353   0.806
 6549SOL    HW220547   3.039   2.196   0.769
 6550SOL     OW20548   0.389   5.888   3.665
 6550SOL    HW120549   0.371   5.813   3.729
 6550SOL    HW220550   0.310   5.949   3.661
 6551SOL     OW20551   1.777   4.790   1.788
 6551SOL    HW120552   1.689   4.773   1.745
 6551SOL    HW220553   1.840   4.716   1.766
 6552SOL     OW20554   2.849   4.774   5.661
 6552SOL    HW120555   2.825   4.864   5.625
 6552SOL    HW220556   2.906   4.726   5.595
 6553SOL     OW20557   0.905   3.183   2.574
 6553SOL    HW120558   0.980   3.130   2.614
 6553SOL    HW220559   0.845   3.216   2.647
 6554SOL     OW20560   6.491   2.380   5.379
 6554SOL    HW120561   6.512   2.340   5.290
 6554SOL    HW220562   6.453   2.309   5.439
 6555SOL     OW20563   0.965   1.447   1.795
 6555SOL    HW120564   1.042   1.396   1.757
 6555SOL    HW220565   0.899   1.465   1.722
 6556SOL     OW20566   3.412   5.822   4.203
 6556SOL    HW120567   3.460   5.909   4.215
 6556SOL    HW220568   3.378   5.815   4.109
 6557SOL     OW20569   6.272   5.280   0.830
 6557SOL    HW120570   6.272   5.184   0.858
 6557SOL    HW220571   6.209   5.293   0.754
 6558SOL     OW20572   6.213   5.793   7.017
 6558SOL    HW120573   6.294   5.811   0.049
 6558SOL    HW220574   6.163   5.714   0.031
 6559SOL     OW20575   4.020   4.190   0.865
 6559SOL    HW120576   4.011   4.092   0.848
 6559SOL    HW220577   4.081   4.230   0.797
 6560SOL     OW20578   3.685   2.323   0.220
 6560SOL    HW120579   3.715   2.244   0.274
 6560SOL    HW220580   3.587   2.339   0.236
 6561SOL     OW20581   4.133   3.322   3.074
 6561SOL    HW120582   4.080   3.237   3.072
 6561SOL    HW220583   4.205   3.313   3.144
 6562SOL     OW20584   6.088   4.453   5.944
 6562SOL    HW120585   6.029   4.416   5.873
 6562SOL    HW220586   6.184   4.437   5.920
 6563SOL     OW20587   1.063   5.518   1.689
 6563SOL    HW120588   1.057   5.548   1.784
 6563SOL    HW220589   0.988   5.454   1.670
 6564SOL     OW20590   1.338   4.529   2.026
 6564SOL    HW120591   1.246   4.551   1.993
 6564SOL    HW220592   1.342   4.433   2.053
 6565SOL     OW20593   6.711   2.737   5.126
 6565SOL    HW120594   6.647   2.809   5.151
 6565SOL    HW220595   6.723   2.736   5.026
 6566SOL     OW20596   3.171   6.617   1.133
 6566SOL    HW120597   3.211   6.549   1.072
 6566SOL    HW220598   3.145   6.574   1.219
 6567SOL     OW20599   5.077   2.563   0.937
 6567SOL    HW120600   5.083   2.653   0.980
 6567SOL    HW220601   4.984   2.527   0.946
 6568SOL     OW20602   4.440   4.464   1.431
 6568SOL    HW120603   4.396   4.454   1.520
 6568SOL    HW220604   4.537   4.483   1.444
 6569SOL     OW20605   1.472   4.502   6.981
 6569SOL    HW120606   1.490   4.588   0.004
 6569SOL    HW220607   1.436   4.519   6.890
 6570SOL     OW20608   5.699   2.041   1.584
 6570SOL    HW120609   5.642   2.003   1.657
 6570SOL    HW220610   5.789   1.999   1.587
 6571SOL     OW20611   2.437   6.094   3.374
 6571SOL    HW120612   2.415   6.005   3.334
 6571SOL    HW220613   2.440   6.085   3.474
 6572SOL     OW20614   0.231   4.305   5.808
 6572SOL    HW120615   0.313   4.345   5.849
 6572SOL    HW220616   0.196   4.366   5.737
 6573SOL     OW20617   2.626   1.198   2.444
 6573SOL    HW120618   2.663   1.113   2.408
 6573SOL    HW220619   2.654   1.274   2.385
 6574SOL     OW20620   2.814   4.896   2.845
 6574SOL    HW120621   2.835   4.992   2.828
 6574SOL    HW220622   2.751   4.862   2.775
 6575SOL     OW20623   1.393   1.604   2.260
 6575SOL    HW120624   1.361   1.628   2.352
 6575SOL    HW220625   1.322   1.554   2.211
 6576SOL     OW20626   1.651   5.887   6.426
 6576SOL    HW120627   1.664   5.819   6.353
 6576SOL    HW220628   1.562   5.874   6.468
 6577SOL     OW20629   0.003   2.035   3.830
 6577SOL    HW120630   0.068   2.104   3.863
 6577SOL    HW220631   0.025   2.009   3.737
 6578SOL     OW20632   6.511   5.488   3.815
 6578SOL    HW120633   6.436   5.487   3.880
 6578SOL    HW220634   6.482   5.534   3.731
 6579SOL     OW20635   6.871   4.307   3.210
 6579SOL    HW120636   6.797   4.277   3.150
 6579SOL    HW220637   6.833   4.342   3.296
 6580SOL     OW20638   5.851   1.687   2.245
 6580SOL    HW120639   5.799   1.770   2.265
 6580SOL    HW220640   5.827   1.616   2.311
 6581SOL     OW20641   3.168   2.093   6.727
 6581SOL    HW120642   3.133   2.018   6.670
 6581SOL    HW220643   3.102   2.112   6.800
 6582SOL     OW20644   6.765   0.195   2.804
 6582SOL    HW120645   6.748   0.229   2.897
 6582SOL    HW220646   6.767   0.272   2.740
 6583SOL     OW20647   5.267   1.799   5.584
 6583SOL    HW120648   5.320   1.716   5.563
 6583SOL    HW220649   5.198   1.813   5.513
 6584SOL     OW20650   6.037   1.621   6.708
 6584SOL    HW120651   6.026   1.687   6.634
 6584SOL    HW220652   5.966   1.550   6.700
 6585SOL     OW20653   1.098   1.774   6.750
 6585SOL    HW120654   1.161   1.722   6.692
 6585SOL    HW220655   1.004   1.744   6.733
 6586SOL     OW20656   6.260   1.828   6.132
 6586SOL    HW120657   6.278   1.730   6.145
 6586SOL    HW220658   6.259   1.849   6.034
 6587SOL     OW20659   2.274   6.514   3.068
 6587SOL    HW120660   2.321   6.549   2.987
 6587SOL    HW220661   2.193   6.463   3.039
 6588SOL     OW20662   1.638   2.877   6.884
 6588SOL    HW120663   1.687   2.809   6.831
 6588SOL    HW220664   1.577   2.929   6.824
 6589SOL     OW20665   4.566   1.503   5.274
 6589SOL    HW120666   4.473   1.469   5.286
 6589SOL    HW220667   4.611   1.453   5.200
 6590SOL     OW20668   0.281   1.427   5.547
 6590SOL    HW120669   0.237   1.427   5.457
 6590SOL    HW220670   0.367   1.478   5.542
 6591SOL     OW20671   6.014   0.905   3.023
 6591SOL    HW120672   5.920   0.937   3.011
 6591SOL    HW220673   6.017   0.838   3.098
 6592SOL     OW20674   4.525   5.609   4.444
 6592SOL    HW120675   4.587   5.552   4.391
 6592SOL    HW220676   4.521   5.576   4.539
 6593SOL     OW20677   3.335   1.597   3.135
 6593SOL    HW120678   3.355   1.628   3.042
 6593SOL    HW220679   3.290   1.508   3.131
 6594SOL     OW20680   5.481   0.692   6.636
 6594SOL    HW120681   5.497   0.609   6.583
 6594SOL    HW220682   5.443   0.668   6.725
 6595SOL     OW20683   1.734   3.802   1.221
 6595SOL    HW120684   1.722   3.785   1.123
 6595SOL    HW220685   1.790   3.884   1.234
 6596SOL     OW20686   4.611   0.031   4.798
 6596SOL    HW120687   4.582   6.983   4.862
 6596SOL    HW220688   4.705   0.059   4.820
 6597SOL     OW20689   0.630   5.651   4.722
 6597SOL    HW120690   0.608   5.748   4.719
 6597SOL    HW220691   0.657   5.620   4.630
 6598SOL     OW20692   2.060   5.832   4.945
 6598SOL    HW120693   1.985   5.887   4.909
 6598SOL    HW220694   2.034   5.792   5.033
 6599SOL     OW20695   4.417   4.871   6.197
 6599SOL    HW120696   4.349   4.941   6.175
 6599SOL    HW220697   4.377   4.805   6.261
 6600SOL     OW20698   4.604   5.742   3.989
 6600SOL    HW120699   4.609   5.806   4.066
 6600SOL    HW220700   4.634   5.788   3.905
 6601SOL     OW20701   0.540   0.273   0.043
 6601SOL    HW120702   0.486   0.190   0.030
 6601SOL    HW220703   0.554   0.289   0.140
 6602SOL     OW20704   6.737   1.453   1.452
 6602SOL    HW120705   6.680   1.535   1.454
 6602SOL    HW220706   6.698   1.384   1.513
 6603SOL     OW20707   2.071   3.599   3.265
 6603SOL    HW120708   2.032   3.656   3.337
 6603SOL    HW220709   2.085   3.653   3.183
 6604SOL     OW20710   3.087   5.450   2.567
 6604SOL    HW120711   3.169   5.496   2.531
 6604SOL    HW220712   3.029   5.423   2.490
 6605SOL     OW20713   5.938   5.965   7.023
 6605SOL    HW120714   5.898   5.943   0.088
 6605SOL    HW220715   6.038   5.958   0.006
 6606SOL     OW20716   5.082   1.415   2.528
 6606SOL    HW120717   5.154   1.423   2.460
 6606SOL    HW220718   5.038   1.325   2.520
 6607SOL     OW20719   2.135   1.299   2.246
 6607SOL    HW120720   2.143   1.224   2.312
 6607SOL    HW220721   2.163   1.385   2.290
 6608SOL     OW20722   5.779   4.121   3.532
 6608SOL    HW120723   5.800   4.122   3.630
 6608SOL    HW220724   5.798   4.211   3.492
 6609SOL     OW20725   5.141   1.165   6.078
 6609SOL    HW120726   5.144   1.068   6.103
 6609SOL    HW220727   5.228   1.208   6.102
 6610SOL     OW20728   2.766   0.429   0.334
 6610SOL    HW120729   2.718   0.391   0.413
 6610SOL    HW220730   2.769   0.361   0.261
 6611SOL     OW20731   5.954   2.428   2.497
 6611SOL    HW120732   5.867   2.473   2.515
 6611SOL    HW220733   5.985   2.450   2.404
 6612SOL     OW20734   1.448   6.388   0.158
 6612SOL    HW120735   1.430   6.487   0.159
 6612SOL    HW220736   1.385   6.343   0.221
 6613SOL     OW20737   4.637   4.960   1.817
 6613SOL    HW120738   4.546   4.921   1.803
 6613SOL    HW220739   4.630   5.060   1.820
 6614SOL     OW20740   4.919   5.972   6.038
 6614SOL    HW120741   4.834   6.021   6.024
 6614SOL    HW220742   4.984   6.030   6.086
 6615SOL     OW20743   0.884   3.847   5.093
 6615SOL    HW120744   0.882   3.805   5.184
 6615SOL    HW220745   0.943   3.793   5.033
 6616SOL     OW20746   5.328   0.891   4.762
 6616SOL    HW120747   5.311   0.983   4.727
 6616SOL    HW220748   5.306   0.824   4.691
 6617SOL     OW20749   4.094   6.942   5.165
 6617SOL    HW120750   4.003   6.901   5.168
 6617SOL    HW220751   4.158   6.880   5.120
 6618SOL     OW20752   1.073   4.583   1.914
 6618SOL    HW120753   1.041   4.627   1.998
 6618SOL    HW220754   1.047   4.638   1.835
 6619SOL     OW20755   4.613   5.501   2.440
 6619SOL    HW120756   4.610   5.597   2.412
 6619SOL    HW220757   4.587   5.493   2.536
 6620SOL     OW20758   1.300   2.868   5.684
 6620SOL    HW120759   1.318   2.856   5.782
 6620SOL    HW220760   1.347   2.950   5.651
 6621SOL     OW20761   2.607   4.445   0.292
 6621SOL    HW120762   2.623   4.531   0.339
 6621SOL    HW220763   2.611   4.369   0.357
 6622SOL     OW20764   6.760   6.242   0.468
 6622SOL    HW120765   6.733   6.326   0.421
 6622SOL    HW220766   6.850   6.213   0.436
 6623SOL     OW20767   3.245   3.321   2.449
 6623SOL    HW120768   3.150   3.316   2.480
 6623SOL    HW220769   3.251   3.378   2.367
 6624SOL     OW20770   4.220   5.331   4.454
 6624SOL    HW120771   4.295   5.280   4.496
 6624SOL    HW220772   4.155   5.359   4.525
 6625SOL     OW20773   6.565   0.855   6.739
 6625SOL    HW120774   6.596   0.830   6.647
 6625SOL    HW220775   6.550   0.772   6.793
 6626SOL     OW20776   3.767   5.120   3.260
 6626SOL    HW120777   3.747   5.023   3.271
 6626SOL    HW220778   3.696   5.175   3.303
 6627SOL     OW20779   2.082   0.406   0.686
 6627SOL    HW120780   2.093   0.316   0.644
 6627SOL    HW220781   2.166   0.460   0.674
 6628SOL     OW20782   4.083   5.903   3.249
 6628SOL    HW120783   3.996   5.855   3.248
 6628SOL    HW220784   4.072   5.995   3.212
 6629SOL     OW20785   3.568   5.440   0.931
 6629SOL    HW120786   3.640   5.494   0.887
 6629SOL    HW220787   3.527   5.378   0.864
 6630SOL     OW20788   3.128   1.878   0.496
 6630SOL    HW120789   3.185   1.796   0.491
 6630SOL    HW220790   3.099   1.904   0.404
 6631SOL     OW20791   5.261   0.782   2.393
 6631SOL    HW120792   5.225   0.709   2.335
 6631SOL    HW220793   5.350   0.756   2.429
 6632SOL     OW20794   6.944   0.591   1.043
 6632SOL    HW120795   6.924   0.498   1.013
 6632SOL    HW220796   6.985   0.643   0.968
 6633SOL     OW20797   1.705   6.751   1.247
 6633SOL    HW120798   1.704   6.657   1.280
 6633SOL    HW220799   1.760   6.808   1.309
 6634SOL     OW20800   6.857   2.785   6.335
 6634SOL    HW120801   6.844   2.694   6.374
 6634SOL    HW220802   6.769   2.833   6.332
 6635SOL     OW20803   4.493   4.580   3.435
 6635SOL    HW120804   4.505   4.525   3.352
 6635SOL    HW220805   4.572   4.639   3.447
 6636SOL     OW20806   2.192   2.456   4.057
 6636SOL    HW120807   2.285   2.478   4.087
 6636SOL    HW220808   2.188   2.458   3.957
 6637SOL     OW20809   0.348   6.985   1.058
 6637SOL    HW120810   0.367   6.959   1.153
 6637SOL    HW220811   0.285   0.038   1.056
 6638SOL     OW20812   2.560   5.879   5.746
 6638SOL    HW120813   2.516   5.791   5.759
 6638SOL    HW220814   2.659   5.869   5.752
 6639SOL     OW20815   5.855   5.319   6.725
 6639SOL    HW120816   5.927   5.328   6.794
 6639SOL    HW220817   5.832   5.409   6.689
 6640SOL     OW20818   6.827   2.090   3.384
 6640SOL    HW120819   6.847   2.184   3.410
 6640SOL    HW220820   6.842   2.078   3.286
 6641SOL     OW20821   1.861   4.204   6.092
 6641SOL    HW120822   1.813   4.126   6.132
 6641SOL    HW220823   1.914   4.173   6.012
 6642SOL     OW20824   0.659   5.720   6.640
 6642SOL    HW120825   0.661   5.653   6.714
 6642SOL    HW220826   0.753   5.746   6.616
 6643SOL     OW20827   5.177   4.696   6.748
 6643SOL    HW120828   5.101   4.699   6.684
 6643SOL    HW220829   5.252   4.753   6.715
 6644SOL     OW20830   2.823   4.817   2.115
 6644SOL    HW120831   2.819   4.727   2.071
 6644SOL    HW220832   2.760   4.880   2.070
 6645SOL     OW20833   0.215   4.950   5.816
 6645SOL    HW120834   0.254   4.864   5.783
 6645SOL    HW220835   0.141   4.930   5.880
 6646SOL     OW20836   2.483   5.809   3.739
 6646SOL    HW120837   2.439   5.821   3.650
 6646SOL    HW220838   2.482   5.896   3.789
 6647SOL     OW20839   3.019   1.446   1.907
 6647SOL    HW120840   3.042   1.540   1.880
 6647SOL    HW220841   3.100   1.402   1.945
 6648SOL     OW20842   4.832   5.556   2.214
 6648SOL    HW120843   4.754   5.569   2.275
 6648SOL    HW220844   4.876   5.645   2.198
 6649SOL     OW20845   4.421   2.297   6.278
 6649SOL    HW120846   4.416   2.282   6.377
 6649SOL    HW220847   4.516   2.284   6.247
 6650SOL     OW20848   4.023   1.862   3.554
 6650SOL    HW120849   4.102   1.888   3.498
 6650SOL    HW220850   3.944   1.845   3.495
 6651SOL     OW20851   0.699   2.579   7.003
 6651SOL    HW120852   0.769   2.617   6.944
 6651SOL    HW220853   0.622   2.546   6.947
 6652SOL     OW20854   6.760   5.824   2.156
 6652SOL    HW120855   6.686   5.858   2.099
 6652SOL    HW220856   6.848   5.852   2.118
 6653SOL     OW20857   3.931   3.990   4.216
 6653SOL    HW120858   3.902   4.085   4.220
 6653SOL    HW220859   3.853   3.931   4.196
 6654SOL     OW20860   2.193   3.220   1.719
 6654SOL    HW120861   2.182   3.276   1.636
 6654SOL    HW220862   2.232   3.276   1.792
 6655SOL     OW20863   2.971   6.664   2.109
 6655SOL    HW120864   2.891   6.641   2.054
 6655SOL    HW220865   2.989   6.591   2.174
 6656SOL     OW20866   6.208   2.127   1.492
 6656SOL    HW120867   6.239   2.162   1.403
 6656SOL    HW220868   6.112   2.150   1.505
 6657SOL     OW20869   3.024   6.282   6.589
 6657SOL    HW120870   2.990   6.349   6.523
 6657SOL    HW220871   3.107   6.318   6.633
 6658SOL     OW20872   5.928   1.098   4.977
 6658SOL    HW120873   5.991   1.141   4.913
 6658SOL    HW220874   5.906   1.006   4.946
 6659SOL     OW20875   2.088   3.195   0.272
 6659SOL    HW120876   2.034   3.136   0.333
 6659SOL    HW220877   2.079   3.162   0.178
 6660SOL     OW20878   6.851   6.921   2.855
 6660SOL    HW120879   6.881   6.920   2.950
 6660SOL    HW220880   6.825   7.015   2.829
 6661SOL     OW20881   0.274   5.732   3.862
 6661SOL    HW120882   0.326   5.676   3.927
 6661SOL    HW220883   0.269   5.826   3.897
 6662SOL     OW20884   1.331   1.559   0.116
 6662SOL    HW120885   1.318   1.578   0.214
 6662SOL    HW220886   1.243   1.567   0.069
 6663SOL     OW20887   0.422   5.732   2.265
 6663SOL    HW120888   0.500   5.703   2.320
 6663SOL    HW220889   0.393   5.657   2.205
 6664SOL     OW20890   1.526   0.729   2.070
 6664SOL    HW120891   1.513   0.630   2.081
 6664SOL    HW220892   1.479   0.778   2.142
 6665SOL     OW20893   1.989   6.675   3.004
 6665SOL    HW120894   2.075   6.727   3.003
 6665SOL    HW220895   2.008   6.579   2.986
 6666SOL     OW20896   6.071   0.683   5.920
 6666SOL    HW120897   6.077   0.779   5.947
 6666SOL    HW220898   6.079   0.625   6.001
 6667SOL     OW20899   6.787   5.126   4.966
 6667SOL    HW120900   6.811   5.223   4.978
 6667SOL    HW220901   6.704   5.106   5.017
 6668SOL     OW20902   1.013   4.504   1.591
 6668SOL    HW120903   1.079   4.430   1.579
 6668SOL    HW220904   1.060   4.587   1.620
 6669SOL     OW20905   2.165   6.004   3.058
 6669SOL    HW120906   2.186   5.982   3.153
 6669SOL    HW220907   2.085   5.952   3.028
 6670SOL     OW20908   3.343   5.062   0.308
 6670SOL    HW120909   3.310   5.023   0.394
 6670SOL    HW220910   3.322   5.000   0.233
 6671SOL     OW20911   6.515   3.140   5.500
 6671SOL    HW120912   6.574   3.064   5.528
 6671SOL    HW220913   6.464   3.115   5.418
 6672SOL     OW20914   1.023   0.873   5.937
 6672SOL    HW120915   0.991   0.780   5.955
 6672SOL    HW220916   0.969   0.938   5.990
 6673SOL     OW20917   4.361   4.875   1.584
 6673SOL    HW120918   4.363   4.867   1.684
 6673SOL    HW220919   4.454   4.864   1.549
 6674SOL     OW20920   1.035   6.000   4.717
 6674SOL    HW120921   0.965   6.014   4.787
 6674SOL    HW220922   0.993   5.960   4.636
 6675SOL     OW20923   6.142   5.317   0.223
 6675SOL    HW120924   6.144   5.262   0.139
 6675SOL    HW220925   6.149   5.256   0.302
 6676SOL     OW20926   0.779   2.277   5.922
 6676SOL    HW120927   0.780   2.203   5.855
 6676SOL    HW220928   0.702   2.263   5.985
 6677SOL     OW20929   0.851   3.072   0.323
 6677SOL    HW120930   0.814   3.055   0.414
 6677SOL    HW220931   0.934   3.128   0.330
 6678SOL     OW20932   0.894   2.770   5.916
 6678SOL    HW120933   0.870   2.675   5.895
 6678SOL    HW220934   0.977   2.771   5.973
 6679SOL     OW20935   1.688   2.587   4.807
 6679SOL    HW120936   1.627   2.509   4.794
 6679SOL    HW220937   1.666   2.633   4.893
 6680SOL     OW20938   3.347   6.594   6.398
 6680SOL    HW120939   3.357   6.656   6.320
 6680SOL    HW220940   3.432   6.542   6.410
 6681SOL     OW20941   5.106   5.648   0.945
 6681SOL    HW120942   5.200   5.656   0.914
 6681SOL    HW220943   5.054   5.593   0.880
 6682SOL     OW20944   0.542   5.219   2.063
 6682SOL    HW120945   0.498   5.141   2.018
 6682SOL    HW220946   0.636   5.228   2.031
 6683SOL     OW20947   5.087   2.040   4.659
 6683SOL    HW120948   5.002   2.058   4.708
 6683SOL    HW220949   5.067   2.024   4.562
 6684SOL     OW20950   1.445   0.028   2.281
 6684SOL    HW120951   1.433   7.003   2.195
 6684SOL    HW220952   1.459   6.987   2.355
 6685SOL     OW20953   4.791   3.214   6.581
 6685SOL    HW120954   4.758   3.150   6.650
 6685SOL    HW220955   4.809   3.303   6.624
 6686SOL     OW20956   6.284   3.908   3.042
 6686SOL    HW120957   6.263   3.841   2.970
 6686SOL    HW220958   6.274   4.000   3.004
 6687SOL     OW20959   1.165   1.550   0.996
 6687SOL    HW120960   1.068   1.567   1.012
 6687SOL    HW220961   1.188   1.571   0.901
 6688SOL     OW20962   0.903   4.325   2.786
 6688SOL    HW120963   0.881   4.372   2.700
 6688SOL    HW220964   0.822   4.279   2.821
 6689SOL     OW20965   4.721   4.656   6.967
 6689SOL    HW120966   4.728   4.662   0.043
 6689SOL    HW220967   4.779   4.727   6.926
 6690SOL     OW20968   2.290   3.061   0.505
 6690SOL    HW120969   2.254   3.036   0.595
 6690SOL    HW220970   2.251   3.148   0.476
 6691SOL     OW20971   2.643   4.842   1.486
 6691SOL    HW120972   2.582   4.825   1.563
 6691SOL    HW220973   2.734   4.867   1.520
 6692SOL     OW20974   3.481   4.200   5.133
 6692SOL    HW120975   3.507   4.167   5.224
 6692SOL    HW220976   3.427   4.284   5.143
 6693SOL     OW20977   4.321   3.626   5.300
 6693SOL    HW120978   4.321   3.726   5.312
 6693SOL    HW220979   4.396   3.586   5.352
 6694SOL     OW20980   4.213   6.046   0.875
 6694SOL    HW120981   4.269   6.073   0.953
 6694SOL    HW220982   4.149   6.120   0.852
 6695SOL     OW20983   1.185   1.395   6.645
 6695SOL    HW120984   1.226   1.322   6.700
 6695SOL    HW220985   1.249   1.424   6.574
 6696SOL     OW20986   2.062   3.060   1.898
 6696SOL    HW120987   1.983   3.018   1.855
 6696SOL    HW220988   2.099   3.130   1.837
 6697SOL     OW20989   4.666   1.327   3.077
 6697SOL    HW120990   4.636   1.307   3.170
 6697SOL    HW220991   4.606   1.280   3.012
 6698SOL     OW20992   3.928   3.471   0.405
 6698SOL    HW120993   3.920   3.557   0.456
 6698SOL    HW220994   3.866   3.473   0.327
 6699SOL     OW20995   1.711   4.449   0.079
 6699SOL    HW120996   1.628   4.477   0.031
 6699SOL    HW220997   1.763   4.385   0.021
 6700SOL     OW20998   0.203   5.716   1.012
 6700SOL    HW120999   0.163   5.793   0.962
 6700SOL    HW221000   0.129   5.658   1.049
 6701SOL     OW21001   0.285   1.716   0.782
 6701SOL    HW121002   0.374   1.703   0.738
 6701SOL    HW221003   0.214   1.721   0.713
 6702SOL     OW21004   2.440   1.476   1.635
 6702SOL    HW121005   2.415   1.486   1.539
 6702SOL    HW221006   2.539   1.480   1.645
 6703SOL     OW21007   6.830   1.286   6.896
 6703SOL    HW121008   6.758   1.251   6.956
 6703SOL    HW221009   6.919   1.275   6.941
 6704SOL     OW21010   4.936   1.984   2.313
 6704SOL    HW121011   4.895   2.074   2.297
 6704SOL    HW221012   4.898   1.918   2.249
 6705SOL     OW21013   5.571   1.902   0.304
 6705SOL    HW121014   5.602   1.919   0.397
 6705SOL    HW221015   5.619   1.823   0.266
 6706SOL     OW21016   0.778   4.404   6.475
 6706SOL    HW121017   0.732   4.316   6.458
 6706SOL    HW221018   0.847   4.420   6.404
 6707SOL     OW21019   1.091   5.614   3.033
 6707SOL    HW121020   1.110   5.710   3.052
 6707SOL    HW221021   1.124   5.591   2.942
 6708SOL     OW21022   2.017   6.100   2.125
 6708SOL    HW121023   2.062   6.129   2.209
 6708SOL    HW221024   1.918   6.092   2.141
 6709SOL     OW21025   4.531   1.359   2.320
 6709SOL    HW121026   4.581   1.338   2.405
 6709SOL    HW221027   4.477   1.442   2.333
 6710SOL     OW21028   3.112   2.441   0.342
 6710SOL    HW121029   3.072   2.492   0.266
 6710SOL    HW221030   3.172   2.501   0.395
 6711SOL     OW21031   3.793   4.204   0.325
 6711SOL    HW121032   3.883   4.181   0.288
 6711SOL    HW221033   3.731   4.127   0.310
 6712SOL     OW21034   3.759   6.224   6.884
 6712SOL    HW121035   3.836   6.282   6.911
 6712SOL    HW221036   3.738   6.240   6.788
 6713SOL     OW21037   2.171   2.460   1.445
 6713SOL    HW121038   2.145   2.375   1.490
 6713SOL    HW221039   2.089   2.513   1.424
 6714SOL     OW21040   5.858   0.567   4.580
 6714SOL    HW121041   5.865   0.485   4.637
 6714SOL    HW221042   5.770   0.611   4.596
 6715SOL     OW21043   0.438   1.116   0.626
 6715SOL    HW121044   0.399   1.071   0.706
 6715SOL    HW221045   0.528   1.077   0.606
 6716SOL     OW21046   1.960   5.448   1.334
 6716SOL    HW121047   1.890   5.515   1.309
 6716SOL    HW221048   1.920   5.356   1.331
 6717SOL     OW21049   4.180   2.120   6.876
 6717SOL    HW121050   4.165   2.201   6.933
 6717SOL    HW221051   4.093   2.088   6.839
 6718SOL     OW21052   3.294   0.629   0.839
 6718SOL    HW121053   3.210   0.582   0.865
 6718SOL    HW221054   3.369   0.600   0.900
 6719SOL     OW21055   6.389   6.568   5.229
 6719SOL    HW121056   6.405   6.527   5.319
 6719SOL    HW221057   6.293   6.555   5.204
 6720SOL     OW21058   1.717   5.010   1.245
 6720SOL    HW121059   1.631   5.056   1.221
 6720SOL    HW221060   1.741   4.944   1.173
 6721SOL     OW21061   5.334   6.323   3.909
 6721SOL    HW121062   5.394   6.328   3.989
 6721SOL    HW221063   5.243   6.293   3.937
 6722SOL     OW21064   4.426   2.917   6.637
 6722SOL    HW121065   4.502   2.858   6.664
 6722SOL    HW221066   4.425   2.999   6.695
 6723SOL     OW21067   3.926   6.554   3.056
 6723SOL    HW121068   3.999   6.530   2.992
 6723SOL    HW221069   3.917   6.653   3.061
 6724SOL     OW21070   3.309   5.179   5.143
 6724SOL    HW121071   3.406   5.164   5.164
 6724SOL    HW221072   3.257   5.096   5.163
 6725SOL     OW21073   0.322   4.855   2.713
 6725SOL    HW121074   0.245   4.801   2.748
 6725SOL    HW221075   0.305   4.952   2.730
 6726SOL     OW21076   2.497   2.126   3.378
 6726SOL    HW121077   2.554   2.191   3.428
 6726SOL    HW221078   2.546   2.091   3.299
 6727SOL     OW21079   3.689   3.348   6.637
 6727SOL    HW121080   3.655   3.437   6.669
 6727SOL    HW221081   3.612   3.291   6.610
 6728SOL     OW21082   4.151   1.638   3.762
 6728SOL    HW121083   4.183   1.673   3.850
 6728SOL    HW221084   4.176   1.703   3.690
 6729SOL     OW21085   5.770   0.794   2.702
 6729SOL    HW121086   5.760   0.847   2.786
 6729SOL    HW221087   5.702   0.824   2.635
 6730SOL     OW21088   2.512   0.932   0.158
 6730SOL    HW121089   2.559   0.883   0.231
 6730SOL    HW221090   2.577   0.992   0.111
 6731SOL     OW21091   2.612   4.720   1.818
 6731SOL    HW121092   2.676   4.669   1.876
 6731SOL    HW221093   2.632   4.818   1.825
 6732SOL     OW21094   2.838   5.540   0.864
 6732SOL    HW121095   2.766   5.502   0.921
 6732SOL    HW221096   2.913   5.474   0.856
 6733SOL     OW21097   5.283   6.105   5.125
 6733SOL    HW121098   5.327   6.104   5.215
 6733SOL    HW221099   5.275   6.199   5.093
 6734SOL     OW21100   2.425   3.599   5.486
 6734SOL    HW121101   2.403   3.511   5.444
 6734SOL    HW221102   2.418   3.591   5.585
 6735SOL     OW21103   7.020   5.312   6.005
 6735SOL    HW121104   6.963   5.290   6.084
 6735SOL    HW221105   6.986   5.395   5.961
 6736SOL     OW21106   2.073   3.405   2.231
 6736SOL    HW121107   2.095   3.313   2.198
 6736SOL    HW221108   2.130   3.472   2.183
 6737SOL     OW21109   2.536   0.733   1.443
 6737SOL    HW121110   2.458   0.762   1.387
 6737SOL    HW221111   2.559   0.805   1.507
 6738SOL     OW21112   3.143   1.028   2.578
 6738SOL    HW121113   3.054   1.045   2.536
 6738SOL    HW221114   3.140   1.058   2.674
 6739SOL     OW21115   3.862   6.659   4.601
 6739SOL    HW121116   3.896   6.752   4.585
 6739SOL    HW221117   3.769   6.651   4.565
 6740SOL     OW21118   0.251   1.968   4.659
 6740SOL    HW121119   0.207   2.034   4.719
 6740SOL    HW221120   0.182   1.909   4.618
 6741SOL     OW21121   6.238   0.037   6.302
 6741SOL    HW121122   6.183   0.112   6.338
 6741SOL    HW221123   6.316   0.021   6.363
 6742SOL     OW21124   6.374   5.559   6.195
 6742SOL    HW121125   6.322   5.643   6.204
 6742SOL    HW221126   6.335   5.503   6.123
 6743SOL     OW21127   4.586   2.766   1.017
 6743SOL    HW121128   4.646   2.808   1.084
 6743SOL    HW221129   4.492   2.795   1.034
 6744SOL     OW21130   4.707   4.838   5.457
 6744SOL    HW121131   4.643   4.768   5.489
 6744SOL    HW221132   4.800   4.810   5.479
 6745SOL     OW21133   0.611   4.341   3.728
 6745SOL    HW121134   0.527   4.342   3.783
 6745SOL    HW221135   0.688   4.369   3.785
 6746SOL     OW21136   0.137   1.475   0.764
 6746SOL    HW121137   0.117   1.439   0.673
 6746SOL    HW221138   0.197   1.556   0.756
 6747SOL     OW21139   5.422   6.054   5.641
 6747SOL    HW121140   5.497   6.118   5.659
 6747SOL    HW221141   5.386   6.020   5.728
 6748SOL     OW21142   0.483   0.091   1.927
 6748SOL    HW121143   0.538   0.086   1.843
 6748SOL    HW221144   0.508   0.015   1.987
 6749SOL     OW21145   4.008   6.234   0.843
 6749SOL    HW121146   4.059   6.290   0.778
 6749SOL    HW221147   3.910   6.249   0.832
 6750SOL     OW21148   2.636   3.243   5.330
 6750SOL    HW121149   2.704   3.195   5.385
 6750SOL    HW221150   2.575   3.176   5.287
 6751SOL     OW21151   2.964   1.800   5.357
 6751SOL    HW121152   2.973   1.882   5.413
 6751SOL    HW221153   2.869   1.791   5.326
 6752SOL     OW21154   6.009   1.620   0.321
 6752SOL    HW121155   6.051   1.537   0.357
 6752SOL    HW221156   6.078   1.692   0.313
 6753SOL     OW21157   4.884   2.055   6.716
 6753SOL    HW121158   4.843   1.967   6.740
 6753SOL    HW221159   4.983   2.051   6.730
 6754SOL     OW21160   5.834   0.839   6.965
 6754SOL    HW121161   5.767   0.895   6.916
 6754SOL    HW221162   5.819   0.847   0.040
 6755SOL     OW21163   4.799   2.143   3.699
 6755SOL    HW121164   4.766   2.220   3.644
 6755SOL    HW221165   4.721   2.090   3.732
 6756SOL     OW21166   5.300   4.462   4.598
 6756SOL    HW121167   5.367   4.399   4.559
 6756SOL    HW221168   5.287   4.442   4.695
 6757SOL     OW21169   5.936   5.417   2.048
 6757SOL    HW121170   5.877   5.496   2.063
 6757SOL    HW221171   5.890   5.335   2.083
 6758SOL     OW21172   4.978   2.401   2.042
 6758SOL    HW121173   4.972   2.500   2.030
 6758SOL    HW221174   5.073   2.375   2.059
 6759SOL     OW21175   7.021   4.388   3.453
 6759SOL    HW121176   0.005   4.483   3.481
 6759SOL    HW221177   0.079   4.361   3.403
 6760SOL     OW21178   6.527   3.693   4.779
 6760SOL    HW121179   6.491   3.742   4.858
 6760SOL    HW221180   6.468   3.614   4.759
 6761SOL     OW21181   4.909   3.429   6.160
 6761SOL    HW121182   4.903   3.521   6.197
 6761SOL    HW221183   4.855   3.367   6.217
 6762SOL     OW21184   5.770   4.759   4.424
 6762SOL    HW121185   5.824   4.811   4.489
 6762SOL    HW221186   5.701   4.819   4.383
 6763SOL     OW21187   5.710   6.621   5.885
 6763SOL    HW121188   5.616   6.630   5.853
 6763SOL    HW221189   5.773   6.636   5.809
 6764SOL     OW21190   2.090   3.920   6.696
 6764SOL    HW121191   2.127   3.870   6.774
 6764SOL    HW221192   2.130   3.884   6.611
 6765SOL     OW21193   5.745   5.028   3.222
 6765SOL    HW121194   5.685   5.031   3.302
 6765SOL    HW221195   5.690   5.018   3.140
 6766SOL     OW21196   1.322   0.797   5.670
 6766SOL    HW121197   1.399   0.745   5.632
 6766SOL    HW221198   1.245   0.794   5.607
 6767SOL     OW21199   0.489   2.573   6.854
 6767SOL    HW121200   0.531   2.611   6.771
 6767SOL    HW221201   0.421   2.505   6.828
 6768SOL     OW21202   0.283   0.429   5.262
 6768SOL    HW121203   0.198   0.441   5.312
 6768SOL    HW221204   0.277   0.346   5.205
 6769SOL     OW21205   1.982   3.418   6.113
 6769SOL    HW121206   2.041   3.442   6.190
 6769SOL    HW221207   2.009   3.329   6.077
 6770SOL     OW21208   0.605   1.722   3.321
 6770SOL    HW121209   0.588   1.747   3.226
 6770SOL    HW221210   0.521   1.686   3.361
 6771SOL     OW21211   4.307   1.591   2.942
 6771SOL    HW121212   4.352   1.522   2.884
 6771SOL    HW221213   4.375   1.656   2.974
 6772SOL     OW21214   0.064   0.624   1.806
 6772SOL    HW121215   0.010   0.640   1.889
 6772SOL    HW221216   0.156   0.592   1.831
 6773SOL     OW21217   1.319   6.618   1.175
 6773SOL    HW121218   1.398   6.674   1.149
 6773SOL    HW221219   1.300   6.552   1.102
 6774SOL     OW21220   2.687   2.382   5.782
 6774SOL    HW121221   2.614   2.408   5.844
 6774SOL    HW221222   2.774   2.419   5.815
 6775SOL     OW21223   0.737   2.558   4.531
 6775SOL    HW121224   0.792   2.498   4.589
 6775SOL    HW221225   0.751   2.533   4.435
 6776SOL     OW21226   3.940   3.533   3.150
 6776SOL    HW121227   3.985   3.546   3.062
 6776SOL    HW221228   4.009   3.517   3.221
 6777SOL     OW21229   6.524   6.054   6.506
 6777SOL    HW121230   6.483   6.011   6.426
 6777SOL    HW221231   6.604   6.107   6.478
 6778SOL     OW21232   5.785   5.953   2.062
 6778SOL    HW121233   5.817   6.022   1.998
 6778SOL    HW221234   5.825   5.865   2.039
 6779SOL     OW21235   5.032   3.837   6.396
 6779SOL    HW121236   4.997   3.929   6.415
 6779SOL    HW221237   5.125   3.844   6.361
 6780SOL     OW21238   3.846   2.098   2.612
 6780SOL    HW121239   3.894   2.133   2.693
 6780SOL    HW221240   3.885   2.010   2.585
 6781SOL     OW21241   6.815   1.724   3.116
 6781SOL    HW121242   6.828   1.660   3.041
 6781SOL    HW221243   6.901   1.771   3.136
 6782SOL     OW21244   0.218   1.985   3.126
 6782SOL    HW121245   0.189   2.009   3.034
 6782SOL    HW221246   0.140   1.946   3.176
 6783SOL     OW21247   0.455   5.389   6.011
 6783SOL    HW121248   0.417   5.323   5.946
 6783SOL    HW221249   0.507   5.341   6.081
 6784SOL     OW21250   2.344   3.865   1.620
 6784SOL    HW121251   2.391   3.938   1.670
 6784SOL    HW221252   2.283   3.905   1.552
 6785SOL     OW21253   5.600   5.056   4.428
 6785SOL    HW121254   5.644   5.146   4.426
 6785SOL    HW221255   5.617   5.008   4.342
 6786SOL     OW21256   5.572   2.050   5.794
 6786SOL    HW121257   5.606   1.988   5.724
 6786SOL    HW221258   5.591   2.012   5.885
 6787SOL     OW21259   3.025   1.985   0.249
 6787SOL    HW121260   2.948   1.921   0.250
 6787SOL    HW221261   2.997   2.072   0.290
 6788SOL     OW21262   0.267   4.346   2.401
 6788SOL    HW121263   0.333   4.363   2.475
 6788SOL    HW221264   0.268   4.249   2.378
 6789SOL     OW21265   5.331   4.395   3.242
 6789SOL    HW121266   5.232   4.385   3.239
 6789SOL    HW221267   5.358   4.481   3.199
 6790SOL     OW21268   0.954   4.925   6.465
 6790SOL    HW121269   0.897   4.888   6.538
 6790SOL    HW221270   0.895   4.969   6.397
 6791SOL     OW21271   2.508   7.014   2.874
 6791SOL    HW121272   2.429   6.969   2.833
 6791SOL    HW221273   2.535   0.068   2.818
 6792SOL     OW21274   4.078   0.260   5.655
 6792SOL    HW121275   4.101   0.229   5.562
 6792SOL    HW221276   4.142   0.331   5.683
 6793SOL     OW21277   2.094   3.646   5.891
 6793SOL    HW121278   2.085   3.546   5.893
 6793SOL    HW221279   2.071   3.683   5.980
 6794SOL     OW21280   5.977   2.517   5.227
 6794SOL    HW121281   6.070   2.518   5.265
 6794SOL    HW221282   5.911   2.502   5.301
 6795SOL     OW21283   1.294   0.763   1.489
 6795SOL    HW121284   1.259   0.789   1.580
 6795SOL    HW221285   1.259   0.673   1.465
 6796SOL     OW21286   6.320   1.938   2.605
 6796SOL    HW121287   6.334   1.842   2.581
 6796SOL    HW221288   6.295   1.945   2.702
 6797SOL     OW21289   0.611   3.305   1.570
 6797SOL    HW121290   0.521   3.341   1.595
 6797SOL    HW221291   0.638   3.342   1.481
 6798SOL     OW21292   5.380   0.439   2.070
 6798SOL    HW121293   5.339   0.348   2.072
 6798SOL    HW221294   5.366   0.481   1.980
 6799SOL     OW21295   6.257   0.317   3.798
 6799SOL    HW121296   6.306   0.253   3.739
 6799SOL    HW221297   6.273   0.293   3.894
 6800SOL     OW21298   6.434   3.355   1.407
 6800SOL    HW121299   6.363   3.312   1.463
 6800SOL    HW221300   6.522   3.311   1.424
 6801SOL     OW21301   0.806   6.589   6.742
 6801SOL    HW121302   0.878   6.523   6.722
 6801SOL    HW221303   0.758   6.613   6.657
 6802SOL     OW21304   2.955   5.046   1.822
 6802SOL    HW121305   2.939   4.947   1.822
 6802SOL    HW221306   3.009   5.071   1.902
 6803SOL     OW21307   5.331   5.164   6.187
 6803SOL    HW121308   5.396   5.127   6.121
 6803SOL    HW221309   5.259   5.097   6.205
 6804SOL     OW21310   3.522   5.192   2.603
 6804SOL    HW121311   3.606   5.150   2.568
 6804SOL    HW221312   3.546   5.258   2.674
 6805SOL     OW21313   0.075   4.246   4.472
 6805SOL    HW121314   0.172   4.220   4.468
 6805SOL    HW221315   0.056   4.316   4.403
 6806SOL     OW21316   6.210   2.712   1.511
 6806SOL    HW121317   6.126   2.667   1.479
 6806SOL    HW221318   6.214   2.707   1.611
 6807SOL     OW21319   3.024   3.834   2.098
 6807SOL    HW121320   3.006   3.931   2.085
 6807SOL    HW221321   3.019   3.786   2.010
 6808SOL     OW21322   3.396   0.816   4.107
 6808SOL    HW121323   3.425   0.768   4.024
 6808SOL    HW221324   3.305   0.856   4.092
 6809SOL     OW21325   6.406   3.280   6.371
 6809SOL    HW121326   6.474   3.340   6.329
 6809SOL    HW221327   6.317   3.293   6.326
 6810SOL     OW21328   2.942   0.967   4.668
 6810SOL    HW121329   2.882   0.894   4.636
 6810SOL    HW221330   3.034   0.930   4.684
 6811SOL     OW21331   6.302   1.201   0.240
 6811SOL    HW121332   6.322   1.262   0.163
 6811SOL    HW221333   6.219   1.149   0.220
 6812SOL     OW21334   3.574   4.170   5.371
 6812SOL    HW121335   3.566   4.249   5.431
 6812SOL    HW221336   3.659   4.175   5.319
 6813SOL     OW21337   0.133   3.434   2.174
 6813SOL    HW121338   0.233   3.434   2.180
 6813SOL    HW221339   0.094   3.415   2.264
 6814SOL     OW21340   5.433   0.829   0.099
 6814SOL    HW121341   5.478   0.751   0.142
 6814SOL    HW221342   5.340   0.804   0.073
 6815SOL     OW21343   1.141   5.170   6.109
 6815SOL    HW121344   1.066   5.226   6.074
 6815SOL    HW221345   1.181   5.214   6.189
 6816SOL     OW21346   6.994   0.253   3.383
 6816SOL    HW121347   6.970   0.191   3.458
 6816SOL    HW221348   6.965   0.346   3.406
 6817SOL     OW21349   4.102   2.231   1.302
 6817SOL    HW121350   4.031   2.217   1.232
 6817SOL    HW221351   4.063   2.283   1.378
 6818SOL     OW21352   1.314   6.501   5.523
 6818SOL    HW121353   1.394   6.501   5.583
 6818SOL    HW221354   1.233   6.477   5.576
 6819SOL     OW21355   4.491   4.563   1.990
 6819SOL    HW121356   4.428   4.579   2.066
 6819SOL    HW221357   4.518   4.466   1.989
 6820SOL     OW21358   2.630   5.454   1.592
 6820SOL    HW121359   2.643   5.378   1.528
 6820SOL    HW221360   2.639   5.421   1.686
 6821SOL     OW21361   3.888   2.675   5.525
 6821SOL    HW121362   3.793   2.649   5.543
 6821SOL    HW221363   3.933   2.602   5.475
 6822SOL     OW21364   6.089   3.261   5.671
 6822SOL    HW121365   6.020   3.333   5.660
 6822SOL    HW221366   6.044   3.171   5.668
 6823SOL     OW21367   0.017   2.892   5.430
 6823SOL    HW121368   0.026   2.947   5.513
 6823SOL    HW221369   0.018   2.795   5.453
 6824SOL     OW21370   0.666   6.895   5.498
 6824SOL    HW121371   0.648   6.983   5.541
 6824SOL    HW221372   0.756   6.897   5.454
 6825SOL     OW21373   4.455   4.532   0.601
 6825SOL    HW121374   4.461   4.591   0.682
 6825SOL    HW221375   4.534   4.549   0.542
 6826SOL     OW21376   6.529   6.724   3.751
 6826SOL    HW121377   6.600   6.730   3.681
 6826SOL    HW221378   6.514   6.629   3.775
 6827SOL     OW21379   4.983   5.972   4.860
 6827SOL    HW121380   4.903   6.024   4.888
 6827SOL    HW221381   5.002   5.989   4.763
 6828SOL     OW21382   3.300   2.097   2.308
 6828SOL    HW121383   3.212   2.144   2.301
 6828SOL    HW221384   3.335   2.079   2.216
 6829SOL     OW21385   4.088   0.148   3.028
 6829SOL    HW121386   4.055   0.087   3.100
 6829SOL    HW221387   4.015   0.168   2.964
 6830SOL     OW21388   4.824   4.992   2.913
 6830SOL    HW121389   4.783   4.913   2.958
 6830SOL    HW221390   4.843   4.969   2.817
 6831SOL     OW21391   1.640   2.222   6.205
 6831SOL    HW121392   1.649   2.210   6.304
 6831SOL    HW221393   1.573   2.156   6.170
 6832SOL     OW21394   2.554   2.167   6.254
 6832SOL    HW121395   2.504   2.221   6.322
 6832SOL    HW221396   2.587   2.227   6.182
 6833SOL     OW21397   3.939   5.570   5.926
 6833SOL    HW121398   3.985   5.519   5.999
 6833SOL    HW221399   3.975   5.542   5.838
 6834SOL     OW21400   6.707   6.678   6.714
 6834SOL    HW121401   6.722   6.580   6.707
 6834SOL    HW221402   6.612   6.699   6.690
 6835SOL     OW21403   2.649   1.067   4.656
 6835SOL    HW121404   2.599   0.982   4.668
 6835SOL    HW221405   2.733   1.050   4.605
 6836SOL     OW21406   1.728   4.691   6.475
 6836SOL    HW121407   1.823   4.682   6.503
 6836SOL    HW221408   1.706   4.620   6.408
 6837SOL     OW21409   6.546   0.741   2.345
 6837SOL    HW121410   6.510   0.721   2.254
 6837SOL    HW221411   6.592   0.830   2.344
 6838SOL     OW21412   3.162   3.960   5.125
 6838SOL    HW121413   3.187   3.888   5.189
 6838SOL    HW221414   3.100   4.025   5.169
 6839SOL     OW21415   6.441   3.373   4.751
 6839SOL    HW121416   6.460   3.323   4.667
 6839SOL    HW221417   6.522   3.374   4.809
 6840SOL     OW21418   2.858   6.547   4.902
 6840SOL    HW121419   2.809   6.465   4.871
 6840SOL    HW221420   2.946   6.521   4.940
 6841SOL     OW21421   5.022   6.338   1.288
 6841SOL    HW121422   5.088   6.321   1.360
 6841SOL    HW221423   5.069   6.373   1.207
 6842SOL     OW21424   0.439   3.490   4.457
 6842SOL    HW121425   0.499   3.469   4.380
 6842SOL    HW221426   0.489   3.479   4.543
 6843SOL     OW21427   3.908   2.225   1.775
 6843SOL    HW121428   3.943   2.158   1.840
 6843SOL    HW221429   3.820   2.260   1.806
 6844SOL     OW21430   3.658   5.170   4.388
 6844SOL    HW121431   3.596   5.236   4.346
 6844SOL    HW221432   3.631   5.077   4.361
 6845SOL     OW21433   4.167   4.460   0.830
 6845SOL    HW121434   4.219   4.545   0.820
 6845SOL    HW221435   4.079   4.469   0.783
 6846SOL     OW21436   3.343   3.037   2.848
 6846SOL    HW121437   3.332   3.137   2.847
 6846SOL    HW221438   3.324   3.002   2.756
 6847SOL     OW21439   6.052   3.629   2.018
 6847SOL    HW121440   5.973   3.670   1.972
 6847SOL    HW221441   6.044   3.645   2.117
 6848SOL     OW21442   6.755   6.475   3.249
 6848SOL    HW121443   6.760   6.407   3.322
 6848SOL    HW221444   6.659   6.497   3.231
 6849SOL     OW21445   3.547   6.724   3.867
 6849SOL    HW121446   3.482   6.655   3.901
 6849SOL    HW221447   3.588   6.772   3.945
 6850SOL     OW21448   5.472   3.249   1.589
 6850SOL    HW121449   5.414   3.190   1.533
 6850SOL    HW221450   5.428   3.339   1.598
 6851SOL     OW21451   2.180   5.755   5.733
 6851SOL    HW121452   2.206   5.708   5.649
 6851SOL    HW221453   2.164   5.851   5.714
 6852SOL     OW21454   0.192   4.516   2.142
 6852SOL    HW121455   0.213   4.421   2.164
 6852SOL    HW221456   0.191   4.570   2.227
 6853SOL     OW21457   6.628   3.799   5.891
 6853SOL    HW121458   6.533   3.769   5.901
 6853SOL    HW221459   6.665   3.766   5.804
 6854SOL     OW21460   0.137   1.946   6.353
 6854SOL    HW121461   0.107   2.040   6.333
 6854SOL    HW221462   0.122   1.888   6.273
 6855SOL     OW21463   3.590   6.068   1.536
 6855SOL    HW121464   3.526   6.117   1.477
 6855SOL    HW221465   3.629   6.132   1.603
 6856SOL     OW21466   6.911   4.240   5.564
 6856SOL    HW121467   6.907   4.227   5.663
 6856SOL    HW221468   6.832   4.197   5.522
 6857SOL     OW21469   4.588   1.668   5.766
 6857SOL    HW121470   4.664   1.603   5.771
 6857SOL    HW221471   4.584   1.707   5.674
 6858SOL     OW21472   3.824   3.100   5.170
 6858SOL    HW121473   3.818   3.065   5.264
 6858SOL    HW221474   3.913   3.144   5.157
 6859SOL     OW21475   3.654   0.194   0.915
 6859SOL    HW121476   3.623   0.173   1.007
 6859SOL    HW221477   3.692   0.111   0.873
 6860SOL     OW21478   4.992   4.773   0.179
 6860SOL    HW121479   5.077   4.809   0.219
 6860SOL    HW221480   4.987   4.674   0.195
 6861SOL     OW21481   6.108   4.894   0.376
 6861SOL    HW121482   6.170   4.824   0.411
 6861SOL    HW221483   6.061   4.860   0.295
 6862SOL     OW21484   3.664   5.748   4.029
 6862SOL    HW121485   3.576   5.775   3.990
 6862SOL    HW221486   3.677   5.793   4.117
 6863SOL     OW21487   6.987   3.203   4.066
 6863SOL    HW121488   6.889   3.224   4.059
 6863SOL    HW221489   0.010   3.276   4.116
 6864SOL     OW21490   4.456   5.926   5.229
 6864SOL    HW121491   4.429   5.878   5.145
 6864SOL    HW221492   4.451   5.864   5.307
 6865SOL     OW21493   6.846   3.806   4.141
 6865SOL    HW121494   6.826   3.852   4.055
 6865SOL    HW221495   6.937   3.766   4.138
 6866SOL     OW21496   0.451   3.727   2.351
 6866SOL    HW121497   0.547   3.713   2.328
 6866SOL    HW221498   0.443   3.772   2.440
 6867SOL     OW21499   2.165   4.057   2.570
 6867SOL    HW121500   2.138   3.982   2.510
 6867SOL    HW221501   2.097   4.068   2.643
 6868SOL     OW21502   2.401   5.385   5.214
 6868SOL    HW121503   2.327   5.448   5.240
 6868SOL    HW221504   2.362   5.297   5.187
 6869SOL     OW21505   5.854   3.776   5.724
 6869SOL    HW121506   5.948   3.790   5.755
 6869SOL    HW221507   5.845   3.808   5.629
 6870SOL     OW21508   5.008   4.248   2.737
 6870SOL    HW121509   4.933   4.225   2.799
 6870SOL    HW221510   5.049   4.164   2.702
 6871SOL     OW21511   5.193   6.847   2.170
 6871SOL    HW121512   5.284   6.828   2.205
 6871SOL    HW221513   5.125   6.802   2.228
 6872SOL     OW21514   2.630   3.326   6.457
 6872SOL    HW121515   2.585   3.383   6.388
 6872SOL    HW221516   2.707   3.375   6.496
 6873SOL     OW21517   4.911   4.725   5.923
 6873SOL    HW121518   4.821   4.689   5.900
 6873SOL    HW221519   4.981   4.672   5.875
 6874SOL     OW21520   1.194   2.550   5.827
 6874SOL    HW121521   1.141   2.614   5.771
 6874SOL    HW221522   1.281   2.531   5.782
 6875SOL     OW21523   3.036   2.202   3.975
 6875SOL    HW121524   3.003   2.206   3.881
 6875SOL    HW221525   2.975   2.144   4.029
 6876SOL     OW21526   3.327   5.800   6.261
 6876SOL    HW121527   3.270   5.746   6.324
 6876SOL    HW221528   3.382   5.864   6.314
 6877SOL     OW21529   2.499   4.342   6.636
 6877SOL    HW121530   2.427   4.410   6.645
 6877SOL    HW221531   2.571   4.376   6.576
 6878SOL     OW21532   1.307   1.620   5.191
 6878SOL    HW121533   1.296   1.669   5.104
 6878SOL    HW221534   1.343   1.529   5.174
 6879SOL     OW21535   0.855   1.627   6.087
 6879SOL    HW121536   0.927   1.566   6.056
 6879SOL    HW221537   0.834   1.694   6.016
 6880SOL     OW21538   1.938   4.444   4.771
 6880SOL    HW121539   1.915   4.522   4.829
 6880SOL    HW221540   2.017   4.396   4.810
 6881SOL     OW21541   6.389   4.185   1.447
 6881SOL    HW121542   6.463   4.234   1.401
 6881SOL    HW221543   6.400   4.194   1.546
 6882SOL     OW21544   2.002   6.915   5.461
 6882SOL    HW121545   2.073   6.980   5.487
 6882SOL    HW221546   2.007   6.835   5.521
 6883SOL     OW21547   3.644   5.879   1.725
 6883SOL    HW121548   3.624   5.953   1.660
 6883SOL    HW221549   3.684   5.917   1.808
 6884SOL     OW21550   2.836   4.727   3.066
 6884SOL    HW121551   2.860   4.793   2.995
 6884SOL    HW221552   2.765   4.665   3.031
 6885SOL     OW21553   3.070   5.402   4.331
 6885SOL    HW121554   3.135   5.459   4.281
 6885SOL    HW221555   3.111   5.313   4.349
 6886SOL     OW21556   5.699   2.303   2.898
 6886SOL    HW121557   5.691   2.347   2.808
 6886SOL    HW221558   5.770   2.349   2.951
 6887SOL     OW21559   6.073   0.519   4.943
 6887SOL    HW121560   6.158   0.500   4.893
 6887SOL    HW221561   5.997   0.476   4.895
 6888SOL     OW21562   5.774   6.160   4.282
 6888SOL    HW121563   5.801   6.065   4.293
 6888SOL    HW221564   5.769   6.182   4.184
 6889SOL     OW21565   1.470   4.449   5.563
 6889SOL    HW121566   1.407   4.373   5.548
 6889SOL    HW221567   1.555   4.432   5.513
 6890SOL     OW21568   2.366   0.486   0.649
 6890SOL    HW121569   2.333   0.554   0.583
 6890SOL    HW221570   2.421   0.531   0.719
 6891SOL     OW21571   3.509   4.990   3.942
 6891SOL    HW121572   3.601   4.961   3.968
 6891SOL    HW221573   3.502   4.995   3.842
 6892SOL     OW21574   4.157   0.708   4.054
 6892SOL    HW121575   4.147   0.625   4.108
 6892SOL    HW221576   4.073   0.724   4.001
 6893SOL     OW21577   5.318   6.553   2.228
 6893SOL    HW121578   5.355   6.643   2.251
 6893SOL    HW221579   5.273   6.514   2.309
 6894SOL     OW21580   6.344   4.532   6.264
 6894SOL    HW121581   6.252   4.566   6.285
 6894SOL    HW221582   6.349   4.434   6.285
 6895SOL     OW21583   4.145   5.680   6.365
 6895SOL    HW121584   4.064   5.694   6.422
 6895SOL    HW221585   4.144   5.746   6.290
 6896SOL     OW21586   4.641   0.193   2.867
 6896SOL    HW121587   4.586   0.235   2.795
 6896SOL    HW221588   4.607   0.223   2.957
 6897SOL     OW21589   3.374   2.019   0.547
 6897SOL    HW121590   3.284   1.988   0.517
 6897SOL    HW221591   3.375   2.119   0.549
 6898SOL     OW21592   4.163   1.883   2.390
 6898SOL    HW121593   4.230   1.881   2.465
 6898SOL    HW221594   4.176   1.966   2.336
 6899SOL     OW21595   5.306   6.278   0.205
 6899SOL    HW121596   5.210   6.269   0.231
 6899SOL    HW221597   5.316   6.261   0.107
 6900SOL     OW21598   4.010   1.101   5.573
 6900SOL    HW121599   3.951   1.082   5.652
 6900SOL    HW221600   3.982   1.187   5.531
 6901SOL     OW21601   1.437   0.536   0.083
 6901SOL    HW121602   1.505   0.483   0.032
 6901SOL    HW221603   1.394   0.477   0.152
 6902SOL     OW21604   6.675   5.489   0.777
 6902SOL    HW121605   6.708   5.557   0.842
 6902SOL    HW221606   6.738   5.485   0.699
 6903SOL     OW21607   4.563   3.567   1.271
 6903SOL    HW121608   4.574   3.581   1.172
 6903SOL    HW221609   4.651   3.547   1.311
 6904SOL     OW21610   0.376   1.626   2.924
 6904SOL    HW121611   0.358   1.673   2.838
 6904SOL    HW221612   0.403   1.531   2.905
 6905SOL     OW21613   4.830   5.689   0.575
 6905SOL    HW121614   4.866   5.782   0.572
 6905SOL    HW221615   4.777   5.677   0.659
 6906SOL     OW21616   4.590   6.890   3.686
 6906SOL    HW121617   4.579   6.829   3.765
 6906SOL    HW221618   4.501   6.929   3.661
 6907SOL     OW21619   3.516   1.783   1.462
 6907SOL    HW121620   3.497   1.841   1.541
 6907SOL    HW221621   3.569   1.703   1.492
 6908SOL     OW21622   0.758   6.823   6.450
 6908SOL    HW121623   0.684   6.755   6.448
 6908SOL    HW221624   0.740   6.893   6.381
 6909SOL     OW21625   4.487   3.546   6.771
 6909SOL    HW121626   4.517   3.602   6.694
 6909SOL    HW221627   4.389   3.561   6.786
 6910SOL     OW21628   6.821   1.320   2.273
 6910SOL    HW121629   6.867   1.254   2.332
 6910SOL    HW221630   6.730   1.339   2.309
 6911SOL     OW21631   4.048   0.786   4.946
 6911SOL    HW121632   4.112   0.802   4.871
 6911SOL    HW221633   3.955   0.782   4.910
 6912SOL     OW21634   4.962   5.521   1.172
 6912SOL    HW121635   4.876   5.535   1.123
 6912SOL    HW221636   5.039   5.547   1.113
 6913SOL     OW21637   5.490   5.324   5.243
 6913SOL    HW121638   5.451   5.353   5.330
 6913SOL    HW221639   5.422   5.338   5.170
 6914SOL     OW21640   5.914   5.159   0.721
 6914SOL    HW121641   5.830   5.212   0.719
 6914SOL    HW221642   5.988   5.211   0.678
 6915SOL     OW21643   0.938   5.447   0.853
 6915SOL    HW121644   0.961   5.449   0.950
 6915SOL    HW221645   0.915   5.539   0.822
 6916SOL     OW21646   6.373   1.331   6.960
 6916SOL    HW121647   6.407   1.263   6.895
 6916SOL    HW221648   6.366   1.420   6.915
 6917SOL     OW21649   4.561   6.486   6.322
 6917SOL    HW121650   4.462   6.484   6.306
 6917SOL    HW221651   4.587   6.577   6.356
 6918SOL     OW21652   1.923   2.831   3.526
 6918SOL    HW121653   1.882   2.814   3.616
 6918SOL    HW221654   2.015   2.868   3.537
 6919SOL     OW21655   1.814   6.443   3.524
 6919SOL    HW121656   1.887   6.428   3.457
 6919SOL    HW221657   1.729   6.465   3.477
 6920SOL     OW21658   5.264   5.942   4.903
 6920SOL    HW121659   5.174   5.974   4.874
 6920SOL    HW221660   5.290   5.986   4.989
 6921SOL     OW21661   0.493   0.227   2.855
 6921SOL    HW121662   0.563   0.228   2.926
 6921SOL    HW221663   0.509   0.303   2.791
 6922SOL     OW21664   2.153   5.894   0.618
 6922SOL    HW121665   2.139   5.885   0.520
 6922SOL    HW221666   2.215   5.970   0.636
 6923SOL     OW21667   4.769   6.860   4.287
 6923SOL    HW121668   4.798   6.853   4.191
 6923SOL    HW221669   4.672   6.833   4.293
 6924SOL     OW21670   0.446   5.809   1.146
 6924SOL    HW121671   0.521   5.751   1.115
 6924SOL    HW221672   0.361   5.778   1.105
 6925SOL     OW21673   5.479   6.318   2.197
 6925SOL    HW121674   5.515   6.293   2.287
 6925SOL    HW221675   5.434   6.407   2.203
 6926SOL     OW21676   2.914   3.605   4.904
 6926SOL    HW121677   2.821   3.571   4.886
 6926SOL    HW221678   2.909   3.700   4.933
 6927SOL     OW21679   4.337   3.734   6.083
 6927SOL    HW121680   4.430   3.740   6.120
 6927SOL    HW221681   4.299   3.826   6.074
 6928SOL     OW21682   5.910   0.494   6.465
 6928SOL    HW121683   5.892   0.407   6.511
 6928SOL    HW221684   6.008   0.515   6.470
 6929SOL     OW21685   3.368   4.967   0.578
 6929SOL    HW121686   3.286   5.009   0.617
 6929SOL    HW221687   3.392   4.885   0.629
 6930SOL     OW21688   0.908   6.312   3.158
 6930SOL    HW121689   0.832   6.287   3.099
 6930SOL    HW221690   0.883   6.391   3.213
 6931SOL     OW21691   1.699   1.279   1.486
 6931SOL    HW121692   1.750   1.360   1.515
 6931SOL    HW221693   1.745   1.197   1.520
 6932SOL     OW21694   2.700   2.874   0.575
 6932SOL    HW121695   2.683   2.820   0.492
 6932SOL    HW221696   2.617   2.876   0.631
 6933SOL     OW21697   3.694   6.800   6.528
 6933SOL    HW121698   3.691   6.875   6.462
 6933SOL    HW221699   3.765   6.818   6.596
 6934SOL     OW21700   5.356   3.579   6.644
 6934SOL    HW121701   5.415   3.623   6.712
 6934SOL    HW221702   5.353   3.481   6.662
 6935SOL     OW21703   4.316   5.431   3.247
 6935SOL    HW121704   4.378   5.508   3.259
 6935SOL    HW221705   4.366   5.353   3.211
 6936SOL     OW21706   1.002   4.384   0.915
 6936SOL    HW121707   0.928   4.333   0.960
 6936SOL    HW221708   1.078   4.322   0.898
 6937SOL     OW21709   4.663   0.068   5.600
 6937SOL    HW121710   4.601   0.099   5.527
 6937SOL    HW221711   4.757   0.066   5.565
 6938SOL     OW21712   4.562   2.372   5.209
 6938SOL    HW121713   4.601   2.284   5.181
 6938SOL    HW221714   4.631   2.424   5.260
 6939SOL     OW21715   1.394   4.172   2.741
 6939SOL    HW121716   1.388   4.142   2.836
 6939SOL    HW221717   1.302   4.172   2.700
 6940SOL     OW21718   4.341   0.581   5.072
 6940SOL    HW121719   4.410   0.653   5.070
 6940SOL    HW221720   4.300   0.572   4.981
 6941SOL     OW21721   3.961   3.069   3.069
 6941SOL    HW121722   3.995   3.061   2.975
 6941SOL    HW221723   3.864   3.095   3.067
 6942SOL     OW21724   6.753   1.967   0.096
 6942SOL    HW121725   6.707   1.971   0.184
 6942SOL    HW221726   6.687   1.984   0.023
 6943SOL     OW21727   5.101   6.347   6.403
 6943SOL    HW121728   5.076   6.250   6.404
 6943SOL    HW221729   5.060   6.390   6.323
 6944SOL     OW21730   1.749   6.175   5.992
 6944SOL    HW121731   1.784   6.211   5.906
 6944SOL    HW221732   1.770   6.238   6.067
 6945SOL     OW21733   5.154   3.197   5.762
 6945SOL    HW121734   5.216   3.134   5.715
 6945SOL    HW221735   5.168   3.289   5.728
 6946SOL     OW21736   6.078   4.416   3.268
 6946SOL    HW121737   5.980   4.398   3.279
 6946SOL    HW221738   6.119   4.432   3.358
 6947SOL     OW21739   3.696   6.518   2.841
 6947SOL    HW121740   3.668   6.542   2.749
 6947SOL    HW221741   3.728   6.600   2.889
 6948SOL     OW21742   4.396   1.654   5.465
 6948SOL    HW121743   4.316   1.628   5.410
 6948SOL    HW221744   4.464   1.697   5.407
 6949SOL     OW21745   5.239   0.470   2.653
 6949SOL    HW121746   5.148   0.509   2.655
 6949SOL    HW221747   5.307   0.541   2.674
 6950SOL     OW21748   1.918   0.690   3.243
 6950SOL    HW121749   1.833   0.678   3.294
 6950SOL    HW221750   1.946   0.786   3.246
 6951SOL     OW21751   6.024   5.336   5.925
 6951SOL    HW121752   6.108   5.380   5.955
 6951SOL    HW221753   6.020   5.243   5.962
 6952SOL     OW21754   0.324   4.766   4.340
 6952SOL    HW121755   0.297   4.854   4.378
 6952SOL    HW221756   0.244   4.706   4.335
 6953SOL     OW21757   5.127   1.401   5.079
 6953SOL    HW121758   5.205   1.418   5.138
 6953SOL    HW221759   5.131   1.308   5.044
 6954SOL     OW21760   1.023   4.320   3.214
 6954SOL    HW121761   0.970   4.352   3.292
 6954SOL    HW221762   1.120   4.329   3.233
 6955SOL     OW21763   6.529   5.913   2.007
 6955SOL    HW121764   6.531   6.013   2.004
 6955SOL    HW221765   6.458   5.880   1.945
 6956SOL     OW21766   3.285   4.807   1.859
 6956SOL    HW121767   3.380   4.780   1.869
 6956SOL    HW221768   3.232   4.776   1.938
 6957SOL     OW21769   0.498   4.435   0.531
 6957SOL    HW121770   0.547   4.437   0.443
 6957SOL    HW221771   0.528   4.512   0.587
 6958SOL     OW21772   2.497   3.910   6.421
 6958SOL    HW121773   2.554   3.865   6.489
 6958SOL    HW221774   2.401   3.885   6.435
 6959SOL     OW21775   2.760   1.032   4.199
 6959SOL    HW121776   2.749   1.092   4.277
 6959SOL    HW221777   2.840   0.973   4.213
 6960SOL     OW21778   0.283   5.180   6.960
 6960SOL    HW121779   0.253   5.201   6.867
 6960SOL    HW221780   0.228   5.106   6.998
 6961SOL     OW21781   0.349   1.140   2.718
 6961SOL    HW121782   0.325   1.236   2.712
 6961SOL    HW221783   0.343   1.098   2.628
 6962SOL     OW21784   4.158   3.974   0.726
 6962SOL    HW121785   4.145   3.937   0.818
 6962SOL    HW221786   4.215   3.911   0.673
 6963SOL     OW21787   6.885   5.527   1.577
 6963SOL    HW121788   6.918   5.542   1.484
 6963SOL    HW221789   6.909   5.605   1.634
 6964SOL     OW21790   4.152   6.003   5.019
 6964SOL    HW121791   4.085   5.980   5.089
 6964SOL    HW221792   4.159   6.103   5.011
 6965SOL     OW21793   6.711   2.568   5.949
 6965SOL    HW121794   6.669   2.619   6.024
 6965SOL    HW221795   6.650   2.571   5.869
 6966SOL     OW21796   4.662   2.679   3.993
 6966SOL    HW121797   4.673   2.661   4.090
 6966SOL    HW221798   4.564   2.688   3.971
 6967SOL     OW21799   2.482   0.616   6.099
 6967SOL    HW121800   2.566   0.668   6.083
 6967SOL    HW221801   2.403   0.671   6.074
 6968SOL     OW21802   5.008   6.711   2.304
 6968SOL    HW121803   4.920   6.737   2.343
 6968SOL    HW221804   5.047   6.636   2.357
 6969SOL     OW21805   3.142   2.098   1.029
 6969SOL    HW121806   3.204   2.084   0.952
 6969SOL    HW221807   3.190   2.149   1.101
 6970SOL     OW21808   5.195   4.502   0.461
 6970SOL    HW121809   5.134   4.580   0.478
 6970SOL    HW221810   5.209   4.492   0.363
 6971SOL     OW21811   4.981   0.866   1.969
 6971SOL    HW121812   4.912   0.903   1.906
 6971SOL    HW221813   4.941   0.790   2.021
 6972SOL     OW21814   6.129   4.903   4.514
 6972SOL    HW121815   6.038   4.914   4.555
 6972SOL    HW221816   6.129   4.823   4.454
 6973SOL     OW21817   2.063   5.105   3.049
 6973SOL    HW121818   2.093   5.068   3.137
 6973SOL    HW221819   2.136   5.095   2.982
 6974SOL     OW21820   3.471   4.151   4.429
 6974SOL    HW121821   3.391   4.122   4.376
 6974SOL    HW221822   3.455   4.133   4.526
 6975SOL     OW21823   3.597   1.187   5.776
 6975SOL    HW121824   3.656   1.262   5.808
 6975SOL    HW221825   3.631   1.101   5.814
 6976SOL     OW21826   2.421   5.049   6.409
 6976SOL    HW121827   2.509   5.088   6.434
 6976SOL    HW221828   2.387   5.094   6.326
 6977SOL     OW21829   3.992   2.192   2.816
 6977SOL    HW121830   4.067   2.171   2.753
 6977SOL    HW221831   4.006   2.283   2.854
 6978SOL     OW21832   6.356   0.306   2.802
 6978SOL    HW121833   6.316   0.280   2.890
 6978SOL    HW221834   6.379   0.223   2.751
 6979SOL     OW21835   0.416   4.551   2.880
 6979SOL    HW121836   0.503   4.601   2.882
 6979SOL    HW221837   0.340   4.617   2.877
 6980SOL     OW21838   3.358   1.074   4.541
 6980SOL    HW121839   3.281   1.028   4.497
 6980SOL    HW221840   3.357   1.171   4.518
 6981SOL     OW21841   2.429   5.373   0.010
 6981SOL    HW121842   2.496   5.332   6.972
 6981SOL    HW221843   2.458   5.361   0.104
 6982SOL     OW21844   0.456   6.958   4.897
 6982SOL    HW121845   0.411   6.870   4.912
 6982SOL    HW221846   0.472   7.003   4.984
 6983SOL     OW21847   6.772   0.623   4.169
 6983SOL    HW121848   6.839   0.671   4.114
 6983SOL    HW221849   6.767   0.664   4.260
 6984SOL     OW21850   1.680   0.911   6.246
 6984SOL    HW121851   1.751   0.972   6.211
 6984SOL    HW221852   1.592   0.959   6.245
 6985SOL     OW21853   5.371   5.800   1.858
 6985SOL    HW121854   5.387   5.712   1.904
 6985SOL    HW221855   5.286   5.796   1.807
 6986SOL     OW21856   2.265   6.754   5.069
 6986SOL    HW121857   2.276   6.833   5.010
 6986SOL    HW221858   2.171   6.750   5.102
 6987SOL     OW21859   0.354   3.490   6.240
 6987SOL    HW121860   0.441   3.524   6.276
 6987SOL    HW221861   0.307   3.435   6.309
 6988SOL     OW21862   5.536   0.781   4.185
 6988SOL    HW121863   5.522   0.835   4.102
 6988SOL    HW221864   5.624   0.805   4.226
 6989SOL     OW21865   1.559   2.225   3.962
 6989SOL    HW121866   1.462   2.226   3.986
 6989SOL    HW221867   1.614   2.252   4.041
 6990SOL     OW21868   3.781   3.280   0.550
 6990SOL    HW121869   3.767   3.310   0.644
 6990SOL    HW221870   3.842   3.344   0.504
 6991SOL     OW21871   3.845   4.665   5.310
 6991SOL    HW121872   3.853   4.687   5.407
 6991SOL    HW221873   3.749   4.646   5.287
 6992SOL     OW21874   5.362   6.171   4.542
 6992SOL    HW121875   5.332   6.196   4.635
 6992SOL    HW221876   5.461   6.168   4.538
 6993SOL     OW21877   0.428   0.359   3.147
 6993SOL    HW121878   0.491   0.303   3.202
 6993SOL    HW221879   0.334   0.342   3.178
 6994SOL     OW21880   1.420   2.853   6.253
 6994SOL    HW121881   1.366   2.832   6.335
 6994SOL    HW221882   1.453   2.768   6.213
 6995SOL     OW21883   6.977   5.866   3.059
 6995SOL    HW121884   0.050   5.890   3.048
 6995SOL    HW221885   6.938   5.919   3.133
 6996SOL     OW21886   2.731   6.998   5.673
 6996SOL    HW121887   2.712   0.045   5.741
 6996SOL    HW221888   2.696   0.004   5.584
 6997SOL     OW21889   4.997   0.259   5.206
 6997SOL    HW121890   5.095   0.278   5.213
 6997SOL    HW221891   4.970   0.253   5.110
 6998SOL     OW21892   0.861   2.640   3.140
 6998SOL    HW121893   0.779   2.618   3.088
 6998SOL    HW221894   0.938   2.585   3.104
 6999SOL     OW21895   3.384   1.686   5.932
 6999SOL    HW121896   3.323   1.733   5.995
 6999SOL    HW221897   3.442   1.753   5.886
 7000SOL     OW21898   0.440   6.338   2.491
 7000SOL    HW121899   0.451   6.408   2.420
 7000SOL    HW221900   0.402   6.255   2.450
 7001SOL     OW21901   2.706   2.792   5.783
 7001SOL    HW121902   2.683   2.821   5.876
 7001SOL    HW221903   2.803   2.809   5.766
 7002SOL     OW21904   1.340   5.030   3.146
 7002SOL    HW121905   1.416   5.086   3.179
 7002SOL    HW221906   1.342   4.941   3.192
 7003SOL     OW21907   2.351   6.145   0.740
 7003SOL    HW121908   2.384   6.068   0.685
 7003SOL    HW221909   2.295   6.110   0.815
 7004SOL     OW21910   1.210   4.209   0.843
 7004SOL    HW121911   1.193   4.199   0.745
 7004SOL    HW221912   1.168   4.133   0.892
 7005SOL     OW21913   5.258   6.283   5.583
 7005SOL    HW121914   5.238   6.318   5.674
 7005SOL    HW221915   5.301   6.193   5.591
 7006SOL     OW21916   4.331   4.714   4.805
 7006SOL    HW121917   4.330   4.645   4.877
 7006SOL    HW221918   4.371   4.675   4.722
 7007SOL     OW21919   4.918   4.917   2.659
 7007SOL    HW121920   4.960   4.826   2.647
 7007SOL    HW221921   4.948   4.977   2.584
 7008SOL     OW21922   0.850   5.149   3.859
 7008SOL    HW121923   0.886   5.151   3.952
 7008SOL    HW221924   0.925   5.133   3.795
 7009SOL     OW21925   0.776   4.623   2.433
 7009SOL    HW121926   0.778   4.704   2.375
 7009SOL    HW221927   0.681   4.591   2.441
 7010SOL     OW21928   3.985   5.172   6.274
 7010SOL    HW121929   3.889   5.147   6.286
 7010SOL    HW221930   3.990   5.263   6.232
 7011SOL     OW21931   2.758   0.930   4.979
 7011SOL    HW121932   2.772   0.951   5.076
 7011SOL    HW221933   2.829   0.975   4.925
 7012SOL     OW21934   1.076   0.760   2.029
 7012SOL    HW121935   0.987   0.788   1.992
 7012SOL    HW221936   1.145   0.829   2.007
 7013SOL     OW21937   0.716   0.624   2.198
 7013SOL    HW121938   0.801   0.648   2.152
 7013SOL    HW221939   0.656   0.704   2.201
 7014SOL     OW21940   2.171   4.547   1.691
 7014SOL    HW121941   2.224   4.463   1.683
 7014SOL    HW221942   2.231   4.622   1.717
 7015SOL     OW21943   5.192   3.026   2.405
 7015SOL    HW121944   5.190   3.075   2.492
 7015SOL    HW221945   5.126   3.067   2.342
 7016SOL     OW21946   3.551   5.278   1.380
 7016SOL    HW121947   3.466   5.225   1.373
 7016SOL    HW221948   3.544   5.341   1.457
 7017SOL     OW21949   3.313   1.128   3.863
 7017SOL    HW121950   3.408   1.102   3.849
 7017SOL    HW221951   3.253   1.061   3.820
 7018SOL     OW21952   0.492   5.037   4.578
 7018SOL    HW121953   0.520   4.950   4.618
 7018SOL    HW221954   0.395   5.032   4.552
 7019SOL     OW21955   2.338   5.962   0.075
 7019SOL    HW121956   2.380   5.878   0.044
 7019SOL    HW221957   2.241   5.963   0.048
 7020SOL     OW21958   6.210   6.497   6.418
 7020SOL    HW121959   6.254   6.438   6.349
 7020SOL    HW221960   6.129   6.451   6.453
 7021SOL     OW21961   2.656   1.270   5.928
 7021SOL    HW121962   2.685   1.358   5.892
 7021SOL    HW221963   2.575   1.282   5.986
 7022SOL     OW21964   5.255   4.802   0.286
 7022SOL    HW121965   5.303   4.881   0.248
 7022SOL    HW221966   5.256   4.806   0.386
 7023SOL     OW21967   6.425   3.948   2.472
 7023SOL    HW121968   6.469   3.952   2.562
 7023SOL    HW221969   6.395   3.854   2.454
 7024SOL     OW21970   0.496   6.101   0.577
 7024SOL    HW121971   0.462   6.051   0.657
 7024SOL    HW221972   0.426   6.164   0.545
 7025SOL     OW21973   2.463   1.233   6.131
 7025SOL    HW121974   2.427   1.322   6.101
 7025SOL    HW221975   2.397   1.162   6.111
 7026SOL     OW21976   4.385   2.031   0.867
 7026SOL    HW121977   4.462   2.084   0.902
 7026SOL    HW221978   4.301   2.086   0.873
 7027SOL     OW21979   4.502   6.810   4.314
 7027SOL    HW121980   4.478   6.713   4.308
 7027SOL    HW221981   4.465   6.849   4.398
 7028SOL     OW21982   3.864   0.651   4.430
 7028SOL    HW121983   3.865   0.622   4.525
 7028SOL    HW221984   3.842   0.748   4.424
 7029SOL     OW21985   3.662   0.451   5.934
 7029SOL    HW121986   3.755   0.484   5.948
 7029SOL    HW221987   3.622   0.426   6.023
 7030SOL     OW21988   1.513   3.507   4.424
 7030SOL    HW121989   1.522   3.604   4.448
 7030SOL    HW221990   1.601   3.461   4.436
 7031SOL     OW21991   2.464   6.101   4.247
 7031SOL    HW121992   2.418   6.188   4.228
 7031SOL    HW221993   2.531   6.082   4.176
 7032SOL     OW21994   6.172   1.730   2.205
 7032SOL    HW121995   6.211   1.670   2.275
 7032SOL    HW221996   6.074   1.745   2.224
 7033SOL     OW21997   6.761   0.722   3.753
 7033SOL    HW121998   6.769   0.633   3.709
 7033SOL    HW221999   6.667   0.738   3.781
 7034SOL     OW22000   6.072   6.445   2.890
 7034SOL    HW122001   6.008   6.481   2.957
 7034SOL    HW222002   6.042   6.472   2.798
 7035SOL     OW22003   6.437   5.485   1.494
 7035SOL    HW122004   6.478   5.485   1.586
 7035SOL    HW222005   6.337   5.477   1.502
 7036SOL     OW22006   6.770   4.800   1.832
 7036SOL    HW122007   6.714   4.719   1.818
 7036SOL    HW222008   6.786   4.846   1.745
 7037SOL     OW22009   1.303   6.364   6.618
 7037SOL    HW122010   1.379   6.346   6.681
 7037SOL    HW222011   1.279   6.279   6.571
 7038SOL     OW22012   0.911   4.266   4.338
 7038SOL    HW122013   0.910   4.191   4.404
 7038SOL    HW222014   0.967   4.341   4.373
 7039SOL     OW22015   4.065   1.571   0.124
 7039SOL    HW122016   4.029   1.479   0.138
 7039SOL    HW222017   3.995   1.629   0.083
 7040SOL     OW22018   4.639   2.547   6.057
 7040SOL    HW122019   4.639   2.448   6.064
 7040SOL    HW222020   4.590   2.586   6.135
 7041SOL     OW22021   2.084   2.438   2.251
 7041SOL    HW122022   2.147   2.370   2.211
 7041SOL    HW222023   2.083   2.519   2.194
 7042SOL     OW22024   2.463   0.057   6.751
 7042SOL    HW122025   2.529   0.062   6.676
 7042SOL    HW222026   2.401   7.004   6.736
 7043SOL     OW22027   1.769   1.773   2.697
 7043SOL    HW122028   1.753   1.864   2.659
 7043SOL    HW222029   1.852   1.734   2.657
 7044SOL     OW22030   4.582   5.534   2.706
 7044SOL    HW122031   4.506   5.597   2.726
 7044SOL    HW222032   4.571   5.450   2.759
 7045SOL     OW22033   5.337   5.775   1.171
 7045SOL    HW122034   5.316   5.677   1.170
 7045SOL    HW222035   5.254   5.827   1.192
 7046SOL     OW22036   3.351   0.508   5.005
 7046SOL    HW122037   3.379   0.601   4.979
 7046SOL    HW222038   3.364   0.496   5.103
 7047SOL     OW22039   1.754   0.798   4.371
 7047SOL    HW122040   1.696   0.721   4.397
 7047SOL    HW222041   1.763   0.861   4.448
 7048SOL     OW22042   6.802   6.555   0.111
 7048SOL    HW122043   6.713   6.593   0.133
 7048SOL    HW222044   6.804   6.458   0.135
 7049SOL     OW22045   2.446   1.385   0.806
 7049SOL    HW122046   2.369   1.419   0.861
 7049SOL    HW222047   2.451   1.438   0.721
 7050SOL     OW22048   4.003   3.745   4.726
 7050SOL    HW122049   4.060   3.705   4.654
 7050SOL    HW222050   3.961   3.829   4.692
 7051SOL     OW22051   6.736   6.445   1.835
 7051SOL    HW122052   6.723   6.406   1.926
 7051SOL    HW222053   6.817   6.504   1.835
 7052SOL     OW22054   0.153   2.289   3.187
 7052SOL    HW122055   0.086   2.218   3.164
 7052SOL    HW222056   0.117   2.378   3.161
 7053SOL     OW22057   0.562   4.870   6.703
 7053SOL    HW122058   0.496   4.857   6.629
 7053SOL    HW222059   0.547   4.959   6.746
 7054SOL     OW22060   0.212   6.694   1.807
 7054SOL    HW122061   0.217   6.664   1.712
 7054SOL    HW222062   0.146   6.770   1.815
 7055SOL     OW22063   3.781   0.100   4.796
 7055SOL    HW122064   3.878   0.075   4.797
 7055SOL    HW222065   3.753   0.125   4.889
 7056SOL     OW22066   5.359   5.000   4.125
 7056SOL    HW122067   5.320   5.074   4.180
 7056SOL    HW222068   5.324   4.912   4.157
 7057SOL     OW22069   0.394   5.875   3.184
 7057SOL    HW122070   0.434   5.790   3.150
 7057SOL    HW222071   0.426   5.891   3.278
 7058SOL     OW22072   0.952   5.760   5.589
 7058SOL    HW122073   1.039   5.749   5.638
 7058SOL    HW222074   0.968   5.808   5.503
 7059SOL     OW22075   1.409   0.434   2.225
 7059SOL    HW122076   1.319   0.471   2.202
 7059SOL    HW222077   1.403   0.383   2.311
 7060SOL     OW22078   3.174   6.461   1.344
 7060SOL    HW122079   3.098   6.410   1.385
 7060SOL    HW222080   3.258   6.407   1.350
 7061SOL     OW22081   0.713   0.850   2.505
 7061SOL    HW122082   0.718   0.796   2.590
 7061SOL    HW222083   0.618   0.862   2.479
 7062SOL     OW22084   5.612   2.306   4.782
 7062SOL    HW122085   5.705   2.310   4.745
 7062SOL    HW222086   5.549   2.351   4.718
 7063SOL     OW22087   3.755   6.449   1.069
 7063SOL    HW122088   3.749   6.537   1.116
 7063SOL    HW222089   3.758   6.375   1.136
 7064SOL     OW22090   3.778   2.629   0.406
 7064SOL    HW122091   3.844   2.568   0.363
 7064SOL    HW222092   3.768   2.712   0.350
 7065SOL     OW22093   4.356   3.395   1.313
 7065SOL    HW122094   4.419   3.468   1.337
 7065SOL    HW222095   4.382   3.311   1.360
 7066SOL     OW22096   3.399   6.668   0.917
 7066SOL    HW122097   3.390   6.668   0.817
 7066SOL    HW222098   3.381   6.576   0.952
 7067SOL     OW22099   0.088   4.001   5.381
 7067SOL    HW122100   0.176   3.992   5.427
 7067SOL    HW222101   0.062   4.098   5.379
 7068SOL     OW22102   1.618   0.923   3.567
 7068SOL    HW122103   1.670   0.840   3.548
 7068SOL    HW222104   1.534   0.922   3.513
 7069SOL     OW22105   1.343   4.652   4.840
 7069SOL    HW122106   1.377   4.652   4.745
 7069SOL    HW222107   1.334   4.747   4.872
 7070SOL     OW22108   6.047   5.166   4.538
 7070SOL    HW122109   5.978   5.127   4.599
 7070SOL    HW222110   6.101   5.092   4.499
 7071SOL     OW22111   1.503   6.258   5.854
 7071SOL    HW122112   1.575   6.213   5.907
 7071SOL    HW222113   1.460   6.192   5.792
 7072SOL     OW22114   0.319   6.504   6.504
 7072SOL    HW122115   0.370   6.422   6.477
 7072SOL    HW222116   0.297   6.497   6.601
 7073SOL     OW22117   1.067   0.473   5.833
 7073SOL    HW122118   1.133   0.521   5.892
 7073SOL    HW222119   1.000   0.538   5.798
 7074SOL     OW22120   3.301   1.721   1.304
 7074SOL    HW122121   3.314   1.626   1.275
 7074SOL    HW222122   3.374   1.747   1.368
 7075SOL     OW22123   1.802   6.297   3.023
 7075SOL    HW122124   1.801   6.363   3.098
 7075SOL    HW222125   1.820   6.206   3.060
 7076SOL     OW22126   2.592   2.435   6.728
 7076SOL    HW122127   2.622   2.441   6.633
 7076SOL    HW222128   2.503   2.479   6.738
 7077SOL     OW22129   2.463   5.609   5.733
 7077SOL    HW122130   2.378   5.618   5.680
 7077SOL    HW222131   2.529   5.555   5.681
 7078SOL     OW22132   6.041   1.011   3.384
 7078SOL    HW122133   6.117   0.987   3.443
 7078SOL    HW222134   5.971   1.059   3.437
 7079SOL     OW22135   5.936   6.193   5.973
 7079SOL    HW122136   6.030   6.225   5.987
 7079SOL    HW222137   5.911   6.131   6.048
 7080SOL     OW22138   4.342   1.194   4.064
 7080SOL    HW122139   4.394   1.253   4.126
 7080SOL    HW222140   4.405   1.140   4.008
 7081SOL     OW22141   3.690   1.099   4.721
 7081SOL    HW122142   3.649   1.021   4.675
 7081SOL    HW222143   3.733   1.069   4.806
 7082SOL     OW22144   5.178   0.700   6.034
 7082SOL    HW122145   5.243   0.759   6.082
 7082SOL    HW222146   5.196   0.605   6.059
 7083SOL     OW22147   3.459   0.100   6.597
 7083SOL    HW122148   3.559   0.100   6.601
 7083SOL    HW222149   3.425   0.013   6.634
 7084SOL     OW22150   6.848   6.558   5.795
 7084SOL    HW122151   6.879   6.554   5.700
 7084SOL    HW222152   6.831   6.466   5.829
 7085SOL     OW22153   2.459   2.338   1.612
 7085SOL    HW122154   2.382   2.329   1.674
 7085SOL    HW222155   2.528   2.268   1.633
 7086SOL     OW22156   6.081   0.240   6.366
 7086SOL    HW122157   6.013   0.224   6.437
 7086SOL    HW222158   6.041   0.294   6.292
 7087SOL     OW22159   1.024   3.469   3.865
 7087SOL    HW122160   0.989   3.518   3.944
 7087SOL    HW222161   1.054   3.378   3.892
 7088SOL     OW22162   5.961   2.941   5.339
 7088SOL    HW122163   6.020   3.018   5.362
 7088SOL    HW222164   5.967   2.923   5.241
 7089SOL     OW22165   2.633   1.451   0.471
 7089SOL    HW122166   2.719   1.498   0.491
 7089SOL    HW222167   2.557   1.516   0.477
 7090SOL     OW22168   2.428   2.583   5.056
 7090SOL    HW122169   2.442   2.580   4.957
 7090SOL    HW222170   2.516   2.601   5.101
 7091SOL     OW22171   6.966   6.111   0.046
 7091SOL    HW122172   0.008   6.125   0.120
 7091SOL    HW222173   6.995   6.162   6.989
 7092SOL     OW22174   3.477   3.769   1.007
 7092SOL    HW122175   3.444   3.800   0.918
 7092SOL    HW222176   3.409   3.709   1.049
 7093SOL     OW22177   3.426   3.839   4.596
 7093SOL    HW122178   3.410   3.911   4.663
 7093SOL    HW222179   3.341   3.815   4.551
 7094SOL     OW22180   0.824   0.480   5.633
 7094SOL    HW122181   0.760   0.528   5.693
 7094SOL    HW222182   0.807   0.382   5.637
 7095SOL     OW22183   0.591   3.200   6.835
 7095SOL    HW122184   0.528   3.126   6.812
 7095SOL    HW222185   0.620   3.246   6.751
 7096SOL     OW22186   4.720   2.370   3.201
 7096SOL    HW122187   4.716   2.410   3.109
 7096SOL    HW222188   4.743   2.273   3.194
 7097SOL     OW22189   0.383   0.803   1.513
 7097SOL    HW122190   0.408   0.707   1.504
 7097SOL    HW222191   0.449   0.850   1.572
 7098SOL     OW22192   1.844   6.607   5.860
 7098SOL    HW122193   1.827   6.687   5.802
 7098SOL    HW222194   1.882   6.637   5.947
 7099SOL     OW22195   0.312   1.101   6.348
 7099SOL    HW122196   0.270   1.098   6.439
 7099SOL    HW222197   0.318   1.008   6.312
 7100SOL     OW22198   5.888   3.275   1.158
 7100SOL    HW122199   5.971   3.250   1.209
 7100SOL    HW222200   5.910   3.283   1.061
 7101SOL     OW22201   2.812   0.611   5.247
 7101SOL    HW122202   2.785   0.670   5.322
 7101SOL    HW222203   2.890   0.651   5.198
 7102SOL     OW22204   4.337   1.767   0.737
 7102SOL    HW122205   4.346   1.769   0.637
 7102SOL    HW222206   4.362   1.857   0.774
 7103SOL     OW22207   3.679   6.565   7.016
 7103SOL    HW122208   3.728   6.621   6.950
 7103SOL    HW222209   3.586   6.549   6.984
 7104SOL     OW22210   0.864   2.308   2.986
 7104SOL    HW122211   0.925   2.386   2.995
 7104SOL    HW222212   0.833   2.301   2.891
 7105SOL     OW22213   3.485   3.670   4.937
 7105SOL    HW122214   3.416   3.614   4.891
 7105SOL    HW222215   3.441   3.743   4.988
 7106SOL     OW22216   3.180   2.734   5.346
 7106SOL    HW122217   3.254   2.756   5.410
 7106SOL    HW222218   3.185   2.637   5.321
 7107SOL     OW22219   2.708   1.936   0.437
 7107SOL    HW122220   2.776   1.995   0.481
 7107SOL    HW222221   2.660   1.883   0.507
 7108SOL     OW22222   5.154   0.074   1.753
 7108SOL    HW122223   5.192   0.157   1.711
 7108SOL    HW222224   5.225   0.027   1.805
 7109SOL     OW22225   3.675   6.990   6.348
 7109SOL    HW122226   3.751   0.028   6.364
 7109SOL    HW222227   3.590   0.007   6.381
 7110SOL     OW22228   4.800   5.254   3.368
 7110SOL    HW122229   4.815   5.225   3.273
 7110SOL    HW222230   4.764   5.347   3.369
 7111SOL     OW22231   2.201   2.983   4.120
 7111SOL    HW122232   2.257   3.026   4.191
 7111SOL    HW222233   2.178   3.052   4.051
 7112SOL     OW22234   0.890   6.515   3.342
 7112SOL    HW122235   0.865   6.604   3.305
 7112SOL    HW222236   0.980   6.521   3.387
 7113SOL     OW22237   4.068   3.221   4.156
 7113SOL    HW122238   4.065   3.181   4.247
 7113SOL    HW222239   4.057   3.320   4.162
 7114SOL     OW22240   3.858   1.088   1.448
 7114SOL    HW122241   3.865   1.003   1.396
 7114SOL    HW222242   3.920   1.156   1.408
 7115SOL     OW22243   4.678   1.262   1.096
 7115SOL    HW122244   4.738   1.337   1.068
 7115SOL    HW222245   4.726   1.205   1.163
 7116SOL     OW22246   5.394   4.091   3.004
 7116SOL    HW122247   5.491   4.117   2.999
 7116SOL    HW222248   5.350   4.138   3.081
 7117SOL     OW22249   6.229   6.875   1.814
 7117SOL    HW122250   6.240   6.836   1.906
 7117SOL    HW222251   6.220   6.800   1.748
 7118SOL     OW22252   6.183   2.683   0.723
 7118SOL    HW122253   6.234   2.758   0.766
 7118SOL    HW222254   6.085   2.696   0.738
 7119SOL     OW22255   0.031   1.787   3.202
 7119SOL    HW122256   0.002   1.769   3.296
 7119SOL    HW222257   0.115   1.737   3.183
 7120SOL     OW22258   5.200   1.342   3.313
 7120SOL    HW122259   5.190   1.276   3.387
 7120SOL    HW222260   5.112   1.351   3.265
 7121SOL     OW22261   3.157   6.647   3.415
 7121SOL    HW122262   3.240   6.695   3.387
 7121SOL    HW222263   3.084   6.714   3.429
 7122SOL     OW22264   6.162   0.911   6.727
 7122SOL    HW122265   6.115   0.994   6.758
 7122SOL    HW222266   6.103   0.832   6.742
 7123SOL     OW22267   2.695   5.038   1.266
 7123SOL    HW122268   2.661   4.955   1.309
 7123SOL    HW222269   2.619   5.086   1.221
 7124SOL     OW22270   0.365   4.777   0.505
 7124SOL    HW122271   0.269   4.748   0.499
 7124SOL    HW222272   0.400   4.757   0.596
 7125SOL     OW22273   6.060   6.449   2.384
 7125SOL    HW122274   6.010   6.530   2.353
 7125SOL    HW222275   6.065   6.382   2.310
 7126SOL     OW22276   1.240   4.669   0.628
 7126SOL    HW122277   1.172   4.657   0.701
 7126SOL    HW222278   1.257   4.582   0.583
 7127SOL     OW22279   3.783   6.497   4.351
 7127SOL    HW122280   3.831   6.443   4.420
 7127SOL    HW222281   3.714   6.554   4.395
 7128SOL     OW22282   3.426   3.836   1.307
 7128SOL    HW122283   3.343   3.780   1.302
 7128SOL    HW222284   3.467   3.842   1.216
 7129SOL     OW22285   2.446   6.914   1.582
 7129SOL    HW122286   2.468   6.831   1.634
 7129SOL    HW222287   2.526   6.973   1.578
 7130SOL     OW22288   2.089   4.370   3.357
 7130SOL    HW122289   2.067   4.467   3.350
 7130SOL    HW222290   2.011   4.317   3.322
 7131SOL     OW22291   2.617   0.868   2.938
 7131SOL    HW122292   2.581   0.798   3.000
 7131SOL    HW222293   2.587   0.958   2.969
 7132SOL     OW22294   3.387   4.163   3.508
 7132SOL    HW122295   3.485   4.185   3.504
 7132SOL    HW222296   3.359   4.155   3.603
 7133SOL     OW22297   5.262   4.993   2.756
 7133SOL    HW122298   5.344   4.985   2.698
 7133SOL    HW222299   5.246   4.907   2.803
 7134SOL     OW22300   5.787   4.489   4.454
 7134SOL    HW122301   5.885   4.469   4.459
 7134SOL    HW222302   5.773   4.588   4.450
 7135SOL     OW22303   0.975   1.913   4.940
 7135SOL    HW122304   0.912   1.901   4.864
 7135SOL    HW222305   1.030   1.995   4.924
 7136SOL     OW22306   2.107   1.242   0.261
 7136SOL    HW122307   2.015   1.228   0.224
 7136SOL    HW222308   2.168   1.171   0.226
 7137SOL     OW22309   4.387   0.657   4.783
 7137SOL    HW122310   4.305   0.713   4.785
 7137SOL    HW222311   4.464   0.711   4.748
 7138SOL     OW22312   2.269   4.023   1.130
 7138SOL    HW122313   2.249   4.115   1.096
 7138SOL    HW222314   2.252   3.957   1.058
 7139SOL     OW22315   3.659   2.875   1.287
 7139SOL    HW122316   3.715   2.795   1.264
 7139SOL    HW222317   3.716   2.943   1.333
 7140SOL     OW22318   5.925   3.894   5.475
 7140SOL    HW122319   5.855   3.965   5.486
 7140SOL    HW222320   6.016   3.935   5.486
 7141SOL     OW22321   2.768   6.963   0.345
 7141SOL    HW122322   2.755   6.878   0.294
 7141SOL    HW222323   2.682   6.986   0.392
 7142SOL     OW22324   3.939   6.224   4.301
 7142SOL    HW122325   3.974   6.132   4.288
 7142SOL    HW222326   3.986   6.287   4.238
 7143SOL     OW22327   1.733   4.162   5.700
 7143SOL    HW122328   1.649   4.110   5.684
 7143SOL    HW222329   1.720   4.257   5.673
 7144SOL     OW22330   0.775   2.321   3.586
 7144SOL    HW122331   0.767   2.403   3.529
 7144SOL    HW222332   0.704   2.322   3.656
 7145SOL     OW22333   4.708   6.842   6.902
 7145SOL    HW122334   4.804   6.862   6.882
 7145SOL    HW222335   4.650   6.890   6.837
 7146SOL     OW22336   3.408   5.311   0.254
 7146SOL    HW122337   3.404   5.211   0.261
 7146SOL    HW222338   3.396   5.338   0.158
 7147SOL     OW22339   0.408   0.542   3.411
 7147SOL    HW122340   0.384   0.477   3.339
 7147SOL    HW222341   0.411   0.495   3.499
 7148SOL     OW22342   0.921   0.858   1.738
 7148SOL    HW122343   0.932   0.953   1.767
 7148SOL    HW222344   1.010   0.821   1.709
 7149SOL     OW22345   6.291   1.682   3.267
 7149SOL    HW122346   6.377   1.676   3.217
 7149SOL    HW222347   6.309   1.701   3.364
 7150SOL     OW22348   6.261   2.948   0.010
 7150SOL    HW122349   6.329   2.878   0.029
 7150SOL    HW222350   6.266   3.020   0.079
 7151SOL     OW22351   2.802   6.037   1.795
 7151SOL    HW122352   2.816   5.939   1.792
 7151SOL    HW222353   2.706   6.057   1.817
 7152SOL     OW22354   1.343   2.811   3.793
 7152SOL    HW122355   1.382   2.857   3.873
 7152SOL    HW222356   1.402   2.826   3.714
 7153SOL     OW22357   3.885   1.532   3.810
 7153SOL    HW122358   3.957   1.602   3.805
 7153SOL    HW222359   3.833   1.545   3.895
 7154SOL     OW22360   4.643   5.488   3.806
 7154SOL    HW122361   4.640   5.392   3.835
 7154SOL    HW222362   4.631   5.547   3.885
 7155SOL     OW22363   2.636   0.111   1.017
 7155SOL    HW122364   2.579   0.099   0.935
 7155SOL    HW222365   2.636   0.207   1.044
 7156SOL     OW22366   0.097   5.759   4.716
 7156SOL    HW122367   0.023   5.722   4.659
 7156SOL    HW222368   0.070   5.755   4.812
 7157SOL     OW22369   4.741   4.695   0.900
 7157SOL    HW122370   4.787   4.620   0.854
 7157SOL    HW222371   4.660   4.660   0.948
 7158SOL     OW22372   6.545   6.758   3.257
 7158SOL    HW122373   6.470   6.704   3.295
 7158SOL    HW222374   6.560   6.839   3.314
 7159SOL     OW22375   1.143   5.478   0.332
 7159SOL    HW122376   1.134   5.402   0.267
 7159SOL    HW222377   1.137   5.564   0.282
 7160SOL     OW22378   5.853   0.096   2.058
 7160SOL    HW122379   5.933   0.115   2.002
 7160SOL    HW222380   5.770   0.129   2.012
 7161SOL     OW22381   3.506   3.271   4.048
 7161SOL    HW122382   3.577   3.207   4.077
 7161SOL    HW222383   3.431   3.219   4.006
 7162SOL     OW22384   3.553   4.982   3.660
 7162SOL    HW122385   3.629   4.989   3.596
 7162SOL    HW222386   3.470   5.018   3.617
 7163SOL     OW22387   2.385   0.290   3.079
 7163SOL    HW122388   2.465   0.232   3.092
 7163SOL    HW222389   2.405   0.360   3.010
 7164SOL     OW22390   2.134   1.023   3.050
 7164SOL    HW122391   2.121   1.119   3.077
 7164SOL    HW222392   2.101   1.010   2.957
 7165SOL     OW22393   5.142   1.039   1.091
 7165SOL    HW122394   5.101   1.108   1.031
 7165SOL    HW222395   5.196   1.084   1.161
 7166SOL     OW22396   5.125   4.686   1.111
 7166SOL    HW122397   5.137   4.651   1.204
 7166SOL    HW222398   5.213   4.688   1.065
 7167SOL     OW22399   4.916   3.128   5.010
 7167SOL    HW122400   4.947   3.095   4.921
 7167SOL    HW222401   4.874   3.052   5.061
 7168SOL     OW22402   1.092   0.472   3.747
 7168SOL    HW122403   1.156   0.532   3.697
 7168SOL    HW222404   1.000   0.510   3.741
 7169SOL     OW22405   1.225   2.419   5.187
 7169SOL    HW122406   1.228   2.427   5.287
 7169SOL    HW222407   1.294   2.353   5.157
 7170SOL     OW22408   6.534   4.728   4.442
 7170SOL    HW122409   6.617   4.770   4.477
 7170SOL    HW222410   6.489   4.676   4.515
 7171SOL     OW22411   4.306   3.329   5.297
 7171SOL    HW122412   4.358   3.265   5.354
 7171SOL    HW222413   4.350   3.418   5.300
 7172SOL     OW22414   1.126   0.181   0.535
 7172SOL    HW122415   1.128   0.091   0.493
 7172SOL    HW222416   1.099   0.172   0.631
 7173SOL     OW22417   6.783   6.140   5.652
 7173SOL    HW122418   6.745   6.147   5.744
 7173SOL    HW222419   6.873   6.184   5.650
 7174SOL     OW22420   1.788   5.010   0.334
 7174SOL    HW122421   1.806   5.029   0.238
 7174SOL    HW222422   1.712   4.946   0.342
 7175SOL     OW22423   6.627   3.873   6.204
 7175SOL    HW122424   6.578   3.811   6.142
 7175SOL    HW222425   6.691   3.929   6.151
 7176SOL     OW22426   5.836   4.160   1.302
 7176SOL    HW122427   5.806   4.084   1.359
 7176SOL    HW222428   5.828   4.245   1.354
 7177SOL     OW22429   0.660   5.568   2.055
 7177SOL    HW122430   0.633   5.531   2.143
 7177SOL    HW222431   0.719   5.648   2.068
 7178SOL     OW22432   0.697   2.344   5.595
 7178SOL    HW122433   0.781   2.291   5.606
 7178SOL    HW222434   0.704   2.429   5.648
 7179SOL     OW22435   2.845   3.760   5.874
 7179SOL    HW122436   2.885   3.747   5.965
 7179SOL    HW222437   2.890   3.836   5.828
 7180SOL     OW22438   0.384   5.865   1.937
 7180SOL    HW122439   0.308   5.815   1.978
 7180SOL    HW222440   0.433   5.916   2.007
 7181SOL     OW22441   5.214   0.398   1.432
 7181SOL    HW122442   5.290   0.410   1.368
 7181SOL    HW222443   5.152   0.476   1.425
 7182SOL     OW22444   2.714   4.218   5.639
 7182SOL    HW122445   2.649   4.292   5.656
 7182SOL    HW222446   2.666   4.130   5.639
 7183SOL     OW22447   1.201   5.520   2.524
 7183SOL    HW122448   1.276   5.582   2.547
 7183SOL    HW222449   1.114   5.571   2.525
 7184SOL     OW22450   2.139   6.585   4.156
 7184SOL    HW122451   2.120   6.511   4.221
 7184SOL    HW222452   2.093   6.669   4.187
 7185SOL     OW22453   4.667   2.468   6.791
 7185SOL    HW122454   4.669   2.535   6.865
 7185SOL    HW222455   4.752   2.415   6.791
 7186SOL     OW22456   0.542   6.247   5.260
 7186SOL    HW122457   0.533   6.341   5.292
 7186SOL    HW222458   0.490   6.235   5.176
 7187SOL     OW22459   2.121   4.064   1.712
 7187SOL    HW122460   2.189   4.120   1.665
 7187SOL    HW222461   2.156   4.034   1.800
 7188SOL     OW22462   5.098   1.730   1.849
 7188SOL    HW122463   5.018   1.672   1.865
 7188SOL    HW222464   5.178   1.689   1.893
 7189SOL     OW22465   6.761   1.094   5.112
 7189SOL    HW122466   6.827   1.169   5.108
 7189SOL    HW222467   6.669   1.129   5.099
 7190SOL     OW22468   5.024   4.412   3.529
 7190SOL    HW122469   5.087   4.479   3.567
 7190SOL    HW222470   5.006   4.340   3.596
 7191SOL     OW22471   1.867   3.578   2.084
 7191SOL    HW122472   1.925   3.548   2.008
 7191SOL    HW222473   1.924   3.606   2.161
 7192SOL     OW22474   2.750   4.413   6.017
 7192SOL    HW122475   2.822   4.445   5.955
 7192SOL    HW222476   2.663   4.410   5.968
 7193SOL     OW22477   4.086   2.197   3.598
 7193SOL    HW122478   3.987   2.193   3.613
 7193SOL    HW222479   4.104   2.190   3.499
 7194SOL     OW22480   2.630   1.567   2.091
 7194SOL    HW122481   2.663   1.510   2.016
 7194SOL    HW222482   2.663   1.660   2.080
 7195SOL     OW22483   1.142   5.609   0.928
 7195SOL    HW122484   1.128   5.568   0.837
 7195SOL    HW222485   1.088   5.559   0.996
 7196SOL     OW22486   2.915   3.255   2.387
 7196SOL    HW122487   2.886   3.349   2.403
 7196SOL    HW222488   2.939   3.212   2.475
 7197SOL     OW22489   6.664   2.009   6.135
 7197SOL    HW122490   6.662   2.104   6.106
 7197SOL    HW222491   6.621   1.951   6.066
 7198SOL     OW22492   1.062   6.417   6.767
 7198SOL    HW122493   1.013   6.340   6.808
 7198SOL    HW222494   1.144   6.382   6.721
 7199SOL     OW22495   6.034   6.546   2.633
 7199SOL    HW122496   6.032   6.636   2.591
 7199SOL    HW222497   6.035   6.476   2.561
 7200SOL     OW22498   1.679   1.374   1.199
 7200SOL    HW122499   1.768   1.364   1.244
 7200SOL    HW222500   1.650   1.470   1.203
 7201SOL     OW22501   1.859   4.199   3.913
 7201SOL    HW122502   1.835   4.154   3.999
 7201SOL    HW222503   1.922   4.274   3.931
 7202SOL     OW22504   3.762   0.877   6.754
 7202SOL    HW122505   3.848   0.915   6.787
 7202SOL    HW222506   3.767   0.777   6.756
 7203SOL     OW22507   5.224   1.214   0.154
 7203SOL    HW122508   5.131   1.238   0.125
 7203SOL    HW222509   5.264   1.290   0.205
 7204SOL     OW22510   6.067   1.734   3.111
 7204SOL    HW122511   6.149   1.711   3.163
 7204SOL    HW222512   6.047   1.831   3.121
 7205SOL     OW22513   2.206   4.881   2.420
 7205SOL    HW122514   2.168   4.913   2.507
 7205SOL    HW222515   2.186   4.784   2.408
 7206SOL     OW22516   6.355   0.974   1.719
 7206SOL    HW122517   6.381   1.026   1.638
 7206SOL    HW222518   6.278   0.913   1.697
 7207SOL     OW22519   3.645   6.746   1.849
 7207SOL    HW122520   3.733   6.701   1.838
 7207SOL    HW222521   3.654   6.820   1.916
 7208SOL     OW22522   3.187   0.235   5.447
 7208SOL    HW122523   3.160   0.140   5.461
 7208SOL    HW222524   3.245   0.266   5.523
 7209SOL     OW22525   3.879   3.425   4.562
 7209SOL    HW122526   3.928   3.481   4.629
 7209SOL    HW222527   3.788   3.402   4.598
 7210SOL     OW22528   4.593   1.599   4.219
 7210SOL    HW122529   4.657   1.585   4.144
 7210SOL    HW222530   4.633   1.663   4.285
 7211SOL     OW22531   1.590   5.411   3.344
 7211SOL    HW122532   1.534   5.461   3.409
 7211SOL    HW222533   1.606   5.467   3.263
 7212SOL     OW22534   6.073   6.312   4.139
 7212SOL    HW122535   6.013   6.373   4.087
 7212SOL    HW222536   6.110   6.361   4.218
 7213SOL     OW22537   5.742   1.066   5.511
 7213SOL    HW122538   5.745   0.969   5.537
 7213SOL    HW222539   5.795   1.079   5.427
 7214SOL     OW22540   1.763   5.098   4.886
 7214SOL    HW122541   1.749   5.154   4.804
 7214SOL    HW222542   1.857   5.064   4.888
 7215SOL     OW22543   1.229   3.668   3.885
 7215SOL    HW122544   1.215   3.569   3.875
 7215SOL    HW222545   1.156   3.717   3.838
 7216SOL     OW22546   2.534   0.402   1.080
 7216SOL    HW122547   2.441   0.435   1.065
 7216SOL    HW222548   2.591   0.477   1.112
 7217SOL     OW22549   1.227   2.988   2.317
 7217SOL    HW122550   1.224   3.022   2.410
 7217SOL    HW222551   1.134   2.984   2.280
 7218SOL     OW22552   5.011   2.567   5.532
 7218SOL    HW122553   5.090   2.515   5.501
 7218SOL    HW222554   5.032   2.612   5.619
 7219SOL     OW22555   3.766   0.918   2.583
 7219SOL    HW122556   3.754   0.940   2.486
 7219SOL    HW222557   3.854   0.871   2.595
 7220SOL     OW22558   6.686   0.968   2.632
 7220SOL    HW122559   6.608   0.911   2.659
 7220SOL    HW222560   6.745   0.983   2.711
 7221SOL     OW22561   5.386   5.253   6.450
 7221SOL    HW122562   5.388   5.236   6.351
 7221SOL    HW222563   5.416   5.172   6.499
 7222SOL     OW22564   0.393   5.936   1.365
 7222SOL    HW122565   0.302   5.973   1.347
 7222SOL    HW222566   0.430   5.894   1.282
 7223SOL     OW22567   3.577   0.869   5.493
 7223SOL    HW122568   3.547   0.829   5.406
 7223SOL    HW222569   3.497   0.886   5.550
 7224SOL     OW22570   5.287   6.878   4.534
 7224SOL    HW122571   5.228   6.958   4.527
 7224SOL    HW222572   5.319   6.868   4.628
 7225SOL     OW22573   2.225   6.425   6.867
 7225SOL    HW122574   2.155   6.430   6.795
 7225SOL    HW222575   2.290   6.352   6.845
 7226SOL     OW22576   6.971   6.386   0.703
 7226SOL    HW122577   6.957   6.479   0.738
 7226SOL    HW222578   6.945   6.382   0.607
 7227SOL     OW22579   0.058   2.379   6.890
 7227SOL    HW122580   0.038   2.477   6.900
 7227SOL    HW222581   6.999   2.327   6.909
 7228SOL     OW22582   1.296   0.749   2.625
 7228SOL    HW122583   1.211   0.799   2.613
 7228SOL    HW222584   1.373   0.812   2.622
 7229SOL     OW22585   0.427   0.408   3.636
 7229SOL    HW122586   0.462   0.428   3.727
 7229SOL    HW222587   0.453   0.316   3.609
 7230SOL     OW22588   5.035   3.895   3.201
 7230SOL    HW122589   5.113   3.835   3.182
 7230SOL    HW222590   5.059   3.960   3.273
 7231SOL     OW22591   5.820   0.982   6.494
 7231SOL    HW122592   5.828   1.077   6.524
 7231SOL    HW222593   5.724   0.956   6.492
 7232SOL     OW22594   3.976   4.671   1.348
 7232SOL    HW122595   3.943   4.763   1.327
 7232SOL    HW222596   4.070   4.676   1.382
 7233SOL     OW22597   6.633   2.067   6.443
 7233SOL    HW122598   6.540   2.039   6.464
 7233SOL    HW222599   6.659   2.033   6.352
 7234SOL     OW22600   6.215   1.924   2.003
 7234SOL    HW122601   6.241   1.850   1.941
 7234SOL    HW222602   6.195   1.887   2.094
 7235SOL     OW22603   5.735   4.083   5.520
 7235SOL    HW122604   5.797   4.155   5.489
 7235SOL    HW222605   5.651   4.085   5.467
 7236SOL     OW22606   3.244   0.350   2.983
 7236SOL    HW122607   3.240   0.445   3.016
 7236SOL    HW222608   3.168   0.334   2.920
 7237SOL     OW22609   6.000   5.985   5.794
 7237SOL    HW122610   5.958   6.035   5.870
 7237SOL    HW222611   5.931   5.966   5.725
 7238SOL     OW22612   1.632   1.653   1.183
 7238SOL    HW122613   1.653   1.697   1.270
 7238SOL    HW222614   1.669   1.707   1.108
 7239SOL     OW22615   3.978   1.535   1.619
 7239SOL    HW122616   4.017   1.597   1.550
 7239SOL    HW222617   4.017   1.555   1.708
 7240SOL     OW22618   2.600   4.733   0.302
 7240SOL    HW122619   2.628   4.758   0.395
 7240SOL    HW222620   2.680   4.733   0.242
 7241SOL     OW22621   3.758   0.061   5.249
 7241SOL    HW122622   3.730   0.082   5.342
 7241SOL    HW222623   3.835   0.119   5.223
 7242SOL     OW22624   4.977   4.786   6.937
 7242SOL    HW122625   4.984   4.783   0.013
 7242SOL    HW222626   5.066   4.764   6.898
 7243SOL     OW22627   0.576   5.489   0.161
 7243SOL    HW122628   0.533   5.428   0.227
 7243SOL    HW222629   0.634   5.555   0.208
 7244SOL     OW22630   6.152   1.007   1.366
 7244SOL    HW122631   6.120   1.059   1.286
 7244SOL    HW222632   6.247   0.979   1.351
 7245SOL     OW22633   0.420   1.928   3.521
 7245SOL    HW122634   0.510   1.920   3.477
 7245SOL    HW222635   0.358   1.860   3.483
 7246SOL     OW22636   0.204   6.282   5.975
 7246SOL    HW122637   0.194   6.292   5.876
 7246SOL    HW222638   0.196   6.186   5.999
 7247SOL     OW22639   3.346   5.540   2.492
 7247SOL    HW122640   3.371   5.445   2.473
 7247SOL    HW222641   3.417   5.582   2.549
 7248SOL     OW22642   3.593   0.468   4.842
 7248SOL    HW122643   3.542   0.544   4.803
 7248SOL    HW222644   3.543   0.429   4.919
 7249SOL     OW22645   6.115   5.803   6.772
 7249SOL    HW122646   6.187   5.751   6.726
 7249SOL    HW222647   6.138   5.816   6.868
 7250SOL     OW22648   2.872   4.272   6.801
 7250SOL    HW122649   2.878   4.187   6.852
 7250SOL    HW222650   2.815   4.259   6.720
 7251SOL     OW22651   6.037   0.287   5.113
 7251SOL    HW122652   6.104   0.305   5.042
 7251SOL    HW222653   5.949   0.328   5.088
 7252SOL     OW22654   3.804   3.671   4.900
 7252SOL    HW122655   3.888   3.664   4.847
 7252SOL    HW222656   3.734   3.719   4.846
 7253SOL     OW22657   5.217   6.282   1.484
 7253SOL    HW122658   5.285   6.210   1.470
 7253SOL    HW222659   5.175   6.271   1.574
 7254SOL     OW22660   5.056   6.030   5.249
 7254SOL    HW122661   5.052   5.930   5.250
 7254SOL    HW222662   5.141   6.058   5.203
 7255SOL     OW22663   3.709   3.764   2.310
 7255SOL    HW122664   3.668   3.843   2.265
 7255SOL    HW222665   3.807   3.764   2.296
 7256SOL     OW22666   4.465   4.920   4.402
 7256SOL    HW122667   4.440   4.824   4.416
 7256SOL    HW222668   4.527   4.927   4.324
 7257SOL     OW22669   6.004   3.966   2.849
 7257SOL    HW122670   5.922   3.920   2.884
 7257SOL    HW222671   5.994   4.065   2.858
 7258SOL     OW22672   4.025   6.889   4.614
 7258SOL    HW122673   4.004   6.884   4.517
 7258SOL    HW222674   4.048   6.983   4.639
 7259SOL     OW22675   2.754   5.507   5.863
 7259SOL    HW122676   2.844   5.547   5.848
 7259SOL    HW222677   2.722   5.529   5.955
 7260SOL     OW22678   3.616   2.028   1.797
 7260SOL    HW122679   3.675   1.951   1.822
 7260SOL    HW222680   3.663   2.114   1.818
 7261SOL     OW22681   1.397   3.982   2.316
 7261SOL    HW122682   1.322   3.920   2.295
 7261SOL    HW222683   1.363   4.077   2.315
 7262SOL     OW22684   6.204   2.108   5.252
 7262SOL    HW122685   6.214   2.144   5.159
 7262SOL    HW222686   6.112   2.071   5.263
 7263SOL     OW22687   4.054   6.124   1.926
 7263SOL    HW122688   4.068   6.037   1.880
 7263SOL    HW222689   3.969   6.165   1.894
 7264SOL     OW22690   1.051   6.763   5.640
 7264SOL    HW122691   1.130   6.767   5.578
 7264SOL    HW222692   1.047   6.848   5.693
 7265SOL     OW22693   4.155   4.821   5.945
 7265SOL    HW122694   4.136   4.863   5.856
 7265SOL    HW222695   4.156   4.892   6.015
 7266SOL     OW22696   5.865   1.521   2.032
 7266SOL    HW122697   5.856   1.606   2.085
 7266SOL    HW222698   5.788   1.461   2.053
 7267SOL     OW22699   0.248   3.840   4.259
 7267SOL    HW122700   0.231   3.856   4.162
 7267SOL    HW222701   0.195   3.906   4.313
 7268SOL     OW22702   2.937   6.799   1.218
 7268SOL    HW122703   2.942   6.718   1.159
 7268SOL    HW222704   2.998   6.787   1.296
 7269SOL     OW22705   1.302   6.654   1.440
 7269SOL    HW122706   1.209   6.639   1.473
 7269SOL    HW222707   1.310   6.625   1.345
 7270SOL     OW22708   3.277   1.530   2.593
 7270SOL    HW122709   3.180   1.518   2.610
 7270SOL    HW222710   3.306   1.621   2.623
 7271SOL     OW22711   6.377   3.875   3.456
 7271SOL    HW122712   6.453   3.932   3.425
 7271SOL    HW222713   6.308   3.870   3.384
 7272SOL     OW22714   5.616   2.157   1.237
 7272SOL    HW122715   5.602   2.058   1.241
 7272SOL    HW222716   5.555   2.197   1.169
 7273SOL     OW22717   5.618   5.151   0.048
 7273SOL    HW122718   5.677   5.078   0.015
 7273SOL    HW222719   5.579   5.200   6.994
 7274SOL     OW22720   6.858   4.841   5.311
 7274SOL    HW122721   6.855   4.898   5.393
 7274SOL    HW222722   6.952   4.837   5.277
 7275SOL     OW22723   5.909   0.221   1.122
 7275SOL    HW122724   5.833   0.175   1.168
 7275SOL    HW222725   5.982   0.239   1.188
 7276SOL     OW22726   3.091   1.815   3.838
 7276SOL    HW122727   2.999   1.818   3.876
 7276SOL    HW222728   3.092   1.861   3.749
 7277SOL     OW22729   5.645   1.367   4.638
 7277SOL    HW122730   5.656   1.424   4.556
 7277SOL    HW222731   5.623   1.426   4.716
 7278SOL     OW22732   2.388   1.408   3.241
 7278SOL    HW122733   2.343   1.401   3.152
 7278SOL    HW222734   2.320   1.401   3.314
 7279SOL     OW22735   4.544   4.153   0.961
 7279SOL    HW122736   4.614   4.123   0.896
 7279SOL    HW222737   4.469   4.197   0.911
 7280SOL     OW22738   6.041   2.313   5.515
 7280SOL    HW122739   6.108   2.319   5.441
 7280SOL    HW222740   6.082   2.264   5.592
 7281SOL     OW22741   4.266   4.949   2.088
 7281SOL    HW122742   4.179   4.901   2.093
 7281SOL    HW222743   4.250   5.046   2.070
 7282SOL     OW22744   6.177   4.018   2.380
 7282SOL    HW122745   6.266   4.000   2.421
 7282SOL    HW222746   6.110   3.952   2.414
 7283SOL     OW22747   4.410   5.180   3.156
 7283SOL    HW122748   4.504   5.146   3.153
 7283SOL    HW222749   4.349   5.108   3.190
 7284SOL     OW22750   0.212   1.974   2.653
 7284SOL    HW122751   0.272   2.050   2.680
 7284SOL    HW222752   0.220   1.959   2.555
 7285SOL     OW22753   4.760   3.180   1.726
 7285SOL    HW122754   4.825   3.110   1.695
 7285SOL    HW222755   4.680   3.135   1.765
 7286SOL     OW22756   0.394   1.364   3.137
 7286SOL    HW122757   0.492   1.383   3.139
 7286SOL    HW222758   0.380   1.265   3.140
 7287SOL     OW22759   1.965   2.275   3.092
 7287SOL    HW122760   1.937   2.370   3.081
 7287SOL    HW222761   2.064   2.267   3.078
 7288SOL     OW22762   2.365   1.782   2.632
 7288SOL    HW122763   2.443   1.828   2.589
 7288SOL    HW222764   2.334   1.837   2.710
 7289SOL     OW22765   6.391   1.637   1.251
 7289SOL    HW122766   6.475   1.607   1.205
 7289SOL    HW222767   6.365   1.727   1.217
 7290SOL     OW22768   3.561   0.957   5.074
 7290SOL    HW122769   3.643   0.937   5.126
 7290SOL    HW222770   3.515   1.037   5.113
 7291SOL     OW22771   3.188   1.367   0.606
 7291SOL    HW122772   3.266   1.365   0.668
 7291SOL    HW222773   3.157   1.274   0.589
 7292SOL     OW22774   2.678   0.567   2.300
 7292SOL    HW122775   2.761   0.574   2.244
 7292SOL    HW222776   2.610   0.510   2.253
 7293SOL     OW22777   6.932   1.641   4.106
 7293SOL    HW122778   6.925   1.710   4.033
 7293SOL    HW222779   6.999   1.670   4.174
 7294SOL     OW22780   3.661   6.409   2.541
 7294SOL    HW122781   3.655   6.503   2.507
 7294SOL    HW222782   3.569   6.372   2.553
 7295SOL     OW22783   6.143   4.937   1.909
 7295SOL    HW122784   6.127   4.978   1.999
 7295SOL    HW222785   6.083   4.979   1.842
 7296SOL     OW22786   4.771   4.809   2.043
 7296SOL    HW122787   4.770   4.825   2.141
 7296SOL    HW222788   4.725   4.885   1.996
 7297SOL     OW22789   4.292   6.909   1.527
 7297SOL    HW122790   4.381   6.928   1.568
 7297SOL    HW222791   4.298   6.920   1.428
 7298SOL     OW22792   4.090   4.929   0.097
 7298SOL    HW122793   4.034   4.951   0.177
 7298SOL    HW222794   4.059   4.843   0.057
 7299SOL     OW22795   1.129   2.606   6.283
 7299SOL    HW122796   1.029   2.610   6.284
 7299SOL    HW222797   1.159   2.521   6.327
 7300SOL     OW22798   0.444   4.906   2.430
 7300SOL    HW122799   0.430   4.823   2.377
 7300SOL    HW222800   0.419   4.890   2.526
 7301SOL     OW22801   4.697   1.971   5.494
 7301SOL    HW122802   4.606   2.008   5.511
 7301SOL    HW222803   4.696   1.916   5.411
 7302SOL     OW22804   5.622   1.928   6.058
 7302SOL    HW122805   5.551   1.858   6.048
 7302SOL    HW222806   5.672   1.913   6.143
 7303SOL     OW22807   2.675   1.874   1.793
 7303SOL    HW122808   2.677   1.974   1.801
 7303SOL    HW222809   2.722   1.834   1.872
 7304SOL     OW22810   2.705   5.720   1.250
 7304SOL    HW122811   2.700   5.756   1.157
 7304SOL    HW222812   2.633   5.760   1.306
 7305SOL     OW22813   6.368   1.232   0.487
 7305SOL    HW122814   6.329   1.202   0.400
 7305SOL    HW222815   6.351   1.330   0.500
 7306SOL     OW22816   0.492   2.754   1.416
 7306SOL    HW122817   0.441   2.799   1.490
 7306SOL    HW222818   0.460   2.659   1.407
 7307SOL     OW22819   2.051   0.443   0.952
 7307SOL    HW122820   1.955   0.416   0.949
 7307SOL    HW222821   2.092   0.430   0.861
 7308SOL     OW22822   4.699   1.153   2.769
 7308SOL    HW122823   4.724   1.057   2.757
 7308SOL    HW222824   4.660   1.166   2.860
 7309SOL     OW22825   2.696   5.101   3.392
 7309SOL    HW122826   2.714   5.043   3.312
 7309SOL    HW222827   2.752   5.069   3.469
 7310SOL     OW22828   2.246   3.137   5.855
 7310SOL    HW122829   2.292   3.065   5.908
 7310SOL    HW222830   2.171   3.175   5.909
 7311SOL     OW22831   0.061   6.111   6.587
 7311SOL    HW122832   0.044   6.016   6.615
 7311SOL    HW222833   0.152   6.118   6.546
 7312SOL     OW22834   6.747   2.202   3.795
 7312SOL    HW122835   6.682   2.241   3.860
 7312SOL    HW222836   6.805   2.135   3.841
 7313SOL     OW22837   2.637   0.749   2.520
 7313SOL    HW122838   2.629   0.697   2.434
 7313SOL    HW222839   2.567   0.821   2.522
 7314SOL     OW22840   0.311   4.217   6.185
 7314SOL    HW122841   0.387   4.201   6.248
 7314SOL    HW222842   0.317   4.310   6.150
 7315SOL     OW22843   1.982   5.008   2.336
 7315SOL    HW122844   2.067   4.964   2.367
 7315SOL    HW222845   1.930   4.943   2.281
 7316SOL     OW22846   3.147   2.348   1.288
 7316SOL    HW122847   3.153   2.439   1.246
 7316SOL    HW222848   3.213   2.287   1.245
 7317SOL     OW22849   3.640   1.985   0.508
 7317SOL    HW122850   3.705   1.997   0.583
 7317SOL    HW222851   3.547   2.002   0.542
 7318SOL     OW22852   5.063   6.037   0.962
 7318SOL    HW122853   5.158   6.004   0.967
 7318SOL    HW222854   5.004   5.976   1.015
 7319SOL     OW22855   5.807   5.540   6.574
 7319SOL    HW122856   5.823   5.638   6.589
 7319SOL    HW222857   5.710   5.525   6.554
 7320SOL     OW22858   0.380   2.125   1.296
 7320SOL    HW122859   0.461   2.070   1.278
 7320SOL    HW222860   0.330   2.087   1.373
 7321SOL     OW22861   1.305   0.998   0.175
 7321SOL    HW122862   1.339   0.988   0.269
 7321SOL    HW222863   1.377   0.976   0.110
 7322SOL     OW22864   1.292   2.878   2.793
 7322SOL    HW122865   1.372   2.921   2.751
 7322SOL    HW222866   1.320   2.792   2.837
 7323SOL     OW22867   0.869   2.906   0.983
 7323SOL    HW122868   0.781   2.917   1.030
 7323SOL    HW222869   0.909   2.996   0.965
 7324SOL     OW22870   5.748   4.425   3.729
 7324SOL    HW122871   5.668   4.386   3.775
 7324SOL    HW222872   5.718   4.494   3.663
 7325SOL     OW22873   4.377   0.852   5.970
 7325SOL    HW122874   4.383   0.775   6.034
 7325SOL    HW222875   4.283   0.861   5.937
 7326SOL     OW22876   3.810   0.806   0.645
 7326SOL    HW122877   3.828   0.754   0.729
 7326SOL    HW222878   3.728   0.862   0.658
 7327SOL     OW22879   1.315   4.441   3.376
 7327SOL    HW122880   1.261   4.394   3.445
 7327SOL    HW222881   1.408   4.403   3.375
 7328SOL     OW22882   4.456   5.161   4.542
 7328SOL    HW122883   4.541   5.202   4.576
 7328SOL    HW222884   4.477   5.077   4.491
 7329SOL     OW22885   3.314   3.589   1.178
 7329SOL    HW122886   3.255   3.576   1.258
 7329SOL    HW222887   3.336   3.501   1.138
 7330SOL     OW22888   2.536   3.289   1.724
 7330SOL    HW122889   2.623   3.334   1.705
 7330SOL    HW222890   2.483   3.344   1.788
 7331SOL     OW22891   5.667   2.656   2.350
 7331SOL    HW122892   5.673   2.648   2.251
 7331SOL    HW222893   5.667   2.752   2.376
 7332SOL     OW22894   3.572   5.877   5.945
 7332SOL    HW122895   3.619   5.936   6.010
 7332SOL    HW222896   3.473   5.885   5.958
 7333SOL     OW22897   0.841   1.084   0.729
 7333SOL    HW122898   0.752   1.039   0.737
 7333SOL    HW222899   0.830   1.183   0.738
 7334SOL     OW22900   2.850   6.625   4.506
 7334SOL    HW122901   2.903   6.702   4.470
 7334SOL    HW222902   2.913   6.553   4.536
 7335SOL     OW22903   6.441   3.368   1.815
 7335SOL    HW122904   6.512   3.420   1.767
 7335SOL    HW222905   6.363   3.428   1.833
 7336SOL     OW22906   2.324   6.661   2.093
 7336SOL    HW122907   2.276   6.640   2.008
 7336SOL    HW222908   2.411   6.706   2.072
 7337SOL     OW22909   2.423   1.705   3.274
 7337SOL    HW122910   2.406   1.616   3.233
 7337SOL    HW222911   2.418   1.698   3.374
 7338SOL     OW22912   4.989   3.397   1.574
 7338SOL    HW122913   4.934   3.328   1.623
 7338SOL    HW222914   5.053   3.351   1.512
 7339SOL     OW22915   6.886   5.957   4.561
 7339SOL    HW122916   6.903   5.978   4.658
 7339SOL    HW222917   6.971   5.969   4.509
 7340SOL     OW22918   2.493   6.871   0.713
 7340SOL    HW122919   2.459   6.950   0.765
 7340SOL    HW222920   2.590   6.857   0.734
 7341SOL     OW22921   6.460   5.378   4.415
 7341SOL    HW122922   6.499   5.350   4.328
 7341SOL    HW222923   6.362   5.394   4.405
 7342SOL     OW22924   0.998   5.162   1.348
 7342SOL    HW122925   1.066   5.232   1.327
 7342SOL    HW222926   0.951   5.135   1.264
 7343SOL     OW22927   5.165   3.087   2.682
 7343SOL    HW122928   5.119   3.012   2.731
 7343SOL    HW222929   5.198   3.155   2.748
 7344SOL     OW22930   2.278   1.061   0.133
 7344SOL    HW122931   2.352   0.997   0.155
 7344SOL    HW222932   2.310   1.127   0.065
 7345SOL     OW22933   3.635   5.443   0.358
 7345SOL    HW122934   3.599   5.494   0.437
 7345SOL    HW222935   3.562   5.384   0.321
 7346SOL     OW22936   3.935   4.784   1.726
 7346SOL    HW122937   3.994   4.705   1.745
 7346SOL    HW222938   3.990   4.858   1.686
 7347SOL     OW22939   5.959   2.886   2.765
 7347SOL    HW122940   6.048   2.862   2.804
 7347SOL    HW222941   5.970   2.916   2.670
 7348SOL     OW22942   0.670   2.178   4.636
 7348SOL    HW122943   0.608   2.109   4.675
 7348SOL    HW222944   0.759   2.172   4.682
 7349SOL     OW22945   3.815   1.639   0.337
 7349SOL    HW122946   3.877   1.605   0.267
 7349SOL    HW222947   3.868   1.674   0.415
 7350SOL     OW22948   2.354   1.024   2.788
 7350SOL    HW122949   2.353   1.075   2.874
 7350SOL    HW222950   2.302   0.939   2.798
 7351SOL     OW22951   3.901   4.349   6.872
 7351SOL    HW122952   3.871   4.256   6.890
 7351SOL    HW222953   4.001   4.354   6.875
 7352SOL     OW22954   6.756   1.259   3.156
 7352SOL    HW122955   6.691   1.281   3.083
 7352SOL    HW222956   6.727   1.176   3.204
 7353SOL     OW22957   4.904   2.613   4.939
 7353SOL    HW122958   4.957   2.564   5.009
 7353SOL    HW222959   4.883   2.550   4.864
 7354SOL     OW22960   6.179   3.985   5.459
 7354SOL    HW122961   6.190   4.070   5.511
 7354SOL    HW222962   6.262   3.929   5.468
 7355SOL     OW22963   1.490   4.759   1.989
 7355SOL    HW122964   1.470   4.798   1.900
 7355SOL    HW222965   1.442   4.673   2.001
 7356SOL     OW22966   5.955   1.922   5.593
 7356SOL    HW122967   5.964   1.831   5.633
 7356SOL    HW222968   5.865   1.959   5.613
 7357SOL     OW22969   6.604   1.508   0.327
 7357SOL    HW122970   6.512   1.530   0.357
 7357SOL    HW222971   6.654   1.463   0.402
 7358SOL     OW22972   3.059   0.559   3.931
 7358SOL    HW122973   3.084   0.621   3.857
 7358SOL    HW222974   2.986   0.599   3.985
 7359SOL     OW22975   3.683   3.116   3.066
 7359SOL    HW122976   3.617   3.139   3.137
 7359SOL    HW222977   3.650   3.038   3.013
 7360SOL     OW22978   0.287   2.571   6.463
 7360SOL    HW122979   0.305   2.623   6.380
 7360SOL    HW222980   0.189   2.553   6.470
 7361SOL     OW22981   5.323   6.850   2.523
 7361SOL    HW122982   5.397   6.798   2.565
 7361SOL    HW222983   5.237   6.800   2.533
 7362SOL     OW22984   1.825   6.358   5.798
 7362SOL    HW122985   1.888   6.361   5.720
 7362SOL    HW222986   1.797   6.451   5.821
 7363SOL     OW22987   4.993   2.548   6.469
 7363SOL    HW122988   5.041   2.479   6.524
 7363SOL    HW222989   4.978   2.630   6.524
 7364SOL     OW22990   5.430   0.781   1.654
 7364SOL    HW122991   5.338   0.774   1.617
 7364SOL    HW222992   5.461   0.876   1.649
 7365SOL     OW22993   3.304   0.680   2.249
 7365SOL    HW122994   3.277   0.645   2.160
 7365SOL    HW222995   3.341   0.772   2.240
 7366SOL     OW22996   0.842   5.557   0.525
 7366SOL    HW122997   0.847   5.464   0.560
 7366SOL    HW222998   0.929   5.604   0.541
 7367SOL     OW22999   4.843   3.684   0.023
 7367SOL    HW123000   4.919   3.665   6.985
 7367SOL    HW223001   4.770   3.730   6.997
 7368SOL     OW23002   3.311   3.809   3.683
 7368SOL    HW123003   3.222   3.853   3.692
 7368SOL    HW223004   3.382   3.878   3.674
 7369SOL     OW23005   4.182   2.355   0.080
 7369SOL    HW123006   4.109   2.396   0.025
 7369SOL    HW223007   4.269   2.364   0.032
 7370SOL     OW23008   1.932   6.257   1.404
 7370SOL    HW123009   1.991   6.213   1.472
 7370SOL    HW223010   1.839   6.263   1.439
 7371SOL     OW23011   2.623   5.234   4.586
 7371SOL    HW123012   2.647   5.218   4.681
 7371SOL    HW223013   2.680   5.307   4.549
 7372SOL     OW23014   3.248   6.968   6.124
 7372SOL    HW123015   3.198   7.012   6.198
 7372SOL    HW223016   3.259   6.871   6.144
 7373SOL     OW23017   3.685   0.660   1.352
 7373SOL    HW123018   3.603   0.621   1.395
 7373SOL    HW223019   3.711   0.744   1.400
 7374SOL     OW23020   1.725   3.213   6.008
 7374SOL    HW123021   1.697   3.247   5.918
 7374SOL    HW223022   1.673   3.262   6.079
 7375SOL     OW23023   0.708   0.222   3.079
 7375SOL    HW123024   0.652   0.155   3.128
 7375SOL    HW223025   0.717   0.305   3.134
 7376SOL     OW23026   2.987   4.122   5.913
 7376SOL    HW123027   3.002   4.064   5.833
 7376SOL    HW223028   2.927   4.198   5.888
 7377SOL     OW23029   4.568   4.583   1.083
 7377SOL    HW123030   4.571   4.666   1.140
 7377SOL    HW223031   4.489   4.528   1.108
 7378SOL     OW23032   6.447   1.511   5.385
 7378SOL    HW123033   6.416   1.575   5.314
 7378SOL    HW223034   6.415   1.419   5.363
 7379SOL     OW23035   3.285   1.612   1.867
 7379SOL    HW123036   3.279   1.686   1.800
 7379SOL    HW223037   3.380   1.581   1.873
 7380SOL     OW23038   6.844   3.228   5.470
 7380SOL    HW123039   6.912   3.290   5.511
 7380SOL    HW223040   6.754   3.248   5.508
 7381SOL     OW23041   5.538   2.211   0.300
 7381SOL    HW123042   5.562   2.291   0.245
 7381SOL    HW223043   5.564   2.128   0.250
 7382SOL     OW23044   0.577   6.291   3.594
 7382SOL    HW123045   0.555   6.234   3.515
 7382SOL    HW223046   0.568   6.236   3.678
 7383SOL     OW23047   6.986   6.088   3.262
 7383SOL    HW123048   0.056   6.095   3.296
 7383SOL    HW223049   6.979   6.134   3.173
 7384SOL     OW23050   5.974   1.166   2.608
 7384SOL    HW123051   5.963   1.259   2.644
 7384SOL    HW223052   5.891   1.114   2.626
 7385SOL     OW23053   5.102   6.834   1.628
 7385SOL    HW123054   5.104   6.763   1.699
 7385SOL    HW223055   5.106   6.924   1.671
 7386SOL     OW23056   0.425   2.335   5.836
 7386SOL    HW123057   0.452   2.298   5.748
 7386SOL    HW223058   0.413   2.434   5.828
 7387SOL     OW23059   4.149   5.642   3.558
 7387SOL    HW123060   4.138   5.696   3.642
 7387SOL    HW223061   4.100   5.687   3.483
 7388SOL     OW23062   6.559   4.886   4.184
 7388SOL    HW123063   6.531   4.823   4.257
 7388SOL    HW223064   6.587   4.833   4.104
 7389SOL     OW23065   1.244   4.107   6.006
 7389SOL    HW123066   1.320   4.101   6.070
 7389SOL    HW223067   1.222   4.016   5.972
 7390SOL     OW23068   2.346   6.746   5.488
 7390SOL    HW123069   2.357   6.687   5.409
 7390SOL    HW223070   2.251   6.743   5.520
 7391SOL     OW23071   6.629   3.282   0.504
 7391SOL    HW123072   6.636   3.335   0.419
 7391SOL    HW223073   6.697   3.315   0.569
 7392SOL     OW23074   2.421   4.531   3.261
 7392SOL    HW123075   2.458   4.612   3.307
 7392SOL    HW223076   2.409   4.457   3.328
 7393SOL     OW23077   0.396   3.713   1.550
 7393SOL    HW123078   0.442   3.780   1.608
 7393SOL    HW223079   0.457   3.687   1.475
 7394SOL     OW23080   2.846   3.400   6.106
 7394SOL    HW123081   2.771   3.427   6.046
 7394SOL    HW223082   2.840   3.448   6.193
 7395SOL     OW23083   1.728   6.195   0.468
 7395SOL    HW123084   1.709   6.099   0.448
 7395SOL    HW223085   1.679   6.222   0.551
 7396SOL     OW23086   0.822   0.145   0.336
 7396SOL    HW123087   0.814   0.240   0.365
 7396SOL    HW223088   0.815   0.085   0.416
 7397SOL     OW23089   6.207   5.430   4.771
 7397SOL    HW123090   6.167   5.347   4.810
 7397SOL    HW223091   6.302   5.413   4.745
 7398SOL     OW23092   4.106   5.579   3.287
 7398SOL    HW123093   4.175   5.508   3.303
 7398SOL    HW223094   4.137   5.638   3.212
 7399SOL     OW23095   4.895   3.963   5.002
 7399SOL    HW123096   4.835   4.038   4.975
 7399SOL    HW223097   4.952   3.936   4.924
 7400SOL     OW23098   1.940   5.195   6.542
 7400SOL    HW123099   1.961   5.290   6.566
 7400SOL    HW223100   2.013   5.135   6.575
 7401SOL     OW23101   6.405   1.942   4.361
 7401SOL    HW123102   6.386   1.876   4.288
 7401SOL    HW223103   6.440   1.893   4.441
 7402SOL     OW23104   2.327   0.162   3.588
 7402SOL    HW123105   2.338   0.072   3.629
 7402SOL    HW223106   2.395   0.175   3.516
 7403SOL     OW23107   1.798   3.105   1.559
 7403SOL    HW123108   1.848   3.025   1.592
 7403SOL    HW223109   1.745   3.145   1.634
 7404SOL     OW23110   1.294   1.204   2.385
 7404SOL    HW123111   1.306   1.267   2.462
 7404SOL    HW223112   1.373   1.143   2.379
 7405SOL     OW23113   2.666   4.889   6.261
 7405SOL    HW123114   2.684   4.975   6.213
 7405SOL    HW223115   2.708   4.814   6.211
 7406SOL     OW23116   0.188   5.097   1.768
 7406SOL    HW123117   0.202   5.075   1.672
 7406SOL    HW223118   0.166   5.013   1.818
 7407SOL     OW23119   2.150   7.008   6.259
 7407SOL    HW123120   2.218   0.025   6.319
 7407SOL    HW223121   2.070   6.980   6.312
 7408SOL     OW23122   0.901   3.871   5.646
 7408SOL    HW123123   0.912   3.824   5.558
 7408SOL    HW223124   0.948   3.960   5.641
 7409SOL     OW23125   3.146   5.312   5.796
 7409SOL    HW123126   3.113   5.218   5.793
 7409SOL    HW223127   3.181   5.339   5.706
 7410SOL     OW23128   6.132   4.882   0.838
 7410SOL    HW123129   6.209   4.847   0.785
 7410SOL    HW223130   6.047   4.852   0.797
 7411SOL     OW23131   4.754   5.657   5.442
 7411SOL    HW123132   4.810   5.618   5.514
 7411SOL    HW223133   4.790   5.631   5.352
 7412SOL     OW23134   0.975   2.000   0.085
 7412SOL    HW123135   0.945   1.980   0.178
 7412SOL    HW223136   0.948   2.092   0.059
 7413SOL     OW23137   6.650   3.371   4.902
 7413SOL    HW123138   6.696   3.285   4.926
 7413SOL    HW223139   6.714   3.432   4.857
 7414SOL     OW23140   6.442   5.694   2.875
 7414SOL    HW123141   6.530   5.648   2.870
 7414SOL    HW223142   6.371   5.629   2.904
 7415SOL     OW23143   2.053   2.487   2.752
 7415SOL    HW123144   2.140   2.536   2.763
 7415SOL    HW223145   2.039   2.466   2.655
 7416SOL     OW23146   4.656   6.515   4.137
 7416SOL    HW123147   4.642   6.473   4.047
 7416SOL    HW223148   4.721   6.590   4.128
 7417SOL     OW23149   0.682   6.333   0.684
 7417SOL    HW123150   0.612   6.265   0.661
 7417SOL    HW223151   0.679   6.407   0.616
 7418SOL     OW23152   1.790   3.396   0.675
 7418SOL    HW123153   1.811   3.325   0.741
 7418SOL    HW223154   1.788   3.357   0.583
 7419SOL     OW23155   6.509   1.222   5.008
 7419SOL    HW123156   6.488   1.288   4.936
 7419SOL    HW223157   6.467   1.134   4.985
 7420SOL     OW23158   0.097   5.298   1.931
 7420SOL    HW123159   0.138   5.243   1.858
 7420SOL    HW223160   0.131   5.266   2.020
 7421SOL     OW23161   4.080   3.152   1.066
 7421SOL    HW123162   4.080   3.131   1.164
 7421SOL    HW223163   4.010   3.097   1.020
 7422SOL     OW23164   0.926   3.180   0.957
 7422SOL    HW123165   0.853   3.243   0.928
 7422SOL    HW223166   0.944   3.193   1.054
 7423SOL     OW23167   2.101   5.989   7.003
 7423SOL    HW123168   2.054   6.007   6.917
 7423SOL    HW223169   2.040   6.012   0.055
 7424SOL     OW23170   6.189   1.499   3.941
 7424SOL    HW123171   6.196   1.588   3.897
 7424SOL    HW223172   6.182   1.428   3.871
 7425SOL     OW23173   4.008   6.041   5.873
 7425SOL    HW123174   3.971   6.050   5.781
 7425SOL    HW223175   4.108   6.035   5.869
 7426SOL     OW23176   0.984   1.111   6.908
 7426SOL    HW123177   1.016   1.205   6.901
 7426SOL    HW223178   0.956   1.079   6.817
 7427SOL     OW23179   4.573   5.003   4.028
 7427SOL    HW123180   4.481   5.005   3.989
 7427SOL    HW223181   4.625   4.928   3.986
 7428SOL     OW23182   3.189   2.076   6.112
 7428SOL    HW123183   3.225   2.075   6.019
 7428SOL    HW223184   3.265   2.089   6.176
 7429SOL     OW23185   6.253   0.092   3.601
 7429SOL    HW123186   6.175   0.075   3.661
 7429SOL    HW223187   6.220   0.100   3.506
 7430SOL     OW23188   6.925   4.155   5.106
 7430SOL    HW123189   6.978   4.075   5.079
 7430SOL    HW223190   6.972   4.203   5.180
 7431SOL     OW23191   0.910   4.426   2.153
 7431SOL    HW123192   0.820   4.400   2.188
 7431SOL    HW223193   0.922   4.388   2.061
 7432SOL     OW23194   0.951   6.291   5.047
 7432SOL    HW123195   0.898   6.375   5.035
 7432SOL    HW223196   1.029   6.309   5.106
 7433SOL     OW23197   6.088   5.966   0.951
 7433SOL    HW123198   6.170   5.920   0.916
 7433SOL    HW223199   6.109   6.008   1.039
 7434SOL     OW23200   4.352   0.948   6.482
 7434SOL    HW123201   4.326   0.959   6.387
 7434SOL    HW223202   4.420   1.018   6.506
 7435SOL     OW23203   2.325   6.098   0.300
 7435SOL    HW123204   2.277   6.183   0.279
 7435SOL    HW223205   2.324   6.039   0.219
 7436SOL     OW23206   5.208   2.510   0.414
 7436SOL    HW123207   5.164   2.600   0.406
 7436SOL    HW223208   5.209   2.466   0.324
 7437SOL     OW23209   0.315   6.085   5.720
 7437SOL    HW123210   0.289   6.049   5.810
 7437SOL    HW223211   0.283   6.179   5.711
 7438SOL     OW23212   6.414   4.305   1.982
 7438SOL    HW123213   6.404   4.393   2.028
 7438SOL    HW223214   6.416   4.232   2.049
 7439SOL     OW23215   1.342   6.447   3.390
 7439SOL    HW123216   1.286   6.464   3.310
 7439SOL    HW223217   1.284   6.418   3.466
 7440SOL     OW23218   1.214   2.188   3.665
 7440SOL    HW123219   1.254   2.269   3.620
 7440SOL    HW223220   1.265   2.107   3.637
 7441SOL     OW23221   5.258   0.012   4.069
 7441SOL    HW123222   5.315   6.999   4.142
 7441SOL    HW223223   5.180   0.060   4.108
 7442SOL     OW23224   1.760   1.149   6.671
 7442SOL    HW123225   1.802   1.123   6.758
 7442SOL    HW223226   1.821   1.211   6.622
 7443SOL     OW23227   0.112   0.518   0.655
 7443SOL    HW123228   0.023   0.489   0.618
 7443SOL    HW223229   0.181   0.515   0.582
 7444SOL     OW23230   0.400   2.773   6.633
 7444SOL    HW123231   0.500   2.764   6.635
 7444SOL    HW223232   0.360   2.698   6.580
 7445SOL     OW23233   5.416   2.472   1.819
 7445SOL    HW123234   5.361   2.555   1.806
 7445SOL    HW223235   5.359   2.401   1.860
 7446SOL     OW23236   6.731   2.841   1.185
 7446SOL    HW123237   6.775   2.761   1.226
 7446SOL    HW223238   6.800   2.896   1.138
 7447SOL     OW23239   0.891   4.473   5.826
 7447SOL    HW123240   0.811   4.530   5.808
 7447SOL    HW223241   0.889   4.392   5.767
 7448SOL     OW23242   6.888   6.670   6.032
 7448SOL    HW123243   6.972   6.723   6.042
 7448SOL    HW223244   6.878   6.641   5.937
 7449SOL     OW23245   4.963   2.282   2.506
 7449SOL    HW123246   5.033   2.245   2.446
 7449SOL    HW223247   5.005   2.308   2.593
 7450SOL     OW23248   3.344   1.081   2.822
 7450SOL    HW123249   3.432   1.039   2.802
 7450SOL    HW223250   3.295   1.025   2.889
 7451SOL     OW23251   1.756   0.847   3.824
 7451SOL    HW123252   1.714   0.908   3.892
 7451SOL    HW223253   1.742   0.752   3.852
 7452SOL     OW23254   1.835   6.636   5.273
 7452SOL    HW123255   1.888   6.552   5.281
 7452SOL    HW223256   1.894   6.710   5.240
 7453SOL     OW23257   6.225   5.912   4.914
 7453SOL    HW123258   6.321   5.941   4.907
 7453SOL    HW223259   6.221   5.813   4.930
 7454SOL     OW23260   0.556   3.715   0.966
 7454SOL    HW123261   0.471   3.664   0.974
 7454SOL    HW223262   0.581   3.725   0.870
 7455SOL     OW23263   4.832   2.221   0.080
 7455SOL    HW123264   4.905   2.237   0.147
 7455SOL    HW223265   4.754   2.178   0.126
 7456SOL     OW23266   2.091   3.366   4.780
 7456SOL    HW123267   2.122   3.297   4.846
 7456SOL    HW223268   2.043   3.439   4.829
 7457SOL     OW23269   5.733   0.975   5.881
 7457SOL    HW123270   5.817   0.960   5.933
 7457SOL    HW223271   5.739   1.063   5.833
 7458SOL     OW23272   2.626   1.228   0.303
 7458SOL    HW123273   2.623   1.299   0.373
 7458SOL    HW223274   2.644   1.270   0.214
 7459SOL     OW23275   4.596   0.808   4.727
 7459SOL    HW123276   4.649   0.880   4.771
 7459SOL    HW223277   4.592   0.825   4.629
 7460SOL     OW23278   0.445   4.695   0.037
 7460SOL    HW123279   0.437   4.660   0.130
 7460SOL    HW223280   0.365   4.668   7.008
 7461SOL     OW23281   4.731   1.129   4.199
 7461SOL    HW123282   4.787   1.049   4.178
 7461SOL    HW223283   4.761   1.206   4.142
 7462SOL     OW23284   2.396   1.654   2.227
 7462SOL    HW123285   2.488   1.639   2.189
 7462SOL    HW223286   2.332   1.669   2.152
 7463SOL     OW23287   3.618   3.690   2.822
 7463SOL    HW123288   3.555   3.616   2.802
 7463SOL    HW223289   3.711   3.654   2.829
 7464SOL     OW23290   5.448   6.160   0.750
 7464SOL    HW123291   5.539   6.145   0.789
 7464SOL    HW223292   5.378   6.131   0.815
 7465SOL     OW23293   2.777   0.740   1.788
 7465SOL    HW123294   2.722   0.675   1.736
 7465SOL    HW223295   2.725   0.771   1.868
 7466SOL     OW23296   0.827   0.426   6.885
 7466SOL    HW123297   0.727   0.428   6.888
 7466SOL    HW223298   0.859   0.441   6.792
 7467SOL     OW23299   6.902   1.388   1.242
 7467SOL    HW123300   6.842   1.414   1.318
 7467SOL    HW223301   6.905   1.288   1.235
 7468SOL     OW23302   6.644   3.317   3.001
 7468SOL    HW123303   6.618   3.220   3.011
 7468SOL    HW223304   6.656   3.357   3.092
 7469SOL     OW23305   0.449   1.372   2.060
 7469SOL    HW123306   0.548   1.375   2.048
 7469SOL    HW223307   0.422   1.432   2.135
 7470SOL     OW23308   6.541   2.601   2.260
 7470SOL    HW123309   6.567   2.570   2.351
 7470SOL    HW223310   6.617   2.583   2.196
 7471SOL     OW23311   6.196   6.319   5.986
 7471SOL    HW123312   6.285   6.286   5.955
 7471SOL    HW223313   6.207   6.408   6.031
 7472SOL     OW23314   3.347   6.742   2.943
 7472SOL    HW123315   3.392   6.810   2.885
 7472SOL    HW223316   3.399   6.731   3.028
 7473SOL     OW23317   6.783   3.556   4.725
 7473SOL    HW123318   6.719   3.633   4.723
 7473SOL    HW223319   6.869   3.587   4.765
 7474SOL     OW23320   3.814   1.272   3.366
 7474SOL    HW123321   3.900   1.235   3.333
 7474SOL    HW223322   3.829   1.322   3.451
 7475SOL     OW23323   4.084   1.677   0.381
 7475SOL    HW123324   4.173   1.666   0.426
 7475SOL    HW223325   4.091   1.648   0.286
 7476SOL     OW23326   4.139   6.705   4.790
 7476SOL    HW123327   4.084   6.774   4.743
 7476SOL    HW223328   4.079   6.633   4.825
 7477SOL     OW23329   4.467   2.230   4.002
 7477SOL    HW123330   4.468   2.170   4.082
 7477SOL    HW223331   4.388   2.209   3.945
 7478SOL     OW23332   1.545   5.096   1.035
 7478SOL    HW123333   1.457   5.066   0.998
 7478SOL    HW223334   1.589   5.159   0.970
 7479SOL     OW23335   4.812   0.681   6.604
 7479SOL    HW123336   4.838   0.766   6.558
 7479SOL    HW223337   4.724   0.650   6.569
 7480SOL     OW23338   6.914   5.319   1.014
 7480SOL    HW123339   6.911   5.222   1.040
 7480SOL    HW223340   7.000   5.337   0.966
 7481SOL     OW23341   5.934   5.495   0.834
 7481SOL    HW123342   5.842   5.461   0.852
 7481SOL    HW223343   5.978   5.518   0.921
 7482SOL     OW23344   5.283   0.767   4.335
 7482SOL    HW123345   5.230   0.844   4.299
 7482SOL    HW223346   5.379   0.777   4.307
 7483SOL     OW23347   3.519   0.636   6.286
 7483SOL    HW123348   3.582   0.710   6.309
 7483SOL    HW223349   3.569   0.550   6.283
 7484SOL     OW23350   1.937   7.017   2.341
 7484SOL    HW123351   1.996   6.993   2.263
 7484SOL    HW223352   1.860   0.048   2.309
 7485SOL     OW23353   1.938   6.698   6.594
 7485SOL    HW123354   1.919   6.783   6.642
 7485SOL    HW223355   1.955   6.625   6.660
 7486SOL     OW23356   2.545   6.987   5.450
 7486SOL    HW123357   2.566   6.998   5.353
 7486SOL    HW223358   2.512   6.894   5.467
 7487SOL     OW23359   3.776   5.868   3.813
 7487SOL    HW123360   3.773   5.793   3.878
 7487SOL    HW223361   3.727   5.947   3.851
 7488SOL     OW23362   3.663   0.956   5.926
 7488SOL    HW123363   3.627   0.874   5.882
 7488SOL    HW223364   3.599   0.986   5.997
 7489SOL     OW23365   5.526   3.561   3.371
 7489SOL    HW123366   5.447   3.527   3.320
 7489SOL    HW223367   5.610   3.541   3.319
 7490SOL     OW23368   5.784   1.274   1.660
 7490SOL    HW123369   5.844   1.211   1.710
 7490SOL    HW223370   5.784   1.251   1.563
 7491SOL     OW23371   6.605   5.686   6.534
 7491SOL    HW123372   6.645   5.606   6.490
 7491SOL    HW223373   6.668   5.721   6.604
 7492SOL     OW23374   1.783   2.868   4.320
 7492SOL    HW123375   1.747   2.914   4.401
 7492SOL    HW223376   1.711   2.812   4.278
 7493SOL     OW23377   5.050   3.695   6.876
 7493SOL    HW123378   5.064   3.692   6.777
 7493SOL    HW223379   5.135   3.668   6.921
 7494SOL     OW23380   5.569   1.035   1.661
 7494SOL    HW123381   5.515   1.116   1.686
 7494SOL    HW223382   5.635   1.060   1.590
 7495SOL     OW23383   0.888   1.826   1.679
 7495SOL    HW123384   0.984   1.847   1.696
 7495SOL    HW223385   0.830   1.897   1.719
 7496SOL     OW23386   0.793   4.900   5.844
 7496SOL    HW123387   0.708   4.951   5.855
 7496SOL    HW223388   0.785   4.811   5.887
 7497SOL     OW23389   1.918   4.489   1.701
 7497SOL    HW123390   2.011   4.504   1.669
 7497SOL    HW223391   1.867   4.437   1.633
 7498SOL     OW23392   3.780   1.913   4.257
 7498SOL    HW123393   3.767   1.885   4.162
 7498SOL    HW223394   3.801   1.834   4.313
 7499SOL     OW23395   5.030   5.870   4.351
 7499SOL    HW123396   4.935   5.842   4.366
 7499SOL    HW223397   5.074   5.807   4.287
 7500SOL     OW23398   5.145   4.500   1.324
 7500SOL    HW123399   5.087   4.470   1.400
 7500SOL    HW223400   5.222   4.437   1.314
 7501SOL     OW23401   0.278   4.160   4.035
 7501SOL    HW123402   0.298   4.176   4.132
 7501SOL    HW223403   0.236   4.069   4.025
 7502SOL     OW23404   1.674   1.502   4.884
 7502SOL    HW123405   1.616   1.473   4.960
 7502SOL    HW223406   1.770   1.499   4.913
 7503SOL     OW23407   2.589   1.842   6.466
 7503SOL    HW123408   2.519   1.776   6.495
 7503SOL    HW223409   2.591   1.919   6.529
 7504SOL     OW23410   4.069   6.323   3.350
 7504SOL    HW123411   4.037   6.290   3.261
 7504SOL    HW223412   4.121   6.250   3.396
 7505SOL     OW23413   1.529   2.298   4.910
 7505SOL    HW123414   1.478   2.257   4.986
 7505SOL    HW223415   1.609   2.241   4.889
 7506SOL     OW23416   3.356   1.645   3.390
 7506SOL    HW123417   3.358   1.620   3.293
 7506SOL    HW223418   3.263   1.631   3.426
 7507SOL     OW23419   1.237   5.986   5.885
 7507SOL    HW123420   1.303   5.951   5.951
 7507SOL    HW223421   1.159   6.025   5.933
 7508SOL     OW23422   5.507   0.239   3.434
 7508SOL    HW123423   5.424   0.279   3.395
 7508SOL    HW223424   5.574   0.222   3.362
 7509SOL     OW23425   4.724   4.149   5.861
 7509SOL    HW123426   4.687   4.241   5.843
 7509SOL    HW223427   4.821   4.146   5.834
 7510SOL     OW23428   3.469   4.112   4.705
 7510SOL    HW123429   3.556   4.106   4.754
 7510SOL    HW223430   3.394   4.115   4.772
 7511SOL     OW23431   1.161   0.520   2.168
 7511SOL    HW123432   1.099   0.457   2.121
 7511SOL    HW223433   1.141   0.614   2.140
 7512SOL     OW23434   1.943   2.656   1.720
 7512SOL    HW123435   1.903   2.572   1.758
 7512SOL    HW223436   1.936   2.653   1.620
 7513SOL     OW23437   1.131   2.386   6.971
 7513SOL    HW123438   1.054   2.339   7.012
 7513SOL    HW223439   1.139   2.360   6.875
 7514SOL     OW23440   2.407   5.688   3.069
 7514SOL    HW123441   2.454   5.601   3.080
 7514SOL    HW223442   2.419   5.722   2.976
 7515SOL     OW23443   6.072   5.679   2.276
 7515SOL    HW123444   6.039   5.715   2.189
 7515SOL    HW223445   6.120   5.593   2.261
 7516SOL     OW23446   0.382   1.075   3.117
 7516SOL    HW123447   0.452   1.025   3.066
 7516SOL    HW223448   0.393   1.056   3.215
 7517SOL     OW23449   0.767   4.024   1.737
 7517SOL    HW123450   0.693   3.965   1.706
 7517SOL    HW223451   0.846   3.969   1.763
 7518SOL     OW23452   5.105   5.652   3.648
 7518SOL    HW123453   5.030   5.587   3.655
 7518SOL    HW223454   5.186   5.614   3.694
 7519SOL     OW23455   2.596   6.279   3.641
 7519SOL    HW123456   2.510   6.314   3.604
 7519SOL    HW223457   2.655   6.355   3.668
 7520SOL     OW23458   1.503   6.136   4.177
 7520SOL    HW123459   1.414   6.153   4.134
 7520SOL    HW223460   1.553   6.067   4.124
 7521SOL     OW23461   4.589   4.310   5.635
 7521SOL    HW123462   4.673   4.364   5.646
 7521SOL    HW223463   4.594   4.257   5.551
 7522SOL     OW23464   1.837   0.855   1.456
 7522SOL    HW123465   1.746   0.894   1.467
 7522SOL    HW223466   1.893   0.915   1.398
 7523SOL     OW23467   5.871   0.197   6.558
 7523SOL    HW123468   5.795   0.149   6.514
 7523SOL    HW223469   5.855   0.202   6.657
 7524SOL     OW23470   0.261   1.558   4.791
 7524SOL    HW123471   0.327   1.586   4.722
 7524SOL    HW223472   0.210   1.638   4.823
 7525SOL     OW23473   1.301   0.471   0.798
 7525SOL    HW123474   1.213   0.485   0.752
 7525SOL    HW223475   1.337   0.559   0.828
 7526SOL     OW23476   3.752   2.927   4.982
 7526SOL    HW123477   3.803   2.843   4.963
 7526SOL    HW223478   3.797   2.978   5.055
 7527SOL     OW23479   5.383   4.937   3.179
 7527SOL    HW123480   5.444   4.983   3.243
 7527SOL    HW223481   5.432   4.915   3.095
 7528SOL     OW23482   6.498   3.439   6.650
 7528SOL    HW123483   6.588   3.432   6.607
 7528SOL    HW223484   6.493   3.376   6.727
 7529SOL     OW23485   2.877   1.127   6.123
 7529SOL    HW123486   2.894   1.034   6.091
 7529SOL    HW223487   2.804   1.169   6.068
 7530SOL     OW23488   0.755   3.858   2.641
 7530SOL    HW123489   0.794   3.869   2.732
 7530SOL    HW223490   0.793   3.927   2.579
 7531SOL     OW23491   3.778   2.097   3.563
 7531SOL    HW123492   3.686   2.115   3.596
 7531SOL    HW223493   3.774   2.036   3.484
 7532SOL     OW23494   5.168   5.247   2.632
 7532SOL    HW123495   5.075   5.234   2.597
 7532SOL    HW223496   5.204   5.158   2.662
 7533SOL     OW23497   3.773   0.942   4.038
 7533SOL    HW123498   3.695   0.959   4.099
 7533SOL    HW223499   3.838   1.018   4.045
 7534SOL     OW23500   5.134   6.382   4.954
 7534SOL    HW123501   5.163   6.478   4.954
 7534SOL    HW223502   5.051   6.372   5.009
 7535SOL     OW23503   3.129   3.120   6.208
 7535SOL    HW123504   3.115   3.208   6.162
 7535SOL    HW223505   3.198   3.067   6.158
 7536SOL     OW23506   4.131   6.110   3.694
 7536SOL    HW123507   4.147   6.205   3.721
 7536SOL    HW223508   4.196   6.051   3.743
 7537SOL     OW23509   1.851   4.847   5.924
 7537SOL    HW123510   1.776   4.788   5.895
 7537SOL    HW223511   1.909   4.868   5.846
 7538SOL     OW23512   3.010   3.479   2.717
 7538SOL    HW123513   2.960   3.482   2.803
 7538SOL    HW223514   3.009   3.386   2.681
 7539SOL     OW23515   2.068   2.698   4.547
 7539SOL    HW123516   2.049   2.661   4.456
 7539SOL    HW223517   2.023   2.641   4.617
 7540SOL     OW23518   2.056   1.124   6.843
 7540SOL    HW123519   2.007   1.073   6.913
 7540SOL    HW223520   2.154   1.110   6.852
 7541SOL     OW23521   6.539   2.456   5.730
 7541SOL    HW123522   6.474   2.505   5.788
 7541SOL    HW223523   6.534   2.358   5.750
 7542SOL     OW23524   1.257   6.458   6.328
 7542SOL    HW123525   1.234   6.370   6.287
 7542SOL    HW223526   1.315   6.443   6.409
 7543SOL     OW23527   3.944   2.998   0.153
 7543SOL    HW123528   4.021   3.003   0.216
 7543SOL    HW223529   3.951   2.914   0.098
 7544SOL     OW23530   1.776   2.247   2.393
 7544SOL    HW123531   1.840   2.208   2.326
 7544SOL    HW223532   1.684   2.249   2.354
 7545SOL     OW23533   5.347   6.139   4.244
 7545SOL    HW123534   5.425   6.101   4.195
 7545SOL    HW223535   5.362   6.131   4.343
 7546SOL     OW23536   5.104   1.164   6.684
 7546SOL    HW123537   5.106   1.262   6.664
 7546SOL    HW223538   5.194   1.135   6.714
 7547SOL     OW23539   3.453   0.585   0.310
 7547SOL    HW123540   3.444   0.490   0.280
 7547SOL    HW223541   3.500   0.638   0.240
 7548SOL     OW23542   1.653   2.358   1.496
 7548SOL    HW123543   1.590   2.380   1.571
 7548SOL    HW223544   1.615   2.390   1.410
 7549SOL     OW23545   5.583   2.383   2.399
 7549SOL    HW123546   5.598   2.482   2.407
 7549SOL    HW223547   5.541   2.363   2.310
 7550SOL     OW23548   1.848   5.679   1.805
 7550SOL    HW123549   1.866   5.757   1.865
 7550SOL    HW223550   1.754   5.684   1.770
 7551SOL     OW23551   4.836   3.483   6.634
 7551SOL    HW123552   4.759   3.541   6.608
 7551SOL    HW223553   4.921   3.532   6.618
 7552SOL     OW23554   3.373   5.279   3.685
 7552SOL    HW123555   3.306   5.231   3.628
 7552SOL    HW223556   3.396   5.367   3.642
 7553SOL     OW23557   4.311   5.256   6.094
 7553SOL    HW123558   4.393   5.210   6.060
 7553SOL    HW223559   4.299   5.343   6.047
 7554SOL     OW23560   6.620   0.734   1.128
 7554SOL    HW123561   6.714   0.769   1.136
 7554SOL    HW223562   6.567   0.764   1.207
 7555SOL     OW23563   1.258   5.820   5.462
 7555SOL    HW123564   1.179   5.880   5.452
 7555SOL    HW223565   1.238   5.731   5.422
 7556SOL     OW23566   0.938   2.742   5.320
 7556SOL    HW123567   0.852   2.771   5.362
 7556SOL    HW223568   0.978   2.819   5.271
 7557SOL     OW23569   4.595   3.939   0.088
 7557SOL    HW123570   4.665   3.984   0.144
 7557SOL    HW223571   4.636   3.864   0.037
 7558SOL     OW23572   1.557   3.406   3.212
 7558SOL    HW123573   1.531   3.414   3.115
 7558SOL    HW223574   1.656   3.394   3.219
 7559SOL     OW23575   0.397   3.919   1.095
 7559SOL    HW123576   0.364   3.994   1.037
 7559SOL    HW223577   0.481   3.881   1.057
 7560SOL     OW23578   4.861   6.872   0.254
 7560SOL    HW123579   4.919   6.938   0.205
 7560SOL    HW223580   4.876   6.780   0.217
 7561SOL     OW23581   0.200   3.184   0.677
 7561SOL    HW123582   0.268   3.177   0.750
 7561SOL    HW223583   0.173   3.280   0.666
 7562SOL     OW23584   5.822   5.919   5.293
 7562SOL    HW123585   5.788   5.965   5.212
 7562SOL    HW223586   5.911   5.957   5.319
 7563SOL     OW23587   2.462   0.453   2.180
 7563SOL    HW123588   2.396   0.528   2.186
 7563SOL    HW223589   2.453   0.408   2.091
 7564SOL     OW23590   5.163   5.779   4.090
 7564SOL    HW123591   5.146   5.762   3.993
 7564SOL    HW223592   5.194   5.873   4.103
 7565SOL     OW23593   4.886   4.511   0.773
 7565SOL    HW123594   4.883   4.432   0.712
 7565SOL    HW223595   4.980   4.526   0.803
 7566SOL     OW23596   1.349   5.681   3.992
 7566SOL    HW123597   1.368   5.630   3.908
 7566SOL    HW223598   1.370   5.778   3.978
 7567SOL     OW23599   2.816   4.247   0.565
 7567SOL    HW123600   2.876   4.212   0.493
 7567SOL    HW223601   2.842   4.340   0.589
 7568SOL     OW23602   5.019   4.717   3.299
 7568SOL    HW123603   5.083   4.647   3.267
 7568SOL    HW223604   5.056   4.808   3.281
 7569SOL     OW23605   4.423   0.092   0.934
 7569SOL    HW123606   4.487   0.016   0.928
 7569SOL    HW223607   4.458   0.160   0.998
 7570SOL     OW23608   6.344   5.097   4.182
 7570SOL    HW123609   6.276   5.117   4.112
 7570SOL    HW223610   6.411   5.032   4.146
 7571SOL     OW23611   5.194   4.735   2.249
 7571SOL    HW123612   5.130   4.677   2.299
 7571SOL    HW223613   5.287   4.700   2.263
 7572SOL     OW23614   2.537   1.665   4.924
 7572SOL    HW123615   2.625   1.710   4.910
 7572SOL    HW223616   2.532   1.629   5.017
 7573SOL     OW23617   2.440   5.553   3.890
 7573SOL    HW123618   2.481   5.568   3.981
 7573SOL    HW223619   2.438   5.640   3.841
 7574SOL     OW23620   5.041   6.542   2.881
 7574SOL    HW123621   5.112   6.472   2.888
 7574SOL    HW223622   5.081   6.632   2.894
 7575SOL     OW23623   3.522   1.989   4.858
 7575SOL    HW123624   3.613   2.030   4.847
 7575SOL    HW223625   3.531   1.890   4.867
 7576SOL     OW23626   6.309   2.615   0.510
 7576SOL    HW123627   6.381   2.546   0.506
 7576SOL    HW223628   6.258   2.607   0.595
 7577SOL     OW23629   5.833   0.411   4.796
 7577SOL    HW123630   5.831   0.311   4.791
 7577SOL    HW223631   5.754   0.444   4.847
 7578SOL     OW23632   2.049   5.132   4.514
 7578SOL    HW123633   1.966   5.087   4.481
 7578SOL    HW223634   2.123   5.065   4.518
 7579SOL     OW23635   3.664   1.629   2.749
 7579SOL    HW123636   3.699   1.670   2.833
 7579SOL    HW223637   3.651   1.699   2.679
 7580SOL     OW23638   1.921   3.897   2.485
 7580SOL    HW123639   1.980   3.817   2.476
 7580SOL    HW223640   1.833   3.869   2.524
 7581SOL     OW23641   6.212   0.710   1.169
 7581SOL    HW123642   6.202   0.808   1.150
 7581SOL    HW223643   6.295   0.695   1.222
 7582SOL     OW23644   3.330   1.259   1.004
 7582SOL    HW123645   3.318   1.160   1.005
 7582SOL    HW223646   3.243   1.303   1.024
 7583SOL     OW23647   6.204   3.398   2.587
 7583SOL    HW123648   6.288   3.452   2.586
 7583SOL    HW223649   6.221   3.309   2.628
 7584SOL     OW23650   2.429   0.230   1.295
 7584SOL    HW123651   2.471   0.140   1.287
 7584SOL    HW223652   2.455   0.286   1.216
 7585SOL     OW23653   1.872   4.786   6.200
 7585SOL    HW123654   1.849   4.822   6.110
 7585SOL    HW223655   1.964   4.747   6.198
 7586SOL     OW23656   2.711   0.953   2.286
 7586SOL    HW123657   2.615   0.926   2.281
 7586SOL    HW223658   2.769   0.879   2.252
 7587SOL     OW23659   1.167   1.193   5.967
 7587SOL    HW123660   1.118   1.217   5.883
 7587SOL    HW223661   1.113   1.221   6.046
 7588SOL     OW23662   0.430   4.272   2.040
 7588SOL    HW123663   0.347   4.221   2.019
 7588SOL    HW223664   0.443   4.346   1.974
 7589SOL     OW23665   5.720   5.780   0.976
 7589SOL    HW123666   5.732   5.826   0.888
 7589SOL    HW223667   5.699   5.848   1.046
 7590SOL     OW23668   2.023   0.716   6.049
 7590SOL    HW123669   2.018   0.616   6.050
 7590SOL    HW223670   1.999   0.752   6.139
 7591SOL     OW23671   6.553   4.541   0.385
 7591SOL    HW123672   6.648   4.550   0.415
 7591SOL    HW223673   6.548   4.552   0.286
 7592SOL     OW23674   5.344   5.921   0.444
 7592SOL    HW123675   5.252   5.959   0.451
 7592SOL    HW223676   5.411   5.996   0.440
 7593SOL     OW23677   6.109   2.091   6.587
 7593SOL    HW123678   6.123   2.092   6.488
 7593SOL    HW223679   6.170   2.159   6.630
 7594SOL     OW23680   1.183   6.163   3.817
 7594SOL    HW123681   1.086   6.159   3.793
 7594SOL    HW223682   1.195   6.132   3.912
 7595SOL     OW23683   6.115   2.757   6.827
 7595SOL    HW123684   6.121   2.837   6.886
 7595SOL    HW223685   6.034   2.704   6.850
 7596SOL     OW23686   5.566   4.124   2.063
 7596SOL    HW123687   5.556   4.171   2.150
 7596SOL    HW223688   5.518   4.174   1.991
 7597SOL     OW23689   3.568   5.409   1.648
 7597SOL    HW123690   3.554   5.508   1.650
 7597SOL    HW223691   3.650   5.386   1.701
 7598SOL     OW23692   6.949   1.050   3.867
 7598SOL    HW123693   6.951   0.969   3.809
 7598SOL    HW223694   7.019   1.114   3.837
 7599SOL     OW23695   6.378   2.223   2.657
 7599SOL    HW123696   6.322   2.149   2.619
 7599SOL    HW223697   6.456   2.240   2.596
 7600SOL     OW23698   1.977   1.826   1.422
 7600SOL    HW123699   2.017   1.906   1.376
 7600SOL    HW223700   1.984   1.838   1.521
 7601SOL     OW23701   1.907   6.440   4.854
 7601SOL    HW123702   1.911   6.540   4.846
 7601SOL    HW223703   1.891   6.400   4.764
 7602SOL     OW23704   0.754   3.683   4.615
 7602SOL    HW123705   0.849   3.653   4.627
 7602SOL    HW223706   0.737   3.705   4.519
 7603SOL     OW23707   0.881   6.520   1.256
 7603SOL    HW123708   0.970   6.475   1.256
 7603SOL    HW223709   0.889   6.612   1.217
 7604SOL     OW23710   5.043   6.157   5.470
 7604SOL    HW123711   5.128   6.210   5.481
 7604SOL    HW223712   5.048   6.104   5.385
 7605SOL     OW23713   6.342   4.617   6.692
 7605SOL    HW123714   6.331   4.649   6.787
 7605SOL    HW223715   6.268   4.553   6.670
 7606SOL     OW23716   5.961   2.166   2.588
 7606SOL    HW123717   5.956   2.247   2.529
 7606SOL    HW223718   6.014   2.187   2.669
 7607SOL     OW23719   4.657   0.140   6.841
 7607SOL    HW123720   4.601   0.177   6.915
 7607SOL    HW223721   4.598   0.094   6.774
 7608SOL     OW23722   3.368   3.328   3.514
 7608SOL    HW123723   3.340   3.399   3.580
 7608SOL    HW223724   3.439   3.364   3.454
 7609SOL     OW23725   1.327   3.327   4.184
 7609SOL    HW123726   1.338   3.357   4.279
 7609SOL    HW223727   1.416   3.299   4.148
 7610SOL     OW23728   5.643   0.383   0.970
 7610SOL    HW123729   5.707   0.326   1.020
 7610SOL    HW223730   5.550   0.347   0.981
 7611SOL     OW23731   1.619   2.284   0.183
 7611SOL    HW123732   1.705   2.253   0.223
 7611SOL    HW223733   1.556   2.207   0.174
 7612SOL     OW23734   3.519   2.092   2.967
 7612SOL    HW123735   3.463   2.123   3.045
 7612SOL    HW223736   3.614   2.084   2.996
 7613SOL     OW23737   4.907   0.996   2.224
 7613SOL    HW123738   5.005   0.979   2.221
 7613SOL    HW223739   4.874   1.013   2.131
 7614SOL     OW23740   4.243   2.039   0.576
 7614SOL    HW123741   4.167   2.044   0.512
 7614SOL    HW223742   4.244   2.121   0.634
 7615SOL     OW23743   3.509   4.944   5.857
 7615SOL    HW123744   3.504   4.985   5.948
 7615SOL    HW223745   3.424   4.894   5.838
 7616SOL     OW23746   6.430   3.629   3.532
 7616SOL    HW123747   6.397   3.598   3.622
 7616SOL    HW223748   6.400   3.724   3.517
 7617SOL     OW23749   2.973   5.254   2.922
 7617SOL    HW123750   2.941   5.189   2.991
 7617SOL    HW223751   3.026   5.326   2.966
 7618SOL     OW23752   1.925   2.612   6.825
 7618SOL    HW123753   1.965   2.701   6.800
 7618SOL    HW223754   1.998   2.544   6.831
 7619SOL     OW23755   5.152   3.716   5.723
 7619SOL    HW123756   5.217   3.672   5.785
 7619SOL    HW223757   5.070   3.741   5.774
 7620SOL     OW23758   3.473   6.566   1.736
 7620SOL    HW123759   3.491   6.568   1.638
 7620SOL    HW223760   3.529   6.636   1.781
 7621SOL     OW23761   2.300   0.533   1.642
 7621SOL    HW123762   2.258   0.444   1.628
 7621SOL    HW223763   2.361   0.554   1.566
 7622SOL     OW23764   4.065   2.551   0.436
 7622SOL    HW123765   4.053   2.641   0.396
 7622SOL    HW223766   4.163   2.528   0.439
 7623SOL     OW23767   4.694   0.590   5.794
 7623SOL    HW123768   4.661   0.499   5.770
 7623SOL    HW223769   4.793   0.589   5.804
 7624SOL     OW23770   0.514   1.108   3.634
 7624SOL    HW123771   0.493   1.014   3.663
 7624SOL    HW223772   0.567   1.153   3.706
 7625SOL     OW23773   4.768   0.415   1.546
 7625SOL    HW123774   4.841   0.349   1.524
 7625SOL    HW223775   4.776   0.443   1.642
 7626SOL     OW23776   1.853   5.709   4.727
 7626SOL    HW123777   1.836   5.776   4.800
 7626SOL    HW223778   1.933   5.738   4.674
 7627SOL     OW23779   6.958   2.336   1.062
 7627SOL    HW123780   6.904   2.384   0.994
 7627SOL    HW223781   6.977   2.243   1.031
 7628SOL     OW23782   2.903   1.881   0.873
 7628SOL    HW123783   2.847   1.810   0.830
 7628SOL    HW223784   2.929   1.851   0.965
 7629SOL     OW23785   0.185   5.996   2.990
 7629SOL    HW123786   0.215   6.034   3.078
 7629SOL    HW223787   0.265   5.969   2.936
 7630SOL     OW23788   6.229   0.770   2.845
 7630SOL    HW123789   6.152   0.804   2.900
 7630SOL    HW223790   6.220   0.804   2.751
 7631SOL     OW23791   0.412   2.512   3.412
 7631SOL    HW123792   0.426   2.593   3.355
 7631SOL    HW223793   0.440   2.533   3.506
 7632SOL     OW23794   4.657   1.724   0.268
 7632SOL    HW123795   4.693   1.809   0.307
 7632SOL    HW223796   4.702   1.646   0.310
 7633SOL     OW23797   5.290   3.915   6.795
 7633SOL    HW123798   5.247   4.001   6.823
 7633SOL    HW223799   5.254   3.887   6.706
 7634SOL     OW23800   1.527   1.371   2.078
 7634SOL    HW123801   1.579   1.388   2.162
 7634SOL    HW223802   1.527   1.454   2.022
 7635SOL     OW23803   2.933   4.354   5.607
 7635SOL    HW123804   2.849   4.300   5.612
 7635SOL    HW223805   3.002   4.304   5.554
 7636SOL     OW23806   0.787   0.005   4.161
 7636SOL    HW123807   0.804   0.012   4.259
 7636SOL    HW223808   0.842   0.074   4.113
 7637SOL     OW23809   2.066   6.063   4.378
 7637SOL    HW123810   1.980   6.021   4.405
 7637SOL    HW223811   2.136   5.992   4.368
 7638SOL     OW23812   5.153   5.235   2.040
 7638SOL    HW123813   5.163   5.145   2.082
 7638SOL    HW223814   5.107   5.227   1.952
 7639SOL     OW23815   0.944   1.965   5.296
 7639SOL    HW123816   0.935   1.942   5.199
 7639SOL    HW223817   1.041   1.968   5.320
 7640SOL     OW23818   2.304   1.523   0.375
 7640SOL    HW123819   2.308   1.535   0.276
 7640SOL    HW223820   2.293   1.425   0.395
 7641SOL     OW23821   5.408   3.559   1.988
 7641SOL    HW123822   5.352   3.566   1.906
 7641SOL    HW223823   5.377   3.625   2.056
 7642SOL     OW23824   2.529   2.156   2.421
 7642SOL    HW123825   2.570   2.074   2.462
 7642SOL    HW223826   2.591   2.192   2.351
 7643SOL     OW23827   4.830   3.051   3.573
 7643SOL    HW123828   4.923   3.078   3.548
 7643SOL    HW223829   4.813   3.072   3.670
 7644SOL     OW23830   6.875   3.289   2.609
 7644SOL    HW123831   6.802   3.327   2.552
 7644SOL    HW223832   6.836   3.230   2.680
 7645SOL     OW23833   4.150   3.992   6.631
 7645SOL    HW123834   4.130   3.982   6.729
 7645SOL    HW223835   4.116   3.912   6.582
 7646SOL     OW23836   2.363   1.998   1.679
 7646SOL    HW123837   2.427   2.042   1.742
 7646SOL    HW223838   2.363   1.899   1.695
 7647SOL     OW23839   2.781   3.812   1.689
 7647SOL    HW123840   2.874   3.775   1.687
 7647SOL    HW223841   2.717   3.740   1.715
 7648SOL     OW23842   4.085   0.963   3.841
 7648SOL    HW123843   4.045   0.872   3.855
 7648SOL    HW223844   4.020   1.021   3.793
 7649SOL     OW23845   3.045   0.732   1.802
 7649SOL    HW123846   2.946   0.726   1.792
 7649SOL    HW223847   3.089   0.702   1.717
 7650SOL     OW23848   6.403   4.350   2.334
 7650SOL    HW123849   6.411   4.449   2.324
 7650SOL    HW223850   6.310   4.321   2.310
 7651SOL     OW23851   3.681   1.283   6.420
 7651SOL    HW123852   3.608   1.268   6.487
 7651SOL    HW223853   3.658   1.363   6.363
 7652SOL     OW23854   0.910   3.838   2.326
 7652SOL    HW123855   0.927   3.769   2.396
 7652SOL    HW223856   0.976   3.913   2.336
 7653SOL     OW23857   2.914   2.052   1.517
 7653SOL    HW123858   2.937   2.127   1.579
 7653SOL    HW223859   2.919   2.085   1.422
 7654SOL     OW23860   5.029   3.852   3.648
 7654SOL    HW123861   5.026   3.765   3.698
 7654SOL    HW223862   4.936   3.880   3.624
 7655SOL     OW23863   4.329   6.440   5.336
 7655SOL    HW123864   4.312   6.345   5.307
 7655SOL    HW223865   4.427   6.452   5.354
 7656SOL     OW23866   0.661   6.412   5.525
 7656SOL    HW123867   0.622   6.353   5.595
 7656SOL    HW223868   0.724   6.478   5.567
 7657SOL     OW23869   3.514   1.402   3.635
 7657SOL    HW123870   3.453   1.385   3.712
 7657SOL    HW223871   3.483   1.352   3.555
 7658SOL     OW23872   4.282   0.468   5.682
 7658SOL    HW123873   4.200   0.523   5.695
 7658SOL    HW223874   4.337   0.508   5.609
 7659SOL     OW23875   5.726   0.036   0.896
 7659SOL    HW123876   5.634   0.035   0.934
 7659SOL    HW223877   5.726   7.010   0.809
 7660SOL     OW23878   5.889   4.948   4.201
 7660SOL    HW123879   5.937   4.860   4.199
 7660SOL    HW223880   5.795   4.935   4.170
 7661SOL     OW23881   6.560   2.648   3.673
 7661SOL    HW123882   6.557   2.733   3.619
 7661SOL    HW223883   6.483   2.590   3.648
 7662SOL     OW23884   0.139   4.832   1.850
 7662SOL    HW123885   0.213   4.769   1.874
 7662SOL    HW223886   0.068   4.827   1.920
 7663SOL     OW23887   0.253   5.198   6.687
 7663SOL    HW123888   0.175   5.260   6.697
 7663SOL    HW223889   0.237   5.135   6.611
 7664SOL     OW23890   2.548   5.295   3.517
 7664SOL    HW123891   2.623   5.229   3.513
 7664SOL    HW223892   2.528   5.316   3.613
 7665SOL     OW23893   3.292   6.712   5.019
 7665SOL    HW123894   3.391   6.717   5.023
 7665SOL    HW223895   3.255   6.792   4.971
 7666SOL     OW23896   1.129   0.899   1.318
 7666SOL    HW123897   1.152   0.911   1.221
 7666SOL    HW223898   1.199   0.842   1.361
 7667SOL     OW23899   4.231   6.548   6.780
 7667SOL    HW123900   4.203   6.457   6.809
 7667SOL    HW223901   4.216   6.613   6.854
 7668SOL     OW23902   3.428   3.940   1.564
 7668SOL    HW123903   3.525   3.961   1.578
 7668SOL    HW223904   3.414   3.909   1.470
 7669SOL     OW23905   4.973   6.708   4.363
 7669SOL    HW123906   4.888   6.757   4.343
 7669SOL    HW223907   4.982   6.696   4.462
 7670SOL     OW23908   1.645   5.244   0.820
 7670SOL    HW123909   1.700   5.327   0.817
 7670SOL    HW223910   1.703   5.164   0.835
 7671SOL     OW23911   6.028   2.847   4.324
 7671SOL    HW123912   5.970   2.887   4.253
 7671SOL    HW223913   6.097   2.915   4.352
 7672SOL     OW23914   5.577   0.788   3.035
 7672SOL    HW123915   5.610   0.735   3.114
 7672SOL    HW223916   5.521   0.729   2.977
 7673SOL     OW23917   0.879   4.592   1.132
 7673SOL    HW123918   0.830   4.541   1.061
 7673SOL    HW223919   0.843   4.565   1.221
 7674SOL     OW23920   5.933   1.628   4.782
 7674SOL    HW123921   5.998   1.687   4.735
 7674SOL    HW223922   5.959   1.532   4.769
 7675SOL     OW23923   4.573   6.737   3.003
 7675SOL    HW123924   4.545   6.797   3.078
 7675SOL    HW223925   4.649   6.679   3.033
 7676SOL     OW23926   1.609   0.556   0.794
 7676SOL    HW123927   1.705   0.571   0.769
 7676SOL    HW223928   1.568   0.489   0.732
 7677SOL     OW23929   1.536   2.923   2.452
 7677SOL    HW123930   1.635   2.915   2.459
 7677SOL    HW223931   1.513   2.993   2.384
 7678SOL     OW23932   6.098   6.619   0.478
 7678SOL    HW123933   6.117   6.613   0.576
 7678SOL    HW223934   6.041   6.542   0.449
 7679SOL     OW23935   1.052   5.395   5.253
 7679SOL    HW123936   0.977   5.384   5.187
 7679SOL    HW223937   1.059   5.312   5.308
 7680SOL     OW23938   3.728   2.848   0.272
 7680SOL    HW123939   3.647   2.907   0.283
 7680SOL    HW223940   3.791   2.890   0.207
 7681SOL     OW23941   2.799   1.546   0.215
 7681SOL    HW123942   2.806   1.550   0.315
 7681SOL    HW223943   2.784   1.638   0.178
 7682SOL     OW23944   2.988   6.928   1.761
 7682SOL    HW123945   3.012   6.884   1.675
 7682SOL    HW223946   2.957   7.021   1.744
 7683SOL     OW23947   5.046   1.896   3.196
 7683SOL    HW123948   5.089   1.907   3.106
 7683SOL    HW223949   5.036   1.799   3.215
 7684SOL     OW23950   4.409   2.010   5.724
 7684SOL    HW123951   4.334   2.021   5.659
 7684SOL    HW223952   4.389   1.934   5.785
 7685SOL     OW23953   3.113   2.873   0.664
 7685SOL    HW123954   3.115   2.804   0.592
 7685SOL    HW223955   3.041   2.939   0.643
 7686SOL     OW23956   4.171   6.359   3.784
 7686SOL    HW123957   4.142   6.442   3.736
 7686SOL    HW223958   4.228   6.384   3.862
 7687SOL     OW23959   5.624   5.007   5.568
 7687SOL    HW123960   5.619   5.024   5.469
 7687SOL    HW223961   5.702   5.056   5.606
 7688SOL     OW23962   0.443   6.031   4.392
 7688SOL    HW123963   0.387   6.113   4.379
 7688SOL    HW223964   0.398   5.969   4.456
 7689SOL     OW23965   4.332   6.225   4.927
 7689SOL    HW123966   4.408   6.289   4.935
 7689SOL    HW223967   4.356   6.151   4.864
 7690SOL     OW23968   6.782   4.889   3.522
 7690SOL    HW123969   6.778   4.933   3.612
 7690SOL    HW223970   6.803   4.957   3.452
 7691SOL     OW23971   5.220   3.261   4.929
 7691SOL    HW123972   5.255   3.292   5.018
 7691SOL    HW223973   5.131   3.216   4.943
 7692SOL     OW23974   1.843   6.706   2.074
 7692SOL    HW123975   1.918   6.772   2.066
 7692SOL    HW223976   1.854   6.652   2.158
 7693SOL     OW23977   4.491   1.293   6.285
 7693SOL    HW123978   4.501   1.215   6.224
 7693SOL    HW223979   4.580   1.333   6.304
 7694SOL     OW23980   0.026   5.226   4.559
 7694SOL    HW123981   6.970   5.166   4.561
 7694SOL    HW223982   0.020   5.293   4.632
 7695SOL     OW23983   4.183   0.005   0.811
 7695SOL    HW123984   4.105   0.027   0.869
 7695SOL    HW223985   4.267   0.036   0.856
 7696SOL     OW23986   0.171   2.827   5.807
 7696SOL    HW123987   0.094   2.854   5.750
 7696SOL    HW223988   0.176   2.888   5.887
 7697SOL     OW23989   3.121   1.891   2.485
 7697SOL    HW123990   3.154   1.842   2.566
 7697SOL    HW223991   3.198   1.938   2.441
 7698SOL     OW23992   6.945   2.880   6.069
 7698SOL    HW123993   0.016   2.906   6.080
 7698SOL    HW223994   6.917   2.823   6.147
 7699SOL     OW23995   2.235   5.163   6.874
 7699SOL    HW123996   2.323   5.120   6.894
 7699SOL    HW223997   2.237   5.259   6.904
 7700SOL     OW23998   5.065   6.656   4.646
 7700SOL    HW123999   5.163   6.666   4.634
 7700SOL    HW224000   5.044   6.563   4.676
 7701SOL     OW24001   6.877   2.053   4.067
 7701SOL    HW124002   6.933   2.067   3.986
 7701SOL    HW224003   6.931   2.008   4.138
 7702SOL     OW24004   3.256   6.530   5.755
 7702SOL    HW124005   3.226   6.435   5.750
 7702SOL    HW224006   3.178   6.587   5.783
 7703SOL     OW24007   0.859   1.088   5.777
 7703SOL    HW124008   0.809   1.088   5.864
 7703SOL    HW224009   0.933   1.156   5.781
 7704SOL     OW24010   4.400   4.474   6.716
 7704SOL    HW124011   4.493   4.455   6.687
 7704SOL    HW224012   4.401   4.527   6.801
 7705SOL     OW24013   3.573   5.161   5.222
 7705SOL    HW124014   3.604   5.256   5.213
 7705SOL    HW224015   3.633   5.112   5.286
 7706SOL     OW24016   6.973   0.939   5.027
 7706SOL    HW124017   0.034   0.980   5.061
 7706SOL    HW224018   6.895   0.979   5.075
 7707SOL     OW24019   6.972   4.959   6.195
 7707SOL    HW124020   6.938   5.053   6.194
 7707SOL    HW224021   6.918   4.905   6.260
 7708SOL     OW24022   4.607   6.542   4.503
 7708SOL    HW124023   4.535   6.544   4.433
 7708SOL    HW224024   4.652   6.631   4.507
 7709SOL     OW24025   4.227   2.120   2.230
 7709SOL    HW124026   4.134   2.144   2.258
 7709SOL    HW224027   4.269   2.197   2.183
 7710SOL     OW24028   2.054   0.922   0.369
 7710SOL    HW124029   2.079   0.834   0.328
 7710SOL    HW224030   2.136   0.967   0.404
 7711SOL     OW24031   5.529   6.755   5.235
 7711SOL    HW124032   5.578   6.672   5.264
 7711SOL    HW224033   5.458   6.730   5.169
 7712SOL     OW24034   5.548   5.371   1.138
 7712SOL    HW124035   5.621   5.354   1.205
 7712SOL    HW224036   5.515   5.284   1.103
 7713SOL     OW24037   1.451   4.334   6.391
 7713SOL    HW124038   1.463   4.318   6.489
 7713SOL    HW224039   1.368   4.387   6.376
 7714SOL     OW24040   5.908   4.121   4.103
 7714SOL    HW124041   5.808   4.114   4.104
 7714SOL    HW224042   5.945   4.085   4.189
 7715SOL     OW24043   4.889   0.864   1.458
 7715SOL    HW124044   4.897   0.819   1.369
 7715SOL    HW224045   4.792   0.874   1.481
 7716SOL     OW24046   4.458   2.202   3.454
 7716SOL    HW124047   4.478   2.171   3.547
 7716SOL    HW224048   4.507   2.287   3.436
 7717SOL     OW24049   2.794   1.298   5.550
 7717SOL    HW124050   2.787   1.345   5.638
 7717SOL    HW224051   2.708   1.251   5.530
 7718SOL     OW24052   2.881   6.593   3.988
 7718SOL    HW124053   2.882   6.689   4.018
 7718SOL    HW224054   2.841   6.588   3.897
 7719SOL     OW24055   6.847   2.106   4.399
 7719SOL    HW124056   6.900   2.182   4.437
 7719SOL    HW224057   6.780   2.141   4.334
 7720SOL     OW24058   5.738   6.043   1.707
 7720SOL    HW124059   5.792   6.092   1.776
 7720SOL    HW224060   5.799   6.009   1.635
 7721SOL     OW24061   1.991   4.436   2.328
 7721SOL    HW124062   1.934   4.513   2.358
 7721SOL    HW224063   1.932   4.365   2.288
 7722SOL     OW24064   6.813   5.196   3.985
 7722SOL    HW124065   6.887   5.210   4.051
 7722SOL    HW224066   6.725   5.212   4.030
 7723SOL     OW24067   6.392   3.228   0.643
 7723SOL    HW124068   6.455   3.230   0.565
 7723SOL    HW224069   6.444   3.215   0.727
 7724SOL     OW24070   1.218   4.354   1.453
 7724SOL    HW124071   1.191   4.386   1.362
 7724SOL    HW224072   1.307   4.393   1.477
 7725SOL     OW24073   5.744   2.948   4.276
 7725SOL    HW124074   5.651   2.947   4.238
 7725SOL    HW224075   5.739   2.958   4.375
 7726SOL     OW24076   0.268   4.418   3.054
 7726SOL    HW124077   0.323   4.469   2.988
 7726SOL    HW224078   0.267   4.466   3.141
 7727SOL     OW24079   6.399   2.344   2.224
 7727SOL    HW124080   6.443   2.391   2.147
 7727SOL    HW224081   6.429   2.249   2.226
 7728SOL     OW24082   2.010   2.834   3.164
 7728SOL    HW124083   2.043   2.769   3.233
 7728SOL    HW224084   2.056   2.922   3.177
 7729SOL     OW24085   4.813   2.343   0.389
 7729SOL    HW124086   4.825   2.379   0.482
 7729SOL    HW224087   4.771   2.413   0.331
 7730SOL     OW24088   5.479   0.694   2.547
 7730SOL    HW124089   5.546   0.760   2.513
 7730SOL    HW224090   5.494   0.679   2.645
 7731SOL     OW24091   5.971   1.089   6.877
 7731SOL    HW124092   5.944   1.028   6.952
 7731SOL    HW224093   6.016   1.170   6.915
 7732SOL     OW24094   4.178   5.560   0.623
 7732SOL    HW124095   4.266   5.518   0.601
 7732SOL    HW224096   4.192   5.657   0.644
 7733SOL     OW24097   3.792   0.264   2.354
 7733SOL    HW124098   3.810   0.230   2.261
 7733SOL    HW224099   3.869   0.321   2.383
 7734SOL     OW24100   1.920   2.557   2.988
 7734SOL    HW124101   1.977   2.518   2.916
 7734SOL    HW224102   1.957   2.646   3.016
 7735SOL     OW24103   4.447   4.535   0.260
 7735SOL    HW124104   4.426   4.632   0.272
 7735SOL    HW224105   4.533   4.514   0.305
 7736SOL     OW24106   6.560   4.908   6.876
 7736SOL    HW124107   6.627   4.838   6.904
 7736SOL    HW224108   6.538   4.896   6.780
 7737SOL     OW24109   4.557   1.508   0.569
 7737SOL    HW124110   4.637   1.560   0.540
 7737SOL    HW224111   4.579   1.457   0.652
 7738SOL     OW24112   3.305   5.331   0.009
 7738SOL    HW124113   3.302   5.276   6.949
 7738SOL    HW224114   3.251   5.414   7.021
 7739SOL     OW24115   5.969   2.267   0.743
 7739SOL    HW124116   6.013   2.179   0.759
 7739SOL    HW224117   6.001   2.305   0.656
 7740SOL     OW24118   0.551   0.066   3.275
 7740SOL    HW124119   0.517   0.081   3.367
 7740SOL    HW224120   0.549   6.992   3.254
 7741SOL     OW24121   2.430   5.620   4.554
 7741SOL    HW124122   2.464   5.542   4.502
 7741SOL    HW224123   2.331   5.612   4.565
 7742SOL     OW24124   6.677   1.734   3.789
 7742SOL    HW124125   6.718   1.715   3.699
 7742SOL    HW224126   6.603   1.669   3.805
 7743SOL     OW24127   4.320   2.389   4.215
 7743SOL    HW124128   4.271   2.361   4.132
 7743SOL    HW224129   4.357   2.481   4.202
 7744SOL     OW24130   6.588   0.486   4.335
 7744SOL    HW124131   6.648   0.501   4.255
 7744SOL    HW224132   6.556   0.574   4.369
 7745SOL     OW24133   4.354   3.334   6.150
 7745SOL    HW124134   4.257   3.333   6.175
 7745SOL    HW224135   4.363   3.352   6.052
 7746SOL     OW24136   1.379   0.917   0.730
 7746SOL    HW124137   1.303   0.945   0.671
 7746SOL    HW224138   1.440   0.994   0.744
 7747SOL     OW24139   4.827   6.419   0.960
 7747SOL    HW124140   4.922   6.428   0.932
 7747SOL    HW224141   4.818   6.438   1.058
 7748SOL     OW24142   2.747   4.484   0.031
 7748SOL    HW124143   2.724   4.406   6.998
 7748SOL    HW224144   2.689   4.485   0.112
 7749SOL     OW24145   5.250   2.912   5.656
 7749SOL    HW124146   5.241   2.902   5.557
 7749SOL    HW224147   5.183   2.855   5.702
 7750SOL     OW24148   6.507   5.429   2.286
 7750SOL    HW124149   6.491   5.436   2.384
 7750SOL    HW224150   6.601   5.457   2.266
 7751SOL     OW24151   0.951   2.944   2.295
 7751SOL    HW124152   0.968   2.879   2.370
 7751SOL    HW224153   0.859   2.930   2.259
 7752SOL     OW24154   4.536   2.003   3.782
 7752SOL    HW124155   4.451   2.054   3.776
 7752SOL    HW224156   4.530   1.921   3.725
 7753SOL     OW24157   2.785   1.629   4.629
 7753SOL    HW124158   2.876   1.669   4.613
 7753SOL    HW224159   2.744   1.672   4.710
 7754SOL     OW24160   4.634   6.404   1.958
 7754SOL    HW124161   4.712   6.466   1.958
 7754SOL    HW224162   4.572   6.429   1.883
 7755SOL     OW24163   0.121   4.580   6.010
 7755SOL    HW124164   0.098   4.676   5.995
 7755SOL    HW224165   0.037   4.529   6.030
 7756SOL     OW24166   2.646   5.013   1.752
 7756SOL    HW124167   2.725   5.061   1.791
 7756SOL    HW224168   2.625   5.052   1.663
 7757SOL     OW24169   0.004   4.296   2.251
 7757SOL    HW124170   6.992   4.318   2.160
 7757SOL    HW224171   0.057   4.373   2.286
 7758SOL     OW24172   1.403   1.694   4.916
 7758SOL    HW124173   1.480   1.736   4.963
 7758SOL    HW224174   1.436   1.616   4.862
 7759SOL     OW24175   2.475   2.569   0.011
 7759SOL    HW124176   2.551   2.624   0.045
 7759SOL    HW224177   2.427   2.527   0.088
 7760SOL     OW24178   3.926   2.717   0.037
 7760SOL    HW124179   3.936   2.640   0.100
 7760SOL    HW224180   3.995   2.710   6.989
 7761SOL     OW24181   5.007   5.511   4.025
 7761SOL    HW124182   4.988   5.505   4.123
 7761SOL    HW224183   5.103   5.492   4.009
 7762SOL     OW24184   5.927   1.856   2.662
 7762SOL    HW124185   5.878   1.913   2.728
 7762SOL    HW224186   5.943   1.908   2.578
 7763SOL     OW24187   2.384   0.032   4.416
 7763SOL    HW124188   2.451   6.985   4.441
 7763SOL    HW224189   2.431   0.120   4.406
 7764SOL     OW24190   2.564   3.995   5.557
 7764SOL    HW124191   2.556   3.935   5.477
 7764SOL    HW224192   2.511   3.957   5.632
 7765SOL     OW24193   6.348   3.082   5.770
 7765SOL    HW124194   6.447   3.077   5.785
 7765SOL    HW224195   6.323   3.177   5.752
 7766SOL     OW24196   5.518   4.095   6.183
 7766SOL    HW124197   5.584   4.047   6.242
 7766SOL    HW224198   5.540   4.077   6.087
 7767SOL     OW24199   3.506   0.132   4.112
 7767SOL    HW124200   3.569   0.176   4.175
 7767SOL    HW224201   3.434   0.196   4.086
 7768SOL     OW24202   4.754   4.977   3.365
 7768SOL    HW124203   4.760   5.077   3.375
 7768SOL    HW224204   4.808   4.947   3.287
 7769SOL     OW24205   3.673   3.158   5.429
 7769SOL    HW124206   3.585   3.178   5.386
 7769SOL    HW224207   3.662   3.082   5.494
 7770SOL     OW24208   2.215   3.200   4.353
 7770SOL    HW124209   2.254   3.284   4.391
 7770SOL    HW224210   2.151   3.160   4.419
 7771SOL     OW24211   2.388   2.958   5.984
 7771SOL    HW124212   2.352   2.887   6.044
 7771SOL    HW224213   2.473   2.994   6.023
 7772SOL     OW24214   5.193   6.637   1.794
 7772SOL    HW124215   5.288   6.661   1.812
 7772SOL    HW224216   5.149   6.609   1.879
 7773SOL     OW24217   3.160   6.069   6.889
 7773SOL    HW124218   3.172   6.142   6.956
 7773SOL    HW224219   3.082   6.012   6.915
 7774SOL     OW24220   4.658   1.627   2.191
 7774SOL    HW124221   4.676   1.529   2.185
 7774SOL    HW224222   4.562   1.642   2.217
 7775SOL     OW24223   2.209   1.276   0.511
 7775SOL    HW124224   2.174   1.338   0.582
 7775SOL    HW224225   2.144   1.273   0.435
 7776SOL     OW24226   1.487   1.508   4.689
 7776SOL    HW124227   1.570   1.513   4.744
 7776SOL    HW224228   1.504   1.546   4.598
 7777SOL     OW24229   6.504   5.338   4.122
 7777SOL    HW124230   6.583   5.289   4.159
 7777SOL    HW224231   6.425   5.275   4.118
 7778SOL     OW24232   0.069   4.785   2.768
 7778SOL    HW124233   0.026   4.719   2.830
 7778SOL    HW224234   0.019   4.786   2.681
 7779SOL     OW24235   4.266   6.049   2.241
 7779SOL    HW124236   4.279   5.964   2.291
 7779SOL    HW224237   4.177   6.049   2.196
 7780SOL     OW24238   6.213   6.578   4.939
 7780SOL    HW124239   6.201   6.556   5.036
 7780SOL    HW224240   6.300   6.539   4.907
 7781SOL     OW24241   1.371   2.494   0.910
 7781SOL    HW124242   1.332   2.525   0.824
 7781SOL    HW224243   1.350   2.559   0.982
 7782SOL     OW24244   6.023   2.618   4.031
 7782SOL    HW124245   6.051   2.686   3.963
 7782SOL    HW224246   6.095   2.606   4.098
 7783SOL     OW24247   1.443   6.751   5.135
 7783SOL    HW124248   1.526   6.791   5.173
 7783SOL    HW224249   1.431   6.658   5.170
 7784SOL     OW24250   2.057   2.266   1.631
 7784SOL    HW124251   1.977   2.259   1.572
 7784SOL    HW224252   2.071   2.180   1.679
 7785SOL     OW24253   0.288   6.809   3.073
 7785SOL    HW124254   0.367   6.752   3.098
 7785SOL    HW224255   0.253   6.781   2.984
 7786SOL     OW24256   4.009   1.342   5.388
 7786SOL    HW124257   3.971   1.425   5.348
 7786SOL    HW224258   3.984   1.263   5.331
 7787SOL     OW24259   2.554   2.581   1.889
 7787SOL    HW124260   2.526   2.601   1.983
 7787SOL    HW224261   2.555   2.481   1.875
 7788SOL     OW24262   6.749   4.368   1.367
 7788SOL    HW124263   6.652   4.389   1.354
 7788SOL    HW224264   6.761   4.325   1.456
 7789SOL     OW24265   2.862   1.744   5.932
 7789SOL    HW124266   2.872   1.782   6.024
 7789SOL    HW224267   2.941   1.771   5.876
 7790SOL     OW24268   4.407   4.459   1.734
 7790SOL    HW124269   4.461   4.527   1.785
 7790SOL    HW224270   4.423   4.369   1.773
 7791SOL     OW24271   2.426   5.091   2.413
 7791SOL    HW124272   2.358   5.017   2.416
 7791SOL    HW224273   2.518   5.051   2.407
 7792SOL     OW24274   0.436   1.680   2.421
 7792SOL    HW124275   0.508   1.668   2.353
 7792SOL    HW224276   0.463   1.751   2.486
 7793SOL     OW24277   4.937   0.836   6.827
 7793SOL    HW124278   4.888   0.780   6.761
 7793SOL    HW224279   5.035   0.835   6.806
 7794SOL     OW24280   0.623   6.830   3.208
 7794SOL    HW124281   0.714   6.799   3.181
 7794SOL    HW224282   0.596   6.783   3.292
 7795SOL     OW24283   3.007   5.529   0.247
 7795SOL    HW124284   2.942   5.472   0.197
 7795SOL    HW224285   3.062   5.472   0.308
 7796SOL     OW24286   3.394   3.664   6.986
 7796SOL    HW124287   3.356   3.581   0.003
 7796SOL    HW224288   3.320   3.730   6.970
 7797SOL     OW24289   0.573   6.234   3.085
 7797SOL    HW124290   0.501   6.199   3.026
 7797SOL    HW224291   0.636   6.290   3.030
 7798SOL     OW24292   1.326   3.361   0.571
 7798SOL    HW124293   1.245   3.418   0.588
 7798SOL    HW224294   1.378   3.400   0.495
 7799SOL     OW24295   2.603   6.285   3.230
 7799SOL    HW124296   2.564   6.201   3.268
 7799SOL    HW224297   2.576   6.362   3.288
 7800SOL     OW24298   0.137   6.230   2.394
 7800SOL    HW124299   0.082   6.313   2.403
 7800SOL    HW224300   0.159   6.216   2.298
 7801SOL     OW24301   1.685   1.912   1.752
 7801SOL    HW124302   1.733   1.974   1.814
 7801SOL    HW224303   1.634   1.966   1.685
 7802SOL     OW24304   6.735   3.865   4.666
 7802SOL    HW124305   6.639   3.841   4.651
 7802SOL    HW224306   6.783   3.864   4.579
 7803SOL     OW24307   3.473   2.547   5.723
 7803SOL    HW124308   3.410   2.471   5.734
 7803SOL    HW224309   3.457   2.591   5.634
 7804SOL     OW24310   3.349   1.801   5.253
 7804SOL    HW124311   3.289   1.881   5.245
 7804SOL    HW224312   3.338   1.743   5.173
 7805SOL     OW24313   4.837   3.298   0.541
 7805SOL    HW124314   4.848   3.359   0.463
 7805SOL    HW224315   4.803   3.209   0.509
 7806SOL     OW24316   6.381   1.467   5.725
 7806SOL    HW124317   6.407   1.391   5.666
 7806SOL    HW224318   6.451   1.538   5.720
 7807SOL     OW24319   1.632   4.698   5.909
 7807SOL    HW124320   1.629   4.718   6.007
 7807SOL    HW224321   1.540   4.678   5.876
 7808SOL     OW24322   6.177   3.727   2.857
 7808SOL    HW124323   6.180   3.667   2.777
 7808SOL    HW224324   6.093   3.782   2.854
 7809SOL     OW24325   4.647   5.229   2.306
 7809SOL    HW124326   4.592   5.307   2.334
 7809SOL    HW224327   4.691   5.249   2.218
 7810SOL     OW24328   3.444   6.486   6.072
 7810SOL    HW124329   3.445   6.414   6.002
 7810SOL    HW224330   3.534   6.491   6.115
 7811SOL     OW24331   1.698   6.672   2.951
 7811SOL    HW124332   1.713   6.595   3.013
 7811SOL    HW224333   1.781   6.728   2.947
 7812SOL     OW24334   3.288   1.807   6.156
 7812SOL    HW124335   3.191   1.781   6.159
 7812SOL    HW224336   3.296   1.906   6.152
 7813SOL     OW24337   5.629   0.331   0.281
 7813SOL    HW124338   5.532   0.330   0.257
 7813SOL    HW224339   5.655   0.421   0.314
 7814SOL     OW24340   6.315   2.635   1.762
 7814SOL    HW124341   6.365   2.563   1.714
 7814SOL    HW224342   6.260   2.595   1.835
 7815SOL     OW24343   5.476   4.069   5.407
 7815SOL    HW124344   5.437   3.996   5.464
 7815SOL    HW224345   5.440   4.157   5.436
 7816SOL     OW24346   0.759   0.910   5.539
 7816SOL    HW124347   0.660   0.921   5.543
 7816SOL    HW224348   0.802   0.968   5.608
 7817SOL     OW24349   3.244   2.964   6.940
 7817SOL    HW124350   3.253   3.063   6.932
 7817SOL    HW224351   3.324   2.927   6.988
 7818SOL     OW24352   5.660   0.227   4.435
 7818SOL    HW124353   5.581   0.269   4.480
 7818SOL    HW224354   5.721   0.299   4.402
 7819SOL     OW24355   1.078   3.395   4.261
 7819SOL    HW124356   1.036   3.473   4.214
 7819SOL    HW224357   1.162   3.368   4.214
 7820SOL     OW24358   1.369   6.912   5.662
 7820SOL    HW124359   1.375   6.874   5.570
 7820SOL    HW224360   1.389   6.840   5.729
 7821SOL     OW24361   4.940   6.610   0.206
 7821SOL    HW124362   5.025   6.601   0.259
 7821SOL    HW224363   4.876   6.538   0.234
 7822SOL     OW24364   0.524   1.338   5.138
 7822SOL    HW124365   0.568   1.250   5.154
 7822SOL    HW224366   0.478   1.338   5.049
 7823SOL     OW24367   2.377   3.351   5.305
 7823SOL    HW124368   2.343   3.262   5.336
 7823SOL    HW224369   2.476   3.354   5.317
 7824SOL     OW24370   5.436   3.181   3.043
 7824SOL    HW124371   5.390   3.235   3.112
 7824SOL    HW224372   5.532   3.169   3.068
 7825SOL     OW24373   3.633   3.512   2.331
 7825SOL    HW124374   3.712   3.455   2.309
 7825SOL    HW224375   3.663   3.606   2.346
 7826SOL     OW24376   6.228   6.829   1.151
 7826SOL    HW124377   6.183   6.911   1.187
 7826SOL    HW224378   6.273   6.851   1.064
 7827SOL     OW24379   4.954   3.983   0.436
 7827SOL    HW124380   5.042   3.997   0.391
 7827SOL    HW224381   4.967   3.937   0.523
 7828SOL     OW24382   0.685   5.779   0.581
 7828SOL    HW124383   0.715   5.691   0.543
 7828SOL    HW224384   0.604   5.811   0.532
 7829SOL     OW24385   4.139   3.252   2.421
 7829SOL    HW124386   4.100   3.185   2.484
 7829SOL    HW224387   4.136   3.343   2.463
 7830SOL     OW24388   5.795   3.035   6.706
 7830SOL    HW124389   5.825   2.982   6.626
 7830SOL    HW224390   5.875   3.068   6.755
 7831SOL     OW24391   1.683   2.678   6.693
 7831SOL    HW124392   1.686   2.706   6.597
 7831SOL    HW224393   1.762   2.620   6.714
 7832SOL     OW24394   2.696   2.586   5.572
 7832SOL    HW124395   2.669   2.501   5.616
 7832SOL    HW224396   2.720   2.653   5.643
 7833SOL     OW24397   1.539   6.835   0.813
 7833SOL    HW124398   1.445   6.859   0.792
 7833SOL    HW224399   1.593   6.918   0.824
 7834SOL     OW24400   0.235   0.189   1.337
 7834SOL    HW124401   0.166   0.177   1.266
 7834SOL    HW224402   0.194   0.230   1.418
 7835SOL     OW24403   2.004   2.609   5.064
 7835SOL    HW124404   2.009   2.511   5.085
 7835SOL    HW224405   2.055   2.661   5.133
 7836SOL     OW24406   2.320   0.338   0.028
 7836SOL    HW124407   2.305   0.242   0.007
 7836SOL    HW224408   2.238   0.376   0.072
 7837SOL     OW24409   6.023   0.439   3.666
 7837SOL    HW124410   6.049   0.410   3.758
 7837SOL    HW224411   5.939   0.492   3.671
 7838SOL     OW24412   3.786   6.821   3.560
 7838SOL    HW124413   3.692   6.800   3.585
 7838SOL    HW224414   3.809   6.775   3.474
 7839SOL     OW24415   6.669   5.034   4.418
 7839SOL    HW124416   6.718   4.947   4.413
 7839SOL    HW224417   6.570   5.017   4.410
 7840SOL     OW24418   5.166   3.378   6.012
 7840SOL    HW124419   5.162   3.308   5.940
 7840SOL    HW224420   5.078   3.381   6.059
 7841SOL     OW24421   1.199   1.699   6.488
 7841SOL    HW124422   1.276   1.637   6.498
 7841SOL    HW224423   1.131   1.658   6.427
 7842SOL     OW24424   2.935   1.304   2.634
 7842SOL    HW124425   2.926   1.255   2.547
 7842SOL    HW224426   2.882   1.257   2.704
 7843SOL     OW24427   5.998   3.651   1.376
 7843SOL    HW124428   6.076   3.639   1.316
 7843SOL    HW224429   6.018   3.724   1.442
 7844SOL     OW24430   4.428   1.616   4.438
 7844SOL    HW124431   4.356   1.655   4.381
 7844SOL    HW224432   4.503   1.584   4.380
 7845SOL     OW24433   0.771   1.062   4.115
 7845SOL    HW124434   0.856   1.041   4.067
 7845SOL    HW224435   0.778   1.153   4.157
 7846SOL     OW24436   3.892   0.294   2.004
 7846SOL    HW124437   3.970   0.318   2.062
 7846SOL    HW224438   3.836   0.375   1.987
 7847SOL     OW24439   6.737   0.584   0.153
 7847SOL    HW124440   6.828   0.621   0.138
 7847SOL    HW224441   6.678   0.654   0.193
 7848SOL     OW24442   4.876   4.403   0.423
 7848SOL    HW124443   4.919   4.340   0.487
 7848SOL    HW224444   4.934   4.411   0.341
 7849SOL     OW24445   5.394   4.342   5.205
 7849SOL    HW124446   5.420   4.269   5.143
 7849SOL    HW224447   5.451   4.339   5.287
 7850SOL     OW24448   0.976   0.921   4.396
 7850SOL    HW124449   1.024   1.008   4.411
 7850SOL    HW224450   0.878   0.935   4.413
 7851SOL     OW24451   5.189   6.773   0.304
 7851SOL    HW124452   5.150   6.834   0.372
 7851SOL    HW224453   5.236   6.697   0.349
 7852SOL     OW24454   2.520   6.309   6.209
 7852SOL    HW124455   2.539   6.217   6.242
 7852SOL    HW224456   2.453   6.353   6.269
 7853SOL     OW24457   2.475   2.900   0.774
 7853SOL    HW124458   2.508   2.981   0.822
 7853SOL    HW224459   2.490   2.819   0.832
 7854SOL     OW24460   3.754   4.055   2.553
 7854SOL    HW124461   3.777   3.968   2.598
 7854SOL    HW224462   3.800   4.130   2.600
 7855SOL     OW24463   3.583   6.868   5.661
 7855SOL    HW124464   3.527   6.944   5.694
 7855SOL    HW224465   3.585   6.795   5.730
 7856SOL     OW24466   4.726   3.266   6.319
 7856SOL    HW124467   4.662   3.193   6.296
 7856SOL    HW224468   4.764   3.250   6.410
 7857SOL     OW24469   0.643   1.664   4.791
 7857SOL    HW124470   0.561   1.693   4.741
 7857SOL    HW224471   0.719   1.725   4.768
 7858SOL     OW24472   6.444   4.251   3.456
 7858SOL    HW124473   6.431   4.214   3.548
 7858SOL    HW224474   6.529   4.215   3.417
 7859SOL     OW24475   0.924   5.797   6.532
 7859SOL    HW124476   1.014   5.754   6.518
 7859SOL    HW224477   0.885   5.820   6.443
 7860SOL     OW24478   3.493   0.305   2.263
 7860SOL    HW124479   3.406   0.334   2.304
 7860SOL    HW224480   3.527   0.224   2.310
 7861SOL     OW24481   5.632   3.982   0.479
 7861SOL    HW124482   5.682   4.000   0.394
 7861SOL    HW224483   5.680   3.912   0.532
 7862SOL     OW24484   3.115   4.546   1.643
 7862SOL    HW124485   3.069   4.589   1.566
 7862SOL    HW224486   3.047   4.520   1.712
 7863SOL     OW24487   6.926   6.270   2.176
 7863SOL    HW124488   6.865   6.264   2.255
 7863SOL    HW224489   6.993   6.343   2.191
 7864SOL     OW24490   0.708   5.132   4.428
 7864SOL    HW124491   0.737   5.052   4.375
 7864SOL    HW224492   0.616   5.118   4.463
 7865SOL     OW24493   2.739   0.405   2.531
 7865SOL    HW124494   2.827   0.450   2.543
 7865SOL    HW224495   2.680   0.462   2.474
 7866SOL     OW24496   2.505   2.500   4.058
 7866SOL    HW124497   2.501   2.563   4.136
 7866SOL    HW224498   2.595   2.455   4.057
 7867SOL     OW24499   5.635   4.860   2.245
 7867SOL    HW124500   5.537   4.884   2.249
 7867SOL    HW224501   5.660   4.809   2.327
 7868SOL     OW24502   5.677   0.354   0.696
 7868SOL    HW124503   5.688   0.358   0.795
 7868SOL    HW224504   5.582   0.372   0.672
 7869SOL     OW24505   0.402   2.907   2.006
 7869SOL    HW124506   0.425   3.003   1.991
 7869SOL    HW224507   0.305   2.892   1.986
 7870SOL     OW24508   0.166   6.381   3.524
 7870SOL    HW124509   0.099   6.429   3.468
 7870SOL    HW224510   0.146   6.283   3.522
 7871SOL     OW24511   5.254   3.343   3.806
 7871SOL    HW124512   5.328   3.377   3.748
 7871SOL    HW224513   5.254   3.243   3.805
 7872SOL     OW24514   6.468   2.995   3.687
 7872SOL    HW124515   6.551   3.048   3.704
 7872SOL    HW224516   6.478   2.945   3.601
 7873SOL     OW24517   0.063   5.100   5.092
 7873SOL    HW124518   6.988   5.115   5.091
 7873SOL    HW224519   0.104   5.150   5.015
 7874SOL     OW24520   5.884   0.594   0.168
 7874SOL    HW124521   5.927   0.610   0.079
 7874SOL    HW224522   5.934   0.644   0.239
 7875SOL     OW24523   4.382   3.150   6.791
 7875SOL    HW124524   4.306   3.184   6.847
 7875SOL    HW224525   4.463   3.206   6.809
 7876SOL     OW24526   6.812   0.343   3.970
 7876SOL    HW124527   6.867   0.277   4.022
 7876SOL    HW224528   6.805   0.428   4.022
 7877SOL     OW24529   6.858   2.298   2.119
 7877SOL    HW124530   6.790   2.239   2.164
 7877SOL    HW224531   6.909   2.245   2.051
 7878SOL     OW24532   4.620   4.102   1.637
 7878SOL    HW124533   4.543   4.137   1.690
 7878SOL    HW224534   4.705   4.122   1.685
 7879SOL     OW24535   5.663   0.563   4.974
 7879SOL    HW124536   5.704   0.639   5.024
 7879SOL    HW224537   5.564   0.565   4.986
 7880SOL     OW24538   0.977   6.940   6.297
 7880SOL    HW124539   0.908   6.976   6.234
 7880SOL    HW224540   0.951   6.847   6.325
 7881SOL     OW24541   0.402   4.966   4.033
 7881SOL    HW124542   0.492   4.938   4.065
 7881SOL    HW224543   0.374   5.049   4.081
 7882SOL     OW24544   0.577   4.144   2.457
 7882SOL    HW124545   0.482   4.124   2.433
 7882SOL    HW224546   0.637   4.109   2.385
 7883SOL     OW24547   3.359   1.347   4.500
 7883SOL    HW124548   3.453   1.378   4.512
 7883SOL    HW224549   3.323   1.384   4.414
 7884SOL     OW24550   0.944   3.450   4.484
 7884SOL    HW124551   1.015   3.430   4.417
 7884SOL    HW224552   0.984   3.452   4.575
 7885SOL     OW24553   6.254   5.330   3.748
 7885SOL    HW124554   6.322   5.297   3.682
 7885SOL    HW224555   6.171   5.358   3.699
 7886SOL     OW24556   4.949   3.381   3.742
 7886SOL    HW124557   4.947   3.429   3.654
 7886SOL    HW224558   5.030   3.322   3.746
 7887SOL     OW24559   2.377   3.354   0.777
 7887SOL    HW124560   2.286   3.327   0.744
 7887SOL    HW224561   2.424   3.405   0.705
 7888SOL     OW24562   6.464   2.189   4.306
 7888SOL    HW124563   6.438   2.098   4.338
 7888SOL    HW224564   6.554   2.186   4.264
 7889SOL     OW24565   5.871   5.283   0.433
 7889SOL    HW124566   5.966   5.311   0.442
 7889SOL    HW224567   5.845   5.283   0.337
 7890SOL     OW24568   1.576   3.453   4.024
 7890SOL    HW124569   1.562   3.463   3.926
 7890SOL    HW224570   1.544   3.534   4.072
 7891SOL     OW24571   6.934   1.791   3.888
 7891SOL    HW124572   6.978   1.879   3.871
 7891SOL    HW224573   6.837   1.796   3.862
 7892SOL     OW24574   0.228   1.656   5.835
 7892SOL    HW124575   0.293   1.584   5.858
 7892SOL    HW224576   0.230   1.672   5.737
 7893SOL     OW24577   6.044   0.103   0.618
 7893SOL    HW124578   5.952   0.124   0.585
 7893SOL    HW224579   6.108   0.173   0.586
 7894SOL     OW24580   3.430   1.647   6.305
 7894SOL    HW124581   3.379   1.567   6.336
 7894SOL    HW224582   3.378   1.695   6.235
 7895SOL     OW24583   4.890   6.408   3.542
 7895SOL    HW124584   4.853   6.444   3.627
 7895SOL    HW224585   4.907   6.483   3.479
 7896SOL     OW24586   2.934   2.657   0.972
 7896SOL    HW124587   2.928   2.629   0.876
 7896SOL    HW224588   2.897   2.586   1.030
 7897SOL     OW24589   3.350   3.396   0.239
 7897SOL    HW124590   3.406   3.315   0.224
 7897SOL    HW224591   3.326   3.403   0.336
 7898SOL     OW24592   5.935   6.936   3.482
 7898SOL    HW124593   5.951   6.848   3.438
 7898SOL    HW224594   5.960   6.930   3.579
 7899SOL     OW24595   6.102   4.902   3.448
 7899SOL    HW124596   6.076   4.991   3.411
 7899SOL    HW224597   6.047   4.881   3.528
 7900SOL     OW24598   0.751   4.614   1.623
 7900SOL    HW124599   0.770   4.680   1.696
 7900SOL    HW224600   0.835   4.565   1.601
 7901SOL     OW24601   6.720   1.387   6.405
 7901SOL    HW124602   6.692   1.320   6.337
 7901SOL    HW224603   6.646   1.402   6.471
 7902SOL     OW24604   0.935   6.391   2.381
 7902SOL    HW124605   1.030   6.414   2.403
 7902SOL    HW224606   0.874   6.462   2.418
 7903SOL     OW24607   2.908   2.222   4.886
 7903SOL    HW124608   2.990   2.252   4.935
 7903SOL    HW224609   2.837   2.292   4.895
 7904SOL     OW24610   4.990   1.279   1.934
 7904SOL    HW124611   4.917   1.211   1.942
 7904SOL    HW224612   5.067   1.253   1.992
 7905SOL     OW24613   5.940   0.859   1.453
 7905SOL    HW124614   6.004   0.929   1.421
 7905SOL    HW224615   5.917   0.798   1.378
 7906SOL     OW24616   1.905   5.593   0.483
 7906SOL    HW124617   1.934   5.606   0.578
 7906SOL    HW224618   1.866   5.501   0.472
 7907SOL     OW24619   6.231   0.245   3.045
 7907SOL    HW124620   6.202   0.295   3.127
 7907SOL    HW224621   6.289   0.168   3.071
 7908SOL     OW24622   0.976   0.444   6.624
 7908SOL    HW124623   1.061   0.392   6.630
 7908SOL    HW224624   0.906   0.388   6.579
 7909SOL     OW24625   6.212   4.661   2.151
 7909SOL    HW124626   6.188   4.649   2.055
 7909SOL    HW224627   6.129   4.676   2.205
 7910SOL     OW24628   1.227   3.840   0.434
 7910SOL    HW124629   1.135   3.841   0.396
 7910SOL    HW224630   1.225   3.798   0.525
 7911SOL     OW24631   0.778   4.188   0.073
 7911SOL    HW124632   0.722   4.270   0.084
 7911SOL    HW224633   0.810   4.182   7.002
 7912SOL     OW24634   6.036   5.707   0.648
 7912SOL    HW124635   6.092   5.673   0.573
 7912SOL    HW224636   5.990   5.629   0.692
 7913SOL     OW24637   0.891   4.344   1.349
 7913SOL    HW124638   0.843   4.302   1.426
 7913SOL    HW224639   0.962   4.405   1.384
 7914SOL     OW24640   6.647   6.011   4.775
 7914SOL    HW124641   6.631   6.093   4.720
 7914SOL    HW224642   6.741   6.013   4.811
 7915SOL     OW24643   3.821   5.919   2.702
 7915SOL    HW124644   3.876   5.870   2.770
 7915SOL    HW224645   3.873   5.928   2.617
 7916SOL     OW24646   1.455   0.362   4.445
 7916SOL    HW124647   1.387   0.371   4.373
 7916SOL    HW224648   1.459   0.267   4.476
 7917SOL     OW24649   4.370   3.611   0.836
 7917SOL    HW124650   4.289   3.566   0.873
 7917SOL    HW224651   4.412   3.668   0.906
 7918SOL     OW24652   2.080   2.060   4.775
 7918SOL    HW124653   2.046   2.141   4.727
 7918SOL    HW224654   2.043   1.977   4.733
 7919SOL     OW24655   2.230   6.133   4.012
 7919SOL    HW124656   2.231   6.178   4.101
 7919SOL    HW224657   2.212   6.200   3.940
 7920SOL     OW24658   5.387   0.298   0.950
 7920SOL    HW124659   5.429   0.225   0.897
 7920SOL    HW224660   5.302   0.265   0.991
 7921SOL     OW24661   5.374   1.885   1.318
 7921SOL    HW124662   5.320   1.896   1.235
 7921SOL    HW224663   5.324   1.925   1.395
 7922SOL     OW24664   1.420   5.688   0.963
 7922SOL    HW124665   1.463   5.640   1.039
 7922SOL    HW224666   1.322   5.666   0.961
 7923SOL     OW24667   4.923   1.299   0.436
 7923SOL    HW124668   4.940   1.260   0.526
 7923SOL    HW224669   4.916   1.225   0.369
 7924SOL     OW24670   6.174   6.313   0.806
 7924SOL    HW124671   6.162   6.247   0.732
 7924SOL    HW224672   6.085   6.342   0.840
 7925SOL     OW24673   1.619   6.271   7.018
 7925SOL    HW124674   1.574   6.320   0.069
 7925SOL    HW224675   1.613   6.172   0.011
 7926SOL     OW24676   4.556   5.379   0.063
 7926SOL    HW124677   4.595   5.302   0.113
 7926SOL    HW224678   4.630   5.437   0.028
 7927SOL     OW24679   4.570   0.274   3.095
 7927SOL    HW124680   4.583   0.349   3.160
 7927SOL    HW224681   4.474   0.248   3.093
 7928SOL     OW24682   6.969   1.891   3.494
 7928SOL    HW124683   6.913   1.967   3.461
 7928SOL    HW224684   0.029   1.927   3.535
 7929SOL     OW24685   4.013   4.273   6.236
 7929SOL    HW124686   4.078   4.300   6.165
 7929SOL    HW224687   4.062   4.227   6.310
 7930SOL     OW24688   4.511   6.082   5.728
 7930SOL    HW124689   4.609   6.086   5.747
 7930SOL    HW224690   4.496   6.033   5.641
 7931SOL     OW24691   3.525   2.091   0.957
 7931SOL    HW124692   3.463   2.055   0.888
 7931SOL    HW224693   3.604   2.030   0.966
 7932SOL     OW24694   1.674   4.951   2.613
 7932SOL    HW124695   1.582   4.967   2.577
 7932SOL    HW224696   1.729   5.034   2.603
 7933SOL     OW24697   0.576   1.341   6.716
 7933SOL    HW124698   0.653   1.382   6.668
 7933SOL    HW224699   0.609   1.277   6.784
 7934SOL     OW24700   0.930   4.960   1.516
 7934SOL    HW124701   0.846   4.994   1.558
 7934SOL    HW224702   0.974   5.033   1.463
 7935SOL     OW24703   5.210   3.053   3.862
 7935SOL    HW124704   5.177   3.034   3.955
 7935SOL    HW224705   5.267   2.977   3.831
 7936SOL     OW24706   3.613   6.103   3.863
 7936SOL    HW124707   3.662   6.164   3.801
 7936SOL    HW224708   3.566   6.156   3.933
 7937SOL     OW24709   3.680   0.808   0.005
 7937SOL    HW124710   3.581   0.796   0.011
 7937SOL    HW224711   3.704   0.838   6.937
 7938SOL     OW24712   3.732   6.952   4.343
 7938SOL    HW124713   3.680   6.947   4.258
 7938SOL    HW224714   3.814   6.895   4.336
 7939SOL     OW24715   0.568   1.704   4.148
 7939SOL    HW124716   0.536   1.798   4.135
 7939SOL    HW224717   0.631   1.680   4.075
 7940SOL     OW24718   5.010   1.245   2.927
 7940SOL    HW124719   4.936   1.260   2.992
 7940SOL    HW224720   5.076   1.320   2.934
 7941SOL     OW24721   3.377   6.799   1.493
 7941SOL    HW124722   3.429   6.716   1.471
 7941SOL    HW224723   3.279   6.781   1.483
 7942SOL     OW24724   0.978   4.837   1.228
 7942SOL    HW124725   0.961   4.851   1.326
 7942SOL    HW224726   0.946   4.747   1.201
 7943SOL     OW24727   1.419   5.728   6.326
 7943SOL    HW124728   1.436   5.630   6.314
 7943SOL    HW224729   1.377   5.744   6.415
 7944SOL     OW24730   1.561   2.341   0.791
 7944SOL    HW124731   1.507   2.413   0.835
 7944SOL    HW224732   1.518   2.252   0.810
 7945SOL     OW24733   6.093   4.395   2.995
 7945SOL    HW124734   6.096   4.430   3.089
 7945SOL    HW224735   6.019   4.329   2.987
 7946SOL     OW24736   3.472   1.321   6.138
 7946SOL    HW124737   3.401   1.351   6.074
 7946SOL    HW224738   3.560   1.316   6.091
 7947SOL     OW24739   0.750   3.745   6.143
 7947SOL    HW124740   0.684   3.820   6.154
 7947SOL    HW224741   0.788   3.746   6.051
 7948SOL     OW24742   1.413   4.652   2.430
 7948SOL    HW124743   1.313   4.656   2.431
 7948SOL    HW224744   1.446   4.624   2.520
 7949SOL     OW24745   3.959   6.505   6.255
 7949SOL    HW124746   4.038   6.489   6.197
 7949SOL    HW224747   3.980   6.576   6.322
 7950SOL     OW24748   5.455   4.609   5.416
 7950SOL    HW124749   5.404   4.692   5.438
 7950SOL    HW224750   5.553   4.629   5.417
 7951SOL     OW24751   3.345   6.359   2.595
 7951SOL    HW124752   3.308   6.327   2.508
 7951SOL    HW224753   3.319   6.454   2.610
 7952SOL     OW24754   5.801   3.780   6.644
 7952SOL    HW124755   5.749   3.716   6.586
 7952SOL    HW224756   5.898   3.770   6.624
 7953SOL     OW24757   3.043   1.021   1.146
 7953SOL    HW124758   3.104   1.020   1.225
 7953SOL    HW224759   3.095   1.002   1.063
 7954SOL     OW24760   3.925   3.410   6.419
 7954SOL    HW124761   3.905   3.508   6.425
 7954SOL    HW224762   3.864   3.360   6.480
 7955SOL     OW24763   1.747   1.319   0.008
 7955SOL    HW124764   1.763   1.254   0.082
 7955SOL    HW224765   1.653   1.352   0.013
 7956SOL     OW24766   6.297   6.085   0.205
 7956SOL    HW124767   6.277   6.035   0.289
 7956SOL    HW224768   6.302   6.183   0.225
 7957SOL     OW24769   4.484   0.767   5.722
 7957SOL    HW124770   4.441   0.778   5.812
 7957SOL    HW224771   4.563   0.705   5.730
 7958SOL     OW24772   5.873   2.660   6.864
 7958SOL    HW124773   5.785   2.700   6.843
 7958SOL    HW224774   5.860   2.569   6.905
 7959SOL     OW24775   5.546   1.507   6.177
 7959SOL    HW124776   5.616   1.559   6.127
 7959SOL    HW224777   5.511   1.562   6.253
 7960SOL     OW24778   0.354   0.676   5.948
 7960SOL    HW124779   0.271   0.662   5.894
 7960SOL    HW224780   0.389   0.768   5.933
 7961SOL     OW24781   6.875   6.571   0.456
 7961SOL    HW124782   6.775   6.569   0.452
 7961SOL    HW224783   6.905   6.658   0.494
 7962SOL     OW24784   5.589   7.006   5.802
 7962SOL    HW124785   5.565   6.961   5.888
 7962SOL    HW224786   5.688   7.005   5.790
 7963SOL     OW24787   0.341   5.913   4.137
 7963SOL    HW124788   0.307   5.830   4.182
 7963SOL    HW224789   0.379   5.975   4.206
 7964SOL     OW24790   6.811   4.497   1.802
 7964SOL    HW124791   6.899   4.520   1.843
 7964SOL    HW224792   6.738   4.509   1.870
 7965SOL     OW24793   3.091   2.436   6.441
 7965SOL    HW124794   3.146   2.519   6.454
 7965SOL    HW224795   3.041   2.442   6.354
 7966SOL     OW24796   4.958   3.606   4.851
 7966SOL    HW124797   4.926   3.514   4.826
 7966SOL    HW224798   4.906   3.639   4.930
 7967SOL     OW24799   1.839   4.588   2.073
 7967SOL    HW124800   1.779   4.593   1.993
 7967SOL    HW224801   1.816   4.506   2.126
 7968SOL     OW24802   0.149   2.608   4.662
 7968SOL    HW124803   0.231   2.601   4.604
 7968SOL    HW224804   0.112   2.516   4.678
 7969SOL     OW24805   4.511   4.829   0.225
 7969SOL    HW124806   4.482   4.873   0.140
 7969SOL    HW224807   4.606   4.854   0.244
 7970SOL     OW24808   5.983   3.019   2.492
 7970SOL    HW124809   5.947   3.103   2.531
 7970SOL    HW224810   5.941   3.003   2.402
 7971SOL     OW24811   3.232   1.102   0.433
 7971SOL    HW124812   3.173   1.087   0.353
 7971SOL    HW224813   3.190   1.061   0.514
 7972SOL     OW24814   3.918   3.958   3.389
 7972SOL    HW124815   4.004   3.996   3.354
 7972SOL    HW224816   3.938   3.895   3.464
 7973SOL     OW24817   6.276   3.814   2.162
 7973SOL    HW124818   6.262   3.803   2.260
 7973SOL    HW224819   6.345   3.749   2.130
 7974SOL     OW24820   6.788   2.557   6.446
 7974SOL    HW124821   6.776   2.461   6.421
 7974SOL    HW224822   6.714   2.585   6.507
 7975SOL     OW24823   5.777   0.710   1.220
 7975SOL    HW124824   5.782   0.642   1.292
 7975SOL    HW224825   5.686   0.710   1.179
 7976SOL     OW24826   0.765   0.410   0.413
 7976SOL    HW124827   0.859   0.444   0.416
 7976SOL    HW224828   0.705   0.472   0.464
 7977SOL     OW24829   5.534   5.488   3.428
 7977SOL    HW124830   5.481   5.558   3.474
 7977SOL    HW224831   5.526   5.401   3.478
 7978SOL     OW24832   0.226   4.420   1.762
 7978SOL    HW124833   0.188   4.386   1.677
 7978SOL    HW224834   0.324   4.434   1.752
 7979SOL     OW24835   1.876   2.512   4.405
 7979SOL    HW124836   1.881   2.522   4.306
 7979SOL    HW224837   1.794   2.559   4.439
 7980SOL     OW24838   4.002   5.425   0.014
 7980SOL    HW124839   4.093   5.426   0.056
 7980SOL    HW224840   4.010   5.452   6.942
 7981SOL     OW24841   1.781   4.800   3.003
 7981SOL    HW124842   1.867   4.765   3.041
 7981SOL    HW224843   1.795   4.893   2.968
 7982SOL     OW24844   6.339   2.169   5.481
 7982SOL    HW124845   6.295   2.126   5.402
 7982SOL    HW224846   6.278   2.161   5.561
 7983SOL     OW24847   4.892   1.444   1.513
 7983SOL    HW124848   4.955   1.506   1.559
 7983SOL    HW224849   4.910   1.445   1.415
 7984SOL     OW24850   0.910   1.879   2.718
 7984SOL    HW124851   0.871   1.789   2.738
 7984SOL    HW224852   0.885   1.942   2.792
 7985SOL     OW24853   2.593   2.657   5.261
 7985SOL    HW124854   2.606   2.737   5.319
 7985SOL    HW224855   2.621   2.575   5.311
 7986SOL     OW24856   2.753   1.183   3.952
 7986SOL    HW124857   2.666   1.184   3.904
 7986SOL    HW224858   2.737   1.186   4.050
 7987SOL     OW24859   1.505   3.199   0.343
 7987SOL    HW124860   1.531   3.168   0.252
 7987SOL    HW224861   1.444   3.278   0.335
 7988SOL     OW24862   6.931   1.731   1.043
 7988SOL    HW124863   6.910   1.637   1.019
 7988SOL    HW224864   6.874   1.760   1.120
 7989SOL     OW24865   0.188   4.372   0.410
 7989SOL    HW124866   0.273   4.362   0.461
 7989SOL    HW224867   0.134   4.446   0.448
 7990SOL     OW24868   3.998   5.472   5.690
 7990SOL    HW124869   3.996   5.565   5.654
 7990SOL    HW224870   4.081   5.426   5.658
 7991SOL     OW24871   6.173   1.191   4.838
 7991SOL    HW124872   6.218   1.235   4.761
 7991SOL    HW224873   6.241   1.145   4.896
 7992SOL     OW24874   2.575   6.896   7.004
 7992SOL    HW124875   2.624   6.982   6.993
 7992SOL    HW224876   2.515   6.901   0.060
 7993SOL     OW24877   6.815   5.896   1.424
 7993SOL    HW124878   6.756   5.967   1.387
 7993SOL    HW224879   6.783   5.871   1.516
 7994SOL     OW24880   5.642   0.252   3.694
 7994SOL    HW124881   5.574   0.238   3.622
 7994SOL    HW224882   5.603   0.223   3.782
 7995SOL     OW24883   0.319   4.583   1.506
 7995SOL    HW124884   0.279   4.589   1.415
 7995SOL    HW224885   0.250   4.610   1.574
 7996SOL     OW24886   3.235   0.633   3.054
 7996SOL    HW124887   3.310   0.682   3.099
 7996SOL    HW224888   3.147   0.673   3.081
 7997SOL     OW24889   1.382   1.485   6.469
 7997SOL    HW124890   1.472   1.444   6.454
 7997SOL    HW224891   1.326   1.471   6.388
 7998SOL     OW24892   2.611   1.195   0.652
 7998SOL    HW124893   2.666   1.258   0.598
 7998SOL    HW224894   2.559   1.246   0.720
 7999SOL     OW24895   0.627   0.347   4.544
 7999SOL    HW124896   0.616   0.278   4.616
 7999SOL    HW224897   0.693   0.416   4.573
 8000SOL     OW24898   4.448   5.402   6.835
 8000SOL    HW124899   4.489   5.397   6.926
 8000SOL    HW224900   4.472   5.321   6.783
 8001SOL     OW24901   4.617   6.610   1.648
 8001SOL    HW124902   4.697   6.607   1.707
 8001SOL    HW224903   4.544   6.554   1.689
 8002SOL     OW24904   0.790   0.216   5.303
 8002SOL    HW124905   0.782   0.161   5.220
 8002SOL    HW224906   0.709   0.202   5.360
 8003SOL     OW24907   1.977   5.780   2.296
 8003SOL    HW124908   2.022   5.693   2.278
 8003SOL    HW224909   1.889   5.783   2.250
 8004SOL     OW24910   1.383   3.314   3.407
 8004SOL    HW124911   1.458   3.345   3.348
 8004SOL    HW224912   1.298   3.310   3.354
 8005SOL     OW24913   2.385   0.385   3.356
 8005SOL    HW124914   2.369   0.374   3.257
 8005SOL    HW224915   2.433   0.306   3.391
 8006SOL     OW24916   3.575   4.818   5.312
 8006SOL    HW124917   3.584   4.719   5.299
 8006SOL    HW224918   3.543   4.859   5.226
 8007SOL     OW24919   6.262   0.507   6.431
 8007SOL    HW124920   6.360   0.490   6.420
 8007SOL    HW224921   6.210   0.441   6.377
 8008SOL     OW24922   5.806   6.751   6.751
 8008SOL    HW124923   5.753   6.796   6.823
 8008SOL    HW224924   5.762   6.768   6.663
 8009SOL     OW24925   5.054   1.907   6.188
 8009SOL    HW124926   5.028   1.815   6.216
 8009SOL    HW224927   4.990   1.974   6.227
 8010SOL     OW24928   2.597   1.967   5.351
 8010SOL    HW124929   2.633   2.019   5.429
 8010SOL    HW224930   2.526   2.020   5.305
 8011SOL     OW24931   4.422   1.487   2.028
 8011SOL    HW124932   4.350   1.418   2.042
 8011SOL    HW224933   4.397   1.571   2.075
 8012SOL     OW24934   0.100   1.454   5.330
 8012SOL    HW124935   0.048   1.530   5.367
 8012SOL    HW224936   0.048   1.369   5.343
 8013SOL     OW24937   3.317   2.139   2.608
 8013SOL    HW124938   3.323   2.122   2.510
 8013SOL    HW224939   3.404   2.117   2.651
 8014SOL     OW24940   2.256   1.512   2.388
 8014SOL    HW124941   2.321   1.471   2.452
 8014SOL    HW224942   2.306   1.569   2.322
 8015SOL     OW24943   3.421   0.048   5.733
 8015SOL    HW124944   3.425   0.102   5.649
 8015SOL    HW224945   3.345   0.080   5.789
 8016SOL     OW24946   3.571   1.713   4.814
 8016SOL    HW124947   3.478   1.692   4.783
 8016SOL    HW224948   3.627   1.630   4.808
 8017SOL     OW24949   6.129   6.015   1.220
 8017SOL    HW124950   6.075   6.072   1.282
 8017SOL    HW224951   6.153   5.929   1.266
 8018SOL     OW24952   4.079   1.823   6.787
 8018SOL    HW124953   4.018   1.876   6.846
 8018SOL    HW224954   4.162   1.799   6.838
 8019SOL     OW24955   2.392   3.742   1.069
 8019SOL    HW124956   2.336   3.798   1.007
 8019SOL    HW224957   2.414   3.655   1.025
 8020SOL     OW24958   0.126   0.879   5.537
 8020SOL    HW124959   0.171   0.967   5.526
 8020SOL    HW224960   0.080   0.853   5.452
 8021SOL     OW24961   1.546   2.112   1.626
 8021SOL    HW124962   1.463   2.162   1.652
 8021SOL    HW224963   1.597   2.166   1.559
 8022SOL     OW24964   4.971   1.651   2.494
 8022SOL    HW124965   4.997   1.677   2.401
 8022SOL    HW224966   5.010   1.562   2.516
 8023SOL     OW24967   4.775   5.709   2.623
 8023SOL    HW124968   4.762   5.698   2.524
 8023SOL    HW224969   4.700   5.664   2.671
 8024SOL     OW24970   2.229   0.915   6.655
 8024SOL    HW124971   2.189   0.830   6.690
 8024SOL    HW224972   2.243   0.978   6.731
 8025SOL     OW24973   1.280   5.851   1.438
 8025SOL    HW124974   1.313   5.816   1.526
 8025SOL    HW224975   1.182   5.871   1.445
 8026SOL     OW24976   0.869   5.420   6.519
 8026SOL    HW124977   0.835   5.330   6.546
 8026SOL    HW224978   0.947   5.445   6.577
 8027SOL     OW24979   3.511   6.895   6.817
 8027SOL    HW124980   3.555   6.872   6.903
 8027SOL    HW224981   3.580   6.906   6.746
 8028SOL     OW24982   3.229   5.387   5.518
 8028SOL    HW124983   3.241   5.442   5.436
 8028SOL    HW224984   3.263   5.295   5.502
 8029SOL     OW24985   0.069   6.844   0.242
 8029SOL    HW124986   0.012   6.853   0.161
 8029SOL    HW224987   0.094   6.748   0.254
 8030SOL     OW24988   1.017   3.829   0.924
 8030SOL    HW124989   1.056   3.759   0.864
 8030SOL    HW224990   0.930   3.796   0.961
 8031SOL     OW24991   0.206   0.713   3.376
 8031SOL    HW124992   0.294   0.667   3.374
 8031SOL    HW224993   0.209   0.789   3.441
 8032SOL     OW24994   5.828   2.917   0.953
 8032SOL    HW124995   5.884   2.909   1.036
 8032SOL    HW224996   5.888   2.936   0.875
 8033SOL     OW24997   5.145   3.405   0.611
 8033SOL    HW124998   5.128   3.458   0.529
 8033SOL    HW224999   5.153   3.466   0.690
 8034SOL     OW25000   6.451   0.186   5.716
 8034SOL    HW125001   6.461   0.189   5.617
 8034SOL    HW225002   6.470   0.094   5.750
 8035SOL     OW25003   5.585   1.858   2.676
 8035SOL    HW125004   5.638   1.938   2.705
 8035SOL    HW225005   5.501   1.851   2.730
 8036SOL     OW25006   6.042   2.463   3.411
 8036SOL    HW125007   6.106   2.388   3.428
 8036SOL    HW225008   6.011   2.459   3.316
 8037SOL     OW25009   1.304   2.147   5.857
 8037SOL    HW125010   1.298   2.132   5.758
 8037SOL    HW225011   1.223   2.197   5.888
 8038SOL     OW25012   6.939   4.949   2.343
 8038SOL    HW125013   6.981   5.014   2.405
 8038SOL    HW225014   6.876   4.890   2.393
 8039SOL     OW25015   1.458   2.493   5.414
 8039SOL    HW125016   1.397   2.425   5.456
 8039SOL    HW225017   1.406   2.577   5.396
 8040SOL     OW25018   2.198   5.489   6.381
 8040SOL    HW125019   2.128   5.496   6.452
 8040SOL    HW225020   2.153   5.476   6.292
 8041SOL     OW25021   3.796   1.376   3.622
 8041SOL    HW125022   3.698   1.372   3.643
 8041SOL    HW225023   3.842   1.437   3.687
 8042SOL     OW25024   4.200   4.315   5.595
 8042SOL    HW125025   4.111   4.283   5.626
 8042SOL    HW225026   4.211   4.293   5.498
 8043SOL     OW25027   5.555   5.492   6.463
 8043SOL    HW125028   5.497   5.566   6.428
 8043SOL    HW225029   5.499   5.411   6.479
 8044SOL     OW25030   2.698   3.674   1.407
 8044SOL    HW125031   2.635   3.727   1.350
 8044SOL    HW225032   2.657   3.660   1.497
 8045SOL     OW25033   0.450   1.812   3.113
 8045SOL    HW125034   0.378   1.879   3.128
 8045SOL    HW225035   0.417   1.740   3.052
 8046SOL     OW25036   6.981   4.904   2.048
 8046SOL    HW125037   6.965   4.939   2.141
 8046SOL    HW225038   6.894   4.881   2.005
 8047SOL     OW25039   3.638   6.332   6.670
 8047SOL    HW125040   3.575   6.261   6.639
 8047SOL    HW225041   3.653   6.398   6.596
 8048SOL     OW25042   3.546   2.607   6.408
 8048SOL    HW125043   3.596   2.527   6.373
 8048SOL    HW225044   3.585   2.690   6.368
 8049SOL     OW25045   1.510   1.367   0.126
 8049SOL    HW125046   1.443   1.441   0.122
 8049SOL    HW225047   1.483   1.301   0.197
 8050SOL     OW25048   0.318   4.736   5.670
 8050SOL    HW125049   0.277   4.647   5.651
 8050SOL    HW225050   0.363   4.771   5.588
 8051SOL     OW25051   3.945   5.918   3.593
 8051SOL    HW125052   3.865   5.915   3.655
 8051SOL    HW225053   4.015   5.976   3.634
 8052SOL     OW25054   2.406   2.444   2.471
 8052SOL    HW125055   2.444   2.374   2.411
 8052SOL    HW225056   2.358   2.401   2.547
 8053SOL     OW25057   1.921   2.887   6.511
 8053SOL    HW125058   1.919   2.791   6.483
 8053SOL    HW225059   1.828   2.923   6.514
 8054SOL     OW25060   4.650   3.345   5.362
 8054SOL    HW125061   4.648   3.411   5.287
 8054SOL    HW225062   4.740   3.345   5.404
 8055SOL     OW25063   6.262   0.376   6.728
 8055SOL    HW125064   6.342   0.418   6.686
 8055SOL    HW225065   6.185   0.439   6.725
 8056SOL     OW25066   1.924   1.383   5.036
 8056SOL    HW125067   1.901   1.324   5.113
 8056SOL    HW225068   1.971   1.330   4.965
 8057SOL     OW25069   2.844   2.069   1.950
 8057SOL    HW125070   2.935   2.029   1.933
 8057SOL    HW225071   2.855   2.164   1.981
 8058SOL     OW25072   3.510   6.274   2.810
 8058SOL    HW125073   3.439   6.307   2.748
 8058SOL    HW225074   3.567   6.351   2.840
 8059SOL     OW25075   2.484   2.906   6.429
 8059SOL    HW125076   2.463   2.988   6.481
 8059SOL    HW225077   2.413   2.891   6.360
 8060SOL     OW25078   6.113   0.445   5.436
 8060SOL    HW125079   6.102   0.345   5.433
 8060SOL    HW225080   6.091   0.477   5.529
 8061SOL     OW25081   6.984   0.559   2.482
 8061SOL    HW125082   6.970   0.520   2.391
 8061SOL    HW225083   0.028   0.504   2.531
 8062SOL     OW25084   4.306   5.351   5.685
 8062SOL    HW125085   4.279   5.377   5.593
 8062SOL    HW225086   4.406   5.360   5.695
 8063SOL     OW25087   3.586   5.400   2.789
 8063SOL    HW125088   3.594   5.493   2.752
 8063SOL    HW225089   3.655   5.387   2.860
 8064SOL     OW25090   5.953   1.638   0.792
 8064SOL    HW125091   5.883   1.677   0.852
 8064SOL    HW225092   5.970   1.542   0.817
 8065SOL     OW25093   4.017   5.489   6.197
 8065SOL    HW125094   3.933   5.520   6.241
 8065SOL    HW225095   4.096   5.530   6.245
 8066SOL     OW25096   0.360   6.989   5.499
 8066SOL    HW125097   0.382   6.923   5.427
 8066SOL    HW225098   0.262   6.986   5.518
 8067SOL     OW25099   5.485   2.904   4.178
 8067SOL    HW125100   5.478   2.805   4.193
 8067SOL    HW225101   5.404   2.936   4.129
 8068SOL     OW25102   6.140   4.300   1.454
 8068SOL    HW125103   6.226   4.251   1.464
 8068SOL    HW225104   6.073   4.265   1.520
 8069SOL     OW25105   2.283   5.175   2.859
 8069SOL    HW125106   2.350   5.102   2.870
 8069SOL    HW225107   2.322   5.262   2.889
 8070SOL     OW25108   4.760   4.824   0.316
 8070SOL    HW125109   4.759   4.913   0.362
 8070SOL    HW225110   4.851   4.806   0.279
 8071SOL     OW25111   2.622   6.740   5.583
 8071SOL    HW125112   2.672   6.817   5.623
 8071SOL    HW225113   2.524   6.756   5.591
 8072SOL     OW25114   1.319   2.305   5.545
 8072SOL    HW125115   1.323   2.205   5.547
 8072SOL    HW225116   1.402   2.343   5.584
 8073SOL     OW25117   3.758   0.538   0.045
 8073SOL    HW125118   3.753   0.637   0.059
 8073SOL    HW225119   3.667   0.503   0.025
 8074SOL     OW25120   1.250   0.995   6.642
 8074SOL    HW125121   1.278   1.081   6.686
 8074SOL    HW225122   1.297   0.918   6.685
 8075SOL     OW25123   0.280   6.768   0.925
 8075SOL    HW125124   0.286   6.861   0.962
 8075SOL    HW225125   0.373   6.730   0.916
 8076SOL     OW25126   6.846   5.772   0.657
 8076SOL    HW125127   6.923   5.712   0.636
 8076SOL    HW225128   6.801   5.741   0.741
 8077SOL     OW25129   4.609   4.885   0.791
 8077SOL    HW125130   4.688   4.829   0.816
 8077SOL    HW225131   4.592   4.952   0.864
 8078SOL     OW25132   0.785   0.453   2.404
 8078SOL    HW125133   0.732   0.508   2.340
 8078SOL    HW225134   0.829   0.513   2.471
 8079SOL     OW25135   1.327   2.037   5.592
 8079SOL    HW125136   1.366   1.968   5.653
 8079SOL    HW225137   1.287   1.993   5.512
 8080SOL     OW25138   1.317   2.946   3.080
 8080SOL    HW125139   1.318   2.931   2.981
 8080SOL    HW225140   1.226   2.978   3.108
 8081SOL     OW25141   6.343   6.339   4.495
 8081SOL    HW125142   6.363   6.367   4.401
 8081SOL    HW225143   6.278   6.263   4.493
 8082SOL     OW25144   3.966   1.827   2.211
 8082SOL    HW125145   4.015   1.856   2.293
 8082SOL    HW225146   3.915   1.905   2.173
 8083SOL     OW25147   5.755   2.820   4.769
 8083SOL    HW125148   5.822   2.791   4.838
 8083SOL    HW225149   5.691   2.886   4.809
 8084SOL     OW25150   3.571   1.497   5.817
 8084SOL    HW125151   3.605   1.429   5.882
 8084SOL    HW225152   3.507   1.558   5.862
 8085SOL     OW25153   1.615   6.242   4.431
 8085SOL    HW125154   1.655   6.280   4.348
 8085SOL    HW225155   1.516   6.252   4.428
 8086SOL     OW25156   6.928   0.889   2.120
 8086SOL    HW125157   6.922   0.927   2.213
 8086SOL    HW225158   6.836   0.872   2.086
 8087SOL     OW25159   1.524   1.120   0.853
 8087SOL    HW125160   1.599   1.184   0.865
 8087SOL    HW225161   1.510   1.068   0.937
 8088SOL     OW25162   6.469   0.196   4.636
 8088SOL    HW125163   6.546   0.161   4.688
 8088SOL    HW225164   6.403   0.123   4.619
 8089SOL     OW25165   5.700   2.892   6.364
 8089SOL    HW125166   5.668   2.799   6.381
 8089SOL    HW225167   5.626   2.957   6.385
 8090SOL     OW25168   4.019   1.889   5.368
 8090SOL    HW125169   4.048   1.930   5.282
 8090SOL    HW225170   3.934   1.932   5.399
 8091SOL     OW25171   1.889   4.686   4.474
 8091SOL    HW125172   1.931   4.752   4.536
 8091SOL    HW225173   1.792   4.707   4.463
 8092SOL     OW25174   4.953   1.760   5.688
 8092SOL    HW125175   4.904   1.683   5.728
 8092SOL    HW225176   4.963   1.833   5.755
 8093SOL     OW25177   4.091   6.569   2.324
 8093SOL    HW125178   4.124   6.662   2.341
 8093SOL    HW225179   4.169   6.509   2.305
 8094SOL     OW25180   1.746   4.002   3.520
 8094SOL    HW125181   1.765   4.065   3.445
 8094SOL    HW225182   1.806   4.021   3.597
 8095SOL     OW25183   1.279   4.846   5.628
 8095SOL    HW125184   1.220   4.873   5.704
 8095SOL    HW225185   1.252   4.755   5.595
 8096SOL     OW25186   0.847   5.731   1.676
 8096SOL    HW125187   0.923   5.678   1.713
 8096SOL    HW225188   0.783   5.754   1.749
 8097SOL     OW25189   3.692   5.806   5.246
 8097SOL    HW125190   3.671   5.776   5.339
 8097SOL    HW225191   3.677   5.731   5.183
 8098SOL     OW25192   1.457   5.659   4.910
 8098SOL    HW125193   1.411   5.629   4.994
 8098SOL    HW225194   1.488   5.753   4.921
 8099SOL     OW25195   2.346   5.883   3.258
 8099SOL    HW125196   2.347   5.830   3.343
 8099SOL    HW225197   2.396   5.833   3.188
 8100SOL     OW25198   0.123   0.262   0.058
 8100SOL    HW125199   0.090   0.352   0.087
 8100SOL    HW225200   0.176   0.271   6.998
 8101SOL     OW25201   2.193   6.206   1.938
 8101SOL    HW125202   2.119   6.179   2.000
 8101SOL    HW225203   2.280   6.201   1.987
 8102SOL     OW25204   1.456   3.407   5.298
 8102SOL    HW125205   1.416   3.321   5.332
 8102SOL    HW225206   1.499   3.390   5.209
 8103SOL     OW25207   3.259   1.363   2.036
 8103SOL    HW125208   3.290   1.348   2.130
 8103SOL    HW225209   3.284   1.456   2.007
 8104SOL     OW25210   2.198   6.318   0.187
 8104SOL    HW125211   2.126   6.308   0.119
 8104SOL    HW225212   2.165   6.373   0.264
 8105SOL     OW25213   0.197   0.840   3.067
 8105SOL    HW125214   0.182   0.836   3.166
 8105SOL    HW225215   0.224   0.933   3.041
 8106SOL     OW25216   2.748   6.500   5.551
 8106SOL    HW125217   2.740   6.480   5.453
 8106SOL    HW225218   2.709   6.590   5.571
 8107SOL     OW25219   1.878   5.899   6.069
 8107SOL    HW125220   1.863   5.972   6.002
 8107SOL    HW225221   1.974   5.899   6.098
 8108SOL     OW25222   0.379   1.616   6.458
 8108SOL    HW125223   0.437   1.591   6.381
 8108SOL    HW225224   0.372   1.539   6.521
 8109SOL     OW25225   6.606   2.778   0.707
 8109SOL    HW125226   6.515   2.814   0.686
 8109SOL    HW225227   6.597   2.699   0.767
 8110SOL     OW25228   4.107   5.208   0.997
 8110SOL    HW125229   4.178   5.216   0.927
 8110SOL    HW225230   4.017   5.216   0.955
 8111SOL     OW25231   5.968   1.645   2.868
 8111SOL    HW125232   5.968   1.721   2.803
 8111SOL    HW225233   5.997   1.678   2.958
 8112SOL     OW25234   1.040   3.437   5.499
 8112SOL    HW125235   1.133   3.460   5.525
 8112SOL    HW225236   1.014   3.489   5.418
 8113SOL     OW25237   5.593   3.191   6.850
 8113SOL    HW125238   5.560   3.170   6.942
 8113SOL    HW225239   5.649   3.116   6.816
 8114SOL     OW25240   1.958   4.126   1.455
 8114SOL    HW125241   1.971   4.089   1.547
 8114SOL    HW225242   2.045   4.122   1.405
 8115SOL     OW25243   2.133   1.164   6.380
 8115SOL    HW125244   2.083   1.117   6.307
 8115SOL    HW225245   2.068   1.200   6.447
 8116SOL     OW25246   3.318   4.117   1.303
 8116SOL    HW125247   3.350   4.126   1.397
 8116SOL    HW225248   3.330   4.022   1.273
 8117SOL     OW25249   2.987   6.901   2.782
 8117SOL    HW125250   3.038   6.987   2.782
 8117SOL    HW225251   3.051   6.824   2.782
 8118SOL     OW25252   6.588   2.994   0.445
 8118SOL    HW125253   6.661   2.953   0.391
 8118SOL    HW225254   6.614   3.087   0.471
 8119SOL     OW25255   6.007   5.991   6.432
 8119SOL    HW125256   6.019   6.022   6.527
 8119SOL    HW225257   6.081   6.026   6.376
 8120SOL     OW25258   2.476   6.172   1.285
 8120SOL    HW125259   2.496   6.136   1.194
 8120SOL    HW225260   2.465   6.271   1.281
 8121SOL     OW25261   1.080   2.990   2.658
 8121SOL    HW125262   1.155   2.949   2.709
 8121SOL    HW225263   1.116   3.039   2.579
 8122SOL     OW25264   0.631   4.362   2.223
 8122SOL    HW125265   0.665   4.271   2.244
 8122SOL    HW225266   0.539   4.355   2.185
 8123SOL     OW25267   6.857   1.973   5.874
 8123SOL    HW125268   6.933   1.959   5.811
 8123SOL    HW225269   6.879   2.048   5.937
 8124SOL     OW25270   5.466   4.719   4.572
 8124SOL    HW125271   5.429   4.626   4.575
 8124SOL    HW225272   5.556   4.720   4.617
 8125SOL     OW25273   1.326   6.098   2.673
 8125SOL    HW125274   1.399   6.123   2.737
 8125SOL    HW225275   1.238   6.105   2.719
 8126SOL     OW25276   4.018   4.816   4.057
 8126SOL    HW125277   4.038   4.721   4.035
 8126SOL    HW225278   4.104   4.865   4.075
 8127SOL     OW25279   3.445   2.793   0.013
 8127SOL    HW125280   3.537   2.760   7.013
 8127SOL    HW225281   3.434   2.788   0.112
 8128SOL     OW25282   3.615   2.734   1.827
 8128SOL    HW125283   3.640   2.721   1.923
 8128SOL    HW225284   3.523   2.697   1.811
 8129SOL     OW25285   1.256   2.621   1.166
 8129SOL    HW125286   1.232   2.575   1.252
 8129SOL    HW225287   1.173   2.640   1.115
 8130SOL     OW25288   1.319   4.951   6.765
 8130SOL    HW125289   1.327   5.042   6.804
 8130SOL    HW225290   1.379   4.944   6.685
 8131SOL     OW25291   2.029   3.529   0.668
 8131SOL    HW125292   2.017   3.628   0.665
 8131SOL    HW225293   1.946   3.486   0.701
 8132SOL     OW25294   0.072   6.945   4.898
 8132SOL    HW125295   0.075   6.847   4.876
 8132SOL    HW225296   0.133   6.995   4.836
 8133SOL     OW25297   3.383   5.171   0.881
 8133SOL    HW125298   3.417   5.122   0.962
 8133SOL    HW225299   3.288   5.196   0.896
 8134SOL     OW25300   5.867   1.034   5.248
 8134SOL    HW125301   5.878   0.935   5.253
 8134SOL    HW225302   5.860   1.062   5.153
 8135SOL     OW25303   2.186   7.018   1.425
 8135SOL    HW125304   2.282   7.000   1.446
 8135SOL    HW225305   2.177   0.020   1.329
 8136SOL     OW25306   4.484   4.781   2.520
 8136SOL    HW125307   4.412   4.816   2.581
 8136SOL    HW225308   4.483   4.833   2.435
 8137SOL     OW25309   3.869   1.704   4.411
 8137SOL    HW125310   3.848   1.607   4.404
 8137SOL    HW225311   3.839   1.738   4.500
 8138SOL     OW25312   4.422   0.981   1.336
 8138SOL    HW125313   4.337   0.946   1.376
 8138SOL    HW225314   4.408   1.076   1.308
 8139SOL     OW25315   0.996   2.052   2.948
 8139SOL    HW125316   0.957   1.990   3.016
 8139SOL    HW225317   0.988   2.146   2.981
 8140SOL     OW25318   3.613   0.746   3.589
 8140SOL    HW125319   3.654   0.700   3.667
 8140SOL    HW225320   3.650   0.839   3.581
 8141SOL     OW25321   4.399   4.993   4.755
 8141SOL    HW125322   4.412   5.054   4.677
 8141SOL    HW225323   4.386   4.899   4.723
 8142SOL     OW25324   6.209   5.631   0.435
 8142SOL    HW125325   6.253   5.541   0.438
 8142SOL    HW225326   6.169   5.646   0.345
 8143SOL     OW25327   6.106   4.211   5.290
 8143SOL    HW125328   6.112   4.121   5.332
 8143SOL    HW225329   6.195   4.257   5.298
 8144SOL     OW25330   6.000   6.313   6.575
 8144SOL    HW125331   5.977   6.226   6.618
 8144SOL    HW225332   5.987   6.387   6.640
 8145SOL     OW25333   6.106   6.247   2.202
 8145SOL    HW125334   6.121   6.257   2.103
 8145SOL    HW225335   6.175   6.185   2.240
 8146SOL     OW25336   3.075   1.361   4.995
 8146SOL    HW125337   3.075   1.445   5.048
 8146SOL    HW225338   3.127   1.373   4.911
 8147SOL     OW25339   4.679   1.619   3.787
 8147SOL    HW125340   4.755   1.665   3.742
 8147SOL    HW225341   4.633   1.683   3.849
 8148SOL     OW25342   5.460   3.746   3.560
 8148SOL    HW125343   5.523   3.710   3.492
 8148SOL    HW225344   5.366   3.726   3.533
 8149SOL     OW25345   4.048   5.130   3.472
 8149SOL    HW125346   4.012   5.045   3.512
 8149SOL    HW225347   3.973   5.195   3.461
 8150SOL     OW25348   0.628   5.581   6.893
 8150SOL    HW125349   0.577   5.653   6.940
 8150SOL    HW225350   0.583   5.493   6.908
 8151SOL     OW25351   1.070   1.597   5.343
 8151SOL    HW125352   1.148   1.622   5.286
 8151SOL    HW225353   1.101   1.541   5.420
 8152SOL     OW25354   1.579   0.750   2.960
 8152SOL    HW125355   1.497   0.801   2.985
 8152SOL    HW225356   1.660   0.805   2.983
 8153SOL     OW25357   1.897   6.557   0.595
 8153SOL    HW125358   1.953   6.486   0.637
 8153SOL    HW225359   1.840   6.601   0.665
 8154SOL     OW25360   2.126   6.549   3.883
 8154SOL    HW125361   2.132   6.548   3.983
 8154SOL    HW225362   2.033   6.574   3.855
 8155SOL     OW25363   2.973   3.288   3.440
 8155SOL    HW125364   3.000   3.369   3.388
 8155SOL    HW225365   2.996   3.302   3.536
 8156SOL     OW25366   6.483   0.204   5.985
 8156SOL    HW125367   6.474   0.198   5.885
 8156SOL    HW225368   6.436   0.286   6.017
 8157SOL     OW25369   6.224   3.549   6.578
 8157SOL    HW125370   6.272   3.631   6.612
 8157SOL    HW225371   6.285   3.470   6.584
 8158SOL     OW25372   1.556   5.321   2.030
 8158SOL    HW125373   1.499   5.372   2.094
 8158SOL    HW225374   1.590   5.238   2.073
 8159SOL     OW25375   1.773   6.149   2.261
 8159SOL    HW125376   1.817   6.224   2.311
 8159SOL    HW225377   1.691   6.119   2.310
 8160SOL     OW25378   4.402   2.432   1.625
 8160SOL    HW125379   4.449   2.414   1.711
 8160SOL    HW225380   4.321   2.374   1.618
 8161SOL     OW25381   5.401   1.366   1.034
 8161SOL    HW125382   5.412   1.285   0.976
 8161SOL    HW225383   5.430   1.343   1.127
 8162SOL     OW25384   6.066   0.430   1.694
 8162SOL    HW125385   5.988   0.492   1.704
 8162SOL    HW225386   6.151   0.480   1.712
 8163SOL     OW25387   2.137   4.057   5.237
 8163SOL    HW125388   2.215   4.033   5.178
 8163SOL    HW225389   2.132   4.156   5.247
 8164SOL     OW25390   4.426   2.385   2.202
 8164SOL    HW125391   4.379   2.463   2.162
 8164SOL    HW225392   4.523   2.388   2.176
 8165SOL     OW25393   2.178   4.869   1.583
 8165SOL    HW125394   2.238   4.824   1.649
 8165SOL    HW225395   2.090   4.889   1.625
 8166SOL     OW25396   3.055   6.919   2.020
 8166SOL    HW125397   3.018   6.931   1.928
 8166SOL    HW225398   3.014   6.839   2.063
 8167SOL     OW25399   6.198   2.380   3.831
 8167SOL    HW125400   6.219   2.378   3.929
 8167SOL    HW225401   6.141   2.302   3.807
 8168SOL     OW25402   3.202   1.256   3.187
 8168SOL    HW125403   3.115   1.302   3.200
 8168SOL    HW225404   3.233   1.269   3.092
 8169SOL     OW25405   4.334   3.602   6.494
 8169SOL    HW125406   4.289   3.522   6.533
 8169SOL    HW225407   4.402   3.572   6.427
 8170SOL     OW25408   0.819   5.379   3.708
 8170SOL    HW125409   0.834   5.321   3.787
 8170SOL    HW225410   0.770   5.328   3.637
 8171SOL     OW25411   0.423   1.968   5.858
 8171SOL    HW125412   0.342   2.027   5.854
 8171SOL    HW225413   0.437   1.938   5.953
 8172SOL     OW25414   0.055   6.311   0.960
 8172SOL    HW125415   0.020   6.340   0.872
 8172SOL    HW225416   0.155   6.311   0.959
 8173SOL     OW25417   4.355   2.252   6.545
 8173SOL    HW125418   4.384   2.165   6.506
 8173SOL    HW225419   4.269   2.239   6.595
 8174SOL     OW25420   5.747   0.569   2.342
 8174SOL    HW125421   5.801   0.645   2.378
 8174SOL    HW225422   5.695   0.527   2.417
 8175SOL     OW25423   0.932   3.240   6.235
 8175SOL    HW125424   0.923   3.228   6.136
 8175SOL    HW225425   1.030   3.245   6.259
 8176SOL     OW25426   2.840   5.618   2.275
 8176SOL    HW125427   2.925   5.670   2.264
 8176SOL    HW225428   2.775   5.645   2.204
 8177SOL     OW25429   0.510   6.513   5.312
 8177SOL    HW125430   0.430   6.566   5.340
 8177SOL    HW225431   0.570   6.500   5.391
 8178SOL     OW25432   2.180   6.626   6.454
 8178SOL    HW125433   2.084   6.651   6.472
 8178SOL    HW225434   2.240   6.687   6.505
 8179SOL     OW25435   3.280   1.420   0.287
 8179SOL    HW125436   3.379   1.410   0.287
 8179SOL    HW225437   3.242   1.375   0.368
 8180SOL     OW25438   6.094   5.982   5.368
 8180SOL    HW125439   6.058   5.906   5.423
 8180SOL    HW225440   6.187   6.003   5.398
 8181SOL     OW25441   2.544   2.560   2.763
 8181SOL    HW125442   2.578   2.488   2.702
 8181SOL    HW225443   2.618   2.623   2.784
 8182SOL     OW25444   3.836   2.928   5.387
 8182SOL    HW125445   3.737   2.943   5.399
 8182SOL    HW225446   3.862   2.842   5.432
 8183SOL     OW25447   1.423   3.542   4.870
 8183SOL    HW125448   1.340   3.588   4.840
 8183SOL    HW225449   1.502   3.581   4.822
 8184SOL     OW25450   6.094   6.262   5.700
 8184SOL    HW125451   6.097   6.330   5.774
 8184SOL    HW225452   6.051   6.178   5.734
 8185SOL     OW25453   2.070   1.751   2.630
 8185SOL    HW125454   2.166   1.730   2.612
 8185SOL    HW225455   2.041   1.828   2.572
 8186SOL     OW25456   3.798   5.192   5.879
 8186SOL    HW125457   3.751   5.279   5.862
 8186SOL    HW225458   3.747   5.139   5.947
 8187SOL     OW25459   1.213   1.903   5.350
 8187SOL    HW125460   1.301   1.902   5.302
 8187SOL    HW225461   1.193   1.811   5.385
 8188SOL     OW25462   5.509   3.606   3.021
 8188SOL    HW125463   5.589   3.547   3.036
 8188SOL    HW225464   5.526   3.696   3.060
 8189SOL     OW25465   6.151   4.269   2.276
 8189SOL    HW125466   6.075   4.300   2.218
 8189SOL    HW225467   6.147   4.170   2.286
 8190SOL     OW25468   4.939   3.496   3.016
 8190SOL    HW125469   4.929   3.529   2.922
 8190SOL    HW225470   4.889   3.410   3.026
 8191SOL     OW25471   0.604   5.115   3.319
 8191SOL    HW125472   0.631   5.048   3.251
 8191SOL    HW225473   0.605   5.206   3.279
 8192SOL     OW25474   1.791   4.345   1.493
 8192SOL    HW125475   1.832   4.255   1.481
 8192SOL    HW225476   1.756   4.378   1.405
 8193SOL     OW25477   3.896   0.125   6.097
 8193SOL    HW125478   3.947   0.105   6.181
 8193SOL    HW225479   3.892   0.224   6.083
 8194SOL     OW25480   1.007   0.121   0.763
 8194SOL    HW125481   1.084   0.147   0.822
 8194SOL    HW225482   0.943   0.197   0.756
 8195SOL     OW25483   6.397   6.877   0.454
 8195SOL    HW125484   6.315   6.892   0.509
 8195SOL    HW225485   6.469   6.939   0.484
 8196SOL     OW25486   2.485   0.367   6.269
 8196SOL    HW125487   2.520   0.455   6.238
 8196SOL    HW225488   2.498   0.299   6.198
 8197SOL     OW25489   0.864   0.042   6.627
 8197SOL    HW125490   0.960   0.021   6.641
 8197SOL    HW225491   0.819   0.054   6.715
 8198SOL     OW25492   3.534   5.988   2.747
 8198SOL    HW125493   3.516   6.080   2.782
 8198SOL    HW225494   3.629   5.982   2.718
 8199SOL     OW25495   5.926   3.488   0.366
 8199SOL    HW125496   5.990   3.476   0.441
 8199SOL    HW225497   5.835   3.509   0.403
 8200SOL     OW25498   5.249   3.591   1.311
 8200SOL    HW125499   5.256   3.500   1.270
 8200SOL    HW225500   5.153   3.619   1.313
 8201SOL     OW25501   6.200   0.708   4.192
 8201SOL    HW125502   6.218   0.668   4.282
 8201SOL    HW225503   6.267   0.780   4.174
 8202SOL     OW25504   1.719   4.440   3.349
 8202SOL    HW125505   1.732   4.528   3.394
 8202SOL    HW225506   1.735   4.450   3.251
 8203SOL     OW25507   5.683   3.345   0.942
 8203SOL    HW125508   5.656   3.268   0.883
 8203SOL    HW225509   5.666   3.322   1.038
 8204SOL     OW25510   3.421   0.041   1.440
 8204SOL    HW125511   3.424   6.967   1.419
 8204SOL    HW225512   3.329   0.075   1.426
 8205SOL     OW25513   6.140   5.315   3.264
 8205SOL    HW125514   6.079   5.258   3.319
 8205SOL    HW225515   6.234   5.283   3.273
 8206SOL     OW25516   4.692   1.919   3.972
 8206SOL    HW125517   4.770   1.978   3.991
 8206SOL    HW225518   4.641   1.955   3.895
 8207SOL     OW25519   2.839   6.204   6.792
 8207SOL    HW125520   2.918   6.221   6.734
 8207SOL    HW225521   2.768   6.156   6.740
 8208SOL     OW25522   1.283   4.676   6.263
 8208SOL    HW125523   1.261   4.606   6.195
 8208SOL    HW225524   1.243   4.763   6.235
 8209SOL     OW25525   0.324   6.650   5.451
 8209SOL    HW125526   0.284   6.703   5.377
 8209SOL    HW225527   0.267   6.658   5.532
 8210SOL     OW25528   2.590   2.143   0.099
 8210SOL    HW125529   2.503   2.127   0.145
 8210SOL    HW225530   2.587   2.105   0.007
 8211SOL     OW25531   3.140   3.322   4.582
 8211SOL    HW125532   3.216   3.258   4.570
 8211SOL    HW225533   3.109   3.320   4.677
 8212SOL     OW25534   3.727   6.720   0.926
 8212SOL    HW125535   3.677   6.634   0.922
 8212SOL    HW225536   3.664   6.795   0.949
 8213SOL     OW25537   4.181   4.167   1.665
 8213SOL    HW125538   4.135   4.256   1.674
 8213SOL    HW225539   4.262   4.165   1.724
 8214SOL     OW25540   3.925   5.345   4.368
 8214SOL    HW125541   3.851   5.282   4.341
 8214SOL    HW225542   3.903   5.386   4.456
 8215SOL     OW25543   3.484   6.265   6.929
 8215SOL    HW125544   3.430   6.264   6.845
 8215SOL    HW225545   3.579   6.242   6.908
 8216SOL     OW25546   5.950   4.666   1.750
 8216SOL    HW125547   5.969   4.660   1.848
 8216SOL    HW225548   6.027   4.628   1.699
 8217SOL     OW25549   2.953   6.421   4.203
 8217SOL    HW125550   2.874   6.386   4.252
 8217SOL    HW225551   2.923   6.484   4.131
 8218SOL     OW25552   2.950   6.856   4.743
 8218SOL    HW125553   2.871   6.813   4.788
 8218SOL    HW225554   2.927   6.876   4.648
 8219SOL     OW25555   3.912   2.770   1.159
 8219SOL    HW125556   3.981   2.803   1.223
 8219SOL    HW225557   3.893   2.674   1.177
 8220SOL     OW25558   3.907   3.750   4.397
 8220SOL    HW125559   3.960   3.811   4.338
 8220SOL    HW225560   3.809   3.765   4.379
 8221SOL     OW25561   5.550   3.868   3.193
 8221SOL    HW125562   5.514   3.891   3.283
 8221SOL    HW225563   5.635   3.918   3.176
 8222SOL     OW25564   6.896   3.130   0.489
 8222SOL    HW125565   6.986   3.127   0.446
 8222SOL    HW225566   6.859   3.037   0.495
 8223SOL     OW25567   1.839   5.991   5.724
 8223SOL    HW125568   1.812   6.029   5.635
 8223SOL    HW225569   1.903   6.054   5.769
 8224SOL     OW25570   5.358   1.692   0.474
 8224SOL    HW125571   5.426   1.618   0.475
 8224SOL    HW225572   5.406   1.780   0.473
 8225SOL     OW25573   5.333   1.857   0.186
 8225SOL    HW125574   5.249   1.887   0.231
 8225SOL    HW225575   5.412   1.893   0.235
 8226SOL     OW25576   4.102   0.456   0.526
 8226SOL    HW125577   4.047   0.409   0.595
 8226SOL    HW225578   4.064   0.548   0.511
 8227SOL     OW25579   4.540   2.482   2.886
 8227SOL    HW125580   4.609   2.552   2.907
 8227SOL    HW225581   4.473   2.480   2.961
 8228SOL     OW25582   2.310   6.994   4.921
 8228SOL    HW125583   2.370   6.946   4.857
 8228SOL    HW225584   2.233   0.010   4.871
 8229SOL     OW25585   4.672   4.569   0.423
 8229SOL    HW125586   4.710   4.659   0.403
 8229SOL    HW225587   4.746   4.504   0.441
 8230SOL     OW25588   5.560   0.855   6.441
 8230SOL    HW125589   5.512   0.816   6.520
 8230SOL    HW225590   5.608   0.782   6.393
 8231SOL     OW25591   2.502   2.101   2.804
 8231SOL    HW125592   2.586   2.047   2.801
 8231SOL    HW225593   2.422   2.041   2.802
 8232SOL     OW25594   3.505   5.458   3.196
 8232SOL    HW125595   3.603   5.458   3.177
 8232SOL    HW225596   3.457   5.414   3.120
 8233SOL     OW25597   0.520   1.175   5.993
 8233SOL    HW125598   0.507   1.255   5.934
 8233SOL    HW225599   0.505   1.201   6.089
 8234SOL     OW25600   0.591   1.941   0.664
 8234SOL    HW125601   0.552   1.973   0.750
 8234SOL    HW225602   0.518   1.913   0.602
 8235SOL     OW25603   0.891   6.950   1.397
 8235SOL    HW125604   0.826   6.879   1.422
 8235SOL    HW225605   0.846   0.015   1.396
 8236SOL     OW25606   0.857   6.755   1.708
 8236SOL    HW125607   0.812   6.753   1.798
 8236SOL    HW225608   0.790   6.775   1.637
 8237SOL     OW25609   4.272   5.166   6.414
 8237SOL    HW125610   4.207   5.161   6.338
 8237SOL    HW225611   4.365   5.168   6.377
 8238SOL     OW25612   0.417   4.610   0.291
 8238SOL    HW125613   0.377   4.651   0.373
 8238SOL    HW225614   0.515   4.629   0.289
 8239SOL     OW25615   1.508   1.435   5.572
 8239SOL    HW125616   1.601   1.438   5.607
 8239SOL    HW225617   1.500   1.360   5.506
 8240SOL     OW25618   3.254   3.668   4.789
 8240SOL    HW125619   3.234   3.765   4.772
 8240SOL    HW225620   3.169   3.616   4.785
 8241SOL     OW25621   2.120   4.321   5.331
 8241SOL    HW125622   2.054   4.351   5.263
 8241SOL    HW225623   2.099   4.364   5.419
 8242SOL     OW25624   0.817   3.296   2.889
 8242SOL    HW125625   0.839   3.370   2.953
 8242SOL    HW225626   0.807   3.211   2.940
 8243SOL     OW25627   1.959   5.664   4.018
 8243SOL    HW125628   1.962   5.751   3.970
 8243SOL    HW225629   2.035   5.659   4.083
 8244SOL     OW25630   6.884   1.393   4.022
 8244SOL    HW125631   6.926   1.483   4.034
 8244SOL    HW225632   6.948   1.333   3.974
 8245SOL     OW25633   5.467   2.145   2.912
 8245SOL    HW125634   5.545   2.207   2.903
 8245SOL    HW225635   5.482   2.084   2.990
 8246SOL     OW25636   1.680   4.960   6.341
 8246SOL    HW125637   1.755   5.026   6.334
 8246SOL    HW225638   1.715   4.874   6.377
 8247SOL     OW25639   3.155   6.002   2.963
 8247SOL    HW125640   3.088   5.984   2.891
 8247SOL    HW225641   3.113   6.059   3.034
 8248SOL     OW25642   6.645   5.516   2.917
 8248SOL    HW125643   6.598   5.486   3.000
 8248SOL    HW225644   6.637   5.445   2.847
 8249SOL     OW25645   3.224   1.391   6.816
 8249SOL    HW125646   3.148   1.359   6.760
 8249SOL    HW225647   3.298   1.422   6.756
 8250SOL     OW25648   1.052   1.609   0.049
 8250SOL    HW125649   1.072   1.700   0.085
 8250SOL    HW225650   0.952   1.596   0.046
 8251SOL     OW25651   1.276   2.808   5.274
 8251SOL    HW125652   1.210   2.864   5.223
 8251SOL    HW225653   1.366   2.851   5.271
 8252SOL     OW25654   1.156   2.342   6.709
 8252SOL    HW125655   1.148   2.249   6.674
 8252SOL    HW225656   1.087   2.400   6.664
 8253SOL     OW25657   4.274   5.760   0.250
 8253SOL    HW125658   4.202   5.825   0.227
 8253SOL    HW225659   4.266   5.679   0.192
 8254SOL     OW25660   5.443   5.532   6.773
 8254SOL    HW125661   5.397   5.581   6.699
 8254SOL    HW225662   5.418   5.435   6.769
 8255SOL     OW25663   2.363   0.963   5.711
 8255SOL    HW125664   2.272   0.940   5.747
 8255SOL    HW225665   2.412   0.879   5.688
 8256SOL     OW25666   1.525   4.846   5.175
 8256SOL    HW125667   1.528   4.841   5.275
 8256SOL    HW225668   1.536   4.941   5.146
 8257SOL     OW25669   5.124   3.985   2.645
 8257SOL    HW125670   5.169   3.934   2.718
 8257SOL    HW225671   5.143   3.942   2.557
 8258SOL     OW25672   6.996   3.197   2.072
 8258SOL    HW125673   7.003   3.141   2.155
 8258SOL    HW225674   0.025   3.281   2.085
 8259SOL     OW25675   5.480   1.663   3.687
 8259SOL    HW125676   5.440   1.619   3.606
 8259SOL    HW225677   5.478   1.762   3.676
 8260SOL     OW25678   3.900   2.164   1.126
 8260SOL    HW125679   3.943   2.092   1.072
 8260SOL    HW225680   3.810   2.134   1.158
 8261SOL     OW25681   5.441   1.317   2.591
 8261SOL    HW125682   5.453   1.361   2.680
 8261SOL    HW225683   5.375   1.242   2.600
 8262SOL     OW25684   5.744   3.419   1.629
 8262SOL    HW125685   5.785   3.416   1.537
 8262SOL    HW225686   5.664   3.359   1.631
 8263SOL     OW25687   6.192   2.130   5.699
 8263SOL    HW125688   6.113   2.075   5.673
 8263SOL    HW225689   6.244   2.081   5.769
 8264SOL     OW25690   3.171   0.104   2.817
 8264SOL    HW125691   3.154   0.166   2.741
 8264SOL    HW225692   3.267   0.074   2.815
 8265SOL     OW25693   4.443   6.485   0.548
 8265SOL    HW125694   4.490   6.559   0.500
 8265SOL    HW225695   4.359   6.461   0.498
 8266SOL     OW25696   3.133   0.835   3.794
 8266SOL    HW125697   3.060   0.869   3.855
 8266SOL    HW225698   3.112   0.859   3.700
 8267SOL     OW25699   1.930   3.456   2.473
 8267SOL    HW125700   1.866   3.383   2.494
 8267SOL    HW225701   1.972   3.439   2.384
 8268SOL     OW25702   3.127   4.709   6.682
 8268SOL    HW125703   3.151   4.717   6.585
 8268SOL    HW225704   3.133   4.613   6.710
 8269SOL     OW25705   6.313   3.233   4.496
 8269SOL    HW125706   6.255   3.296   4.547
 8269SOL    HW225707   6.338   3.156   4.555
 8270SOL     OW25708   3.848   6.532   6.743
 8270SOL    HW125709   3.896   6.523   6.656
 8270SOL    HW225710   3.758   6.489   6.736
 8271SOL     OW25711   3.589   6.205   6.250
 8271SOL    HW125712   3.664   6.205   6.317
 8271SOL    HW225713   3.622   6.245   6.164
 8272SOL     OW25714   0.761   0.394   2.057
 8272SOL    HW125715   0.730   0.470   2.114
 8272SOL    HW225716   0.859   0.402   2.042
 8273SOL     OW25717   4.141   0.774   0.441
 8273SOL    HW125718   4.063   0.811   0.391
 8273SOL    HW225719   4.146   0.817   0.532
 8274SOL     OW25720   5.335   6.478   5.392
 8274SOL    HW125721   5.290   6.415   5.455
 8274SOL    HW225722   5.376   6.427   5.317
 8275SOL     OW25723   5.274   0.357   4.166
 8275SOL    HW125724   5.259   0.362   4.264
 8275SOL    HW225725   5.186   0.345   4.119
 8276SOL     OW25726   6.615   2.035   6.858
 8276SOL    HW125727   6.689   2.011   6.796
 8276SOL    HW225728   6.539   2.074   6.807
 8277SOL     OW25729   1.228   0.199   0.043
 8277SOL    HW125730   1.131   0.181   0.054
 8277SOL    HW225731   1.275   0.115   0.014
 8278SOL     OW25732   2.591   1.618   1.005
 8278SOL    HW125733   2.591   1.568   1.092
 8278SOL    HW225734   2.601   1.716   1.023
 8279SOL     OW25735   3.416   6.088   5.408
 8279SOL    HW125736   3.324   6.050   5.417
 8279SOL    HW225737   3.436   6.145   5.488
 8280SOL     OW25738   5.473   4.195   0.169
 8280SOL    HW125739   5.542   4.253   0.126
 8280SOL    HW225740   5.517   4.130   0.231
 8281SOL     OW25741   2.844   5.342   0.148
 8281SOL    HW125742   2.873   5.258   0.101
 8281SOL    HW225743   2.758   5.324   0.197
 8282SOL     OW25744   2.892   2.864   1.668
 8282SOL    HW125745   2.846   2.783   1.703
 8282SOL    HW225746   2.974   2.881   1.722
 8283SOL     OW25747   0.531   6.899   3.899
 8283SOL    HW125748   0.512   6.941   3.988
 8283SOL    HW225749   0.614   6.845   3.905
 8284SOL     OW25750   3.467   1.565   2.109
 8284SOL    HW125751   3.449   1.560   2.207
 8284SOL    HW225752   3.481   1.660   2.081
 8285SOL     OW25753   2.080   4.510   0.150
 8285SOL    HW125754   2.020   4.580   0.110
 8285SOL    HW225755   2.066   4.423   0.102
 8286SOL     OW25756   5.383   2.423   5.189
 8286SOL    HW125757   5.340   2.509   5.161
 8286SOL    HW225758   5.364   2.406   5.286
 8287SOL     OW25759   1.757   6.814   4.096
 8287SOL    HW125760   1.696   6.871   4.152
 8287SOL    HW225761   1.751   6.719   4.127
 8288SOL     OW25762   2.001   0.273   2.590
 8288SOL    HW125763   1.905   0.300   2.598
 8288SOL    HW225764   2.042   0.317   2.510
 8289SOL     OW25765   6.145   1.401   6.265
 8289SOL    HW125766   6.193   1.403   6.353
 8289SOL    HW225767   6.173   1.480   6.211
 8290SOL     OW25768   4.529   2.811   1.709
 8290SOL    HW125769   4.437   2.837   1.679
 8290SOL    HW225770   4.558   2.872   1.783
 8291SOL     OW25771   4.306   5.739   6.567
 8291SOL    HW125772   4.253   5.800   6.626
 8291SOL    HW225773   4.281   5.754   6.472
 8292SOL     OW25774   0.592   3.469   4.680
 8292SOL    HW125775   0.638   3.403   4.739
 8292SOL    HW225776   0.652   3.547   4.664
 8293SOL     OW25777   3.174   5.286   3.465
 8293SOL    HW125778   3.167   5.386   3.466
 8293SOL    HW225779   3.187   5.255   3.371
 8294SOL     OW25780   4.606   3.708   5.903
 8294SOL    HW125781   4.513   3.681   5.927
 8294SOL    HW225782   4.603   3.770   5.825
 8295SOL     OW25783   5.176   5.001   2.215
 8295SOL    HW125784   5.093   5.032   2.262
 8295SOL    HW225785   5.185   4.902   2.227
 8296SOL     OW25786   3.894   0.022   1.940
 8296SOL    HW125787   3.959   0.015   1.864
 8296SOL    HW225788   3.861   0.116   1.947
 8297SOL     OW25789   5.356   4.461   3.586
 8297SOL    HW125790   5.344   4.383   3.525
 8297SOL    HW225791   5.343   4.546   3.535
 8298SOL     OW25792   0.208   6.885   7.005
 8298SOL    HW125793   0.286   6.870   6.944
 8298SOL    HW225794   0.182   6.798   0.023
 8299SOL     OW25795   0.977   3.507   1.001
 8299SOL    HW125796   1.008   3.558   1.081
 8299SOL    HW225797   0.893   3.548   0.965
 8300SOL     OW25798   5.898   4.929   3.651
 8300SOL    HW125799   5.804   4.904   3.675
 8300SOL    HW225800   5.949   4.951   3.735
 8301SOL     OW25801   5.534   6.841   0.640
 8301SOL    HW125802   5.549   6.817   0.544
 8301SOL    HW225803   5.496   6.762   0.689
 8302SOL     OW25804   3.724   0.103   5.537
 8302SOL    HW125805   3.736   0.172   5.608
 8302SOL    HW225806   3.631   0.109   5.500
 8303SOL     OW25807   0.292   5.241   2.671
 8303SOL    HW125808   0.388   5.212   2.666
 8303SOL    HW225809   0.250   5.202   2.753
 8304SOL     OW25810   5.887   4.719   3.312
 8304SOL    HW125811   5.983   4.698   3.328
 8304SOL    HW225812   5.874   4.819   3.313
 8305SOL     OW25813   5.530   6.474   5.042
 8305SOL    HW125814   5.609   6.497   4.985
 8305SOL    HW225815   5.558   6.406   5.111
 8306SOL     OW25816   6.777   1.748   2.792
 8306SOL    HW125817   6.745   1.801   2.870
 8306SOL    HW225818   6.796   1.654   2.821
 8307SOL     OW25819   1.505   3.253   2.565
 8307SOL    HW125820   1.479   3.235   2.470
 8307SOL    HW225821   1.462   3.338   2.596
 8308SOL     OW25822   0.870   5.066   1.121
 8308SOL    HW125823   0.921   5.084   1.037
 8308SOL    HW225824   0.899   4.978   1.159
 8309SOL     OW25825   6.813   4.801   4.554
 8309SOL    HW125826   6.835   4.884   4.606
 8309SOL    HW225827   6.815   4.722   4.614
 8310SOL     OW25828   1.651   0.111   0.862
 8310SOL    HW125829   1.614   0.129   0.771
 8310SOL    HW225830   1.582   0.131   0.931
 8311SOL     OW25831   5.517   5.601   3.041
 8311SOL    HW125832   5.493   5.607   2.944
 8311SOL    HW225833   5.556   5.687   3.071
 8312SOL     OW25834   5.551   1.522   0.428
 8312SOL    HW125835   5.573   1.477   0.515
 8312SOL    HW225836   5.609   1.486   0.356
 8313SOL     OW25837   5.757   2.770   5.797
 8313SOL    HW125838   5.683   2.837   5.804
 8313SOL    HW225839   5.785   2.762   5.701
 8314SOL     OW25840   4.663   5.954   4.241
 8314SOL    HW125841   4.630   6.021   4.308
 8314SOL    HW225842   4.716   5.883   4.288
 8315SOL     OW25843   3.333   3.535   4.533
 8315SOL    HW125844   3.281   3.451   4.544
 8315SOL    HW225845   3.319   3.594   4.612
 8316SOL     OW25846   2.281   2.379   5.614
 8316SOL    HW125847   2.220   2.441   5.565
 8316SOL    HW225848   2.330   2.431   5.685
 8317SOL     OW25849   0.960   2.193   3.772
 8317SOL    HW125850   0.919   2.240   3.694
 8317SOL    HW225851   1.060   2.189   3.759
 8318SOL     OW25852   4.742   0.249   6.406
 8318SOL    HW125853   4.785   0.318   6.348
 8318SOL    HW225854   4.717   0.170   6.350
 8319SOL     OW25855   2.189   5.774   6.221
 8319SOL    HW125856   2.197   5.701   6.153
 8319SOL    HW225857   2.107   5.759   6.276
 8320SOL     OW25858   3.283   3.446   5.196
 8320SOL    HW125859   3.272   3.366   5.137
 8320SOL    HW225860   3.194   3.485   5.217
 8321SOL     OW25861   0.158   6.903   0.693
 8321SOL    HW125862   0.161   6.875   0.789
 8321SOL    HW225863   0.166   7.002   0.687
 8322SOL     OW25864   0.720   6.445   6.972
 8322SOL    HW125865   0.734   6.497   6.888
 8322SOL    HW225866   0.673   6.502   0.015
 8323SOL     OW25867   5.550   4.521   0.524
 8323SOL    HW125868   5.457   4.488   0.505
 8323SOL    HW225869   5.555   4.556   0.617
 8324SOL     OW25870   4.690   6.057   6.657
 8324SOL    HW125871   4.617   6.113   6.698
 8324SOL    HW225872   4.759   6.118   6.617
 8325SOL     OW25873   1.416   6.323   6.112
 8325SOL    HW125874   1.455   6.323   6.020
 8325SOL    HW225875   1.450   6.245   6.163
 8326SOL     OW25876   1.250   3.126   6.149
 8326SOL    HW125877   1.346   3.098   6.146
 8326SOL    HW225878   1.215   3.115   6.242
 8327SOL     OW25879   1.535   5.926   4.881
 8327SOL    HW125880   1.634   5.941   4.886
 8327SOL    HW225881   1.494   5.995   4.821
 8328SOL     OW25882   0.615   6.176   0.035
 8328SOL    HW125883   0.590   6.108   6.990
 8328SOL    HW225884   0.649   6.258   7.014
 8329SOL     OW25885   1.574   3.378   5.047
 8329SOL    HW125886   1.666   3.409   5.021
 8329SOL    HW225887   1.507   3.415   4.982
 8330SOL     OW25888   3.322   1.134   0.055
 8330SOL    HW125889   3.251   1.103   0.118
 8330SOL    HW225890   3.304   1.229   0.028
 8331SOL     OW25891   1.633   2.659   5.779
 8331SOL    HW125892   1.639   2.744   5.725
 8331SOL    HW225893   1.573   2.674   5.858
 8332SOL     OW25894   6.186   4.556   1.614
 8332SOL    HW125895   6.124   4.507   1.552
 8332SOL    HW225896   6.218   4.639   1.569
 8333SOL     OW25897   2.077   4.158   0.298
 8333SOL    HW125898   2.120   4.168   0.209
 8333SOL    HW225899   2.047   4.248   0.331
 8334SOL     OW25900   2.933   2.356   5.963
 8334SOL    HW125901   3.023   2.394   5.937
 8334SOL    HW225902   2.926   2.262   5.930
 8335SOL     OW25903   5.523   4.791   6.140
 8335SOL    HW125904   5.425   4.811   6.140
 8335SOL    HW225905   5.562   4.821   6.227
 8336SOL     OW25906   1.152   4.321   3.552
 8336SOL    HW125907   1.117   4.389   3.617
 8336SOL    HW225908   1.076   4.269   3.515
 8337SOL     OW25909   0.379   1.395   4.462
 8337SOL    HW125910   0.358   1.344   4.378
 8337SOL    HW225911   0.478   1.393   4.477
 8338SOL     OW25912   3.263   5.234   1.294
 8338SOL    HW125913   3.301   5.309   1.240
 8338SOL    HW225914   3.163   5.239   1.292
 8339SOL     OW25915   5.758   0.566   1.469
 8339SOL    HW125916   5.666   0.529   1.482
 8339SOL    HW225917   5.780   0.629   1.544
 8340SOL     OW25918   5.853   2.104   6.673
 8340SOL    HW125919   5.951   2.101   6.651
 8340SOL    HW225920   5.815   2.012   6.672
 8341SOL     OW25921   3.864   1.412   1.028
 8341SOL    HW125922   3.884   1.399   1.125
 8341SOL    HW225923   3.767   1.395   1.011
 8342SOL     OW25924   4.649   0.649   0.556
 8342SOL    HW125925   4.608   0.618   0.641
 8342SOL    HW225926   4.579   0.692   0.498
 8343SOL     OW25927   5.373   4.159   3.585
 8343SOL    HW125928   5.292   4.127   3.633
 8343SOL    HW225929   5.421   4.080   3.544
 8344SOL     OW25930   0.730   5.314   6.141
 8344SOL    HW125931   0.732   5.401   6.091
 8344SOL    HW225932   0.786   5.246   6.093
 8345SOL     OW25933   5.266   0.307   3.772
 8345SOL    HW125934   5.322   0.390   3.783
 8345SOL    HW225935   5.326   0.227   3.776
 8346SOL     OW25936   5.609   3.428   4.592
 8346SOL    HW125937   5.546   3.460   4.662
 8346SOL    HW225938   5.700   3.417   4.632
 8347SOL     OW25939   2.326   1.090   6.835
 8347SOL    HW125940   2.344   1.174   6.887
 8347SOL    HW225941   2.413   1.051   6.805
 8348SOL     OW25942   3.318   6.110   2.309
 8348SOL    HW125943   3.247   6.149   2.368
 8348SOL    HW225944   3.365   6.036   2.358
 8349SOL     OW25945   6.313   6.108   2.336
 8349SOL    HW125946   6.323   6.013   2.305
 8349SOL    HW225947   6.396   6.159   2.313
 8350SOL     OW25948   2.078   0.746   6.830
 8350SOL    HW125949   1.980   0.737   6.847
 8350SOL    HW225950   2.119   0.799   6.905
 8351SOL     OW25951   0.200   3.629   2.892
 8351SOL    HW125952   0.124   3.660   2.949
 8351SOL    HW225953   0.165   3.603   2.802
 8352SOL     OW25954   2.973   5.685   1.105
 8352SOL    HW125955   2.912   5.762   1.125
 8352SOL    HW225956   2.926   5.620   1.045
 8353SOL     OW25957   1.463   4.794   1.686
 8353SOL    HW125958   1.406   4.832   1.759
 8353SOL    HW225959   1.446   4.843   1.601
 8354SOL     OW25960   3.307   0.205   3.235
 8354SOL    HW125961   3.267   0.131   3.182
 8354SOL    HW225962   3.338   0.277   3.173
 8355SOL     OW25963   2.935   6.829   6.297
 8355SOL    HW125964   2.950   6.731   6.286
 8355SOL    HW225965   2.870   6.861   6.227
 8356SOL     OW25966   1.781   5.261   0.516
 8356SOL    HW125967   1.701   5.300   0.561
 8356SOL    HW225968   1.753   5.185   0.458
 8357SOL     OW25969   4.790   6.686   5.820
 8357SOL    HW125970   4.794   6.624   5.899
 8357SOL    HW225971   4.743   6.770   5.846
 8358SOL     OW25972   1.098   1.007   5.105
 8358SOL    HW125973   1.167   0.935   5.110
 8358SOL    HW225974   1.125   1.075   5.037
 8359SOL     OW25975   3.820   2.050   6.098
 8359SOL    HW125976   3.892   2.066   6.165
 8359SOL    HW225977   3.810   2.130   6.039
 8360SOL     OW25978   4.872   0.403   1.208
 8360SOL    HW125979   4.847   0.390   1.304
 8360SOL    HW225980   4.971   0.406   1.199
 8361SOL     OW25981   3.868   1.225   6.635
 8361SOL    HW125982   3.938   1.175   6.583
 8361SOL    HW225983   3.793   1.250   6.575
 8362SOL     OW25984   0.003   4.449   1.354
 8362SOL    HW125985   0.009   4.548   1.344
 8362SOL    HW225986   6.931   4.422   1.363
 8363SOL     OW25987   1.382   2.850   1.084
 8363SOL    HW125988   1.340   2.769   1.124
 8363SOL    HW225989   1.376   2.844   0.984
 8364SOL     OW25990   0.137   3.554   4.395
 8364SOL    HW125991   0.229   3.525   4.421
 8364SOL    HW225992   0.138   3.652   4.374
 8365SOL     OW25993   1.415   2.141   2.069
 8365SOL    HW125994   1.320   2.162   2.093
 8365SOL    HW225995   1.476   2.189   2.132
 8366SOL     OW25996   5.426   5.142   2.397
 8366SOL    HW125997   5.378   5.228   2.413
 8366SOL    HW225998   5.386   5.096   2.318
 8367SOL     OW25999   2.613   5.625   4.140
 8367SOL    HW126000   2.700   5.655   4.100
 8367SOL    HW226001   2.629   5.549   4.202
 8368SOL     OW26002   6.037   6.531   6.136
 8368SOL    HW126003   6.012   6.614   6.087
 8368SOL    HW226004   6.034   6.548   6.235
 8369SOL     OW26005   2.385   6.559   0.980
 8369SOL    HW126006   2.455   6.594   0.917
 8369SOL    HW226007   2.380   6.619   1.060
 8370SOL     OW26008   2.950   4.051   6.945
 8370SOL    HW126009   3.027   4.085   6.999
 8370SOL    HW226010   2.866   4.056   6.999
 8371SOL     OW26011   1.987   4.393   5.108
 8371SOL    HW126012   2.053   4.382   5.033
 8371SOL    HW226013   1.997   4.483   5.149
 8372SOL     OW26014   2.043   6.433   1.888
 8372SOL    HW126015   2.112   6.361   1.889
 8372SOL    HW226016   1.991   6.428   1.803
 8373SOL     OW26017   6.605   1.731   4.125
 8373SOL    HW126018   6.674   1.675   4.171
 8373SOL    HW226019   6.633   1.748   4.031
 8374SOL     OW26020   6.816   1.468   4.312
 8374SOL    HW126021   6.823   1.384   4.365
 8374SOL    HW226022   6.878   1.464   4.233
 8375SOL     OW26023   3.474   0.679   4.732
 8375SOL    HW126024   3.414   0.728   4.796
 8375SOL    HW226025   3.504   0.741   4.660
 8376SOL     OW26026   1.924   0.951   3.225
 8376SOL    HW126027   1.998   0.954   3.159
 8376SOL    HW226028   1.858   1.024   3.205
 8377SOL     OW26029   5.141   5.382   0.613
 8377SOL    HW126030   5.043   5.374   0.629
 8377SOL    HW226031   5.157   5.420   0.522
 8378SOL     OW26032   5.367   5.581   4.119
 8378SOL    HW126033   5.342   5.491   4.083
 8378SOL    HW226034   5.288   5.643   4.112
 8379SOL     OW26035   5.416   1.285   1.313
 8379SOL    HW126036   5.354   1.208   1.329
 8379SOL    HW226037   5.490   1.283   1.380
 8380SOL     OW26038   6.519   5.864   0.891
 8380SOL    HW126039   6.512   5.964   0.883
 8380SOL    HW226040   6.441   5.821   0.848
 8381SOL     OW26041   0.313   1.425   2.701
 8381SOL    HW126042   0.282   1.508   2.748
 8381SOL    HW226043   0.412   1.420   2.704
 8382SOL     OW26044   1.978   0.810   0.732
 8382SOL    HW126045   2.074   0.837   0.727
 8382SOL    HW226046   1.947   0.812   0.827
 8383SOL     OW26047   3.150   6.796   6.818
 8383SOL    HW126048   3.209   6.869   6.852
 8383SOL    HW226049   3.163   6.787   6.719
 8384SOL     OW26050   0.523   2.915   2.486
 8384SOL    HW126051   0.524   3.001   2.435
 8384SOL    HW226052   0.600   2.858   2.457
 8385SOL     OW26053   4.161   2.885   1.276
 8385SOL    HW126054   4.203   2.829   1.347
 8385SOL    HW226055   4.176   2.982   1.297
 8386SOL     OW26056   2.348   5.891   1.932
 8386SOL    HW126057   2.330   5.931   2.022
 8386SOL    HW226058   2.266   5.897   1.876
 8387SOL     OW26059   1.325   1.154   2.800
 8387SOL    HW126060   1.416   1.138   2.761
 8387SOL    HW226061   1.273   1.215   2.740
 8388SOL     OW26062   4.510   6.295   1.412
 8388SOL    HW126063   4.585   6.270   1.472
 8388SOL    HW226064   4.425   6.303   1.465
 8389SOL     OW26065   0.138   2.701   3.572
 8389SOL    HW126066   0.152   2.605   3.597
 8389SOL    HW226067   0.227   2.744   3.556
 8390SOL     OW26068   3.143   7.004   5.526
 8390SOL    HW126069   3.072   6.976   5.591
 8390SOL    HW226070   3.162   6.929   5.463
 8391SOL     OW26071   5.185   5.929   1.353
 8391SOL    HW126072   5.092   5.960   1.375
 8391SOL    HW226073   5.244   6.009   1.344
 8392SOL     OW26074   6.453   6.476   5.738
 8392SOL    HW126075   6.503   6.562   5.737
 8392SOL    HW226076   6.436   6.448   5.833
 8393SOL     OW26077   6.630   5.880   2.975
 8393SOL    HW126078   6.552   5.821   2.957
 8393SOL    HW226079   6.689   5.884   2.894
 8394SOL     OW26080   0.667   1.713   2.793
 8394SOL    HW126081   0.650   1.762   2.879
 8394SOL    HW226082   0.635   1.770   2.717
 8395SOL     OW26083   0.539   6.305   5.751
 8395SOL    HW126084   0.574   6.294   5.843
 8395SOL    HW226085   0.506   6.217   5.717
 8396SOL     OW26086   4.981   3.683   1.260
 8396SOL    HW126087   4.985   3.590   1.222
 8396SOL    HW226088   4.912   3.736   1.211
 8397SOL     OW26089   1.689   5.780   3.232
 8397SOL    HW126090   1.664   5.688   3.204
 8397SOL    HW226091   1.776   5.805   3.188
 8398SOL     OW26092   4.802   1.933   0.294
 8398SOL    HW126093   4.797   1.929   0.194
 8398SOL    HW226094   4.761   2.018   0.327
 8399SOL     OW26095   5.653   5.903   0.507
 8399SOL    HW126096   5.747   5.935   0.518
 8399SOL    HW226097   5.589   5.975   0.535
 8400SOL     OW26098   6.153   0.429   4.169
 8400SOL    HW126099   6.183   0.517   4.132
 8400SOL    HW226100   6.080   0.392   4.111
 8401SOL     OW26101   3.209   4.870   6.471
 8401SOL    HW126102   3.300   4.890   6.436
 8401SOL    HW226103   3.177   4.945   6.528
 8402SOL     OW26104   4.032   1.958   0.406
 8402SOL    HW126105   4.002   1.864   0.417
 8402SOL    HW226106   4.073   1.970   0.316
 8403SOL     OW26107   1.169   1.905   4.551
 8403SOL    HW126108   1.110   1.880   4.627
 8403SOL    HW226109   1.140   1.857   4.468
 8404SOL     OW26110   4.331   4.830   5.628
 8404SOL    HW126111   4.231   4.836   5.634
 8404SOL    HW226112   4.371   4.847   5.718
 8405SOL     OW26113   0.318   3.132   4.972
 8405SOL    HW126114   0.361   3.113   4.883
 8405SOL    HW226115   0.243   3.067   4.986
 8406SOL     OW26116   5.050   3.658   1.582
 8406SOL    HW126117   5.027   3.560   1.576
 8406SOL    HW226118   4.968   3.712   1.567
 8407SOL     OW26119   5.202   4.209   2.267
 8407SOL    HW126120   5.160   4.260   2.192
 8407SOL    HW226121   5.163   4.239   2.354
 8408SOL     OW26122   4.447   2.499   3.887
 8408SOL    HW126123   4.394   2.495   3.802
 8408SOL    HW226124   4.486   2.409   3.905
 8409SOL     OW26125   0.766   2.509   4.064
 8409SOL    HW126126   0.746   2.417   4.031
 8409SOL    HW226127   0.818   2.503   4.150
 8410SOL     OW26128   3.798   6.801   2.311
 8410SOL    HW126129   3.859   6.874   2.284
 8410SOL    HW226130   3.817   6.719   2.257
 8411SOL     OW26131   1.862   2.771   3.765
 8411SOL    HW126132   1.857   2.675   3.790
 8411SOL    HW226133   1.899   2.824   3.842
 8412SOL     OW26134   6.201   2.756   2.810
 8412SOL    HW126135   6.155   2.672   2.782
 8412SOL    HW226136   6.298   2.737   2.826
 8413SOL     OW26137   2.740   4.104   0.809
 8413SOL    HW126138   2.760   4.171   0.737
 8413SOL    HW226139   2.734   4.013   0.768
 8414SOL     OW26140   4.501   6.385   2.860
 8414SOL    HW126141   4.473   6.444   2.936
 8414SOL    HW226142   4.576   6.327   2.889
 8415SOL     OW26143   6.285   3.679   2.410
 8415SOL    HW126144   6.325   3.636   2.490
 8415SOL    HW226145   6.192   3.645   2.396
 8416SOL     OW26146   5.148   3.944   2.329
 8416SOL    HW126147   5.052   3.931   2.306
 8416SOL    HW226148   5.175   4.038   2.307
 8417SOL     OW26149   2.708   6.127   5.914
 8417SOL    HW126150   2.618   6.084   5.928
 8417SOL    HW226151   2.709   6.175   5.826
 8418SOL     OW26152   5.695   5.930   2.693
 8418SOL    HW126153   5.754   6.006   2.667
 8418SOL    HW226154   5.601   5.950   2.664
 8419SOL     OW26155   4.237   0.155   3.833
 8419SOL    HW126156   4.228   0.232   3.897
 8419SOL    HW226157   4.155   0.098   3.840
 8420SOL     OW26158   3.827   1.553   6.024
 8420SOL    HW126159   3.761   1.591   6.089
 8420SOL    HW226160   3.896   1.622   6.002
 8421SOL     OW26161   2.596   6.753   2.045
 8421SOL    HW126162   2.655   6.772   2.124
 8421SOL    HW226163   2.621   6.665   2.005
 8422SOL     OW26164   3.854   0.052   1.653
 8422SOL    HW126165   3.775   0.096   1.698
 8422SOL    HW226166   3.932   0.115   1.654
 8423SOL     OW26167   2.891   4.217   1.436
 8423SOL    HW126168   2.830   4.139   1.429
 8423SOL    HW226169   2.917   4.231   1.531
 8424SOL     OW26170   3.051   2.174   2.655
 8424SOL    HW126171   2.997   2.192   2.573
 8424SOL    HW226172   3.148   2.165   2.630
 8425SOL     OW26173   5.473   5.354   0.280
 8425SOL    HW126174   5.564   5.394   0.293
 8425SOL    HW226175   5.479   5.255   0.289
 8426SOL     OW26176   3.899   3.452   2.552
 8426SOL    HW126177   3.927   3.514   2.478
 8426SOL    HW226178   3.920   3.358   2.525
 8427SOL     OW26179   2.276   3.658   6.259
 8427SOL    HW126180   2.223   3.676   6.176
 8427SOL    HW226181   2.231   3.587   6.313
 8428SOL     OW26182   5.950   4.681   2.310
 8428SOL    HW126183   5.945   4.777   2.340
 8428SOL    HW226184   5.951   4.621   2.389
 8429SOL     OW26185   1.684   6.425   2.555
 8429SOL    HW126186   1.693   6.335   2.598
 8429SOL    HW226187   1.757   6.438   2.488
 8430SOL     OW26188   4.563   4.427   3.178
 8430SOL    HW126189   4.655   4.399   3.206
 8430SOL    HW226190   4.554   4.417   3.079
 8431SOL     OW26191   3.126   4.156   1.042
 8431SOL    HW126192   3.186   4.110   0.977
 8431SOL    HW226193   3.165   4.151   1.134
 8432SOL     OW26194   4.025   6.250   6.506
 8432SOL    HW126195   4.044   6.231   6.602
 8432SOL    HW226196   4.084   6.324   6.474
 8433SOL     OW26197   0.778   1.299   5.496
 8433SOL    HW126198   0.785   1.361   5.417
 8433SOL    HW226199   0.691   1.251   5.492
 8434SOL     OW26200   5.548   6.543   5.546
 8434SOL    HW126201   5.470   6.507   5.496
 8434SOL    HW226202   5.603   6.600   5.484
 8435SOL     OW26203   4.473   2.390   1.375
 8435SOL    HW126204   4.464   2.432   1.466
 8435SOL    HW226205   4.556   2.334   1.373
 8436SOL     OW26206   3.757   4.629   1.555
 8436SOL    HW126207   3.736   4.533   1.573
 8436SOL    HW226208   3.854   4.638   1.531
 8437SOL     OW26209   0.189   0.790   1.230
 8437SOL    HW126210   0.162   0.699   1.262
 8437SOL    HW226211   0.222   0.845   1.307
 8438SOL     OW26212   2.162   6.715   1.836
 8438SOL    HW126213   2.101   6.659   1.892
 8438SOL    HW226214   2.125   6.807   1.829
 8439SOL     OW26215   6.792   6.166   1.972
 8439SOL    HW126216   6.834   6.220   2.045
 8439SOL    HW226217   6.854   6.093   1.943
 8440SOL     OW26218   0.355   1.542   3.783
 8440SOL    HW126219   0.296   1.502   3.712
 8440SOL    HW226220   0.346   1.642   3.781
 8441SOL     OW26221   4.480   5.441   0.750
 8441SOL    HW126222   4.535   5.418   0.669
 8441SOL    HW226223   4.429   5.361   0.780
 8442SOL     OW26224   2.451   4.063   0.265
 8442SOL    HW126225   2.388   4.111   0.203
 8442SOL    HW226226   2.507   4.129   0.314
 8443SOL     OW26227   2.110   1.083   2.395
 8443SOL    HW126228   2.032   1.084   2.331
 8443SOL    HW226229   2.107   0.999   2.449
 8444SOL     OW26230   3.984   6.978   3.270
 8444SOL    HW126231   3.985   7.003   3.366
 8444SOL    HW226232   4.029   6.889   3.258
 8445SOL     OW26233   3.904   4.940   2.020
 8445SOL    HW126234   3.833   4.877   1.989
 8445SOL    HW226235   3.929   5.002   1.946
 8446SOL     OW26236   6.360   4.929   3.575
 8446SOL    HW126237   6.282   4.900   3.519
 8446SOL    HW226238   6.436   4.866   3.563
 8447SOL     OW26239   5.049   3.180   1.360
 8447SOL    HW126240   4.959   3.141   1.341
 8447SOL    HW226241   5.118   3.134   1.304
 8448SOL     OW26242   0.865   2.759   6.545
 8448SOL    HW126243   0.955   2.800   6.529
 8448SOL    HW226244   0.815   2.755   6.459
 8449SOL     OW26245   1.836   2.657   5.454
 8449SOL    HW126246   1.786   2.621   5.375
 8449SOL    HW226247   1.772   2.672   5.529
 8450SOL     OW26248   1.965   5.267   2.377
 8450SOL    HW126249   2.058   5.292   2.353
 8450SOL    HW226250   1.951   5.169   2.360
 8451SOL     OW26251   3.370   3.028   0.645
 8451SOL    HW126252   3.295   2.963   0.630
 8451SOL    HW226253   3.453   2.994   0.600
 8452SOL     OW26254   6.807   5.860   1.153
 8452SOL    HW126255   6.834   5.838   1.246
 8452SOL    HW226256   6.847   5.948   1.126
 8453SOL     OW26257   0.096   4.655   6.301
 8453SOL    HW126258   0.022   4.696   6.355
 8453SOL    HW226259   0.137   4.725   6.243
 8454SOL     OW26260   1.842   6.735   4.787
 8454SOL    HW126261   1.899   6.814   4.811
 8454SOL    HW226262   1.754   6.766   4.753
 8455SOL     OW26263   5.637   1.792   1.378
 8455SOL    HW126264   5.729   1.825   1.399
 8455SOL    HW226265   5.569   1.854   1.417
 8456SOL     OW26266   5.117   5.457   2.786
 8456SOL    HW126267   5.059   5.432   2.864
 8456SOL    HW226268   5.130   5.377   2.728
 8457SOL     OW26269   0.250   6.529   6.791
 8457SOL    HW126270   0.316   6.552   6.863
 8457SOL    HW226271   0.208   6.613   6.756
 8458SOL     OW26272   1.062   1.350   1.430
 8458SOL    HW126273   1.095   1.294   1.354
 8458SOL    HW226274   0.964   1.365   1.421
 8459SOL     OW26275   2.585   5.488   2.424
 8459SOL    HW126276   2.517   5.542   2.375
 8459SOL    HW226277   2.673   5.496   2.378
 8460SOL     OW26278   4.623   1.065   0.576
 8460SOL    HW126279   4.531   1.040   0.608
 8460SOL    HW226280   4.620   1.156   0.535
 8461SOL     OW26281   5.471   4.279   2.272
 8461SOL    HW126282   5.383   4.233   2.257
 8461SOL    HW226283   5.525   4.227   2.338
 8462SOL     OW26284   2.649   5.097   0.060
 8462SOL    HW126285   2.740   5.058   0.076
 8462SOL    HW226286   2.590   5.028   0.019
 8463SOL     OW26287   6.614   1.082   0.573
 8463SOL    HW126288   6.524   1.114   0.544
 8463SOL    HW226289   6.616   0.982   0.572
 8464SOL     OW26290   0.829   3.433   6.375
 8464SOL    HW126291   0.871   3.516   6.338
 8464SOL    HW226292   0.861   3.354   6.322
 8465SOL     OW26293   4.610   3.212   1.085
 8465SOL    HW126294   4.562   3.300   1.089
 8465SOL    HW226295   4.628   3.188   0.990
 8466SOL     OW26296   6.059   1.519   5.592
 8466SOL    HW126297   6.099   1.607   5.569
 8466SOL    HW226298   6.124   1.446   5.569
 8467SOL     OW26299   3.476   0.823   1.098
 8467SOL    HW126300   3.563   0.871   1.085
 8467SOL    HW226301   3.491   0.725   1.092
 8468SOL     OW26302   5.971   2.967   0.397
 8468SOL    HW126303   6.014   2.928   0.316
 8468SOL    HW226304   6.022   3.047   0.428
 8469SOL     OW26305   4.493   3.106   6.198
 8469SOL    HW126306   4.453   3.046   6.266
 8469SOL    HW226307   4.441   3.191   6.193
 8470SOL     OW26308   1.743   4.870   1.477
 8470SOL    HW126309   1.734   4.919   1.391
 8470SOL    HW226310   1.805   4.792   1.465
 8471SOL     OW26311   3.352   2.140   4.458
 8471SOL    HW126312   3.450   2.157   4.442
 8471SOL    HW226313   3.333   2.148   4.556
 8472SOL     OW26314   5.693   1.229   5.731
 8472SOL    HW126315   5.701   1.175   5.647
 8472SOL    HW226316   5.614   1.289   5.725
 8473SOL     OW26317   4.677   4.493   6.740
 8473SOL    HW126318   4.705   4.545   6.821
 8473SOL    HW226319   4.680   4.395   6.761
 8474SOL     OW26320   3.673   4.118   2.903
 8474SOL    HW126321   3.632   4.122   2.995
 8474SOL    HW226322   3.739   4.043   2.900
 8475SOL     OW26323   0.226   2.545   1.944
 8475SOL    HW126324   0.186   2.455   1.932
 8475SOL    HW226325   0.316   2.547   1.899
 8476SOL     OW26326   6.351   0.135   2.175
 8476SOL    HW126327   6.311   0.226   2.163
 8476SOL    HW226328   6.322   0.097   2.262
 8477SOL     OW26329   5.583   6.929   1.931
 8477SOL    HW126330   5.586   6.950   2.028
 8477SOL    HW226331   5.666   6.880   1.905
 8478SOL     OW26332   6.657   0.578   5.910
 8478SOL    HW126333   6.719   0.512   5.955
 8478SOL    HW226334   6.575   0.589   5.966
 8479SOL     OW26335   0.987   2.268   0.846
 8479SOL    HW126336   0.897   2.240   0.813
 8479SOL    HW226337   1.058   2.219   0.795
 8480SOL     OW26338   4.354   3.808   0.146
 8480SOL    HW126339   4.302   3.820   0.230
 8480SOL    HW226340   4.441   3.857   0.153
 8481SOL     OW26341   4.303   1.683   3.442
 8481SOL    HW126342   4.255   1.611   3.392
 8481SOL    HW226343   4.267   1.772   3.413
 8482SOL     OW26344   4.769   1.051   0.795
 8482SOL    HW126345   4.698   1.016   0.855
 8482SOL    HW226346   4.746   1.031   0.700
 8483SOL     OW26347   3.125   5.487   3.002
 8483SOL    HW126348   3.178   5.502   3.085
 8483SOL    HW226349   3.040   5.539   3.007
 8484SOL     OW26350   5.233   5.596   4.463
 8484SOL    HW126351   5.169   5.630   4.532
 8484SOL    HW226352   5.327   5.615   4.493
 8485SOL     OW26353   3.042   2.813   0.099
 8485SOL    HW126354   3.007   2.855   0.015
 8485SOL    HW226355   3.128   2.858   0.125
 8486SOL     OW26356   0.732   1.899   3.004
 8486SOL    HW126357   0.677   1.983   3.013
 8486SOL    HW226358   0.800   1.896   3.078
 8487SOL     OW26359   5.919   1.680   5.798
 8487SOL    HW126360   5.851   1.631   5.743
 8487SOL    HW226361   5.922   1.640   5.890
 8488SOL     OW26362   4.261   4.748   1.121
 8488SOL    HW126363   4.317   4.830   1.109
 8488SOL    HW226364   4.265   4.719   1.217
 8489SOL     OW26365   5.317   1.613   2.026
 8489SOL    HW126366   5.404   1.661   2.036
 8489SOL    HW226367   5.334   1.515   2.014
 8490SOL     OW26368   2.915   0.122   6.620
 8490SOL    HW126369   2.952   0.071   6.697
 8490SOL    HW226370   2.841   0.068   6.578
 8491SOL     OW26371   3.241   5.614   1.827
 8491SOL    HW126372   3.292   5.688   1.783
 8491SOL    HW226373   3.259   5.528   1.780
 8492SOL     OW26374   6.909   6.221   4.086
 8492SOL    HW126375   6.977   6.148   4.087
 8492SOL    HW226376   6.954   6.309   4.073
 8493SOL     OW26377   4.430   1.148   6.965
 8493SOL    HW126378   4.412   1.099   0.026
 8493SOL    HW226379   4.345   1.186   6.929
 8494SOL     OW26380   6.625   4.833   2.315
 8494SOL    HW126381   6.546   4.773   2.301
 8494SOL    HW226382   6.654   4.828   2.410
 8495SOL     OW26383   6.438   5.530   0.051
 8495SOL    HW126384   6.450   5.460   0.121
 8495SOL    HW226385   6.430   5.486   6.985
 8496SOL     OW26386   5.434   2.907   2.189
 8496SOL    HW126387   5.469   2.990   2.232
 8496SOL    HW226388   5.443   2.830   2.252
 8497SOL     OW26389   6.806   0.943   3.557
 8497SOL    HW126390   6.892   0.986   3.584
 8497SOL    HW226391   6.810   0.845   3.576
 8498SOL     OW26392   4.480   0.434   3.796
 8498SOL    HW126393   4.572   0.466   3.777
 8498SOL    HW226394   4.482   0.368   3.872
 8499SOL     OW26395   6.307   6.715   6.248
 8499SOL    HW126396   6.352   6.787   6.301
 8499SOL    HW226397   6.266   6.649   6.310
 8500SOL     OW26398   0.849   0.519   4.639
 8500SOL    HW126399   0.875   0.593   4.701
 8500SOL    HW226400   0.913   0.516   4.562
 8501SOL     OW26401   0.929   2.190   6.294
 8501SOL    HW126402   1.025   2.165   6.278
 8501SOL    HW226403   0.870   2.117   6.259
 8502SOL     OW26404   1.033   3.647   0.158
 8502SOL    HW126405   0.947   3.695   0.174
 8502SOL    HW226406   1.020   3.578   0.087
 8503SOL     OW26407   6.014   1.187   4.452
 8503SOL    HW126408   5.954   1.133   4.511
 8503SOL    HW226409   5.971   1.275   4.433
 8504SOL     OW26410   1.217   6.112   1.919
 8504SOL    HW126411   1.149   6.135   1.849
 8504SOL    HW226412   1.286   6.183   1.924
 8505SOL     OW26413   4.935   3.261   3.329
 8505SOL    HW126414   4.868   3.192   3.305
 8505SOL    HW226415   4.966   3.309   3.246
 8506SOL     OW26416   2.215   0.267   6.630
 8506SOL    HW126417   2.126   0.296   6.666
 8506SOL    HW226418   2.288   0.304   6.688
 8507SOL     OW26419   3.904   5.974   5.330
 8507SOL    HW126420   3.826   5.913   5.320
 8507SOL    HW226421   3.918   6.024   5.244
 8508SOL     OW26422   3.278   1.779   6.617
 8508SOL    HW126423   3.193   1.786   6.669
 8508SOL    HW226424   3.269   1.827   6.530
 8509SOL     OW26425   5.635   2.096   3.186
 8509SOL    HW126426   5.649   2.064   3.280
 8509SOL    HW226427   5.567   2.169   3.186
 8510SOL     OW26428   6.704   2.207   4.195
 8510SOL    HW126429   6.749   2.297   4.197
 8510SOL    HW226430   6.762   2.142   4.147
 8511SOL     OW26431   5.688   2.471   2.080
 8511SOL    HW126432   5.768   2.416   2.101
 8511SOL    HW226433   5.606   2.415   2.087
 8512SOL     OW26434   2.356   0.083   5.589
 8512SOL    HW126435   2.414   0.023   5.534
 8512SOL    HW226436   2.307   0.029   5.657
 8513SOL     OW26437   5.308   6.555   6.290
 8513SOL    HW126438   5.273   6.467   6.322
 8513SOL    HW226439   5.237   6.624   6.300
 8514SOL     OW26440   2.794   6.425   3.763
 8514SOL    HW126441   2.799   6.374   3.849
 8514SOL    HW226442   2.886   6.449   3.733
 8515SOL     OW26443   5.546   1.352   0.629
 8515SOL    HW126444   5.457   1.344   0.583
 8515SOL    HW226445   5.565   1.267   0.678
 8516SOL     OW26446   6.674   2.120   2.646
 8516SOL    HW126447   6.768   2.153   2.637
 8516SOL    HW226448   6.653   2.057   2.572
 8517SOL     OW26449   1.430   4.017   0.441
 8517SOL    HW126450   1.508   3.972   0.397
 8517SOL    HW226451   1.349   3.959   0.430
 8518SOL     OW26452   3.311   5.666   0.874
 8518SOL    HW126453   3.262   5.679   0.960
 8518SOL    HW226454   3.409   5.677   0.889
 8519SOL     OW26455   1.573   4.805   2.806
 8519SOL    HW126456   1.637   4.782   2.879
 8519SOL    HW226457   1.621   4.852   2.732
 8520SOL     OW26458   3.085   0.461   0.225
 8520SOL    HW126459   3.146   0.401   0.277
 8520SOL    HW226460   2.999   0.471   0.274
 8521SOL     OW26461   1.011   6.777   6.754
 8521SOL    HW126462   1.088   6.730   6.710
 8521SOL    HW226463   0.927   6.752   6.707
 8522SOL     OW26464   1.802   5.903   4.879
 8522SOL    HW126465   1.810   5.992   4.834
 8522SOL    HW226466   1.798   5.916   4.978
 8523SOL     OW26467   1.365   6.989   7.011
 8523SOL    HW126468   1.459   7.022   7.017
 8523SOL    HW226469   1.363   6.904   6.957
 8524SOL     OW26470   1.407   2.422   6.005
 8524SOL    HW126471   1.406   2.334   6.053
 8524SOL    HW226472   1.317   2.442   5.969
 8525SOL     OW26473   4.977   2.899   2.774
 8525SOL    HW126474   5.026   2.814   2.756
 8525SOL    HW226475   4.918   2.887   2.854
 8526SOL     OW26476   2.271   2.850   1.997
 8526SOL    HW126477   2.340   2.845   1.925
 8526SOL    HW226478   2.207   2.925   1.976
 8527SOL     OW26479   4.373   0.126   4.191
 8527SOL    HW126480   4.385   0.043   4.137
 8527SOL    HW226481   4.347   0.201   4.131
 8528SOL     OW26482   4.971   2.567   6.816
 8528SOL    HW126483   4.881   2.579   6.858
 8528SOL    HW226484   4.994   2.469   6.813
 8529SOL     OW26485   0.149   4.281   0.128
 8529SOL    HW126486   0.147   4.378   0.104
 8529SOL    HW226487   0.170   4.270   0.225
 8530SOL     OW26488   1.396   3.152   5.651
 8530SOL    HW126489   1.330   3.194   5.713
 8530SOL    HW226490   1.489   3.180   5.676
 8531SOL     OW26491   4.571   4.741   2.817
 8531SOL    HW126492   4.603   4.762   2.909
 8531SOL    HW226493   4.645   4.699   2.764
 8532SOL     OW26494   1.257   4.289   5.793
 8532SOL    HW126495   1.319   4.357   5.753
 8532SOL    HW226496   1.305   4.238   5.864
 8533SOL     OW26497   3.327   0.400   5.930
 8533SOL    HW126498   3.325   0.483   5.986
 8533SOL    HW226499   3.422   0.373   5.914
 8534SOL     OW26500   1.842   2.877   2.938
 8534SOL    HW126501   1.869   2.849   3.030
 8534SOL    HW226502   1.890   2.961   2.914
 8535SOL     OW26503   6.785   2.929   3.970
 8535SOL    HW126504   6.879   2.907   3.997
 8535SOL    HW226505   6.721   2.884   4.032
 8536SOL     OW26506   0.006   1.696   4.830
 8536SOL    HW126507   0.055   1.691   4.917
 8536SOL    HW226508   6.955   1.630   4.831
 8537SOL     OW26509   6.229   0.533   1.983
 8537SOL    HW126510   6.228   0.474   2.063
 8537SOL    HW226511   6.288   0.493   1.912
 8538SOL     OW26512   5.925   1.461   5.075
 8538SOL    HW126513   5.903   1.445   4.979
 8538SOL    HW226514   5.894   1.383   5.130
 8539SOL     OW26515   6.806   2.766   2.233
 8539SOL    HW126516   6.890   2.776   2.285
 8539SOL    HW226517   6.727   2.777   2.294
 8540SOL     OW26518   4.172   0.382   0.262
 8540SOL    HW126519   4.176   0.401   0.360
 8540SOL    HW226520   4.171   0.468   0.211
 8541SOL     OW26521   3.562   6.692   5.162
 8541SOL    HW126522   3.517   6.603   5.163
 8541SOL    HW226523   3.657   6.681   5.132
 8542SOL     OW26524   1.196   4.904   6.159
 8542SOL    HW126525   1.162   4.997   6.149
 8542SOL    HW226526   1.207   4.862   6.069
 8543SOL     OW26527   2.176   2.302   5.963
 8543SOL    HW126528   2.237   2.372   5.925
 8543SOL    HW226529   2.157   2.233   5.893
 8544SOL     OW26530   5.440   4.341   5.502
 8544SOL    HW126531   5.405   4.345   5.595
 8544SOL    HW226532   5.440   4.432   5.462
 8545SOL     OW26533   2.856   0.474   6.589
 8545SOL    HW126534   2.884   0.398   6.531
 8545SOL    HW226535   2.835   0.441   6.681
 8546SOL     OW26536   5.179   0.953   2.207
 8546SOL    HW126537   5.151   0.880   2.144
 8546SOL    HW226538   5.221   0.912   2.288
 8547SOL     OW26539   5.805   5.946   5.606
 8547SOL    HW126540   5.711   5.968   5.634
 8547SOL    HW226541   5.832   6.008   5.532
 8548SOL     OW26542   0.573   3.418   5.383
 8548SOL    HW126543   0.502   3.394   5.449
 8548SOL    HW226544   0.561   3.364   5.300
 8549SOL     OW26545   1.918   0.064   4.162
 8549SOL    HW126546   1.991   0.110   4.214
 8549SOL    HW226547   1.937   0.070   4.064
 8550SOL     OW26548   6.565   4.147   6.343
 8550SOL    HW126549   6.599   4.053   6.337
 8550SOL    HW226550   6.598   4.190   6.428
 8551SOL     OW26551   1.896   0.949   5.926
 8551SOL    HW126552   1.881   0.942   5.827
 8551SOL    HW226553   1.980   0.900   5.950
 8552SOL     OW26554   3.186   1.849   3.064
 8552SOL    HW126555   3.210   1.910   2.988
 8552SOL    HW226556   3.245   1.768   3.062
 8553SOL     OW26557   4.990   4.464   0.178
 8553SOL    HW126558   5.069   4.436   0.124
 8553SOL    HW226559   4.908   4.419   0.144
 8554SOL     OW26560   2.387   1.097   0.861
 8554SOL    HW126561   2.386   1.177   0.801
 8554SOL    HW226562   2.480   1.065   0.873
 8555SOL     OW26563   3.910   1.174   4.049
 8555SOL    HW126564   3.835   1.224   4.006
 8555SOL    HW226565   3.959   1.234   4.112
 8556SOL     OW26566   1.916   5.742   0.277
 8556SOL    HW126567   2.007   5.755   0.238
 8556SOL    HW226568   1.923   5.688   0.361
 8557SOL     OW26569   6.921   0.736   6.523
 8557SOL    HW126570   6.920   0.679   6.605
 8557SOL    HW226571   6.869   0.691   6.450
 8558SOL     OW26572   3.209   6.102   4.408
 8558SOL    HW126573   3.129   6.134   4.458
 8558SOL    HW226574   3.193   6.009   4.375
 8559SOL     OW26575   1.937   4.675   2.745
 8559SOL    HW126576   2.013   4.620   2.780
 8559SOL    HW226577   1.853   4.651   2.794
 8560SOL     OW26578   2.477   4.934   0.825
 8560SOL    HW126579   2.517   4.880   0.900
 8560SOL    HW226580   2.421   4.875   0.768
 8561SOL     OW26581   4.713   0.898   2.680
 8561SOL    HW126582   4.661   0.926   2.599
 8561SOL    HW226583   4.779   0.828   2.655
 8562SOL     OW26584   5.163   2.064   6.743
 8562SOL    HW126585   5.179   2.129   6.669
 8562SOL    HW226586   5.226   2.084   6.819
 8563SOL     OW26587   2.499   5.220   2.173
 8563SOL    HW126588   2.515   5.202   2.270
 8563SOL    HW226589   2.543   5.149   2.118
 8564SOL     OW26590   4.006   0.149   0.259
 8564SOL    HW126591   4.036   0.084   0.189
 8564SOL    HW226592   4.067   0.228   0.259
 8565SOL     OW26593   1.858   4.905   0.584
 8565SOL    HW126594   1.793   4.833   0.559
 8565SOL    HW226595   1.877   4.962   0.505
 8566SOL     OW26596   3.337   1.274   2.284
 8566SOL    HW126597   3.400   1.336   2.330
 8566SOL    HW226598   3.315   1.198   2.345
 8567SOL     OW26599   1.514   3.370   2.113
 8567SOL    HW126600   1.524   3.447   2.050
 8567SOL    HW226601   1.595   3.364   2.171
 8568SOL     OW26602   6.025   0.497   6.759
 8568SOL    HW126603   5.996   0.550   6.679
 8568SOL    HW226604   6.046   0.559   6.835
 8569SOL     OW26605   4.008   2.093   6.311
 8569SOL    HW126606   3.978   2.086   6.406
 8569SOL    HW226607   4.043   2.185   6.294
 8570SOL     OW26608   2.061   2.656   2.098
 8570SOL    HW126609   2.102   2.658   2.007
 8570SOL    HW226610   2.023   2.746   2.119
 8571SOL     OW26611   1.774   0.968   2.862
 8571SOL    HW126612   1.750   1.027   2.939
 8571SOL    HW226613   1.873   0.975   2.844
 8572SOL     OW26614   2.512   4.413   5.883
 8572SOL    HW126615   2.534   4.430   5.788
 8572SOL    HW226616   2.479   4.498   5.926
 8573SOL     OW26617   3.547   6.352   0.200
 8573SOL    HW126618   3.570   6.416   0.273
 8573SOL    HW226619   3.561   6.395   0.112
 8574SOL     OW26620   5.376   0.629   5.018
 8574SOL    HW126621   5.315   0.614   4.940
 8574SOL    HW226622   5.338   0.701   5.076
 8575SOL     OW26623   3.126   6.044   3.653
 8575SOL    HW126624   3.042   6.018   3.700
 8575SOL    HW226625   3.172   6.116   3.704
 8576SOL     OW26626   1.505   4.878   3.439
 8576SOL    HW126627   1.426   4.821   3.462
 8576SOL    HW226628   1.541   4.851   3.350
 8577SOL     OW26629   1.676   1.854   0.544
 8577SOL    HW126630   1.643   1.933   0.492
 8577SOL    HW226631   1.655   1.770   0.494
 8578SOL     OW26632   0.064   6.666   6.582
 8578SOL    HW126633   0.124   6.660   6.502
 8578SOL    HW226634   6.993   6.669   6.552
 8579SOL     OW26635   2.759   6.788   2.272
 8579SOL    HW126636   2.849   6.765   2.236
 8579SOL    HW226637   2.741   6.733   2.353
 8580SOL     OW26638   1.956   0.707   0.978
 8580SOL    HW126639   1.970   0.608   0.972
 8580SOL    HW226640   1.879   0.725   1.040
 8581SOL     OW26641   3.426   4.763   1.573
 8581SOL    HW126642   3.381   4.681   1.607
 8581SOL    HW226643   3.361   4.839   1.570
 8582SOL     OW26644   3.257   4.855   5.852
 8582SOL    HW126645   3.246   4.772   5.799
 8582SOL    HW226646   3.172   4.909   5.848
 8583SOL     OW26647   4.094   0.931   2.767
 8583SOL    HW126648   4.076   1.006   2.830
 8583SOL    HW226649   4.128   0.968   2.680
 8584SOL     OW26650   6.993   1.688   5.406
 8584SOL    HW126651   6.996   1.762   5.338
 8584SOL    HW226652   6.928   1.712   5.478
 8585SOL     OW26653   5.266   2.672   2.266
 8585SOL    HW126654   5.251   2.753   2.209
 8585SOL    HW226655   5.240   2.693   2.360
 8586SOL     OW26656   6.818   5.900   0.414
 8586SOL    HW126657   6.801   5.996   0.436
 8586SOL    HW226658   6.831   5.848   0.498
 8587SOL     OW26659   0.630   1.563   6.866
 8587SOL    HW126660   0.697   1.616   6.814
 8587SOL    HW226661   0.571   1.513   6.802
 8588SOL     OW26662   2.987   1.809   6.171
 8588SOL    HW126663   3.010   1.712   6.170
 8588SOL    HW226664   2.935   1.830   6.254
 8589SOL     OW26665   6.582   2.951   6.832
 8589SOL    HW126666   6.518   3.022   6.805
 8589SOL    HW226667   6.658   2.948   6.767
 8590SOL     OW26668   1.078   0.471   4.474
 8590SOL    HW126669   1.104   0.464   4.570
 8590SOL    HW226670   1.125   0.400   4.422
 8591SOL     OW26671   6.877   4.109   6.658
 8591SOL    HW126672   6.809   4.152   6.599
 8591SOL    HW226673   6.874   4.152   6.749
 8592SOL     OW26674   0.489   1.788   5.215
 8592SOL    HW126675   0.434   1.718   5.170
 8592SOL    HW226676   0.442   1.820   5.298
 8593SOL     OW26677   4.305   1.498   7.005
 8593SOL    HW126678   4.223   1.511   0.036
 8593SOL    HW226679   4.363   1.579   7.013
 8594SOL     OW26680   6.635   2.902   6.303
 8594SOL    HW126681   6.574   2.945   6.369
 8594SOL    HW226682   6.581   2.855   6.233
 8595SOL     OW26683   6.217   6.829   3.179
 8595SOL    HW126684   6.227   6.769   3.258
 8595SOL    HW226685   6.156   6.905   3.202
 8596SOL     OW26686   0.867   1.263   4.286
 8596SOL    HW126687   0.895   1.327   4.214
 8596SOL    HW226688   0.933   1.266   4.361
 8597SOL     OW26689   5.370   3.771   0.057
 8597SOL    HW126690   5.325   3.689   0.021
 8597SOL    HW226691   5.324   3.852   0.020
 8598SOL     OW26692   5.856   6.547   4.668
 8598SOL    HW126693   5.914   6.479   4.713
 8598SOL    HW226694   5.827   6.513   4.579
 8599SOL     OW26695   0.039   3.615   4.074
 8599SOL    HW126696   7.008   3.582   3.998
 8599SOL    HW226697   0.136   3.611   4.050
 8600SOL     OW26698   4.731   1.658   0.825
 8600SOL    HW126699   4.657   1.690   0.883
 8600SOL    HW226700   4.733   1.712   0.740
 8601SOL     OW26701   0.700   5.889   4.117
 8601SOL    HW126702   0.665   5.804   4.079
 8601SOL    HW226703   0.751   5.938   4.047
 8602SOL     OW26704   2.216   6.192   4.886
 8602SOL    HW126705   2.136   6.212   4.942
 8602SOL    HW226706   2.251   6.277   4.847
 8603SOL     OW26707   0.125   0.195   0.697
 8603SOL    HW126708   0.161   0.280   0.736
 8603SOL    HW226709   0.157   0.186   0.602
 8604SOL     OW26710   0.179   4.385   6.646
 8604SOL    HW126711   0.152   4.414   6.554
 8604SOL    HW226712   0.260   4.436   6.674
 8605SOL     OW26713   6.486   4.904   4.887
 8605SOL    HW126714   6.518   4.964   4.813
 8605SOL    HW226715   6.506   4.809   4.864
 8606SOL     OW26716   1.917   2.389   0.596
 8606SOL    HW126717   1.818   2.395   0.594
 8606SOL    HW226718   1.946   2.295   0.576
 8607SOL     OW26719   2.723   4.033   1.554
 8607SOL    HW126720   2.689   4.087   1.631
 8607SOL    HW226721   2.744   3.940   1.585
 8608SOL     OW26722   1.785   5.219   2.721
 8608SOL    HW126723   1.880   5.249   2.728
 8608SOL    HW226724   1.725   5.287   2.763
 8609SOL     OW26725   4.165   1.789   3.997
 8609SOL    HW126726   4.263   1.777   4.011
 8609SOL    HW226727   4.134   1.871   4.045
 8610SOL     OW26728   6.721   6.200   3.310
 8610SOL    HW126729   6.812   6.158   3.318
 8610SOL    HW226730   6.680   6.175   3.222
 8611SOL     OW26731   3.071   1.605   5.200
 8611SOL    HW126732   3.153   1.642   5.157
 8611SOL    HW226733   3.014   1.680   5.234
 8612SOL     OW26734   3.590   3.916   3.888
 8612SOL    HW126735   3.499   3.883   3.912
 8612SOL    HW226736   3.613   3.994   3.946
 8613SOL     OW26737   3.990   3.056   2.014
 8613SOL    HW126738   3.894   3.081   2.027
 8613SOL    HW226739   4.004   3.022   1.921
 8614SOL     OW26740   1.888   1.422   2.908
 8614SOL    HW126741   1.894   1.393   2.813
 8614SOL    HW226742   1.953   1.497   2.925
 8615SOL     OW26743   4.046   1.339   4.235
 8615SOL    HW126744   4.056   1.431   4.198
 8615SOL    HW226745   4.053   1.343   4.335
 8616SOL     OW26746   5.668   4.189   3.061
 8616SOL    HW126747   5.608   4.205   3.139
 8616SOL    HW226748   5.741   4.126   3.088
 8617SOL     OW26749   2.776   0.492   3.569
 8617SOL    HW126750   2.678   0.502   3.557
 8617SOL    HW226751   2.804   0.399   3.542
 8618SOL     OW26752   5.115   4.396   1.019
 8618SOL    HW126753   5.140   4.449   0.938
 8618SOL    HW226754   5.076   4.457   1.087
 8619SOL     OW26755   4.869   5.295   0.907
 8619SOL    HW126756   4.827   5.378   0.945
 8619SOL    HW226757   4.838   5.282   0.813
 8620SOL     OW26758   2.759   0.731   4.501
 8620SOL    HW126759   2.797   0.647   4.540
 8620SOL    HW226760   2.680   0.760   4.556
 8621SOL     OW26761   5.820   3.064   1.776
 8621SOL    HW126762   5.779   3.073   1.685
 8621SOL    HW226763   5.780   2.985   1.823
 8622SOL     OW26764   6.752   5.221   2.941
 8622SOL    HW126765   6.788   5.284   3.010
 8622SOL    HW226766   6.697   5.272   2.875
 8623SOL     OW26767   0.942   3.569   4.113
 8623SOL    HW126768   0.942   3.664   4.145
 8623SOL    HW226769   0.849   3.533   4.115
 8624SOL     OW26770   3.100   3.930   4.776
 8624SOL    HW126771   3.081   3.959   4.683
 8624SOL    HW226772   3.015   3.900   4.820
 8625SOL     OW26773   4.012   2.699   5.871
 8625SOL    HW126774   3.963   2.779   5.838
 8625SOL    HW226775   4.109   2.722   5.885
 8626SOL     OW26776   3.707   3.748   0.751
 8626SOL    HW126777   3.700   3.684   0.828
 8626SOL    HW226778   3.742   3.699   0.670
 8627SOL     OW26779   1.834   0.747   1.937
 8627SOL    HW126780   1.847   0.649   1.920
 8627SOL    HW226781   1.757   0.780   1.883
 8628SOL     OW26782   0.533   6.339   1.097
 8628SOL    HW126783   0.526   6.438   1.105
 8628SOL    HW226784   0.566   6.301   1.184
 8629SOL     OW26785   0.259   6.388   5.713
 8629SOL    HW126786   0.351   6.388   5.752
 8629SOL    HW226787   0.222   6.480   5.714
 8630SOL     OW26788   4.998   3.263   2.343
 8630SOL    HW126789   4.941   3.187   2.314
 8630SOL    HW226790   5.007   3.328   2.267
 8631SOL     OW26791   2.641   6.737   6.800
 8631SOL    HW126792   2.549   6.696   6.797
 8631SOL    HW226793   2.645   6.801   6.877
 8632SOL     OW26794   5.449   5.365   5.513
 8632SOL    HW126795   5.433   5.282   5.566
 8632SOL    HW226796   5.497   5.432   5.571
 8633SOL     OW26797   5.667   4.618   5.934
 8633SOL    HW126798   5.602   4.661   5.997
 8633SOL    HW226799   5.744   4.580   5.987
 8634SOL     OW26800   4.385   2.632   0.531
 8634SOL    HW126801   4.399   2.724   0.566
 8634SOL    HW226802   4.430   2.566   0.592
 8635SOL     OW26803   5.334   2.706   5.993
 8635SOL    HW126804   5.276   2.753   5.927
 8635SOL    HW226805   5.312   2.738   6.085
 8636SOL     OW26806   4.445   0.043   2.078
 8636SOL    HW126807   4.476   6.976   2.051
 8636SOL    HW226808   4.513   0.086   2.137
 8637SOL     OW26809   1.358   2.134   0.046
 8637SOL    HW126810   1.317   2.093   6.988
 8637SOL    HW226811   1.286   2.161   0.109
 8638SOL     OW26812   4.972   2.390   4.103
 8638SOL    HW126813   4.998   2.428   4.014
 8638SOL    HW226814   4.882   2.424   4.129
 8639SOL     OW26815   3.684   3.759   6.997
 8639SOL    HW126816   3.593   3.718   7.007
 8639SOL    HW226817   3.753   3.695   0.006
 8640SOL     OW26818   2.828   3.286   0.608
 8640SOL    HW126819   2.754   3.307   0.543
 8640SOL    HW226820   2.842   3.187   0.611
 8641SOL     OW26821   4.554   5.805   2.003
 8641SOL    HW126822   4.634   5.826   1.947
 8641SOL    HW226823   4.540   5.706   2.006
 8642SOL     OW26824   0.702   5.673   3.436
 8642SOL    HW126825   0.728   5.623   3.353
 8642SOL    HW226826   0.780   5.675   3.499
 8643SOL     OW26827   4.100   6.336   1.158
 8643SOL    HW126828   4.055   6.322   1.070
 8643SOL    HW226829   4.035   6.318   1.232
 8644SOL     OW26830   6.207   2.042   6.309
 8644SOL    HW126831   6.285   2.084   6.355
 8644SOL    HW226832   6.239   1.980   6.238
 8645SOL     OW26833   5.909   4.220   2.877
 8645SOL    HW126834   5.890   4.260   2.787
 8645SOL    HW226835   5.823   4.212   2.928
 8646SOL     OW26836   6.459   1.978   5.236
 8646SOL    HW126837   6.371   2.021   5.253
 8646SOL    HW226838   6.455   1.881   5.263
 8647SOL     OW26839   2.188   5.327   1.800
 8647SOL    HW126840   2.088   5.324   1.803
 8647SOL    HW226841   2.217   5.361   1.711
 8648SOL     OW26842   5.127   4.781   0.775
 8648SOL    HW126843   5.184   4.863   0.782
 8648SOL    HW226844   5.038   4.805   0.736
 8649SOL     OW26845   5.404   0.341   0.645
 8649SOL    HW126846   5.316   0.385   0.628
 8649SOL    HW226847   5.402   0.248   0.607
 8650SOL     OW26848   2.305   6.480   4.876
 8650SOL    HW126849   2.402   6.506   4.875
 8650SOL    HW226850   2.256   6.533   4.807
 8651SOL     OW26851   3.097   1.882   1.204
 8651SOL    HW126852   3.183   1.835   1.225
 8651SOL    HW226853   3.116   1.975   1.172
 8652SOL     OW26854   1.153   2.506   3.389
 8652SOL    HW126855   1.212   2.434   3.425
 8652SOL    HW226856   1.193   2.596   3.409
 8653SOL     OW26857   6.525   1.459   6.585
 8653SOL    HW126858   6.553   1.459   6.681
 8653SOL    HW226859   6.551   1.546   6.542
 8654SOL     OW26860   0.030   4.516   1.921
 8654SOL    HW126861   0.098   4.468   1.867
 8654SOL    HW226862   0.066   4.533   2.013
 8655SOL     OW26863   0.188   0.514   4.549
 8655SOL    HW126864   0.089   0.512   4.537
 8655SOL    HW226865   0.211   0.562   4.634
 8656SOL     OW26866   5.116   0.355   1.050
 8656SOL    HW126867   5.062   0.298   0.987
 8656SOL    HW226868   5.127   0.446   1.011
 8657SOL     OW26869   4.268   1.140   3.275
 8657SOL    HW126870   4.356   1.187   3.267
 8657SOL    HW226871   4.254   1.081   3.196
 8658SOL     OW26872   6.357   4.262   1.075
 8658SOL    HW126873   6.303   4.322   1.134
 8658SOL    HW226874   6.340   4.286   0.979
 8659SOL     OW26875   3.245   1.343   2.918
 8659SOL    HW126876   3.266   1.255   2.876
 8659SOL    HW226877   3.327   1.400   2.918
 8660SOL     OW26878   6.929   3.935   1.813
 8660SOL    HW126879   6.869   3.944   1.893
 8660SOL    HW226880   6.967   3.842   1.811
 8661SOL     OW26881   6.448   4.016   2.758
 8661SOL    HW126882   6.408   4.070   2.832
 8661SOL    HW226883   6.472   3.925   2.791
 8662SOL     OW26884   2.273   4.116   2.946
 8662SOL    HW126885   2.260   4.207   2.985
 8662SOL    HW226886   2.348   4.118   2.880
 8663SOL     OW26887   4.275   5.543   2.594
 8663SOL    HW126888   4.341   5.618   2.601
 8663SOL    HW226889   4.222   5.538   2.679
 8664SOL     OW26890   3.524   5.904   3.700
 8664SOL    HW126891   3.600   5.846   3.672
 8664SOL    HW226892   3.556   5.972   3.766
 8665SOL     OW26893   5.263   3.535   6.969
 8665SOL    HW126894   5.222   3.470   6.905
 8665SOL    HW226895   5.325   3.486   0.006
 8666SOL     OW26896   4.532   6.710   2.347
 8666SOL    HW126897   4.587   6.648   2.293
 8666SOL    HW226898   4.480   6.658   2.415
 8667SOL     OW26899   4.810   2.032   2.806
 8667SOL    HW126900   4.814   1.985   2.894
 8667SOL    HW226901   4.897   2.022   2.758
 8668SOL     OW26902   5.123   2.470   4.671
 8668SOL    HW126903   5.140   2.482   4.573
 8668SOL    HW226904   5.026   2.482   4.691
 8669SOL     OW26905   6.358   6.275   6.310
 8669SOL    HW126906   6.299   6.206   6.269
 8669SOL    HW226907   6.454   6.246   6.302
 8670SOL     OW26908   6.300   4.244   6.303
 8670SOL    HW126909   6.242   4.198   6.235
 8670SOL    HW226910   6.386   4.195   6.312
 8671SOL     OW26911   0.485   2.815   2.808
 8671SOL    HW126912   0.392   2.779   2.819
 8671SOL    HW226913   0.508   2.818   2.710
 8672SOL     OW26914   0.810   0.883   3.118
 8672SOL    HW126915   0.890   0.835   3.082
 8672SOL    HW226916   0.807   0.976   3.080
 8673SOL     OW26917   0.278   1.744   1.665
 8673SOL    HW126918   0.293   1.649   1.694
 8673SOL    HW226919   0.182   1.757   1.644
 8674SOL     OW26920   6.979   3.852   3.599
 8674SOL    HW126921   6.935   3.870   3.511
 8674SOL    HW226922   6.983   3.936   3.653
 8675SOL     OW26923   3.298   2.222   5.317
 8675SOL    HW126924   3.374   2.184   5.264
 8675SOL    HW226925   3.272   2.311   5.279
 8676SOL     OW26926   5.372   1.186   0.817
 8676SOL    HW126927   5.333   1.101   0.782
 8676SOL    HW226928   5.320   1.264   0.782
 8677SOL     OW26929   2.533   6.753   6.206
 8677SOL    HW126930   2.500   6.677   6.150
 8677SOL    HW226931   2.621   6.785   6.171
 8678SOL     OW26932   1.318   1.837   0.583
 8678SOL    HW126933   1.358   1.912   0.636
 8678SOL    HW226934   1.249   1.873   0.521
 8679SOL     OW26935   1.366   1.784   5.720
 8679SOL    HW126936   1.331   1.710   5.661
 8679SOL    HW226937   1.398   1.746   5.806
 8680SOL     OW26938   6.854   0.934   0.315
 8680SOL    HW126939   6.866   0.878   0.233
 8680SOL    HW226940   6.761   0.922   0.350
 8681SOL     OW26941   5.540   6.607   1.644
 8681SOL    HW126942   5.611   6.677   1.631
 8681SOL    HW226943   5.524   6.594   1.742
 8682SOL     OW26944   1.782   0.706   1.193
 8682SOL    HW126945   1.773   0.769   1.270
 8682SOL    HW226946   1.692   0.671   1.167
 8683SOL     OW26947   1.606   4.167   4.346
 8683SOL    HW126948   1.632   4.154   4.250
 8683SOL    HW226949   1.681   4.211   4.396
 8684SOL     OW26950   1.551   3.861   4.220
 8684SOL    HW126951   1.563   3.942   4.163
 8684SOL    HW226952   1.478   3.804   4.181
 8685SOL     OW26953   4.927   2.151   4.854
 8685SOL    HW126954   4.861   2.221   4.827
 8685SOL    HW226955   4.925   2.139   4.953
 8686SOL     OW26956   1.379   5.729   2.969
 8686SOL    HW126957   1.351   5.637   2.995
 8686SOL    HW226958   1.372   5.790   3.047
 8687SOL     OW26959   4.789   4.641   6.160
 8687SOL    HW126960   4.728   4.712   6.194
 8687SOL    HW226961   4.812   4.659   6.064
 8688SOL     OW26962   0.444   3.869   5.242
 8688SOL    HW126963   0.420   3.926   5.321
 8688SOL    HW226964   0.363   3.823   5.209
 8689SOL     OW26965   3.945   3.630   0.041
 8689SOL    HW126966   4.004   3.705   0.070
 8689SOL    HW226967   3.925   3.571   0.120
 8690SOL     OW26968   1.661   2.602   2.926
 8690SOL    HW126969   1.641   2.682   2.869
 8690SOL    HW226970   1.759   2.599   2.946
 8691SOL     OW26971   3.427   2.528   5.349
 8691SOL    HW126972   3.348   2.510   5.291
 8691SOL    HW226973   3.478   2.444   5.365
 8692SOL     OW26974   4.248   1.575   5.185
 8692SOL    HW126975   4.260   1.477   5.200
 8692SOL    HW226976   4.300   1.603   5.104
 8693SOL     OW26977   6.276   6.913   6.027
 8693SOL    HW126978   6.254   6.841   6.094
 8693SOL    HW226979   6.270   7.002   6.072
 8694SOL     OW26980   5.927   3.630   5.015
 8694SOL    HW126981   5.927   3.674   4.925
 8694SOL    HW226982   5.887   3.692   5.082
 8695SOL     OW26983   3.827   4.417   6.369
 8695SOL    HW126984   3.911   4.373   6.336
 8695SOL    HW226985   3.786   4.469   6.294
 8696SOL     OW26986   2.818   4.826   5.924
 8696SOL    HW126987   2.736   4.804   5.977
 8696SOL    HW226988   2.803   4.803   5.827
 8697SOL     OW26989   1.848   3.956   5.567
 8697SOL    HW126990   1.843   4.023   5.642
 8697SOL    HW226991   1.870   4.003   5.482
 8698SOL     OW26992   5.519   5.737   5.655
 8698SOL    HW126993   5.541   5.772   5.564
 8698SOL    HW226994   5.549   5.642   5.663
 8699SOL     OW26995   1.179   3.061   6.417
 8699SOL    HW126996   1.219   2.971   6.435
 8699SOL    HW226997   1.097   3.073   6.473
 8700SOL     OW26998   1.244   0.257   3.685
 8700SOL    HW126999   1.179   0.331   3.697
 8700SOL    HW227000   1.282   0.230   3.774
 8701SOL     OW27001   0.601   2.502   0.526
 8701SOL    HW127002   0.567   2.525   0.617
 8701SOL    HW227003   0.690   2.457   0.533
 8702SOL     OW27004   5.029   5.137   1.838
 8702SOL    HW127005   5.029   5.040   1.860
 8702SOL    HW227006   5.078   5.151   1.752
 8703SOL     OW27007   2.189   5.849   1.165
 8703SOL    HW127008   2.101   5.803   1.156
 8703SOL    HW227009   2.179   5.931   1.221
 8704SOL     OW27010   0.830   0.346   4.845
 8704SOL    HW127011   0.740   0.383   4.865
 8704SOL    HW227012   0.866   0.386   4.761
 8705SOL     OW27013   3.974   2.349   6.926
 8705SOL    HW127014   3.963   2.364   6.828
 8705SOL    HW227015   3.884   2.343   6.970
 8706SOL     OW27016   4.511   3.509   6.305
 8706SOL    HW127017   4.584   3.445   6.327
 8706SOL    HW227018   4.442   3.464   6.248
 8707SOL     OW27019   1.599   2.115   5.514
 8707SOL    HW127020   1.506   2.112   5.551
 8707SOL    HW227021   1.622   2.025   5.476
 8708SOL     OW27022   6.023   2.824   0.091
 8708SOL    HW127023   6.094   2.872   0.040
 8708SOL    HW227024   6.045   2.727   0.096
 8709SOL     OW27025   6.238   6.925   5.680
 8709SOL    HW127026   6.197   6.860   5.744
 8709SOL    HW227027   6.317   6.883   5.635
 8710SOL     OW27028   2.396   1.049   3.493
 8710SOL    HW127029   2.301   1.055   3.521
 8710SOL    HW227030   2.400   1.038   3.393
 8711SOL     OW27031   1.447   1.023   1.706
 8711SOL    HW127032   1.427   1.014   1.609
 8711SOL    HW227033   1.428   1.117   1.736
 8712SOL     OW27034   1.984   4.107   5.859
 8712SOL    HW127035   1.938   4.162   5.789
 8712SOL    HW227036   2.077   4.086   5.830
 8713SOL     OW27037   0.309   3.943   1.862
 8713SOL    HW127038   0.291   3.852   1.900
 8713SOL    HW227039   0.252   4.011   1.908
 8714SOL     OW27040   6.963   5.895   6.671
 8714SOL    HW127041   6.876   5.918   6.716
 8714SOL    HW227042   0.011   5.891   6.740
 8715SOL     OW27043   1.968   3.344   1.489
 8715SOL    HW127044   2.020   3.285   1.428
 8715SOL    HW227045   1.913   3.288   1.551
 8716SOL     OW27046   6.725   6.824   2.209
 8716SOL    HW127047   6.702   6.772   2.126
 8716SOL    HW227048   6.686   6.777   2.288
 8717SOL     OW27049   2.793   3.621   0.646
 8717SOL    HW127050   2.836   3.680   0.578
 8717SOL    HW227051   2.864   3.565   0.690
 8718SOL     OW27052   2.431   4.806   6.126
 8718SOL    HW127053   2.496   4.831   6.198
 8718SOL    HW227054   2.423   4.882   6.061
 8719SOL     OW27055   3.390   0.631   5.621
 8719SOL    HW127056   3.368   0.728   5.620
 8719SOL    HW227057   3.448   0.609   5.543
 8720SOL     OW27058   6.848   5.402   4.990
 8720SOL    HW127059   6.938   5.432   5.020
 8720SOL    HW227060   6.779   5.432   5.057
 8721SOL     OW27061   0.285   0.303   6.845
 8721SOL    HW127062   0.342   0.384   6.853
 8721SOL    HW227063   0.332   0.234   6.789
 8722SOL     OW27064   3.437   0.974   1.319
 8722SOL    HW127065   3.492   0.944   1.397
 8722SOL    HW227066   3.443   0.906   1.246
 8723SOL     OW27067   4.190   0.500   2.629
 8723SOL    HW127068   4.288   0.520   2.634
 8723SOL    HW227069   4.140   0.561   2.690
 8724SOL     OW27070   4.222   1.002   4.490
 8724SOL    HW127071   4.182   1.088   4.523
 8724SOL    HW227072   4.181   0.978   4.402
 8725SOL     OW27073   0.213   6.866   3.532
 8725SOL    HW127074   0.279   6.813   3.585
 8725SOL    HW227075   0.183   6.812   3.453
 8726SOL     OW27076   0.156   0.719   0.861
 8726SOL    HW127077   0.239   0.686   0.906
 8726SOL    HW227078   0.140   0.666   0.778
 8727SOL     OW27079   4.598   6.558   6.035
 8727SOL    HW127080   4.612   6.528   5.941
 8727SOL    HW227081   4.585   6.477   6.094
 8728SOL     OW27082   6.622   0.104   3.949
 8728SOL    HW127083   6.607   0.085   4.046
 8728SOL    HW227084   6.689   0.178   3.939
 8729SOL     OW27085   4.292   6.030   6.307
 8729SOL    HW127086   4.203   6.058   6.272
 8729SOL    HW227087   4.324   6.096   6.375
 8730SOL     OW27088   4.663   5.204   1.262
 8730SOL    HW127089   4.616   5.268   1.201
 8730SOL    HW227090   4.715   5.139   1.208
 8731SOL     OW27091   0.167   1.487   3.563
 8731SOL    HW127092   0.124   1.447   3.483
 8731SOL    HW227093   0.096   1.522   3.625
 8732SOL     OW27094   6.075   6.891   0.319
 8732SOL    HW127095   5.979   6.916   0.334
 8732SOL    HW227096   6.111   6.847   0.401
 8733SOL     OW27097   6.117   5.213   2.428
 8733SOL    HW127098   6.100   5.302   2.387
 8733SOL    HW227099   6.094   5.215   2.525
 8734SOL     OW27100   6.983   3.754   2.469
 8734SOL    HW127101   0.001   3.845   2.475
 8734SOL    HW227102   6.955   3.736   2.375
 8735SOL     OW27103   0.012   3.585   5.485
 8735SOL    HW127104   6.999   3.674   5.509
 8735SOL    HW227105   7.007   3.559   5.393
 8736SOL     OW27106   1.257   6.094   4.091
 8736SOL    HW127107   1.208   6.055   4.169
 8736SOL    HW227108   1.301   6.021   4.039
 8737SOL     OW27109   1.886   6.383   0.006
 8737SOL    HW127110   1.895   6.371   0.105
 8737SOL    HW227111   1.843   6.302   6.990
 8738SOL     OW27112   1.332   2.744   3.455
 8738SOL    HW127113   1.338   2.781   3.362
 8738SOL    HW227114   1.408   2.779   3.510
 8739SOL     OW27115   5.049   4.360   5.956
 8739SOL    HW127116   5.006   4.427   6.016
 8739SOL    HW227117   5.044   4.269   5.997
 8740SOL     OW27118   2.984   0.479   4.843
 8740SOL    HW127119   2.901   0.423   4.842
 8740SOL    HW227120   3.064   0.419   4.853
 8741SOL     OW27121   1.234   0.482   2.683
 8741SOL    HW127122   1.318   0.431   2.666
 8741SOL    HW227123   1.235   0.566   2.628
 8742SOL     OW27124   2.784   1.636   2.433
 8742SOL    HW127125   2.873   1.604   2.401
 8742SOL    HW227126   2.744   1.697   2.365
 8743SOL     OW27127   0.553   2.035   1.602
 8743SOL    HW127128   0.497   2.076   1.673
 8743SOL    HW227129   0.501   2.033   1.516
 8744SOL     OW27130   3.253   4.409   5.664
 8744SOL    HW127131   3.244   4.352   5.746
 8744SOL    HW227132   3.246   4.351   5.582
 8745SOL     OW27133   5.543   1.053   6.269
 8745SOL    HW127134   5.590   1.139   6.289
 8745SOL    HW227135   5.547   0.993   6.349
 8746SOL     OW27136   4.952   5.527   5.249
 8746SOL    HW127137   5.021   5.460   5.219
 8746SOL    HW227138   4.862   5.484   5.249
 8747SOL     OW27139   0.522   0.249   2.380
 8747SOL    HW127140   0.520   0.259   2.280
 8747SOL    HW227141   0.615   0.266   2.413
 8748SOL     OW27142   6.578   1.971   3.692
 8748SOL    HW127143   6.651   2.031   3.724
 8748SOL    HW227144   6.592   1.879   3.730
 8749SOL     OW27145   2.506   1.557   4.150
 8749SOL    HW127146   2.447   1.537   4.071
 8749SOL    HW227147   2.489   1.490   4.222
 8750SOL     OW27148   4.053   3.872   0.164
 8750SOL    HW127149   4.102   3.849   0.247
 8750SOL    HW227150   3.955   3.880   0.183
 8751SOL     OW27151   1.860   6.248   0.880
 8751SOL    HW127152   1.930   6.320   0.884
 8751SOL    HW227153   1.903   6.163   0.851
 8752SOL     OW27154   6.077   2.917   5.787
 8752SOL    HW127155   5.993   2.967   5.807
 8752SOL    HW227156   6.154   2.980   5.788
 8753SOL     OW27157   2.477   2.499   1.055
 8753SOL    HW127158   2.472   2.400   1.039
 8753SOL    HW227159   2.539   2.517   1.132
 8754SOL     OW27160   1.750   5.031   6.684
 8754SOL    HW127161   1.673   5.003   6.626
 8754SOL    HW227162   1.806   5.097   6.634
 8755SOL     OW27163   6.935   2.778   1.468
 8755SOL    HW127164   6.894   2.735   1.388
 8755SOL    HW227165   6.880   2.757   1.549
 8756SOL     OW27166   2.098   2.040   1.731
 8756SOL    HW127167   2.192   2.033   1.696
 8756SOL    HW227168   2.055   1.950   1.729
 8757SOL     OW27169   5.460   6.045   5.374
 8757SOL    HW127170   5.504   5.957   5.362
 8757SOL    HW227171   5.436   6.057   5.471
 8758SOL     OW27172   3.662   5.633   5.037
 8758SOL    HW127173   3.669   5.534   5.048
 8758SOL    HW227174   3.607   5.654   4.956
 8759SOL     OW27175   5.912   0.541   0.601
 8759SOL    HW127176   5.877   0.598   0.675
 8759SOL    HW227177   5.939   0.452   0.637
 8760SOL     OW27178   2.737   2.341   4.017
 8760SOL    HW127179   2.723   2.272   4.088
 8760SOL    HW227180   2.835   2.346   3.995
 8761SOL     OW27181   5.517   1.589   2.341
 8761SOL    HW127182   5.567   1.548   2.418
 8761SOL    HW227183   5.562   1.673   2.313
 8762SOL     OW27184   2.612   5.177   2.989
 8762SOL    HW127185   2.539   5.113   2.964
 8762SOL    HW227186   2.684   5.128   3.038
 8763SOL     OW27187   0.523   0.667   7.014
 8763SOL    HW127188   0.545   0.738   6.948
 8763SOL    HW227189   0.589   0.669   0.065
 8764SOL     OW27190   2.912   5.086   5.167
 8764SOL    HW127191   2.817   5.057   5.162
 8764SOL    HW227192   2.971   5.014   5.129
 8765SOL     OW27193   4.810   0.021   4.555
 8765SOL    HW127194   4.743   6.982   4.595
 8765SOL    HW227195   4.780   0.047   4.464
 8766SOL     OW27196   4.722   6.398   5.768
 8766SOL    HW127197   4.623   6.393   5.760
 8766SOL    HW227198   4.764   6.322   5.718
 8767SOL     OW27199   2.139   1.577   4.181
 8767SOL    HW127200   2.105   1.493   4.225
 8767SOL    HW227201   2.196   1.627   4.245
 8768SOL     OW27202   6.284   1.587   6.807
 8768SOL    HW127203   6.186   1.601   6.791
 8768SOL    HW227204   6.325   1.544   6.727
 8769SOL     OW27205   6.634   6.948   0.234
 8769SOL    HW127206   6.622   7.010   0.311
 8769SOL    HW227207   6.710   6.978   0.178
 8770SOL     OW27208   5.308   3.141   0.447
 8770SOL    HW127209   5.234   3.139   0.514
 8770SOL    HW227210   5.284   3.204   0.373
 8771SOL     OW27211   0.428   3.214   0.294
 8771SOL    HW127212   0.415   3.260   0.383
 8771SOL    HW227213   0.515   3.242   0.255
 8772SOL     OW27214   6.965   6.854   4.065
 8772SOL    HW127215   6.903   6.793   4.015
 8772SOL    HW227216   0.030   6.856   4.020
 8773SOL     OW27217   6.866   0.753   4.420
 8773SOL    HW127218   6.792   0.813   4.450
 8773SOL    HW227219   6.901   0.786   4.332
 8774SOL     OW27220   1.562   1.690   0.351
 8774SOL    HW127221   1.572   1.770   0.292
 8774SOL    HW227222   1.467   1.660   0.351
 8775SOL     OW27223   5.794   2.342   4.315
 8775SOL    HW127224   5.815   2.261   4.371
 8775SOL    HW227225   5.696   2.348   4.300
 8776SOL     OW27226   4.428   2.914   0.616
 8776SOL    HW127227   4.370   2.955   0.687
 8776SOL    HW227228   4.464   2.986   0.557
 8777SOL     OW27229   6.959   2.129   3.053
 8777SOL    HW127230   6.986   2.100   2.961
 8777SOL    HW227231   6.859   2.123   3.062
 8778SOL     OW27232   3.270   4.896   6.824
 8778SOL    HW127233   3.217   4.827   6.775
 8778SOL    HW227234   3.341   4.852   6.878
 8779SOL     OW27235   4.559   5.047   3.595
 8779SOL    HW127236   4.616   5.024   3.517
 8779SOL    HW227237   4.487   5.110   3.567
 8780SOL     OW27238   6.869   4.487   4.401
 8780SOL    HW127239   6.863   4.532   4.490
 8780SOL    HW227240   6.829   4.395   4.407
 8781SOL     OW27241   3.208   0.600   1.997
 8781SOL    HW127242   3.270   0.536   1.952
 8781SOL    HW227243   3.153   0.648   1.928
 8782SOL     OW27244   4.871   2.129   0.852
 8782SOL    HW127245   4.936   2.194   0.813
 8782SOL    HW227246   4.918   2.043   0.871
 8783SOL     OW27247   5.287   3.402   4.475
 8783SOL    HW127248   5.372   3.409   4.527
 8783SOL    HW227249   5.283   3.477   4.409
 8784SOL     OW27250   5.232   1.104   1.404
 8784SOL    HW127251   5.167   1.107   1.480
 8784SOL    HW227252   5.271   1.012   1.397
 8785SOL     OW27253   0.313   5.329   5.577
 8785SOL    HW127254   0.364   5.331   5.490
 8785SOL    HW227255   0.324   5.417   5.623
 8786SOL     OW27256   4.575   2.039   3.258
 8786SOL    HW127257   4.618   2.088   3.182
 8786SOL    HW227258   4.530   2.105   3.319
 8787SOL     OW27259   3.709   6.215   1.232
 8787SOL    HW127260   3.730   6.195   1.328
 8787SOL    HW227261   3.700   6.129   1.181
 8788SOL     OW27262   1.064   6.930   3.914
 8788SOL    HW127263   0.969   6.958   3.919
 8788SOL    HW227264   1.104   6.963   3.828
 8789SOL     OW27265   0.036   2.788   6.656
 8789SOL    HW127266   6.979   2.731   6.641
 8789SOL    HW227267   0.112   2.731   6.688
 8790SOL     OW27268   4.869   3.828   5.539
 8790SOL    HW127269   4.902   3.795   5.627
 8790SOL    HW227270   4.833   3.751   5.486
 8791SOL     OW27271   3.795   5.920   4.800
 8791SOL    HW127272   3.697   5.908   4.817
 8791SOL    HW227273   3.811   6.009   4.757
 8792SOL     OW27274   4.851   4.848   1.664
 8792SOL    HW127275   4.893   4.762   1.692
 8792SOL    HW227276   4.797   4.886   1.740
 8793SOL     OW27277   0.150   5.668   4.292
 8793SOL    HW127278   0.141   5.573   4.323
 8793SOL    HW227279   0.215   5.672   4.216
 8794SOL     OW27280   0.020   1.085   2.501
 8794SOL    HW127281   0.007   0.988   2.481
 8794SOL    HW227282   0.062   1.130   2.422
 8795SOL     OW27283   1.250   5.941   7.018
 8795SOL    HW127284   1.302   5.989   0.064
 8795SOL    HW227285   1.251   5.843   0.014
 8796SOL     OW27286   6.447   3.281   3.655
 8796SOL    HW127287   6.414   3.192   3.687
 8796SOL    HW227288   6.439   3.348   3.728
 8797SOL     OW27289   4.822   6.919   4.004
 8797SOL    HW127290   4.782   7.010   3.998
 8797SOL    HW227291   4.914   6.920   3.965
 8798SOL     OW27292   3.177   0.025   5.869
 8798SOL    HW127293   3.149   6.972   5.811
 8798SOL    HW227294   3.224   7.013   5.950
 8799SOL     OW27295   0.799   4.741   1.867
 8799SOL    HW127296   0.775   4.838   1.860
 8799SOL    HW227297   0.821   4.720   1.963
 8800SOL     OW27298   0.263   5.600   5.316
 8800SOL    HW127299   0.330   5.583   5.388
 8800SOL    HW227300   0.309   5.647   5.240
 8801SOL     OW27301   5.563   3.174   5.616
 8801SOL    HW127302   5.473   3.217   5.607
 8801SOL    HW227303   5.556   3.092   5.673
 8802SOL     OW27304   1.333   6.639   6.622
 8802SOL    HW127305   1.385   6.644   6.537
 8802SOL    HW227306   1.322   6.544   6.649
 8803SOL     OW27307   6.463   6.610   6.550
 8803SOL    HW127308   6.516   6.529   6.575
 8803SOL    HW227309   6.366   6.586   6.542
 8804SOL     OW27310   1.750   6.184   2.762
 8804SOL    HW127311   1.693   6.111   2.801
 8804SOL    HW227312   1.763   6.256   2.830
 8805SOL     OW27313   5.636   4.877   3.738
 8805SOL    HW127314   5.555   4.820   3.722
 8805SOL    HW227315   5.628   4.924   3.825
 8806SOL     OW27316   1.827   0.301   0.984
 8806SOL    HW127317   1.806   0.314   1.081
 8806SOL    HW227318   1.755   0.245   0.942
 8807SOL     OW27319   4.983   2.823   1.331
 8807SOL    HW127320   4.956   2.899   1.272
 8807SOL    HW227321   4.909   2.756   1.335
 8808SOL     OW27322   1.733   2.547   7.013
 8808SOL    HW127323   1.790   2.506   0.061
 8808SOL    HW227324   1.791   2.574   6.936
 8809SOL     OW27325   0.520   3.891   3.208
 8809SOL    HW127326   0.578   3.819   3.168
 8809SOL    HW227327   0.572   3.976   3.211
 8810SOL     OW27328   0.588   1.086   5.221
 8810SOL    HW127329   0.682   1.053   5.215
 8810SOL    HW227330   0.524   1.009   5.215
 8811SOL     OW27331   4.035   5.323   2.295
 8811SOL    HW127332   4.078   5.233   2.287
 8811SOL    HW227333   3.939   5.313   2.321
 8812SOL     OW27334   4.556   1.134   6.501
 8812SOL    HW127335   4.529   1.219   6.456
 8812SOL    HW227336   4.635   1.151   6.560
 8813SOL     OW27337   2.205   3.917   3.485
 8813SOL    HW127338   2.171   3.845   3.546
 8813SOL    HW227339   2.241   3.875   3.401
 8814SOL     OW27340   5.268   0.759   5.754
 8814SOL    HW127341   5.345   0.810   5.716
 8814SOL    HW227342   5.282   0.744   5.851
 8815SOL     OW27343   5.447   1.104   0.029
 8815SOL    HW127344   5.450   1.007   0.055
 8815SOL    HW227345   5.360   1.143   0.060
 8816SOL     OW27346   1.274   5.803   4.737
 8816SOL    HW127347   1.194   5.812   4.796
 8816SOL    HW227348   1.342   5.746   4.782
 8817SOL     OW27349   1.550   2.577   3.345
 8817SOL    HW127350   1.612   2.653   3.365
 8817SOL    HW227351   1.466   2.587   3.398
 8818SOL     OW27352   1.313   0.452   5.502
 8818SOL    HW127353   1.213   0.448   5.491
 8818SOL    HW227354   1.336   0.445   5.599
 8819SOL     OW27355   5.112   4.921   6.381
 8819SOL    HW127356   5.048   4.978   6.432
 8819SOL    HW227357   5.067   4.835   6.356
 8820SOL     OW27358   3.324   0.470   5.318
 8820SOL    HW127359   3.265   0.399   5.356
 8820SOL    HW227360   3.270   0.553   5.304
 8821SOL     OW27361   6.593   4.519   6.583
 8821SOL    HW127362   6.503   4.510   6.627
 8821SOL    HW227363   6.584   4.572   6.499
 8822SOL     OW27364   6.541   0.028   4.212
 8822SOL    HW127365   6.525   0.107   4.271
 8822SOL    HW227366   6.622   7.003   4.245
 8823SOL     OW27367   3.864   1.447   2.814
 8823SOL    HW127368   3.809   1.522   2.778
 8823SOL    HW227369   3.927   1.483   2.882
 8824SOL     OW27370   1.602   0.860   1.835
 8824SOL    HW127371   1.559   0.809   1.910
 8824SOL    HW227372   1.532   0.909   1.783
 8825SOL     OW27373   0.168   5.835   0.198
 8825SOL    HW127374   0.174   5.926   0.239
 8825SOL    HW227375   0.074   5.818   0.169
 8826SOL     OW27376   1.538   4.061   0.960
 8826SOL    HW127377   1.556   3.979   0.905
 8826SOL    HW227378   1.467   4.116   0.915
 8827SOL     OW27379   4.868   0.406   3.009
 8827SOL    HW127380   4.815   0.322   3.002
 8827SOL    HW227381   4.825   0.477   2.953
 8828SOL     OW27382   3.596   2.213   6.071
 8828SOL    HW127383   3.516   2.238   6.016
 8828SOL    HW227384   3.579   2.124   6.114
 8829SOL     OW27385   6.789   1.153   1.922
 8829SOL    HW127386   6.735   1.190   1.997
 8829SOL    HW227387   6.774   1.054   1.916
 8830SOL     OW27388   2.527   0.748   3.171
 8830SOL    HW127389   2.546   0.651   3.157
 8830SOL    HW227390   2.590   0.786   3.239
 8831SOL     OW27391   0.455   2.536   1.817
 8831SOL    HW127392   0.477   2.633   1.802
 8831SOL    HW227393   0.455   2.488   1.729
 8832SOL     OW27394   5.739   0.775   4.737
 8832SOL    HW127395   5.802   0.732   4.802
 8832SOL    HW227396   5.709   0.863   4.773
 8833SOL     OW27397   4.782   2.615   1.273
 8833SOL    HW127398   4.811   2.536   1.327
 8833SOL    HW227399   4.773   2.589   1.177
 8834SOL     OW27400   5.293   4.169   5.716
 8834SOL    HW127401   5.390   4.160   5.695
 8834SOL    HW227402   5.282   4.222   5.801
 8835SOL     OW27403   0.108   0.245   6.377
 8835SOL    HW127404   0.009   0.250   6.363
 8835SOL    HW227405   0.144   0.337   6.395
 8836SOL     OW27406   4.740   2.093   1.477
 8836SOL    HW127407   4.665   2.104   1.543
 8836SOL    HW227408   4.812   2.038   1.519
 8837SOL     OW27409   4.100   6.935   0.182
 8837SOL    HW127410   4.125   6.892   0.269
 8837SOL    HW227411   4.175   6.995   0.152
 8838SOL     OW27412   1.501   4.019   3.664
 8838SOL    HW127413   1.480   3.953   3.736
 8838SOL    HW227414   1.583   3.989   3.614
 8839SOL     OW27415   4.930   5.240   2.884
 8839SOL    HW127416   4.872   5.159   2.879
 8839SOL    HW227417   5.020   5.214   2.920
 8840SOL     OW27418   0.090   0.524   1.278
 8840SOL    HW127419   0.019   0.521   1.208
 8840SOL    HW227420   0.047   0.528   1.368
 8841SOL     OW27421   3.535   0.098   1.138
 8841SOL    HW127422   3.537   0.081   1.237
 8841SOL    HW227423   3.517   0.012   1.090
 8842SOL     OW27424   4.135   3.403   4.717
 8842SOL    HW127425   4.178   3.480   4.671
 8842SOL    HW227426   4.139   3.322   4.658
 8843SOL     OW27427   2.746   6.102   6.555
 8843SOL    HW127428   2.779   6.010   6.572
 8843SOL    HW227429   2.782   6.135   6.467
 8844SOL     OW27430   3.628   2.157   6.461
 8844SOL    HW127431   3.669   2.067   6.453
 8844SOL    HW227432   3.608   2.177   6.557
 8845SOL     OW27433   6.144   4.030   2.051
 8845SOL    HW127434   6.049   4.052   2.071
 8845SOL    HW227435   6.170   3.946   2.099
 8846SOL     OW27436   5.801   4.698   5.121
 8846SOL    HW127437   5.852   4.748   5.191
 8846SOL    HW227438   5.708   4.734   5.115
 8847SOL     OW27439   2.339   1.449   3.955
 8847SOL    HW127440   2.266   1.386   3.984
 8847SOL    HW227441   2.388   1.409   3.878
 8848SOL     OW27442   4.348   1.672   0.456
 8848SOL    HW127443   4.413   1.742   0.424
 8848SOL    HW227444   4.398   1.598   0.501
 8849SOL     OW27445   2.877   4.963   4.338
 8849SOL    HW127446   2.954   5.025   4.326
 8849SOL    HW227447   2.845   4.967   4.433
 8850SOL     OW27448   3.174   0.672   1.512
 8850SOL    HW127449   3.266   0.690   1.548
 8850SOL    HW227450   3.171   0.698   1.415
 8851SOL     OW27451   6.755   5.085   2.164
 8851SOL    HW127452   6.816   5.032   2.223
 8851SOL    HW227453   6.778   5.182   2.169
 8852SOL     OW27454   4.628   2.749   4.531
 8852SOL    HW127455   4.539   2.781   4.498
 8852SOL    HW227456   4.654   2.800   4.613
 8853SOL     OW27457   4.311   1.644   5.719
 8853SOL    HW127458   4.339   1.625   5.625
 8853SOL    HW227459   4.392   1.656   5.776
 8854SOL     OW27460   1.186   1.964   6.952
 8854SOL    HW127461   1.147   1.894   6.892
 8854SOL    HW227462   1.115   1.997   7.014
 8855SOL     OW27463   6.167   5.586   0.166
 8855SOL    HW127464   6.259   5.580   0.127
 8855SOL    HW227465   6.134   5.493   0.187
 8856SOL     OW27466   5.751   1.187   4.113
 8856SOL    HW127467   5.783   1.092   4.111
 8856SOL    HW227468   5.717   1.210   4.204
 8857SOL     OW27469   0.081   2.874   4.911
 8857SOL    HW127470   0.040   2.857   5.001
 8857SOL    HW227471   0.126   2.790   4.878
 8858SOL     OW27472   0.063   3.931   6.669
 8858SOL    HW127473   7.002   3.983   6.670
 8858SOL    HW227474   0.063   3.866   6.746
 8859SOL     OW27475   3.053   5.014   5.579
 8859SOL    HW127476   3.146   5.051   5.579
 8859SOL    HW227477   2.992   5.077   5.532
 8860SOL     OW27478   1.293   2.252   1.644
 8860SOL    HW127479   1.250   2.219   1.560
 8860SOL    HW227480   1.231   2.234   1.721
 8861SOL     OW27481   3.143   3.485   6.995
 8861SOL    HW127482   3.070   3.418   7.006
 8861SOL    HW227483   3.107   3.568   6.953
 8862SOL     OW27484   6.619   2.305   4.620
 8862SOL    HW127485   6.697   2.263   4.573
 8862SOL    HW227486   6.652   2.367   4.691
 8863SOL     OW27487   2.156   5.453   4.964
 8863SOL    HW127488   2.206   5.418   4.885
 8863SOL    HW227489   2.199   5.537   4.997
 8864SOL     OW27490   0.856   2.456   6.225
 8864SOL    HW127491   0.878   2.358   6.228
 8864SOL    HW227492   0.760   2.468   6.200
 8865SOL     OW27493   2.696   2.438   6.491
 8865SOL    HW127494   2.679   2.474   6.399
 8865SOL    HW227495   2.754   2.357   6.485
 8866SOL     OW27496   3.983   6.840   4.359
 8866SOL    HW127497   3.964   6.779   4.282
 8866SOL    HW227498   4.047   6.911   4.331
 8867SOL     OW27499   0.257   3.214   3.745
 8867SOL    HW127500   0.203   3.298   3.737
 8867SOL    HW227501   0.205   3.146   3.798
 8868SOL     OW27502   4.100   3.585   0.931
 8868SOL    HW127503   4.124   3.530   1.010
 8868SOL    HW227504   4.114   3.682   0.952
 8869SOL     OW27505   5.694   2.677   4.113
 8869SOL    HW127506   5.755   2.703   4.188
 8869SOL    HW227507   5.748   2.659   4.031
 8870SOL     OW27508   4.439   1.426   1.108
 8870SOL    HW127509   4.446   1.510   1.054
 8870SOL    HW227510   4.524   1.375   1.101
 8871SOL     OW27511   1.748   1.944   4.833
 8871SOL    HW127512   1.773   2.041   4.844
 8871SOL    HW227513   1.819   1.899   4.779
 8872SOL     OW27514   1.663   3.163   3.740
 8872SOL    HW127515   1.740   3.112   3.777
 8872SOL    HW227516   1.586   3.101   3.725
 8873SOL     OW27517   0.307   5.899   4.886
 8873SOL    HW127518   0.326   5.990   4.923
 8873SOL    HW227519   0.343   5.892   4.793
 8874SOL     OW27520   2.284   1.030   0.475
 8874SOL    HW127521   2.257   1.126   0.488
 8874SOL    HW227522   2.383   1.025   0.462
 8875SOL     OW27523   1.573   2.286   4.333
 8875SOL    HW127524   1.554   2.188   4.321
 8875SOL    HW227525   1.618   2.301   4.420
 8876SOL     OW27526   1.610   6.879   4.417
 8876SOL    HW127527   1.648   6.971   4.405
 8876SOL    HW227528   1.676   6.822   4.467
 8877SOL     OW27529   2.857   6.793   5.043
 8877SOL    HW127530   2.842   6.800   5.142
 8877SOL    HW227531   2.897   6.704   5.022
 8878SOL     OW27532   6.011   4.409   6.599
 8878SOL    HW127533   6.003   4.481   6.668
 8878SOL    HW227534   5.946   4.336   6.621
 8879SOL     OW27535   4.370   5.824   4.356
 8879SOL    HW127536   4.435   5.754   4.387
 8879SOL    HW227537   4.278   5.785   4.352
 8880SOL     OW27538   0.020   5.381   5.593
 8880SOL    HW127539   6.973   5.354   5.528
 8880SOL    HW227540   0.108   5.344   5.564
 8881SOL     OW27541   6.691   0.711   1.686
 8881SOL    HW127542   6.591   0.713   1.691
 8881SOL    HW227543   6.722   0.618   1.667
 8882SOL     OW27544   5.689   1.857   6.713
 8882SOL    HW127545   5.594   1.842   6.743
 8882SOL    HW227546   5.752   1.816   6.779
 8883SOL     OW27547   6.758   1.285   5.849
 8883SOL    HW127548   6.769   1.368   5.905
 8883SOL    HW227549   6.729   1.311   5.757
 8884SOL     OW27550   6.493   0.565   5.674
 8884SOL    HW127551   6.415   0.506   5.695
 8884SOL    HW227552   6.545   0.583   5.757
 8885SOL     OW27553   5.162   3.867   1.363
 8885SOL    HW127554   5.065   3.863   1.343
 8885SOL    HW227555   5.204   3.778   1.348
 8886SOL     OW27556   3.278   0.021   6.855
 8886SOL    HW127557   3.370   7.004   6.856
 8886SOL    HW227558   3.282   0.110   6.899
 8887SOL     OW27559   2.703   0.605   1.209
 8887SOL    HW127560   2.767   0.673   1.174
 8887SOL    HW227561   2.641   0.648   1.274
 8888SOL     OW27562   2.798   1.729   2.685
 8888SOL    HW127563   2.792   1.679   2.599
 8888SOL    HW227564   2.886   1.711   2.729
 8889SOL     OW27565   4.227   0.171   5.447
 8889SOL    HW127566   4.229   0.182   5.347
 8889SOL    HW227567   4.233   0.074   5.470
 8890SOL     OW27568   0.890   4.939   4.306
 8890SOL    HW127569   0.845   4.867   4.358
 8890SOL    HW227570   0.990   4.929   4.314
 8891SOL     OW27571   3.924   2.102   6.559
 8891SOL    HW127572   3.862   2.028   6.587
 8891SOL    HW227573   3.892   2.188   6.600
 8892SOL     OW27574   1.087   5.790   2.524
 8892SOL    HW127575   1.105   5.880   2.483
 8892SOL    HW227576   1.140   5.780   2.608
 8893SOL     OW27577   0.595   1.233   1.163
 8893SOL    HW127578   0.559   1.292   1.090
 8893SOL    HW227579   0.669   1.176   1.126
 8894SOL     OW27580   4.100   2.920   6.423
 8894SOL    HW127581   4.191   2.955   6.447
 8894SOL    HW227582   4.108   2.858   6.345
 8895SOL     OW27583   0.388   6.170   2.758
 8895SOL    HW127584   0.414   6.128   2.846
 8895SOL    HW227585   0.469   6.177   2.700
 8896SOL     OW27586   1.634   3.871   4.990
 8896SOL    HW127587   1.705   3.916   4.936
 8896SOL    HW227588   1.669   3.783   5.024
 8897SOL     OW27589   1.549   2.374   1.220
 8897SOL    HW127590   1.594   2.377   1.131
 8897SOL    HW227591   1.477   2.304   1.217
 8898SOL     OW27592   5.763   4.119   4.644
 8898SOL    HW127593   5.672   4.113   4.684
 8898SOL    HW227594   5.824   4.166   4.708
 8899SOL     OW27595   2.217   4.132   0.067
 8899SOL    HW127596   2.206   4.165   6.997
 8899SOL    HW227597   2.225   4.033   0.068
 8900SOL     OW27598   5.526   2.371   3.150
 8900SOL    HW127599   5.560   2.428   3.225
 8900SOL    HW227600   5.582   2.386   3.069
 8901SOL     OW27601   1.802   6.998   3.016
 8901SOL    HW127602   1.836   6.974   3.107
 8901SOL    HW227603   1.765   0.067   3.018
 8902SOL     OW27604   1.732   5.521   5.942
 8902SOL    HW127605   1.726   5.432   5.986
 8902SOL    HW227606   1.792   5.514   5.862
 8903SOL     OW27607   1.779   1.362   3.163
 8903SOL    HW127608   1.811   1.361   3.068
 8903SOL    HW227609   1.722   1.443   3.178
 8904SOL     OW27610   1.556   6.198   3.096
 8904SOL    HW127611   1.516   6.285   3.124
 8904SOL    HW227612   1.651   6.212   3.067
 8905SOL     OW27613   2.550   4.167   5.329
 8905SOL    HW127614   2.540   4.148   5.427
 8905SOL    HW227615   2.484   4.113   5.277
 8906SOL     OW27616   0.768   5.885   5.740
 8906SOL    HW127617   0.671   5.870   5.721
 8906SOL    HW227618   0.823   5.832   5.675
 8907SOL     OW27619   3.430   2.735   5.511
 8907SOL    HW127620   3.420   2.658   5.449
 8907SOL    HW227621   3.480   2.809   5.465
 8908SOL     OW27622   0.470   2.445   1.057
 8908SOL    HW127623   0.396   2.378   1.045
 8908SOL    HW227624   0.545   2.402   1.108
 8909SOL     OW27625   2.737   0.138   6.260
 8909SOL    HW127626   2.656   0.097   6.303
 8909SOL    HW227627   2.786   0.193   6.327
 8910SOL     OW27628   3.623   3.882   6.747
 8910SOL    HW127629   3.701   3.945   6.747
 8910SOL    HW227630   3.619   3.834   6.834
 8911SOL     OW27631   3.288   2.179   3.851
 8911SOL    HW127632   3.218   2.205   3.918
 8911SOL    HW227633   3.348   2.110   3.891
 8912SOL     OW27634   4.912   3.082   5.814
 8912SOL    HW127635   4.932   3.025   5.894
 8912SOL    HW227636   4.982   3.153   5.805
 8913SOL     OW27637   5.018   3.830   0.682
 8913SOL    HW127638   5.112   3.864   0.679
 8913SOL    HW227639   4.968   3.876   0.755
 8914SOL     OW27640   4.120   2.149   4.622
 8914SOL    HW127641   4.161   2.214   4.558
 8914SOL    HW227642   4.023   2.138   4.601
 8915SOL     OW27643   1.237   5.215   2.000
 8915SOL    HW127644   1.179   5.225   2.081
 8915SOL    HW227645   1.306   5.287   2.000
 8916SOL     OW27646   6.527   3.531   2.116
 8916SOL    HW127647   6.554   3.627   2.111
 8916SOL    HW227648   6.594   3.481   2.170
 8917SOL     OW27649   6.022   5.463   6.411
 8917SOL    HW127650   6.006   5.417   6.324
 8917SOL    HW227651   5.935   5.485   6.454
 8918SOL     OW27652   4.789   5.253   6.658
 8918SOL    HW127653   4.815   5.349   6.674
 8918SOL    HW227654   4.690   5.243   6.671
 8919SOL     OW27655   2.246   4.508   0.689
 8919SOL    HW127656   2.148   4.489   0.702
 8919SOL    HW227657   2.296   4.422   0.687
 8920SOL     OW27658   6.365   5.876   5.824
 8920SOL    HW127659   6.278   5.827   5.824
 8920SOL    HW227660   6.412   5.861   5.737
 8921SOL     OW27661   1.529   6.996   3.681
 8921SOL    HW127662   1.597   6.949   3.737
 8921SOL    HW227663   1.570   7.023   3.594
 8922SOL     OW27664   6.548   4.055   6.917
 8922SOL    HW127665   6.630   4.011   6.953
 8922SOL    HW227666   6.568   4.151   6.898
 8923SOL     OW27667   2.226   4.318   5.733
 8923SOL    HW127668   2.288   4.255   5.779
 8923SOL    HW227669   2.170   4.366   5.800
 8924SOL     OW27670   2.821   5.290   5.725
 8924SOL    HW127671   2.786   5.366   5.781
 8924SOL    HW227672   2.907   5.318   5.682
 8925SOL     OW27673   6.468   6.605   1.727
 8925SOL    HW127674   6.508   6.662   1.655
 8925SOL    HW227675   6.539   6.546   1.766
 8926SOL     OW27676   5.738   1.417   0.946
 8926SOL    HW127677   5.704   1.362   0.869
 8926SOL    HW227678   5.826   1.381   0.976
 8927SOL     OW27679   2.086   2.076   5.384
 8927SOL    HW127680   2.113   2.172   5.387
 8927SOL    HW227681   2.165   2.020   5.358
 8928SOL     OW27682   0.075   6.983   5.161
 8928SOL    HW127683   0.157   6.934   5.189
 8928SOL    HW227684   0.053   6.959   5.066
 8929SOL     OW27685   6.117   3.685   3.572
 8929SOL    HW127686   6.172   3.764   3.548
 8929SOL    HW227687   6.036   3.715   3.623
 8930SOL     OW27688   0.402   4.979   4.994
 8930SOL    HW127689   0.447   4.895   4.964
 8930SOL    HW227690   0.400   4.982   5.094
 8931SOL     OW27691   5.295   0.924   0.705
 8931SOL    HW127692   5.204   0.936   0.666
 8931SOL    HW227693   5.364   0.936   0.634
 8932SOL     OW27694   6.987   0.633   6.764
 8932SOL    HW127695   7.018   0.555   6.710
 8932SOL    HW227696   6.994   0.610   6.861
 8933SOL     OW27697   1.515   6.460   5.682
 8933SOL    HW127698   1.603   6.476   5.638
 8933SOL    HW227699   1.523   6.386   5.748
 8934SOL     OW27700   4.158   6.543   2.921
 8934SOL    HW127701   4.249   6.520   2.956
 8934SOL    HW227702   4.167   6.613   2.850
 8935SOL     OW27703   5.561   2.623   2.931
 8935SOL    HW127704   5.505   2.634   2.848
 8935SOL    HW227705   5.502   2.599   3.008
 8936SOL     OW27706   1.453   4.870   2.233
 8936SOL    HW127707   1.434   4.784   2.280
 8936SOL    HW227708   1.460   4.853   2.135
 8937SOL     OW27709   5.121   6.727   5.091
 8937SOL    HW127710   5.133   6.733   5.190
 8937SOL    HW227711   5.201   6.682   5.050
 8938SOL     OW27712   5.963   0.365   1.425
 8938SOL    HW127713   5.886   0.429   1.422
 8938SOL    HW227714   6.005   0.368   1.516
 8939SOL     OW27715   0.143   3.476   3.769
 8939SOL    HW127716   0.052   3.488   3.808
 8939SOL    HW227717   0.172   3.561   3.726
 8940SOL     OW27718   6.215   2.123   0.606
 8940SOL    HW127719   6.194   2.073   0.522
 8940SOL    HW227720   6.202   2.063   0.685
 8941SOL     OW27721   4.237   2.850   1.684
 8941SOL    HW127722   4.252   2.794   1.602
 8941SOL    HW227723   4.147   2.828   1.723
 8942SOL     OW27724   5.914   4.068   4.456
 8942SOL    HW127725   5.838   4.039   4.397
 8942SOL    HW227726   5.878   4.097   4.545
 8943SOL     OW27727   4.421   4.273   0.319
 8943SOL    HW127728   4.428   4.248   0.416
 8943SOL    HW227729   4.411   4.372   0.311
 8944SOL     OW27730   5.611   5.379   4.902
 8944SOL    HW127731   5.546   5.454   4.895
 8944SOL    HW227732   5.564   5.296   4.932
 8945SOL     OW27733   5.505   4.280   3.850
 8945SOL    HW127734   5.494   4.276   3.751
 8945SOL    HW227735   5.452   4.206   3.892
 8946SOL     OW27736   4.808   0.857   5.545
 8946SOL    HW127737   4.758   0.771   5.554
 8946SOL    HW227738   4.906   0.840   5.553
 8947SOL     OW27739   2.172   5.448   6.900
 8947SOL    HW127740   2.260   5.439   6.948
 8947SOL    HW227741   2.098   5.424   6.961
 8948SOL     OW27742   5.645   1.221   2.465
 8948SOL    HW127743   5.681   1.163   2.538
 8948SOL    HW227744   5.573   1.280   2.502
 8949SOL     OW27745   3.689   6.228   0.832
 8949SOL    HW127746   3.646   6.139   0.848
 8949SOL    HW227747   3.647   6.297   0.891
 8950SOL     OW27748   3.728   3.376   0.824
 8950SOL    HW127749   3.733   3.430   0.907
 8950SOL    HW227750   3.662   3.301   0.836
 8951SOL     OW27751   1.783   1.303   4.364
 8951SOL    HW127752   1.690   1.302   4.402
 8951SOL    HW227753   1.812   1.397   4.348
 8952SOL     OW27754   2.224   3.991   4.254
 8952SOL    HW127755   2.174   3.937   4.186
 8952SOL    HW227756   2.165   4.063   4.290
 8953SOL     OW27757   1.173   4.478   1.211
 8953SOL    HW127758   1.117   4.434   1.141
 8953SOL    HW227759   1.183   4.575   1.190
 8954SOL     OW27760   2.456   5.087   5.654
 8954SOL    HW127761   2.468   5.143   5.572
 8954SOL    HW227762   2.545   5.059   5.690
 8955SOL     OW27763   6.110   2.234   4.442
 8955SOL    HW127764   6.036   2.297   4.464
 8955SOL    HW227765   6.180   2.281   4.389
 8956SOL     OW27766   0.869   5.649   7.003
 8956SOL    HW127767   0.784   5.632   6.953
 8956SOL    HW227768   0.849   5.653   0.077
 8957SOL     OW27769   6.704   6.147   3.029
 8957SOL    HW127770   6.688   6.049   3.014
 8957SOL    HW227771   6.796   6.170   2.998
 8958SOL     OW27772   1.762   2.963   5.033
 8958SOL    HW127773   1.820   3.008   5.101
 8958SOL    HW227774   1.799   2.980   4.941
 8959SOL     OW27775   6.605   2.837   2.436
 8959SOL    HW127776   6.680   2.819   2.500
 8959SOL    HW227777   6.544   2.907   2.475
 8960SOL     OW27778   5.533   4.239   3.290
 8960SOL    HW127779   5.526   4.176   3.367
 8960SOL    HW227780   5.447   4.289   3.280
 8961SOL     OW27781   1.871   1.141   5.230
 8961SOL    HW127782   1.962   1.101   5.241
 8961SOL    HW227783   1.822   1.093   5.156
 8962SOL     OW27784   6.990   5.637   2.410
 8962SOL    HW127785   6.913   5.700   2.406
 8962SOL    HW227786   6.962   5.547   2.375
 8963SOL     OW27787   4.864   6.853   5.101
 8963SOL    HW127788   4.902   6.914   5.171
 8963SOL    HW227789   4.932   6.784   5.077
 8964SOL     OW27790   1.271   3.135   4.606
 8964SOL    HW127791   1.254   3.081   4.689
 8964SOL    HW227792   1.188   3.136   4.549
 8965SOL     OW27793   3.992   5.815   6.037
 8965SOL    HW127794   3.980   5.891   5.972
 8965SOL    HW227795   3.962   5.730   5.994
 8966SOL     OW27796   4.084   5.554   5.004
 8966SOL    HW127797   4.080   5.538   5.103
 8966SOL    HW227798   4.161   5.503   4.966
 8967SOL     OW27799   3.044   7.004   4.020
 8967SOL    HW127800   3.027   0.013   3.927
 8967SOL    HW227801   3.132   6.957   4.022
 8968SOL     OW27802   3.796   5.312   2.394
 8968SOL    HW127803   3.794   5.278   2.488
 8968SOL    HW227804   3.723   5.378   2.381
 8969SOL     OW27805   0.911   0.953   2.736
 8969SOL    HW127806   0.958   1.040   2.748
 8969SOL    HW227807   0.881   0.943   2.642
 8970SOL     OW27808   1.742   0.311   4.009
 8970SOL    HW127809   1.658   0.293   3.959
 8970SOL    HW227810   1.816   0.254   3.973
 8971SOL     OW27811   3.473   4.678   0.007
 8971SOL    HW127812   3.520   4.714   6.951
 8971SOL    HW227813   3.534   4.617   0.057
 8972SOL     OW27814   6.201   3.883   6.886
 8972SOL    HW127815   6.232   3.865   6.793
 8972SOL    HW227816   6.129   3.818   6.911
 8973SOL     OW27817   1.471   2.254   3.247
 8973SOL    HW127818   1.397   2.203   3.204
 8973SOL    HW227819   1.503   2.325   3.184
 8974SOL     OW27820   2.123   4.239   4.833
 8974SOL    HW127821   2.151   4.179   4.909
 8974SOL    HW227822   2.167   4.208   4.749
 8975SOL     OW27823   0.221   5.621   5.964
 8975SOL    HW127824   0.276   5.578   6.036
 8975SOL    HW227825   0.228   5.721   5.972
 8976SOL     OW27826   6.167   6.711   2.074
 8976SOL    HW127827   6.105   6.636   2.055
 8976SOL    HW227828   6.116   6.787   2.114
 8977SOL     OW27829   6.712   4.795   5.733
 8977SOL    HW127830   6.745   4.762   5.822
 8977SOL    HW227831   6.637   4.736   5.703
 8978SOL     OW27832   5.889   5.792   6.599
 8978SOL    HW127833   5.944   5.801   6.682
 8978SOL    HW227834   5.914   5.864   6.534
 8979SOL     OW27835   1.532   5.000   4.800
 8979SOL    HW127836   1.619   4.985   4.848
 8979SOL    HW227837   1.502   5.094   4.815
 8980SOL     OW27838   3.496   0.335   0.078
 8980SOL    HW127839   3.555   0.257   0.099
 8980SOL    HW227840   3.406   0.301   0.051
 8981SOL     OW27841   4.623   3.675   6.568
 8981SOL    HW127842   4.622   3.774   6.556
 8981SOL    HW227843   4.555   3.632   6.508
 8982SOL     OW27844   0.409   1.822   1.913
 8982SOL    HW127845   0.484   1.767   1.947
 8982SOL    HW227846   0.399   1.808   1.814
 8983SOL     OW27847   1.550   6.720   2.271
 8983SOL    HW127848   1.494   6.762   2.199
 8983SOL    HW227849   1.645   6.750   2.261
 8984SOL     OW27850   0.112   0.467   3.893
 8984SOL    HW127851   0.134   0.434   3.801
 8984SOL    HW227852   0.194   0.508   3.934
 8985SOL     OW27853   5.049   1.960   1.256
 8985SOL    HW127854   4.958   1.930   1.228
 8985SOL    HW227855   5.044   2.052   1.295
 8986SOL     OW27856   6.862   4.613   0.482
 8986SOL    HW127857   6.851   4.523   0.441
 8986SOL    HW227858   6.870   4.682   0.411
 8987SOL     OW27859   2.156   7.005   1.770
 8987SOL    HW127860   2.240   7.019   1.824
 8987SOL    HW227861   2.168   0.021   1.679
 8988SOL     OW27862   2.130   6.179   1.582
 8988SOL    HW127863   2.132   6.087   1.620
 8988SOL    HW227864   2.216   6.226   1.605
 8989SOL     OW27865   5.210   2.233   2.858
 8989SOL    HW127866   5.290   2.175   2.876
 8989SOL    HW227867   5.231   2.298   2.786
 8990SOL     OW27868   3.323   0.974   2.236
 8990SOL    HW127869   3.251   1.035   2.203
 8990SOL    HW227870   3.346   0.998   2.331
 8991SOL     OW27871   1.327   1.328   0.817
 8991SOL    HW127872   1.393   1.270   0.770
 8991SOL    HW227873   1.372   1.375   0.892
 8992SOL     OW27874   1.154   4.128   6.392
 8992SOL    HW127875   1.202   4.211   6.423
 8992SOL    HW227876   1.108   4.147   6.306
 8993SOL     OW27877   6.050   3.546   4.367
 8993SOL    HW127878   6.044   3.645   4.373
 8993SOL    HW227879   6.024   3.516   4.275
 8994SOL     OW27880   0.936   5.353   2.875
 8994SOL    HW127881   1.025   5.369   2.834
 8994SOL    HW227882   0.899   5.438   2.912
 8995SOL     OW27883   2.156   3.864   4.872
 8995SOL    HW127884   2.209   3.922   4.934
 8995SOL    HW227885   2.181   3.884   4.777
 8996SOL     OW27886   1.213   3.759   2.253
 8996SOL    HW127887   1.162   3.771   2.167
 8996SOL    HW227888   1.272   3.679   2.245
 8997SOL     OW27889   4.219   2.013   5.506
 8997SOL    HW127890   4.137   2.050   5.548
 8997SOL    HW227891   4.202   1.919   5.476
 8998SOL     OW27892   0.485   1.517   6.173
 8998SOL    HW127893   0.551   1.583   6.209
 8998SOL    HW227894   0.480   1.438   6.233
 8999SOL     OW27895   6.167   0.892   5.153
 8999SOL    HW127896   6.196   0.957   5.223
 8999SOL    HW227897   6.171   0.799   5.190
 9000SOL     OW27898   2.504   4.278   0.908
 9000SOL    HW127899   2.556   4.363   0.914
 9000SOL    HW227900   2.566   4.201   0.893
 9001SOL     OW27901   1.785   4.693   3.467
 9001SOL    HW127902   1.721   4.741   3.408
 9001SOL    HW227903   1.755   4.700   3.563
 9002SOL     OW27904   5.003   4.691   6.316
 9002SOL    HW127905   5.090   4.645   6.297
 9002SOL    HW227906   4.932   4.654   6.256
 9003SOL     OW27907   5.534   2.914   5.765
 9003SOL    HW127908   5.535   2.918   5.865
 9003SOL    HW227909   5.442   2.933   5.731
 9004SOL     OW27910   4.396   5.541   0.361
 9004SOL    HW127911   4.370   5.472   0.294
 9004SOL    HW227912   4.341   5.624   0.348
 9005SOL     OW27913   4.786   1.958   3.405
 9005SOL    HW127914   4.717   2.000   3.346
 9005SOL    HW227915   4.858   2.025   3.426
 9006SOL     OW27916   1.723   6.628   0.815
 9006SOL    HW127917   1.656   6.700   0.834
 9006SOL    HW227918   1.713   6.555   0.883
 9007SOL     OW27919   3.083   6.353   4.801
 9007SOL    HW127920   3.131   6.266   4.807
 9007SOL    HW227921   3.098   6.406   4.885
 9008SOL     OW27922   6.488   4.630   2.684
 9008SOL    HW127923   6.497   4.649   2.781
 9008SOL    HW227924   6.549   4.556   2.658
 9009SOL     OW27925   3.997   6.215   1.409
 9009SOL    HW127926   3.963   6.132   1.365
 9009SOL    HW227927   4.039   6.191   1.497
 9010SOL     OW27928   1.220   6.168   5.239
 9010SOL    HW127929   1.255   6.076   5.221
 9010SOL    HW227930   1.267   6.206   5.319
 9011SOL     OW27931   4.068   1.948   1.539
 9011SOL    HW127932   4.100   1.953   1.445
 9011SOL    HW227933   4.069   1.852   1.570
 9012SOL     OW27934   6.537   5.756   1.480
 9012SOL    HW127935   6.532   5.658   1.503
 9012SOL    HW227936   6.522   5.810   1.562
 9013SOL     OW27937   4.996   6.111   3.715
 9013SOL    HW127938   5.000   6.077   3.621
 9013SOL    HW227939   4.901   6.109   3.747
 9014SOL     OW27940   3.462   1.335   0.737
 9014SOL    HW127941   3.479   1.265   0.667
 9014SOL    HW227942   3.468   1.292   0.828
 9015SOL     OW27943   6.741   1.450   5.593
 9015SOL    HW127944   6.683   1.527   5.618
 9015SOL    HW227945   6.736   1.435   5.494
 9016SOL     OW27946   6.838   6.302   5.917
 9016SOL    HW127947   6.917   6.294   5.978
 9016SOL    HW227948   6.758   6.261   5.962
 9017SOL     OW27949   0.203   3.867   3.971
 9017SOL    HW127950   0.249   3.877   3.883
 9017SOL    HW227951   0.117   3.918   3.970
 9018SOL     OW27952   3.621   2.359   5.434
 9018SOL    HW127953   3.635   2.412   5.518
 9018SOL    HW227954   3.567   2.278   5.454
 9019SOL     OW27955   1.873   6.808   0.439
 9019SOL    HW127956   1.891   6.827   0.342
 9019SOL    HW227957   1.794   6.748   0.447
 9020SOL     OW27958   0.194   5.091   2.899
 9020SOL    HW127959   0.206   5.008   2.953
 9020SOL    HW227960   0.098   5.099   2.870
 9021SOL     OW27961   6.837   5.993   5.201
 9021SOL    HW127962   6.791   5.930   5.138
 9021SOL    HW227963   6.775   6.068   5.223
 9022SOL     OW27964   3.208   0.880   6.667
 9022SOL    HW127965   3.256   0.905   6.751
 9022SOL    HW227966   3.270   0.829   6.608
 9023SOL     OW27967   3.570   2.906   2.929
 9023SOL    HW127968   3.606   2.848   2.856
 9023SOL    HW227969   3.472   2.920   2.915
 9024SOL     OW27970   1.853   6.936   6.679
 9024SOL    HW127971   1.885   6.986   6.760
 9024SOL    HW227972   1.778   6.875   6.704
 9025SOL     OW27973   6.206   4.435   1.203
 9025SOL    HW127974   6.142   4.448   1.127
 9025SOL    HW227975   6.165   4.377   1.273
 9026SOL     OW27976   3.347   3.018   5.529
 9026SOL    HW127977   3.270   2.985   5.585
 9026SOL    HW227978   3.432   3.002   5.578
 9027SOL     OW27979   2.344   2.748   3.057
 9027SOL    HW127980   2.429   2.721   3.102
 9027SOL    HW227981   2.284   2.790   3.124
 9028SOL     OW27982   2.605   4.652   4.916
 9028SOL    HW127983   2.632   4.685   4.826
 9028SOL    HW227984   2.685   4.643   4.975
 9029SOL     OW27985   5.125   5.238   3.366
 9029SOL    HW127986   5.174   5.318   3.400
 9029SOL    HW227987   5.029   5.261   3.350
 9030SOL     OW27988   3.223   1.838   1.717
 9030SOL    HW127989   3.309   1.886   1.701
 9030SOL    HW227990   3.172   1.832   1.631
 9031SOL     OW27991   2.208   0.686   0.278
 9031SOL    HW127992   2.169   0.597   0.302
 9031SOL    HW227993   2.290   0.702   0.334
 9032SOL     OW27994   1.768   1.307   2.326
 9032SOL    HW127995   1.844   1.365   2.355
 9032SOL    HW227996   1.784   1.275   2.232
 9033SOL     OW27997   0.817   3.203   2.323
 9033SOL    HW127998   0.792   3.115   2.284
 9033SOL    HW227999   0.860   3.190   2.412
 9034SOL     OW28000   2.655   0.626   5.803
 9034SOL    HW128001   2.589   0.570   5.853
 9034SOL    HW228002   2.702   0.687   5.866
 9035SOL     OW28003   6.903   1.236   4.474
 9035SOL    HW128004   6.982   1.181   4.449
 9035SOL    HW228005   6.898   1.245   4.573
 9036SOL     OW28006   1.351   2.149   5.094
 9036SOL    HW128007   1.382   2.068   5.143
 9036SOL    HW228008   1.271   2.126   5.038
 9037SOL     OW28009   2.160   3.876   5.720
 9037SOL    HW128010   2.170   3.793   5.775
 9037SOL    HW228011   2.134   3.851   5.626
 9038SOL     OW28012   5.719   6.606   5.345
 9038SOL    HW128013   5.739   6.524   5.291
 9038SOL    HW228014   5.800   6.665   5.349
 9039SOL     OW28015   2.432   5.643   6.022
 9039SOL    HW128016   2.407   5.645   5.925
 9039SOL    HW228017   2.527   5.613   6.032
 9040SOL     OW28018   1.935   0.934   1.705
 9040SOL    HW128019   1.885   0.889   1.631
 9040SOL    HW228020   2.012   0.876   1.731
 9041SOL     OW28021   1.570   3.116   0.081
 9041SOL    HW128022   1.565   3.019   0.058
 9041SOL    HW228023   1.664   3.148   0.065
 9042SOL     OW28024   2.789   5.293   3.746
 9042SOL    HW128025   2.850   5.254   3.814
 9042SOL    HW228026   2.698   5.304   3.785
 9043SOL     OW28027   6.372   2.250   6.452
 9043SOL    HW128028   6.334   2.286   6.367
 9043SOL    HW228029   6.401   2.325   6.510
 9044SOL     OW28030   6.252   5.067   0.084
 9044SOL    HW128031   6.266   5.027   7.018
 9044SOL    HW228032   6.303   5.015   0.153
 9045SOL     OW28033   3.259   6.274   3.810
 9045SOL    HW128034   3.256   6.324   3.896
 9045SOL    HW228035   3.343   6.298   3.761
 9046SOL     OW28036   3.070   3.995   5.689
 9046SOL    HW128037   3.168   3.976   5.684
 9046SOL    HW228038   3.026   3.968   5.603
 9047SOL     OW28039   1.084   4.472   4.732
 9047SOL    HW128040   1.016   4.515   4.791
 9047SOL    HW228041   1.175   4.488   4.768
 9048SOL     OW28042   1.475   3.284   4.729
 9048SOL    HW128043   1.434   3.338   4.803
 9048SOL    HW228044   1.405   3.223   4.690
 9049SOL     OW28045   5.216   5.864   6.311
 9049SOL    HW128046   5.260   5.949   6.337
 9049SOL    HW228047   5.200   5.863   6.212
 9050SOL     OW28048   0.163   6.102   5.408
 9050SOL    HW128049   0.250   6.056   5.424
 9050SOL    HW228050   0.146   6.109   5.310
 9051SOL     OW28051   5.343   6.561   5.956
 9051SOL    HW128052   5.404   6.606   5.890
 9051SOL    HW228053   5.320   6.626   6.029
 9052SOL     OW28054   2.584   5.811   4.367
 9052SOL    HW128055   2.582   5.773   4.459
 9052SOL    HW228056   2.575   5.737   4.300
 9053SOL     OW28057   2.860   1.649   3.588
 9053SOL    HW128058   2.778   1.616   3.542
 9053SOL    HW228059   2.836   1.679   3.681
 9054SOL     OW28060   3.490   0.285   1.536
 9054SOL    HW128061   3.436   0.201   1.526
 9054SOL    HW228062   3.565   0.269   1.599
 9055SOL     OW28063   1.418   1.310   4.248
 9055SOL    HW128064   1.468   1.279   4.168
 9055SOL    HW228065   1.325   1.273   4.246
 9056SOL     OW28066   5.709   1.176   2.756
 9056SOL    HW128067   5.763   1.257   2.777
 9056SOL    HW228068   5.614   1.191   2.781
 9057SOL     OW28069   4.537   6.556   6.866
 9057SOL    HW128070   4.545   6.617   6.945
 9057SOL    HW228071   4.459   6.584   6.810
 9058SOL     OW28072   1.647   2.700   5.052
 9058SOL    HW128073   1.697   2.787   5.055
 9058SOL    HW228074   1.686   2.638   5.120
 9059SOL     OW28075   0.052   0.999   3.266
 9059SOL    HW128076   0.000   0.926   3.312
 9059SOL    HW228077   7.012   1.061   3.221
 9060SOL     OW28078   0.459   5.250   1.475
 9060SOL    HW128079   0.450   5.256   1.574
 9060SOL    HW228080   0.369   5.260   1.433
 9061SOL     OW28081   5.827   4.306   2.625
 9061SOL    HW128082   5.795   4.225   2.577
 9061SOL    HW228083   5.877   4.365   2.562
 9062SOL     OW28084   0.515   5.616   3.124
 9062SOL    HW128085   0.482   5.552   3.056
 9062SOL    HW228086   0.614   5.627   3.115
 9063SOL     OW28087   4.377   1.681   1.741
 9063SOL    HW128088   4.304   1.644   1.798
 9063SOL    HW228089   4.415   1.762   1.784
 9064SOL     OW28090   1.115   5.416   3.316
 9064SOL    HW128091   1.055   5.364   3.256
 9064SOL    HW228092   1.126   5.508   3.280
 9065SOL     OW28093   2.720   4.410   5.359
 9065SOL    HW128094   2.704   4.311   5.361
 9065SOL    HW228095   2.810   4.428   5.318
 9066SOL     OW28096   4.805   5.025   4.796
 9066SOL    HW128097   4.788   4.927   4.785
 9066SOL    HW228098   4.720   5.072   4.819
 9067SOL     OW28099   1.130   6.372   4.140
 9067SOL    HW128100   1.204   6.304   4.143
 9067SOL    HW228101   1.062   6.345   4.071
 9068SOL     OW28102   5.053   6.676   5.768
 9068SOL    HW128103   4.956   6.692   5.781
 9068SOL    HW228104   5.087   6.732   5.693
 9069SOL     OW28105   5.614   1.876   1.118
 9069SOL    HW128106   5.588   1.848   1.210
 9069SOL    HW228107   5.685   1.816   1.083
 9070SOL     OW28108   1.473   2.051   6.032
 9070SOL    HW128109   1.515   1.970   5.991
 9070SOL    HW228110   1.410   2.093   5.966
 9071SOL     OW28111   5.046   2.318   6.063
 9071SOL    HW128112   5.001   2.326   5.974
 9071SOL    HW228113   5.053   2.408   6.105
 9072SOL     OW28114   5.013   0.815   2.580
 9072SOL    HW128115   5.088   0.774   2.528
 9072SOL    HW228116   5.035   0.910   2.601
 9073SOL     OW28117   4.741   1.449   5.493
 9073SOL    HW128118   4.682   1.465   5.414
 9073SOL    HW228119   4.685   1.418   5.571
 9074SOL     OW28120   1.582   0.575   1.723
 9074SOL    HW128121   1.588   0.671   1.752
 9074SOL    HW228122   1.669   0.530   1.741
 9075SOL     OW28123   5.748   6.271   1.043
 9075SOL    HW128124   5.835   6.320   1.053
 9075SOL    HW228125   5.675   6.324   1.088
 9076SOL     OW28126   6.771   0.387   2.616
 9076SOL    HW128127   6.841   0.433   2.561
 9076SOL    HW228128   6.706   0.454   2.649
 9077SOL     OW28129   6.208   1.740   6.407
 9077SOL    HW128130   6.160   1.820   6.372
 9077SOL    HW228131   6.287   1.720   6.348
 9078SOL     OW28132   5.000   6.271   0.016
 9078SOL    HW128133   4.996   6.174   7.018
 9078SOL    HW228134   5.053   6.319   6.970
 9079SOL     OW28135   1.752   0.877   6.600
 9079SOL    HW128136   1.790   0.968   6.617
 9079SOL    HW228137   1.669   0.885   6.544
 9080SOL     OW28138   6.066   3.150   1.366
 9080SOL    HW128139   6.109   3.096   1.294
 9080SOL    HW228140   6.130   3.163   1.442
 9081SOL     OW28141   4.714   1.786   6.729
 9081SOL    HW128142   4.654   1.866   6.739
 9081SOL    HW228143   4.663   1.703   6.754
 9082SOL     OW28144   3.704   5.653   6.036
 9082SOL    HW128145   3.654   5.724   5.986
 9082SOL    HW228146   3.775   5.614   5.976
 9083SOL     OW28147   4.302   5.483   6.600
 9083SOL    HW128148   4.283   5.581   6.596
 9083SOL    HW228149   4.354   5.462   6.683
 9084SOL     OW28150   6.650   2.337   6.140
 9084SOL    HW128151   6.699   2.385   6.067
 9084SOL    HW228152   6.684   2.367   6.229
 9085SOL     OW28153   1.954   4.733   0.028
 9085SOL    HW128154   1.894   4.748   6.973
 9085SOL    HW228155   2.023   4.806   0.031
 9086SOL     OW28156   6.946   4.707   1.299
 9086SOL    HW128157   6.850   4.698   1.325
 9086SOL    HW228158   6.992   4.770   1.362
 9087SOL     OW28159   5.970   1.126   1.824
 9087SOL    HW128160   5.939   1.067   1.898
 9087SOL    HW228161   6.065   1.152   1.839
 9088SOL     OW28162   6.584   6.541   0.481
 9088SOL    HW128163   6.539   6.591   0.555
 9088SOL    HW228164   6.530   6.550   0.397
 9089SOL     OW28165   5.314   5.349   3.980
 9089SOL    HW128166   5.313   5.254   3.948
 9089SOL    HW228167   5.307   5.411   3.901
 9090SOL     OW28168   5.776   6.366   5.270
 9090SOL    HW128169   5.818   6.333   5.355
 9090SOL    HW228170   5.775   6.291   5.203
 9091SOL     OW28171   2.296   1.826   1.151
 9091SOL    HW128172   2.261   1.781   1.069
 9091SOL    HW228173   2.322   1.920   1.128
 9092SOL     OW28174   1.488   0.607   6.006
 9092SOL    HW128175   1.407   0.664   5.993
 9092SOL    HW228176   1.522   0.618   6.099
 9093SOL     OW28177   2.045   4.384   0.834
 9093SOL    HW128178   2.121   4.382   0.899
 9093SOL    HW228179   2.032   4.293   0.794
 9094SOL     OW28180   6.772   4.944   1.603
 9094SOL    HW128181   6.760   5.044   1.601
 9094SOL    HW228182   6.692   4.900   1.564
 9095SOL     OW28183   3.493   3.164   6.562
 9095SOL    HW128184   3.409   3.128   6.603
 9095SOL    HW228185   3.532   3.095   6.502
 9096SOL     OW28186   5.325   2.636   3.062
 9096SOL    HW128187   5.248   2.600   3.115
 9096SOL    HW228188   5.335   2.734   3.080
 9097SOL     OW28189   0.631   4.957   6.172
 9097SOL    HW128190   0.679   5.015   6.238
 9097SOL    HW228191   0.652   4.989   6.079
 9098SOL     OW28192   3.937   3.652   2.782
 9098SOL    HW128193   4.027   3.624   2.818
 9098SOL    HW228194   3.927   3.617   2.689
 9099SOL     OW28195   2.425   3.472   1.015
 9099SOL    HW128196   2.523   3.493   1.022
 9099SOL    HW228197   2.406   3.432   0.926
 9100SOL     OW28198   0.369   2.696   1.066
 9100SOL    HW128199   0.304   2.689   0.991
 9100SOL    HW228200   0.410   2.606   1.083
 9101SOL     OW28201   1.921   2.625   1.440
 9101SOL    HW128202   1.941   2.637   1.342
 9101SOL    HW228203   1.834   2.579   1.451
 9102SOL     OW28204   3.360   5.211   2.391
 9102SOL    HW128205   3.293   5.145   2.424
 9102SOL    HW228206   3.431   5.225   2.460
 9103SOL     OW28207   0.541   4.021   0.474
 9103SOL    HW128208   0.496   4.088   0.532
 9103SOL    HW228209   0.502   4.023   0.382
 9104SOL     OW28210   4.598   6.911   1.203
 9104SOL    HW128211   4.613   6.929   1.106
 9104SOL    HW228212   4.599   6.812   1.219
 9105SOL     OW28213   1.691   1.872   5.926
 9105SOL    HW128214   1.735   1.936   5.989
 9105SOL    HW228215   1.754   1.849   5.852
 9106SOL     OW28216   5.883   4.881   0.733
 9106SOL    HW128217   5.785   4.872   0.718
 9106SOL    HW228218   5.908   4.978   0.738
 9107SOL     OW28219   4.549   0.218   1.564
 9107SOL    HW128220   4.602   0.207   1.479
 9107SOL    HW228221   4.610   0.249   1.637
 9108SOL     OW28222   4.507   5.260   5.362
 9108SOL    HW128223   4.553   5.180   5.323
 9108SOL    HW228224   4.493   5.246   5.460
 9109SOL     OW28225   3.338   1.658   3.785
 9109SOL    HW128226   3.333   1.571   3.737
 9109SOL    HW228227   3.245   1.688   3.808
 9110SOL     OW28228   1.870   4.215   3.385
 9110SOL    HW128229   1.896   4.224   3.481
 9110SOL    HW228230   1.805   4.288   3.361
 9111SOL     OW28231   3.358   3.998   1.820
 9111SOL    HW128232   3.444   3.952   1.843
 9111SOL    HW228233   3.343   3.994   1.721
 9112SOL     OW28234   6.936   4.498   2.479
 9112SOL    HW128235   6.868   4.442   2.432
 9112SOL    HW228236   6.987   4.441   2.544
 9113SOL     OW28237   4.527   6.908   0.602
 9113SOL    HW128238   4.525   6.864   0.513
 9113SOL    HW228239   4.448   6.878   0.656
 9114SOL     OW28240   2.892   4.935   1.564
 9114SOL    HW128241   2.939   4.850   1.591
 9114SOL    HW228242   2.948   5.013   1.591
 9115SOL     OW28243   1.290   4.865   4.993
 9115SOL    HW128244   1.305   4.963   4.977
 9115SOL    HW228245   1.330   4.839   5.081
 9116SOL     OW28246   0.040   1.583   6.146
 9116SOL    HW128247   7.014   1.598   6.232
 9116SOL    HW228248   0.079   1.491   6.146
 9117SOL     OW28249   6.993   2.617   7.014
 9117SOL    HW128250   6.957   2.693   6.960
 9117SOL    HW228251   0.030   2.652   0.061
 9118SOL     OW28252   6.554   6.770   1.522
 9118SOL    HW128253   6.592   6.718   1.446
 9118SOL    HW228254   6.469   6.814   1.494
 9119SOL     OW28255   6.634   0.291   1.850
 9119SOL    HW128256   6.613   0.218   1.915
 9119SOL    HW228257   6.612   0.261   1.757
 9120SOL     OW28258   5.385   1.248   6.189
 9120SOL    HW128259   5.433   1.182   6.246
 9120SOL    HW228260   5.432   1.336   6.193
 9121SOL     OW28261   0.451   1.812   6.099
 9121SOL    HW128262   0.352   1.822   6.104
 9121SOL    HW228263   0.475   1.715   6.089
 9122SOL     OW28264   1.902   3.116   2.805
 9122SOL    HW128265   1.989   3.075   2.779
 9122SOL    HW228266   1.867   3.172   2.729
 9123SOL     OW28267   2.595   5.692   6.464
 9123SOL    HW128268   2.519   5.667   6.404
 9123SOL    HW228269   2.645   5.610   6.490
 9124SOL     OW28270   6.791   5.901   5.458
 9124SOL    HW128271   6.777   5.968   5.531
 9124SOL    HW228272   6.834   5.946   5.380
 9125SOL     OW28273   4.857   3.929   3.941
 9125SOL    HW128274   4.803   3.961   3.863
 9125SOL    HW228275   4.911   3.850   3.914
 9126SOL     OW28276   6.177   0.353   2.190
 9126SOL    HW128277   6.190   0.349   2.289
 9126SOL    HW228278   6.080   0.370   2.170
 9127SOL     OW28279   5.331   0.231   6.718
 9127SOL    HW128280   5.390   0.201   6.793
 9127SOL    HW228281   5.382   0.229   6.632
 9128SOL     OW28282   3.493   2.039   5.203
 9128SOL    HW128283   3.451   1.964   5.256
 9128SOL    HW228284   3.543   2.001   5.126
 9129SOL     OW28285   1.622   1.508   6.125
 9129SOL    HW128286   1.613   1.413   6.156
 9129SOL    HW228287   1.670   1.561   6.194
 9130SOL     OW28288   5.800   4.961   0.370
 9130SOL    HW128289   5.792   4.862   0.382
 9130SOL    HW228290   5.871   4.996   0.431
 9131SOL     OW28291   0.386   4.411   4.442
 9131SOL    HW128292   0.338   4.386   4.526
 9131SOL    HW228293   0.365   4.343   4.371
 9132SOL     OW28294   6.732   3.401   4.514
 9132SOL    HW128295   6.644   3.426   4.473
 9132SOL    HW228296   6.744   3.451   4.599
 9133SOL     OW28297   2.233   4.154   1.367
 9133SOL    HW128298   2.245   4.091   1.290
 9133SOL    HW228299   2.322   4.191   1.393
 9134SOL     OW28300   3.174   6.671   0.029
 9134SOL    HW128301   3.192   6.740   0.099
 9134SOL    HW228302   3.156   6.717   6.966
 9135SOL     OW28303   6.336   6.625   3.348
 9135SOL    HW128304   6.310   6.627   3.445
 9135SOL    HW228305   6.282   6.555   3.301
 9136SOL     OW28306   5.149   5.517   5.622
 9136SOL    HW128307   5.209   5.507   5.542
 9136SOL    HW228308   5.171   5.602   5.670
 9137SOL     OW28309   4.416   0.737   1.771
 9137SOL    HW128310   4.436   0.820   1.718
 9137SOL    HW228311   4.445   0.751   1.866
 9138SOL     OW28312   5.628   4.912   6.397
 9138SOL    HW128313   5.655   4.839   6.460
 9138SOL    HW228314   5.644   5.001   6.440
 9139SOL     OW28315   3.544   1.282   5.424
 9139SOL    HW128316   3.586   1.285   5.515
 9139SOL    HW228317   3.544   1.374   5.385
 9140SOL     OW28318   6.522   2.502   2.712
 9140SOL    HW128319   6.464   2.485   2.632
 9140SOL    HW228320   6.510   2.597   2.742
 9141SOL     OW28321   5.312   0.103   6.033
 9141SOL    HW128322   5.291   0.127   6.128
 9141SOL    HW228323   5.359   0.179   5.989
 9142SOL     OW28324   0.653   2.782   6.084
 9142SOL    HW128325   0.558   2.761   6.061
 9142SOL    HW228326   0.712   2.762   6.006
 9143SOL     OW28327   4.455   3.405   0.470
 9143SOL    HW128328   4.369   3.394   0.519
 9143SOL    HW228329   4.499   3.490   0.497
 9144SOL     OW28330   2.204   5.404   5.684
 9144SOL    HW128331   2.240   5.473   5.622
 9144SOL    HW228332   2.132   5.444   5.740
 9145SOL     OW28333   0.541   4.334   0.242
 9145SOL    HW128334   0.518   4.240   0.218
 9145SOL    HW228335   0.474   4.396   0.200
 9146SOL     OW28336   5.762   2.521   1.034
 9146SOL    HW128337   5.736   2.445   0.974
 9146SOL    HW228338   5.820   2.487   1.107
 9147SOL     OW28339   4.310   5.209   4.023
 9147SOL    HW128340   4.261   5.283   4.070
 9147SOL    HW228341   4.285   5.208   3.927
 9148SOL     OW28342   5.105   5.990   3.414
 9148SOL    HW128343   5.188   5.944   3.382
 9148SOL    HW228344   5.038   5.922   3.443
 9149SOL     OW28345   5.167   3.144   4.306
 9149SOL    HW128346   5.120   3.080   4.245
 9149SOL    HW228347   5.178   3.232   4.261
 9150SOL     OW28348   5.204   0.129   3.470
 9150SOL    HW128349   5.245   0.047   3.510
 9150SOL    HW228350   5.182   0.193   3.543
 9151SOL     OW28351   1.319   4.259   2.285
 9151SOL    HW128352   1.248   4.328   2.300
 9151SOL    HW228353   1.404   4.288   2.330
 9152SOL     OW28354   2.323   6.347   3.531
 9152SOL    HW128355   2.255   6.304   3.471
 9152SOL    HW228356   2.358   6.429   3.488
 9153SOL     OW28357   1.659   2.141   6.476
 9153SOL    HW128358   1.705   2.172   6.559
 9153SOL    HW228359   1.613   2.054   6.494
 9154SOL     OW28360   2.730   5.860   6.845
 9154SOL    HW128361   2.699   5.857   6.750
 9154SOL    HW228362   2.825   5.831   6.850
 9155SOL     OW28363   2.025   3.767   6.130
 9155SOL    HW128364   2.034   3.851   6.183
 9155SOL    HW228365   1.933   3.729   6.144
 9156SOL     OW28366   3.340   2.203   1.180
 9156SOL    HW128367   3.394   2.122   1.206
 9156SOL    HW228368   3.400   2.269   1.133
 9157SOL     OW28369   5.629   4.429   5.021
 9157SOL    HW128370   5.648   4.434   4.923
 9157SOL    HW228371   5.638   4.334   5.051
 9158SOL     OW28372   0.120   3.816   4.720
 9158SOL    HW128373   0.078   3.734   4.758
 9158SOL    HW228374   0.219   3.814   4.736
 9159SOL     OW28375   0.180   5.608   2.895
 9159SOL    HW128376   0.083   5.622   2.913
 9159SOL    HW228377   0.215   5.684   2.842
 9160SOL     OW28378   0.874   6.688   6.130
 9160SOL    HW128379   0.909   6.628   6.202
 9160SOL    HW228380   0.949   6.738   6.088
 9161SOL     OW28381   4.914   3.836   4.676
 9161SOL    HW128382   4.885   3.747   4.712
 9161SOL    HW228383   5.005   3.857   4.710
 9162SOL     OW28384   4.928   3.229   2.926
 9162SOL    HW128385   4.883   3.220   2.836
 9162SOL    HW228386   5.027   3.236   2.913
 9163SOL     OW28387   2.899   2.244   3.698
 9163SOL    HW128388   2.864   2.305   3.627
 9163SOL    HW228389   2.875   2.150   3.676
 9164SOL     OW28390   2.700   0.731   6.642
 9164SOL    HW128391   2.628   0.782   6.594
 9164SOL    HW228392   2.723   0.649   6.590
 9165SOL     OW28393   5.904   0.858   6.241
 9165SOL    HW128394   5.883   0.930   6.307
 9165SOL    HW228395   5.843   0.780   6.255
 9166SOL     OW28396   4.248   5.798   0.734
 9166SOL    HW128397   4.247   5.881   0.789
 9166SOL    HW228398   4.336   5.751   0.745
 9167SOL     OW28399   1.501   3.857   5.830
 9167SOL    HW128400   1.506   3.799   5.749
 9167SOL    HW228401   1.589   3.858   5.877
 9168SOL     OW28402   2.131   0.151   5.465
 9168SOL    HW128403   2.149   0.212   5.388
 9168SOL    HW228404   2.210   0.150   5.526
 9169SOL     OW28405   0.427   1.050   4.805
 9169SOL    HW128406   0.385   1.119   4.747
 9169SOL    HW228407   0.438   1.087   4.897
 9170SOL     OW28408   6.935   4.829   0.302
 9170SOL    HW128409   7.007   4.896   0.283
 9170SOL    HW228410   6.846   4.874   0.296
 9171SOL     OW28411   2.964   5.690   6.897
 9171SOL    HW128412   3.042   5.638   6.862
 9171SOL    HW228413   2.987   5.728   6.986
 9172SOL     OW28414   3.551   1.008   4.213
 9172SOL    HW128415   3.525   1.104   4.203
 9172SOL    HW228416   3.475   0.950   4.181
 9173SOL     OW28417   5.959   4.713   4.776
 9173SOL    HW128418   5.969   4.614   4.769
 9173SOL    HW228419   6.050   4.754   4.790
 9174SOL     OW28420   6.148   4.382   0.274
 9174SOL    HW128421   6.210   4.334   0.212
 9174SOL    HW228422   6.055   4.347   0.262
 9175SOL     OW28423   2.653   6.297   5.711
 9175SOL    HW128424   2.698   6.360   5.648
 9175SOL    HW228425   2.596   6.233   5.659
 9176SOL     OW28426   1.996   1.472   5.448
 9176SOL    HW128427   2.059   1.533   5.496
 9176SOL    HW228428   2.044   1.388   5.421
 9177SOL     OW28429   1.489   3.881   4.508
 9177SOL    HW128430   1.497   3.907   4.412
 9177SOL    HW228431   1.406   3.827   4.521
 9178SOL     OW28432   1.948   5.726   1.068
 9178SOL    HW128433   1.878   5.678   1.122
 9178SOL    HW228434   1.911   5.749   0.978
 9179SOL     OW28435   2.843   5.354   4.205
 9179SOL    HW128436   2.937   5.355   4.239
 9179SOL    HW228437   2.842   5.325   4.109
 9180SOL     OW28438   6.380   2.461   3.613
 9180SOL    HW128439   6.347   2.410   3.534
 9180SOL    HW228440   6.343   2.422   3.697
 9181SOL     OW28441   4.390   2.367   2.667
 9181SOL    HW128442   4.449   2.381   2.587
 9181SOL    HW228443   4.428   2.416   2.745
 9182SOL     OW28444   1.732   5.822   2.155
 9182SOL    HW128445   1.770   5.858   2.069
 9182SOL    HW228446   1.661   5.884   2.188
 9183SOL     OW28447   5.125   6.212   0.734
 9183SOL    HW128448   5.147   6.157   0.654
 9183SOL    HW228449   5.086   6.153   0.805
 9184SOL     OW28450   5.419   0.069   0.634
 9184SOL    HW128451   5.339   0.068   0.694
 9184SOL    HW228452   5.474   7.011   0.650
 9185SOL     OW28453   3.890   0.663   5.289
 9185SOL    HW128454   3.987   0.678   5.269
 9185SOL    HW228455   3.845   0.626   5.208
 9186SOL     OW28456   6.753   0.652   4.857
 9186SOL    HW128457   6.827   0.666   4.791
 9186SOL    HW228458   6.695   0.576   4.827
 9187SOL     OW28459   2.100   6.867   2.100
 9187SOL    HW128460   2.188   6.820   2.095
 9187SOL    HW228461   2.113   6.965   2.088
 9188SOL     OW28462   2.554   6.996   1.233
 9188SOL    HW128463   2.498   6.917   1.210
 9188SOL    HW228464   2.583   0.018   1.150
 9189SOL     OW28465   5.297   5.382   2.411
 9189SOL    HW128466   5.251   5.342   2.490
 9189SOL    HW228467   5.229   5.406   2.342
 9190SOL     OW28468   2.281   5.563   0.174
 9190SOL    HW128469   2.361   5.557   0.116
 9190SOL    HW228470   2.296   5.631   0.245
 9191SOL     OW28471   6.626   0.396   5.388
 9191SOL    HW128472   6.700   0.360   5.331
 9191SOL    HW228473   6.594   0.483   5.351
 9192SOL     OW28474   0.287   4.340   4.688
 9192SOL    HW128475   0.358   4.335   4.758
 9192SOL    HW228476   0.212   4.279   4.712
 9193SOL     OW28477   3.901   3.737   0.476
 9193SOL    HW128478   3.908   3.827   0.520
 9193SOL    HW228479   3.816   3.732   0.423
 9194SOL     OW28480   3.621   0.561   4.057
 9194SOL    HW128481   3.562   0.624   4.108
 9194SOL    HW228482   3.684   0.515   4.119
 9195SOL     OW28483   1.726   2.303   4.555
 9195SOL    HW128484   1.762   2.382   4.504
 9195SOL    HW228485   1.790   2.278   4.627
 9196SOL     OW28486   4.523   1.361   4.991
 9196SOL    HW128487   4.608   1.374   5.042
 9196SOL    HW228488   4.467   1.293   5.036
 9197SOL     OW28489   2.552   3.850   1.262
 9197SOL    HW128490   2.560   3.949   1.245
 9197SOL    HW228491   2.473   3.814   1.214
 9198SOL     OW28492   6.708   5.445   5.387
 9198SOL    HW128493   6.619   5.486   5.405
 9198SOL    HW228494   6.696   5.359   5.337
 9199SOL     OW28495   0.551   3.926   6.144
 9199SOL    HW128496   0.505   3.966   6.224
 9199SOL    HW228497   0.488   3.926   6.067
 9200SOL     OW28498   2.632   0.574   0.744
 9200SOL    HW128499   2.587   0.662   0.726
 9200SOL    HW228500   2.725   0.590   0.778
 9201SOL     OW28501   1.423   3.069   6.742
 9201SOL    HW128502   1.390   2.978   6.768
 9201SOL    HW228503   1.360   3.138   6.778
 9202SOL     OW28504   1.900   6.839   3.212
 9202SOL    HW128505   1.975   6.854   3.277
 9202SOL    HW228506   1.934   6.786   3.134
 9203SOL     OW28507   0.155   5.063   0.327
 9203SOL    HW128508   0.139   5.159   0.350
 9203SOL    HW228509   0.253   5.044   0.330
 9204SOL     OW28510   4.958   1.495   6.790
 9204SOL    HW128511   4.865   1.527   6.774
 9204SOL    HW228512   4.961   1.445   6.876
 9205SOL     OW28513   6.660   4.168   2.802
 9205SOL    HW128514   6.642   4.196   2.896
 9205SOL    HW228515   6.588   4.106   2.772
 9206SOL     OW28516   3.483   6.012   0.545
 9206SOL    HW128517   3.477   6.109   0.520
 9206SOL    HW228518   3.509   5.958   0.465
 9207SOL     OW28519   4.755   5.537   7.013
 9207SOL    HW128520   4.709   5.602   6.952
 9207SOL    HW228521   4.787   5.585   0.071
 9208SOL     OW28522   6.329   3.821   4.332
 9208SOL    HW128523   6.425   3.810   4.357
 9208SOL    HW228524   6.274   3.826   4.416
 9209SOL     OW28525   2.894   1.558   6.787
 9209SOL    HW128526   2.941   1.474   6.758
 9209SOL    HW228527   2.958   1.635   6.782
 9210SOL     OW28528   6.512   1.511   2.741
 9210SOL    HW128529   6.610   1.492   2.733
 9210SOL    HW228530   6.461   1.443   2.689
 9211SOL     OW28531   0.101   3.050   3.875
 9211SOL    HW128532   0.065   2.957   3.865
 9211SOL    HW228533   0.037   3.104   3.929
 9212SOL     OW28534   3.766   5.242   4.025
 9212SOL    HW128535   3.726   5.244   3.933
 9212SOL    HW228536   3.734   5.320   4.077
 9213SOL     OW28537   5.851   3.077   5.757
 9213SOL    HW128538   5.795   3.148   5.801
 9213SOL    HW228539   5.816   3.059   5.665
 9214SOL     OW28540   0.269   5.674   6.590
 9214SOL    HW128541   0.300   5.590   6.634
 9214SOL    HW228542   0.231   5.736   6.659
 9215SOL     OW28543   1.109   1.052   0.455
 9215SOL    HW128544   1.057   1.024   0.374
 9215SOL    HW228545   1.078   1.142   0.484
 9216SOL     OW28546   2.568   0.155   3.419
 9216SOL    HW128547   2.661   0.177   3.449
 9216SOL    HW228548   2.568   0.137   3.321
 9217SOL     OW28549   0.110   1.554   6.505
 9217SOL    HW128550   0.104   1.581   6.601
 9217SOL    HW228551   0.202   1.575   6.471
 9218SOL     OW28552   3.464   6.750   0.329
 9218SOL    HW128553   3.451   6.843   0.364
 9218SOL    HW228554   3.376   6.702   0.327
 9219SOL     OW28555   0.990   2.353   1.108
 9219SOL    HW128556   1.000   2.338   1.010
 9219SOL    HW228557   0.953   2.444   1.125
 9220SOL     OW28558   3.439   6.542   1.485
 9220SOL    HW128559   3.413   6.453   1.523
 9220SOL    HW228560   3.476   6.529   1.393
 9221SOL     OW28561   3.403   6.975   4.277
 9221SOL    HW128562   3.424   0.001   4.193
 9221SOL    HW228563   3.440   6.882   4.271
 9222SOL     OW28564   2.467   0.812   6.517
 9222SOL    HW128565   2.480   0.714   6.497
 9222SOL    HW228566   2.381   0.825   6.566
 9223SOL     OW28567   1.499   2.989   5.255
 9223SOL    HW128568   1.571   2.968   5.321
 9223SOL    HW228569   1.540   3.025   5.172
 9224SOL     OW28570   2.479   5.322   3.783
 9224SOL    HW128571   2.397   5.270   3.758
 9224SOL    HW228572   2.452   5.405   3.832
 9225SOL     OW28573   2.977   6.572   6.497
 9225SOL    HW128574   3.054   6.632   6.517
 9225SOL    HW228575   2.903   6.590   6.562
 9226SOL     OW28576   4.725   6.226   1.568
 9226SOL    HW128577   4.735   6.313   1.616
 9226SOL    HW228578   4.741   6.151   1.631
 9227SOL     OW28579   0.886   5.272   3.142
 9227SOL    HW128580   0.807   5.244   3.087
 9227SOL    HW228581   0.970   5.236   3.101
 9228SOL     OW28582   1.533   1.113   5.778
 9228SOL    HW128583   1.622   1.157   5.790
 9228SOL    HW228584   1.531   1.027   5.829
 9229SOL     OW28585   1.453   5.299   3.649
 9229SOL    HW128586   1.438   5.358   3.570
 9229SOL    HW228587   1.422   5.206   3.627
 9230SOL     OW28588   5.824   0.493   3.343
 9230SOL    HW128589   5.763   0.448   3.409
 9230SOL    HW228590   5.769   0.545   3.278
 9231SOL     OW28591   1.493   3.027   4.458
 9231SOL    HW128592   1.448   3.115   4.469
 9231SOL    HW228593   1.497   2.980   4.546
 9232SOL     OW28594   3.762   5.207   0.650
 9232SOL    HW128595   3.731   5.119   0.615
 9232SOL    HW228596   3.686   5.271   0.651
 9233SOL     OW28597   5.933   5.186   1.497
 9233SOL    HW128598   5.853   5.221   1.448
 9233SOL    HW228599   5.999   5.260   1.510
 9234SOL     OW28600   2.702   5.513   3.403
 9234SOL    HW128601   2.763   5.443   3.367
 9234SOL    HW228602   2.628   5.530   3.338
 9235SOL     OW28603   1.928   1.717   3.302
 9235SOL    HW128604   1.847   1.762   3.341
 9235SOL    HW228605   1.924   1.721   3.202
 9236SOL     OW28606   3.295   3.955   5.450
 9236SOL    HW128607   3.391   3.929   5.459
 9236SOL    HW228608   3.248   3.888   5.392
 9237SOL     OW28609   1.579   4.121   4.056
 9237SOL    HW128610   1.614   4.123   3.962
 9237SOL    HW228611   1.483   4.148   4.056
 9238SOL     OW28612   4.791   2.792   6.353
 9238SOL    HW128613   4.852   2.813   6.430
 9238SOL    HW228614   4.805   2.860   6.281
 9239SOL     OW28615   0.176   3.913   1.258
 9239SOL    HW128616   0.191   3.931   1.355
 9239SOL    HW228617   0.263   3.890   1.215
 9240SOL     OW28618   5.341   1.599   1.420
 9240SOL    HW128619   5.382   1.524   1.369
 9240SOL    HW228620   5.378   1.686   1.388
 9241SOL     OW28621   6.887   5.577   6.593
 9241SOL    HW128622   6.957   5.618   6.652
 9241SOL    HW228623   6.928   5.553   6.505
 9242SOL     OW28624   0.125   6.009   1.300
 9242SOL    HW128625   0.093   5.926   1.346
 9242SOL    HW228626   0.065   6.086   1.323
 9243SOL     OW28627   0.012   5.916   4.200
 9243SOL    HW128628   6.981   5.909   4.117
 9243SOL    HW228629   0.022   5.825   4.241
 9244SOL     OW28630   4.606   5.551   6.553
 9244SOL    HW128631   4.622   5.580   6.647
 9244SOL    HW228632   4.508   5.553   6.534
 9245SOL     OW28633   0.992   5.183   2.206
 9245SOL    HW128634   0.978   5.086   2.226
 9245SOL    HW228635   1.013   5.232   2.290
 9246SOL     OW28636   6.920   5.297   3.588
 9246SOL    HW128637   6.979   5.329   3.662
 9246SOL    HW228638   6.967   5.225   3.537
 9247SOL     OW28639   1.267   6.961   3.206
 9247SOL    HW128640   1.280   6.914   3.293
 9247SOL    HW228641   1.352   7.009   3.182
 9248SOL     OW28642   2.790   2.734   6.219
 9248SOL    HW128643   2.727   2.656   6.220
 9248SOL    HW228644   2.884   2.700   6.205
 9249SOL     OW28645   5.507   1.911   4.654
 9249SOL    HW128646   5.578   1.899   4.724
 9249SOL    HW228647   5.418   1.894   4.695
 9250SOL     OW28648   4.840   3.972   4.207
 9250SOL    HW128649   4.886   3.903   4.263
 9250SOL    HW228650   4.822   3.935   4.116
 9251SOL     OW28651   3.406   1.272   3.398
 9251SOL    HW128652   3.426   1.175   3.416
 9251SOL    HW228653   3.342   1.279   3.321
 9252SOL     OW28654   0.051   6.916   4.582
 9252SOL    HW128655   0.047   6.915   4.482
 9252SOL    HW228656   0.138   6.955   4.611
 9253SOL     OW28657   2.715   6.376   6.051
 9253SOL    HW128658   2.634   6.373   6.110
 9253SOL    HW228659   2.720   6.291   5.998
 9254SOL     OW28660   5.760   3.933   1.440
 9254SOL    HW128661   5.697   3.856   1.426
 9254SOL    HW228662   5.833   3.904   1.502
 9255SOL     OW28663   4.984   3.121   0.181
 9255SOL    HW128664   4.889   3.153   0.175
 9255SOL    HW228665   5.043   3.198   0.203
 9256SOL     OW28666   3.970   4.786   2.320
 9256SOL    HW128667   4.001   4.768   2.227
 9256SOL    HW228668   3.874   4.762   2.329
 9257SOL     OW28669   0.882   4.076   2.526
 9257SOL    HW128670   0.879   4.173   2.553
 9257SOL    HW228671   0.931   4.066   2.440
 9258SOL     OW28672   3.622   3.164   3.751
 9258SOL    HW128673   3.530   3.163   3.712
 9258SOL    HW228674   3.657   3.258   3.753
 9259SOL     OW28675   0.980   2.079   1.177
 9259SOL    HW128676   0.978   2.177   1.158
 9259SOL    HW228677   0.967   2.064   1.275
 9260SOL     OW28678   4.887   2.900   6.068
 9260SOL    HW128679   4.906   2.806   6.039
 9260SOL    HW228680   4.790   2.919   6.057
 9261SOL     OW28681   3.755   0.203   6.840
 9261SOL    HW128682   3.786   0.187   6.933
 9261SOL    HW228683   3.678   0.267   6.840
 9262SOL     OW28684   5.769   1.732   5.315
 9262SOL    HW128685   5.717   1.817   5.330
 9262SOL    HW228686   5.859   1.755   5.279
 9263SOL     OW28687   5.225   3.931   0.960
 9263SOL    HW128688   5.275   4.014   0.983
 9263SOL    HW228689   5.260   3.855   1.016
 9264SOL     OW28690   6.613   3.717   0.021
 9264SOL    HW128691   6.545   3.702   6.973
 9264SOL    HW228692   6.623   3.634   0.075
 9265SOL     OW28693   2.428   1.597   0.590
 9265SOL    HW128694   2.438   1.696   0.594
 9265SOL    HW228695   2.374   1.572   0.510
 9266SOL     OW28696   2.650   6.485   2.402
 9266SOL    HW128697   2.572   6.546   2.415
 9266SOL    HW228698   2.618   6.394   2.376
 9267SOL     OW28699   0.479   3.786   4.421
 9267SOL    HW128700   0.462   3.696   4.460
 9267SOL    HW228701   0.400   3.815   4.367
 9268SOL     OW28702   0.181   6.424   3.165
 9268SOL    HW128703   0.117   6.434   3.089
 9268SOL    HW228704   0.275   6.432   3.130
 9269SOL     OW28705   2.760   1.824   0.179
 9269SOL    HW128706   2.719   1.866   0.260
 9269SOL    HW228707   2.691   1.817   0.107
 9270SOL     OW28708   0.086   6.839   5.455
 9270SOL    HW128709   0.064   6.762   5.396
 9270SOL    HW228710   0.004   6.894   5.470
 9271SOL     OW28711   1.417   6.487   0.914
 9271SOL    HW128712   1.399   6.517   0.820
 9271SOL    HW228713   1.393   6.390   0.923
 9272SOL     OW28714   2.462   4.194   6.409
 9272SOL    HW128715   2.498   4.101   6.420
 9272SOL    HW228716   2.461   4.240   6.498
 9273SOL     OW28717   4.886   5.491   3.625
 9273SOL    HW128718   4.825   5.489   3.705
 9273SOL    HW228719   4.838   5.530   3.547
 9274SOL     OW28720   5.179   2.310   6.936
 9274SOL    HW128721   5.232   2.228   6.957
 9274SOL    HW228722   5.082   2.291   6.952
 9275SOL     OW28723   1.004   1.408   6.855
 9275SOL    HW128724   1.058   1.447   6.780
 9275SOL    HW228725   1.005   1.471   6.933
 9276SOL     OW28726   3.524   5.717   4.766
 9276SOL    HW128727   3.426   5.710   4.746
 9276SOL    HW228728   3.576   5.657   4.705
 9277SOL     OW28729   3.750   3.505   0.200
 9277SOL    HW128730   3.705   3.441   0.138
 9277SOL    HW228731   3.680   3.561   0.246
 9278SOL     OW28732   1.062   1.697   3.917
 9278SOL    HW128733   1.061   1.779   3.859
 9278SOL    HW228734   1.156   1.680   3.947
 9279SOL     OW28735   3.830   0.527   2.200
 9279SOL    HW128736   3.924   0.517   2.168
 9279SOL    HW228737   3.830   0.540   2.299
 9280SOL     OW28738   1.280   6.772   3.430
 9280SOL    HW128739   1.371   6.733   3.436
 9280SOL    HW228740   1.212   6.699   3.433
 9281SOL     OW28741   2.624   2.675   0.871
 9281SOL    HW128742   2.590   2.649   0.961
 9281SOL    HW228743   2.703   2.617   0.848
 9282SOL     OW28744   4.758   1.739   4.575
 9282SOL    HW128745   4.825   1.707   4.508
 9282SOL    HW228746   4.688   1.669   4.588
 9283SOL     OW28747   6.133   2.237   2.807
 9283SOL    HW128748   6.222   2.276   2.785
 9283SOL    HW228749   6.141   2.137   2.815
 9284SOL     OW28750   3.666   4.366   0.666
 9284SOL    HW128751   3.671   4.269   0.645
 9284SOL    HW228752   3.621   4.379   0.754
 9285SOL     OW28753   6.673   3.062   0.073
 9285SOL    HW128754   6.658   3.034   7.002
 9285SOL    HW228755   6.599   3.122   0.102
 9286SOL     OW28756   5.913   6.800   5.333
 9286SOL    HW128757   5.970   6.878   5.359
 9286SOL    HW228758   5.906   6.795   5.233
 9287SOL     OW28759   2.879   5.523   1.344
 9287SOL    HW128760   2.962   5.541   1.290
 9287SOL    HW228761   2.810   5.593   1.322
 9288SOL     OW28762   3.703   1.513   5.580
 9288SOL    HW128763   3.652   1.542   5.499
 9288SOL    HW228764   3.642   1.511   5.659
 9289SOL     OW28765   4.967   2.651   2.579
 9289SOL    HW128766   4.954   2.556   2.607
 9289SOL    HW228767   4.886   2.682   2.528
 9290SOL     OW28768   4.088   2.156   4.920
 9290SOL    HW128769   4.120   2.229   4.981
 9290SOL    HW228770   4.125   2.171   4.829
 9291SOL     OW28771   1.776   0.191   5.231
 9291SOL    HW128772   1.749   0.124   5.300
 9291SOL    HW228773   1.810   0.143   5.150
 9292SOL     OW28774   0.162   3.251   6.030
 9292SOL    HW128775   0.070   3.256   5.989
 9292SOL    HW228776   0.230   3.279   5.963
 9293SOL     OW28777   5.478   4.150   0.637
 9293SOL    HW128778   5.548   4.178   0.703
 9293SOL    HW228779   5.515   4.077   0.578
 9294SOL     OW28780   4.067   5.894   0.151
 9294SOL    HW128781   4.037   5.971   0.208
 9294SOL    HW228782   3.989   5.858   0.100
 9295SOL     OW28783   4.572   2.176   2.886
 9295SOL    HW128784   4.657   2.143   2.845
 9295SOL    HW228785   4.559   2.273   2.865
 9296SOL     OW28786   6.613   6.676   5.801
 9296SOL    HW128787   6.602   6.618   5.882
 9296SOL    HW228788   6.703   6.661   5.761
 9297SOL     OW28789   0.398   0.528   1.361
 9297SOL    HW128790   0.433   0.450   1.308
 9297SOL    HW228791   0.304   0.546   1.334
 9298SOL     OW28792   2.511   6.137   5.562
 9298SOL    HW128793   2.514   6.053   5.616
 9298SOL    HW228794   2.446   6.126   5.487
 9299SOL     OW28795   1.491   2.912   4.010
 9299SOL    HW128796   1.541   2.839   4.058
 9299SOL    HW228797   1.536   3.000   4.026
 9300SOL     OW28798   6.712   5.181   5.318
 9300SOL    HW128799   6.679   5.126   5.241
 9300SOL    HW228800   6.768   5.124   5.378
 9301SOL     OW28801   4.872   4.538   3.038
 9301SOL    HW128802   4.958   4.543   2.987
 9301SOL    HW228803   4.865   4.450   3.085
 9302SOL     OW28804   2.544   2.471   3.315
 9302SOL    HW128805   2.453   2.505   3.336
 9302SOL    HW228806   2.554   2.462   3.216
 9303SOL     OW28807   3.907   6.769   0.552
 9303SOL    HW128808   3.969   6.705   0.598
 9303SOL    HW228809   3.836   6.718   0.505
 9304SOL     OW28810   3.501   4.234   0.399
 9304SOL    HW128811   3.570   4.306   0.393
 9304SOL    HW228812   3.441   4.251   0.477
 9305SOL     OW28813   5.544   2.250   1.489
 9305SOL    HW128814   5.590   2.178   1.541
 9305SOL    HW228815   5.557   2.233   1.391
 9306SOL     OW28816   6.906   4.709   4.203
 9306SOL    HW128817   6.901   4.657   4.289
 9306SOL    HW228818   6.835   4.675   4.141
 9307SOL     OW28819   1.452   2.109   1.148
 9307SOL    HW128820   1.398   2.185   1.110
 9307SOL    HW228821   1.488   2.054   1.073
 9308SOL     OW28822   0.291   3.171   0.958
 9308SOL    HW128823   0.204   3.207   0.991
 9308SOL    HW228824   0.306   3.080   0.996
 9309SOL     OW28825   4.057   4.184   5.921
 9309SOL    HW128826   4.055   4.284   5.913
 9309SOL    HW228827   3.970   4.146   5.889
 9310SOL     OW28828   4.188   6.789   6.062
 9310SOL    HW128829   4.230   6.880   6.059
 9310SOL    HW228830   4.089   6.798   6.056
 9311SOL     OW28831   5.321   3.709   0.621
 9311SOL    HW128832   5.320   3.707   0.521
 9311SOL    HW228833   5.313   3.804   0.652
 9312SOL     OW28834   1.515   4.282   6.657
 9312SOL    HW128835   1.530   4.191   6.696
 9312SOL    HW228836   1.477   4.342   6.727
 9313SOL     OW28837   6.788   0.670   2.634
 9313SOL    HW128838   6.856   0.641   2.566
 9313SOL    HW228839   6.761   0.764   2.614
 9314SOL     OW28840   4.075   5.552   6.807
 9314SOL    HW128841   4.000   5.593   6.754
 9314SOL    HW228842   4.131   5.496   6.746
 9315SOL     OW28843   0.237   0.546   5.655
 9315SOL    HW128844   0.222   0.614   5.727
 9315SOL    HW228845   0.237   0.455   5.696
 9316SOL     OW28846   3.730   5.856   4.296
 9316SOL    HW128847   3.826   5.876   4.278
 9316SOL    HW228848   3.682   5.940   4.318
 9317SOL     OW28849   5.936   5.151   3.404
 9317SOL    HW128850   5.884   5.085   3.350
 9317SOL    HW228851   5.879   5.188   3.477
 9318SOL     OW28852   0.530   0.877   6.592
 9318SOL    HW128853   0.532   0.879   6.492
 9318SOL    HW228854   0.446   0.834   6.624
 9319SOL     OW28855   0.946   3.148   6.538
 9319SOL    HW128856   0.925   3.125   6.443
 9319SOL    HW228857   0.868   3.194   6.579
 9320SOL     OW28858   3.698   2.393   5.733
 9320SOL    HW128859   3.631   2.468   5.740
 9320SOL    HW228860   3.668   2.316   5.790
 9321SOL     OW28861   6.227   6.936   2.816
 9321SOL    HW128862   6.290   6.993   2.869
 9321SOL    HW228863   6.273   6.851   2.790
 9322SOL     OW28864   0.245   6.533   6.083
 9322SOL    HW128865   0.345   6.526   6.079
 9322SOL    HW228866   0.204   6.446   6.055
 9323SOL     OW28867   0.787   1.204   6.341
 9323SOL    HW128868   0.765   1.115   6.382
 9323SOL    HW228869   0.856   1.250   6.397
 9324SOL     OW28870   1.203   5.016   0.329
 9324SOL    HW128871   1.192   4.921   0.358
 9324SOL    HW228872   1.279   5.022   0.263
 9325SOL     OW28873   5.359   1.613   0.910
 9325SOL    HW128874   5.384   1.539   0.971
 9325SOL    HW228875   5.285   1.667   0.951
 9326SOL     OW28876   2.528   0.000   0.487
 9326SOL    HW128877   2.476   0.074   0.530
 9326SOL    HW228878   2.510   6.939   0.536
 9327SOL     OW28879   4.832   7.003   3.372
 9327SOL    HW128880   4.871   7.012   3.463
 9327SOL    HW228881   4.896   0.016   3.304
 9328SOL     OW28882   3.634   1.458   7.005
 9328SOL    HW128883   3.599   1.450   6.911
 9328SOL    HW228884   3.713   1.398   7.015
 9329SOL     OW28885   6.900   3.569   2.978
 9329SOL    HW128886   6.830   3.501   2.999
 9329SOL    HW228887   6.925   3.619   3.061
 9330SOL     OW28888   6.873   6.622   0.826
 9330SOL    HW128889   6.932   6.647   0.903
 9330SOL    HW228890   6.821   6.702   0.797
 9331SOL     OW28891   0.155   0.897   0.072
 9331SOL    HW128892   0.170   0.798   0.066
 9331SOL    HW228893   0.196   0.942   7.017
 9332SOL     OW28894   3.030   3.877   4.079
 9332SOL    HW128895   3.003   3.823   4.159
 9332SOL    HW228896   3.029   3.819   3.998
 9333SOL     OW28897   5.956   3.770   0.932
 9333SOL    HW128898   5.942   3.856   0.883
 9333SOL    HW228899   5.993   3.789   1.023
 9334SOL     OW28900   3.083   0.270   3.591
 9334SOL    HW128901   3.130   0.246   3.676
 9334SOL    HW228902   3.062   0.187   3.540
 9335SOL     OW28903   1.669   1.566   6.675
 9335SOL    HW128904   1.580   1.554   6.721
 9335SOL    HW228905   1.664   1.529   6.583
 9336SOL     OW28906   3.125   6.428   6.270
 9336SOL    HW128907   3.171   6.459   6.353
 9336SOL    HW228908   3.046   6.485   6.252
 9337SOL     OW28909   5.616   0.325   2.180
 9337SOL    HW128910   5.623   0.260   2.256
 9337SOL    HW228911   5.533   0.379   2.190
 9338SOL     OW28912   4.008   0.418   2.437
 9338SOL    HW128913   4.071   0.414   2.514
 9338SOL    HW228914   3.955   0.503   2.442
 9339SOL     OW28915   5.243   6.690   1.186
 9339SOL    HW128916   5.288   6.751   1.251
 9339SOL    HW228917   5.153   6.665   1.222
 9340SOL     OW28918   5.320   3.589   5.925
 9340SOL    HW128919   5.316   3.678   5.969
 9340SOL    HW228920   5.266   3.523   5.979
 9341SOL     OW28921   1.333   5.661   0.024
 9341SOL    HW128922   1.380   5.578   0.054
 9341SOL    HW228923   1.401   5.728   7.017
 9342SOL     OW28924   1.748   0.003   5.476
 9342SOL    HW128925   1.845   7.008   5.461
 9342SOL    HW228926   1.737   0.096   5.512
 9343SOL     OW28927   6.710   5.710   5.186
 9343SOL    HW128928   6.616   5.718   5.217
 9343SOL    HW228929   6.714   5.715   5.086
 9344SOL     OW28930   4.777   6.460   1.210
 9344SOL    HW128931   4.851   6.411   1.255
 9344SOL    HW228932   4.723   6.510   1.278
 9345SOL     OW28933   6.806   2.848   1.718
 9345SOL    HW128934   6.730   2.783   1.715
 9345SOL    HW228935   6.818   2.880   1.812
 9346SOL     OW28936   6.440   0.596   1.344
 9346SOL    HW128937   6.499   0.603   1.424
 9346SOL    HW228938   6.442   0.502   1.308
 9347SOL     OW28939   1.484   5.970   1.702
 9347SOL    HW128940   1.400   5.916   1.698
 9347SOL    HW228941   1.461   6.068   1.699
 9348SOL     OW28942   3.648   5.817   0.656
 9348SOL    HW128943   3.747   5.831   0.659
 9348SOL    HW228944   3.603   5.905   0.638
 9349SOL     OW28945   1.192   6.469   2.472
 9349SOL    HW128946   1.193   6.491   2.570
 9349SOL    HW228947   1.284   6.445   2.442
 9350SOL     OW28948   0.318   2.310   6.256
 9350SOL    HW128949   0.348   2.287   6.349
 9350SOL    HW228950   0.282   2.403   6.254
 9351SOL     OW28951   3.172   2.532   6.865
 9351SOL    HW128952   3.095   2.485   6.821
 9351SOL    HW228953   3.168   2.517   6.964
 9352SOL     OW28954   2.867   4.790   6.977
 9352SOL    HW128955   2.793   4.724   6.966
 9352SOL    HW228956   2.902   4.785   0.047
 9353SOL     OW28957   0.614   5.881   1.799
 9353SOL    HW128958   0.554   5.883   1.879
 9353SOL    HW228959   0.558   5.872   1.716
 9354SOL     OW28960   5.859   2.429   6.985
 9354SOL    HW128961   5.872   2.330   6.975
 9354SOL    HW228962   5.933   2.467   0.017
 9355SOL     OW28963   0.687   1.515   5.321
 9355SOL    HW128964   0.726   1.600   5.286
 9355SOL    HW228965   0.629   1.474   5.252
 9356SOL     OW28966   4.733   6.844   2.100
 9356SOL    HW128967   4.694   6.848   2.008
 9356SOL    HW228968   4.726   6.751   2.136
 9357SOL     OW28969   0.812   1.821   6.968
 9357SOL    HW128970   0.738   1.790   0.004
 9357SOL    HW228971   0.881   1.868   7.023
 9358SOL     OW28972   1.319   3.526   2.242
 9358SOL    HW128973   1.352   3.475   2.163
 9358SOL    HW228974   1.396   3.545   2.304
 9359SOL     OW28975   2.168   6.631   6.166
 9359SOL    HW128976   2.184   6.650   6.263
 9359SOL    HW228977   2.241   6.572   6.131
 9360SOL     OW28978   1.498   0.467   6.515
 9360SOL    HW128979   1.521   0.552   6.563
 9360SOL    HW228980   1.426   0.484   6.448
 9361SOL     OW28981   2.570   6.243   4.030
 9361SOL    HW128982   2.529   6.331   4.007
 9361SOL    HW228983   2.668   6.254   4.044
 9362SOL     OW28984   1.972   0.252   1.932
 9362SOL    HW128985   1.992   0.186   2.004
 9362SOL    HW228986   2.029   0.333   1.944
 9363SOL     OW28987   3.013   5.378   2.288
 9363SOL    HW128988   3.107   5.365   2.257
 9363SOL    HW228989   2.975   5.459   2.243
 9364SOL     OW28990   1.748   1.987   1.450
 9364SOL    HW128991   1.672   1.944   1.402
 9364SOL    HW228992   1.827   1.926   1.449
 9365SOL     OW28993   3.209   1.844   4.417
 9365SOL    HW128994   3.302   1.807   4.413
 9365SOL    HW228995   3.210   1.939   4.387
 9366SOL     OW28996   3.326   5.728   0.418
 9366SOL    HW128997   3.346   5.805   0.357
 9366SOL    HW228998   3.412   5.692   0.454
 9367SOL     OW28999   6.418   0.711   1.613
 9367SOL    HW129000   6.348   0.662   1.665
 9367SOL    HW229001   6.389   0.806   1.598
 9368SOL     OW29002   3.572   0.948   2.779
 9368SOL    HW129003   3.628   0.951   2.697
 9368SOL    HW229004   3.529   0.858   2.787
 9369SOL     OW29005   2.026   5.451   6.646
 9369SOL    HW129006   1.938   5.492   6.670
 9369SOL    HW229007   2.088   5.459   6.725
 9370SOL     OW29008   4.872   2.120   4.028
 9370SOL    HW129009   4.913   2.126   3.936
 9370SOL    HW229010   4.875   2.210   4.072
 9371SOL     OW29011   3.896   5.966   1.336
 9371SOL    HW129012   3.963   5.893   1.330
 9371SOL    HW229013   3.804   5.928   1.331
 9372SOL     OW29014   5.020   6.532   1.611
 9372SOL    HW129015   5.091   6.561   1.675
 9372SOL    HW229016   5.051   6.550   1.517
 9373SOL     OW29017   6.664   1.140   0.870
 9373SOL    HW129018   6.754   1.109   0.901
 9373SOL    HW229019   6.671   1.174   0.777
 9374SOL     OW29020   0.866   5.130   5.659
 9374SOL    HW129021   0.833   5.047   5.705
 9374SOL    HW229022   0.791   5.196   5.652
 9375SOL     OW29023   0.441   1.535   0.017
 9375SOL    HW129024   0.373   1.519   6.969
 9375SOL    HW229025   0.528   1.561   7.000
 9376SOL     OW29026   2.134   3.688   2.219
 9376SOL    HW129027   2.158   3.784   2.232
 9376SOL    HW229028   2.168   3.656   2.131
 9377SOL     OW29029   2.481   6.546   2.915
 9377SOL    HW129030   2.532   6.570   2.998
 9377SOL    HW229031   2.526   6.587   2.836
 9378SOL     OW29032   2.972   0.669   3.533
 9378SOL    HW129033   3.052   0.656   3.591
 9378SOL    HW229034   2.899   0.607   3.562
 9379SOL     OW29035   4.284   6.613   4.591
 9379SOL    HW129036   4.230   6.567   4.521
 9379SOL    HW229037   4.223   6.653   4.659
 9380SOL     OW29038   4.922   5.870   6.931
 9380SOL    HW129039   4.916   5.838   6.836
 9380SOL    HW229040   5.014   5.904   6.949
 9381SOL     OW29041   5.489   2.146   4.511
 9381SOL    HW129042   5.395   2.176   4.525
 9381SOL    HW229043   5.507   2.065   4.568
 9382SOL     OW29044   3.417   0.178   4.802
 9382SOL    HW129045   3.441   0.147   4.710
 9382SOL    HW229046   3.335   0.236   4.797
 9383SOL     OW29047   4.789   4.023   3.195
 9383SOL    HW129048   4.719   3.964   3.156
 9383SOL    HW229049   4.878   3.977   3.189
 9384SOL     OW29050   2.106   0.463   2.039
 9384SOL    HW129051   2.131   0.560   2.042
 9384SOL    HW229052   2.034   0.446   2.107
 9385SOL     OW29053   3.996   1.631   3.281
 9385SOL    HW129054   3.932   1.700   3.315
 9385SOL    HW229055   4.047   1.592   3.358
 9386SOL     OW29056   4.260   6.591   6.322
 9386SOL    HW129057   4.240   6.540   6.238
 9386SOL    HW229058   4.265   6.689   6.301
 9387SOL     OW29059   2.756   2.514   6.945
 9387SOL    HW129060   2.746   2.609   6.973
 9387SOL    HW229061   2.687   2.492   6.876
 9388SOL     OW29062   2.056   6.018   4.699
 9388SOL    HW129063   2.098   6.094   4.748
 9388SOL    HW229064   1.965   6.046   4.668
 9389SOL     OW29065   2.770   4.573   1.630
 9389SOL    HW129066   2.698   4.610   1.689
 9389SOL    HW229067   2.837   4.525   1.686
 9390SOL     OW29068   5.243   5.029   5.101
 9390SOL    HW129069   5.183   5.033   5.021
 9390SOL    HW229070   5.237   4.938   5.142
 9391SOL     OW29071   2.034   5.790   4.540
 9391SOL    HW129072   2.040   5.874   4.594
 9391SOL    HW229073   2.079   5.716   4.589
 9392SOL     OW29074   6.008   4.426   2.465
 9392SOL    HW129075   6.046   4.351   2.410
 9392SOL    HW229076   6.075   4.455   2.533
 9393SOL     OW29077   2.735   6.920   6.116
 9393SOL    HW129078   2.647   6.952   6.081
 9393SOL    HW229079   2.785   6.998   6.155
 9394SOL     OW29080   4.331   0.312   0.789
 9394SOL    HW129081   4.360   0.233   0.841
 9394SOL    HW229082   4.256   0.358   0.837
 9395SOL     OW29083   2.049   1.957   0.797
 9395SOL    HW129084   2.147   1.969   0.784
 9395SOL    HW229085   2.024   1.986   0.889
 9396SOL     OW29086   0.596   6.587   6.537
 9396SOL    HW129087   0.509   6.573   6.491
 9396SOL    HW229088   0.665   6.527   6.497
 9397SOL     OW29089   3.909   1.176   5.835
 9397SOL    HW129090   3.930   1.244   5.764
 9397SOL    HW229091   3.994   1.151   5.882
 9398SOL     OW29092   0.257   1.449   6.849
 9398SOL    HW129093   0.165   1.472   6.817
 9398SOL    HW229094   0.302   1.391   6.781
 9399SOL     OW29095   1.539   2.879   3.599
 9399SOL    HW129096   1.633   2.846   3.594
 9399SOL    HW229097   1.521   2.939   3.521
 9400SOL     OW29098   5.638   1.087   0.744
 9400SOL    HW129099   5.566   1.054   0.683
 9400SOL    HW229100   5.599   1.108   0.834
 9401SOL     OW29101   0.291   2.222   2.932
 9401SOL    HW129102   0.241   2.282   2.994
 9401SOL    HW229103   0.305   2.133   2.975
 9402SOL     OW29104   1.564   5.981   3.691
 9402SOL    HW129105   1.516   6.068   3.696
 9402SOL    HW229106   1.564   5.948   3.597
 9403SOL     OW29107   6.467   2.203   1.973
 9403SOL    HW129108   6.368   2.210   1.971
 9403SOL    HW229109   6.507   2.271   1.912
 9404SOL     OW29110   2.000   3.117   0.728
 9404SOL    HW129111   2.038   3.042   0.782
 9404SOL    HW229112   1.909   3.092   0.696
 9405SOL     OW29113   0.571   5.468   5.433
 9405SOL    HW129114   0.590   5.508   5.522
 9405SOL    HW229115   0.643   5.401   5.410
 9406SOL     OW29116   0.022   2.975   0.243
 9406SOL    HW129117   0.121   2.971   0.230
 9406SOL    HW229118   7.007   3.040   0.178
 9407SOL     OW29119   1.145   5.339   5.684
 9407SOL    HW129120   1.105   5.264   5.630
 9407SOL    HW229121   1.240   5.351   5.658
 9408SOL     OW29122   0.157   4.121   4.799
 9408SOL    HW129123   0.097   4.113   4.878
 9408SOL    HW229124   0.170   4.030   4.758
 9409SOL     OW29125   6.876   5.333   2.053
 9409SOL    HW129126   6.972   5.337   2.025
 9409SOL    HW229127   6.830   5.417   2.026
 9410SOL     OW29128   3.924   0.868   1.278
 9410SOL    HW129129   3.914   0.909   1.187
 9410SOL    HW229130   3.965   0.777   1.270
 9411SOL     OW29131   3.009   3.112   3.175
 9411SOL    HW129132   3.053   3.164   3.248
 9411SOL    HW229133   2.912   3.100   3.195
 9412SOL     OW29134   6.008   6.438   1.303
 9412SOL    HW129135   6.013   6.421   1.204
 9412SOL    HW229136   5.975   6.355   1.349
 9413SOL     OW29137   4.583   4.364   2.613
 9413SOL    HW129138   4.612   4.269   2.600
 9413SOL    HW229139   4.530   4.394   2.535
 9414SOL     OW29140   1.640   1.806   4.215
 9414SOL    HW129141   1.681   1.721   4.249
 9414SOL    HW229142   1.694   1.840   4.138
 9415SOL     OW29143   4.100   1.388   2.590
 9415SOL    HW129144   4.094   1.357   2.496
 9415SOL    HW229145   4.017   1.365   2.639
 9416SOL     OW29146   6.073   5.020   5.999
 9416SOL    HW129147   6.047   4.929   6.029
 9416SOL    HW229148   6.168   5.019   5.967
 9417SOL     OW29149   3.714   6.006   1.955
 9417SOL    HW129150   3.797   5.950   1.960
 9417SOL    HW229151   3.661   5.994   2.040
 9418SOL     OW29152   3.011   2.118   4.657
 9418SOL    HW129153   2.969   2.173   4.729
 9418SOL    HW229154   3.054   2.178   4.590
 9419SOL     OW29155   1.863   3.235   6.296
 9419SOL    HW129156   1.879   3.290   6.215
 9419SOL    HW229157   1.771   3.253   6.331
 9420SOL     OW29158   6.304   4.075   0.026
 9420SOL    HW129159   6.273   3.997   6.996
 9420SOL    HW229160   6.396   4.101   7.021
 9421SOL     OW29161   3.735   6.477   5.700
 9421SOL    HW129162   3.655   6.532   5.723
 9421SOL    HW229163   3.708   6.404   5.637
 9422SOL     OW29164   2.462   6.234   4.699
 9422SOL    HW129165   2.435   6.138   4.703
 9422SOL    HW229166   2.413   6.280   4.625
 9423SOL     OW29167   4.780   4.413   3.375
 9423SOL    HW129168   4.745   4.505   3.358
 9423SOL    HW229169   4.852   4.417   3.445
 9424SOL     OW29170   5.992   0.003   4.549
 9424SOL    HW129171   6.016   0.044   4.462
 9424SOL    HW229172   5.974   6.929   4.536
 9425SOL     OW29173   6.903   5.057   1.102
 9425SOL    HW129174   6.927   5.077   1.197
 9425SOL    HW229175   6.817   5.006   1.099
 9426SOL     OW29176   6.864   2.220   6.928
 9426SOL    HW129177   6.822   2.131   6.912
 9426SOL    HW229178   6.826   2.260   7.012
 9427SOL     OW29179   4.713   4.785   3.048
 9427SOL    HW129180   4.749   4.692   3.052
 9427SOL    HW229181   4.654   4.801   3.126
 9428SOL     OW29182   0.023   6.331   5.290
 9428SOL    HW129183   7.021   6.306   5.383
 9428SOL    HW229184   0.090   6.266   5.255
 9429SOL     OW29185   2.512   2.064   3.863
 9429SOL    HW129186   2.546   2.158   3.872
 9429SOL    HW229187   2.413   2.065   3.848
 9430SOL     OW29188   1.023   2.172   4.489
 9430SOL    HW129189   1.080   2.092   4.510
 9430SOL    HW229190   1.045   2.247   4.551
 9431SOL     OW29191   0.894   4.611   5.182
 9431SOL    HW129192   0.915   4.698   5.228
 9431SOL    HW229193   0.957   4.598   5.106
 9432SOL     OW29194   6.731   1.189   3.723
 9432SOL    HW129195   6.807   1.174   3.786
 9432SOL    HW229196   6.766   1.215   3.633
 9433SOL     OW29197   4.563   5.516   1.996
 9433SOL    HW129198   4.578   5.422   2.027
 9433SOL    HW229199   4.602   5.528   1.905
 9434SOL     OW29200   4.796   5.081   4.329
 9434SOL    HW129201   4.750   5.162   4.294
 9434SOL    HW229202   4.872   5.057   4.269
 9435SOL     OW29203   0.513   2.804   1.798
 9435SOL    HW129204   0.611   2.821   1.789
 9435SOL    HW229205   0.480   2.842   1.885
 9436SOL     OW29206   1.838   0.672   2.669
 9436SOL    HW129207   1.817   0.769   2.678
 9436SOL    HW229208   1.850   0.632   2.760
 9437SOL     OW29209   6.030   6.087   4.941
 9437SOL    HW129210   6.051   6.171   4.992
 9437SOL    HW229211   6.114   6.033   4.931
 9438SOL     OW29212   4.549   6.183   2.480
 9438SOL    HW129213   4.558   6.143   2.389
 9438SOL    HW229214   4.458   6.225   2.488
 9439SOL     OW29215   1.476   3.069   0.865
 9439SOL    HW129216   1.458   3.014   0.784
 9439SOL    HW229217   1.391   3.082   0.916
 9440SOL     OW29218   2.396   5.378   3.053
 9440SOL    HW129219   2.487   5.347   3.026
 9440SOL    HW229220   2.394   5.393   3.152
 9441SOL     OW29221   0.947   5.906   4.473
 9441SOL    HW129222   0.961   5.815   4.435
 9441SOL    HW229223   0.863   5.946   4.436
 9442SOL     OW29224   4.605   3.173   0.818
 9442SOL    HW129225   4.647   3.124   0.741
 9442SOL    HW229226   4.583   3.266   0.790
 9443SOL     OW29227   2.198   4.864   2.968
 9443SOL    HW129228   2.151   4.885   2.882
 9443SOL    HW229229   2.137   4.811   3.027
 9444SOL     OW29230   0.937   4.727   6.242
 9444SOL    HW129231   0.988   4.798   6.292
 9444SOL    HW229232   0.839   4.740   6.257
 9445SOL     OW29233   0.639   1.186   3.894
 9445SOL    HW129234   0.550   1.217   3.927
 9445SOL    HW229235   0.676   1.117   3.956
 9446SOL     OW29236   6.407   5.218   3.307
 9446SOL    HW129237   6.417   5.207   3.406
 9446SOL    HW229238   6.441   5.136   3.262
 9447SOL     OW29239   4.708   4.504   1.524
 9447SOL    HW129240   4.806   4.498   1.503
 9447SOL    HW229241   4.696   4.529   1.620
 9448SOL     OW29242   6.167   0.622   5.214
 9448SOL    HW129243   6.114   0.586   5.137
 9448SOL    HW229244   6.173   0.553   5.286
 9449SOL     OW29245   5.559   0.013   1.437
 9449SOL    HW129246   5.494   6.962   1.426
 9449SOL    HW229247   5.521   0.082   1.498
 9450SOL     OW29248   1.187   5.451   2.794
 9450SOL    HW129249   1.168   5.476   2.699
 9450SOL    HW229250   1.285   5.434   2.805
 9451SOL     OW29251   3.543   5.623   6.250
 9451SOL    HW129252   3.466   5.686   6.247
 9451SOL    HW229253   3.609   5.648   6.179
 9452SOL     OW29254   6.289   3.844   0.293
 9452SOL    HW129255   6.204   3.893   0.275
 9452SOL    HW229256   6.308   3.844   0.391
 9453SOL     OW29257   4.494   5.260   1.790
 9453SOL    HW129258   4.429   5.251   1.865
 9453SOL    HW229259   4.556   5.336   1.808
 9454SOL     OW29260   5.700   4.268   0.412
 9454SOL    HW129261   5.754   4.246   0.494
 9454SOL    HW229262   5.629   4.334   0.436
 9455SOL     OW29263   3.537   1.554   1.812
 9455SOL    HW129264   3.573   1.560   1.905
 9455SOL    HW229265   3.598   1.499   1.755
 9456SOL     OW29266   0.212   3.152   1.556
 9456SOL    HW129267   0.266   3.148   1.472
 9456SOL    HW229268   0.149   3.229   1.551
 9457SOL     OW29269   0.071   6.085   4.404
 9457SOL    HW129270   0.032   6.035   4.327
 9457SOL    HW229271   0.155   6.131   4.375
 9458SOL     OW29272   6.781   3.505   0.031
 9458SOL    HW129273   6.703   3.442   0.033
 9458SOL    HW229274   6.821   3.505   6.963
 9459SOL     OW29275   4.617   5.023   5.276
 9459SOL    HW129276   4.672   4.968   5.339
 9459SOL    HW229277   4.640   5.000   5.182
 9460SOL     OW29278   1.575   2.018   3.143
 9460SOL    HW129279   1.624   2.036   3.058
 9460SOL    HW229280   1.561   2.104   3.193
 9461SOL     OW29281   1.578   2.339   2.196
 9461SOL    HW129282   1.647   2.407   2.174
 9461SOL    HW229283   1.487   2.381   2.189
 9462SOL     OW29284   1.141   1.163   4.452
 9462SOL    HW129285   1.189   1.234   4.505
 9462SOL    HW229286   1.145   1.186   4.355
 9463SOL     OW29287   5.404   5.452   1.798
 9463SOL    HW129288   5.332   5.474   1.732
 9463SOL    HW229289   5.484   5.418   1.749
 9464SOL     OW29290   1.081   1.082   2.144
 9464SOL    HW129291   0.999   1.027   2.159
 9464SOL    HW229292   1.060   1.157   2.081
 9465SOL     OW29293   6.507   4.424   1.267
 9465SOL    HW129294   6.499   4.360   1.191
 9465SOL    HW229295   6.416   4.437   1.308
 9466SOL     OW29296   3.695   4.805   6.060
 9466SOL    HW129297   3.728   4.779   6.151
 9466SOL    HW229298   3.627   4.877   6.068
 9467SOL     OW29299   1.969   3.978   0.894
 9467SOL    HW129300   1.917   4.062   0.878
 9467SOL    HW229301   1.914   3.916   0.950
 9468SOL     OW29302   6.364   1.538   0.513
 9468SOL    HW129303   6.377   1.626   0.559
 9468SOL    HW229304   6.270   1.532   0.479
 9469SOL     OW29305   1.194   6.403   1.704
 9469SOL    HW129306   1.123   6.336   1.726
 9469SOL    HW229307   1.153   6.483   1.660
 9470SOL     OW29308   3.863   3.927   0.901
 9470SOL    HW129309   3.821   3.863   0.838
 9470SOL    HW229310   3.795   3.959   0.967
 9471SOL     OW29311   6.291   3.574   5.339
 9471SOL    HW129312   6.281   3.566   5.240
 9471SOL    HW229313   6.201   3.571   5.382
 9472SOL     OW29314   1.642   3.007   6.475
 9472SOL    HW129315   1.607   2.915   6.461
 9472SOL    HW229316   1.565   3.072   6.475
 9473SOL     OW29317   2.859   4.447   0.863
 9473SOL    HW129318   2.849   4.519   0.931
 9473SOL    HW229319   2.863   4.358   0.909
 9474SOL     OW29320   5.469   2.959   0.339
 9474SOL    HW129321   5.416   3.030   0.384
 9474SOL    HW229322   5.533   2.918   0.404
 9475SOL     OW29323   4.869   3.675   6.255
 9475SOL    HW129324   4.802   3.734   6.210
 9475SOL    HW229325   4.921   3.729   6.322
 9476SOL     OW29326   3.718   4.165   6.549
 9476SOL    HW129327   3.719   4.259   6.584
 9476SOL    HW229328   3.790   4.112   6.595
 9477SOL     OW29329   1.892   4.188   0.608
 9477SOL    HW129330   1.836   4.147   0.536
 9477SOL    HW229331   1.838   4.194   0.693
 9478SOL     OW29332   5.755   3.274   0.117
 9478SOL    HW129333   5.852   3.295   0.112
 9478SOL    HW229334   5.742   3.175   0.113
 9479SOL     OW29335   4.058   0.912   2.125
 9479SOL    HW129336   4.109   0.933   2.042
 9479SOL    HW229337   3.960   0.910   2.105
 9480SOL     OW29338   6.870   0.800   0.770
 9480SOL    HW129339   6.826   0.713   0.790
 9480SOL    HW229340   6.822   0.874   0.818
 9481SOL     OW29341   4.196   0.145   3.387
 9481SOL    HW129342   4.126   0.086   3.427
 9481SOL    HW229343   4.219   0.218   3.451
 9482SOL     OW29344   6.544   6.258   6.941
 9482SOL    HW129345   6.484   6.208   6.879
 9482SOL    HW229346   6.490   6.318   6.999
 9483SOL     OW29347   6.596   0.155   0.388
 9483SOL    HW129348   6.585   0.201   0.476
 9483SOL    HW229349   6.547   0.207   0.318
 9484SOL     OW29350   3.860   5.652   4.809
 9484SOL    HW129351   3.846   5.751   4.821
 9484SOL    HW229352   3.931   5.621   4.872
 9485SOL     OW29353   0.121   0.977   0.326
 9485SOL    HW129354   0.021   0.974   0.323
 9485SOL    HW229355   0.158   0.964   0.234
 9486SOL     OW29356   5.113   6.065   0.481
 9486SOL    HW129357   5.128   6.164   0.489
 9486SOL    HW229358   5.068   6.045   0.395
 9487SOL     OW29359   3.237   2.953   3.117
 9487SOL    HW129360   3.261   2.970   3.021
 9487SOL    HW229361   3.157   3.008   3.142
 9488SOL     OW29362   1.731   0.953   0.631
 9488SOL    HW129363   1.650   0.908   0.593
 9488SOL    HW229364   1.793   0.884   0.669
 9489SOL     OW29365   5.622   3.415   0.285
 9489SOL    HW129366   5.658   3.434   0.377
 9489SOL    HW229367   5.694   3.378   0.228
 9490SOL     OW29368   5.506   3.860   4.291
 9490SOL    HW129369   5.439   3.828   4.358
 9490SOL    HW229370   5.489   3.816   4.203
 9491SOL     OW29371   5.221   6.213   2.736
 9491SOL    HW129372   5.301   6.248   2.688
 9491SOL    HW229373   5.241   6.206   2.834
 9492SOL     OW29374   5.115   2.917   4.106
 9492SOL    HW129375   5.029   2.883   4.144
 9492SOL    HW229376   5.169   2.840   4.070
 9493SOL     OW29377   4.159   6.846   2.019
 9493SOL    HW129378   4.218   6.784   2.070
 9493SOL    HW229379   4.177   6.940   2.048
 9494SOL     OW29380   5.268   2.256   1.867
 9494SOL    HW129381   5.235   2.180   1.922
 9494SOL    HW229382   5.353   2.229   1.820
 9495SOL     OW29383   0.273   2.049   2.373
 9495SOL    HW129384   0.254   1.971   2.312
 9495SOL    HW229385   0.283   2.132   2.318
 9496SOL     OW29386   5.237   2.411   2.162
 9496SOL    HW129387   5.245   2.352   2.243
 9496SOL    HW229388   5.245   2.507   2.190
 9497SOL     OW29389   4.942   4.569   4.611
 9497SOL    HW129390   4.879   4.625   4.558
 9497SOL    HW229391   5.001   4.518   4.549
 9498SOL     OW29392   1.157   5.352   3.575
 9498SOL    HW129393   1.107   5.417   3.632
 9498SOL    HW229394   1.153   5.382   3.479
 9499SOL     OW29395   6.449   5.752   5.189
 9499SOL    HW129396   6.350   5.737   5.181
 9499SOL    HW229397   6.475   5.832   5.135
 9500SOL     OW29398   3.795   1.948   0.722
 9500SOL    HW129399   3.812   2.043   0.746
 9500SOL    HW229400   3.881   1.897   0.724
 9501SOL     OW29401   1.984   3.364   5.256
 9501SOL    HW129402   2.045   3.428   5.208
 9501SOL    HW229403   1.892   3.403   5.259
 9502SOL     OW29404   5.004   4.619   4.867
 9502SOL    HW129405   5.103   4.617   4.882
 9502SOL    HW229406   4.985   4.613   4.770
 9503SOL     OW29407   0.241   2.363   0.126
 9503SOL    HW129408   0.204   2.392   0.038
 9503SOL    HW229409   0.272   2.443   0.177
 9504SOL     OW29410   5.700   5.336   2.468
 9504SOL    HW129411   5.713   5.244   2.432
 9504SOL    HW229412   5.766   5.398   2.426
 9505SOL     OW29413   4.290   5.395   5.428
 9505SOL    HW129414   4.223   5.432   5.364
 9505SOL    HW229415   4.357   5.340   5.379
 9506SOL     OW29416   3.119   1.319   1.183
 9506SOL    HW129417   3.139   1.248   1.250
 9506SOL    HW229418   3.030   1.303   1.141
 9507SOL     OW29419   4.948   0.270   2.519
 9507SOL    HW129420   5.007   0.246   2.442
 9507SOL    HW229421   4.993   0.337   2.577
 9508SOL     OW29422   5.187   1.956   2.951
 9508SOL    HW129423   5.185   2.051   2.921
 9508SOL    HW229424   5.279   1.933   2.983
 9509SOL     OW29425   5.787   0.847   3.455
 9509SOL    HW129426   5.861   0.860   3.390
 9509SOL    HW229427   5.818   0.870   3.547
 9510SOL     OW29428   1.200   2.574   3.819
 9510SOL    HW129429   1.243   2.511   3.755
 9510SOL    HW229430   1.234   2.667   3.802
 9511SOL     OW29431   1.697   1.517   0.530
 9511SOL    HW129432   1.674   1.576   0.453
 9511SOL    HW229433   1.733   1.573   0.605
 9512SOL     OW29434   6.344   1.887   1.163
 9512SOL    HW129435   6.322   1.971   1.213
 9512SOL    HW229436   6.429   1.899   1.112
 9513SOL     OW29437   4.179   5.025   6.140
 9513SOL    HW129438   4.096   5.046   6.192
 9513SOL    HW229439   4.220   5.110   6.108
 9514SOL     OW29440   3.720   2.798   6.722
 9514SOL    HW129441   3.805   2.788   6.671
 9514SOL    HW229442   3.644   2.762   6.667
 9515SOL     OW29443   0.678   5.177   3.584
 9515SOL    HW129444   0.685   5.097   3.643
 9515SOL    HW229445   0.675   5.148   3.488
 9516SOL     OW29446   0.021   4.092   0.798
 9516SOL    HW129447   7.000   4.022   0.741
 9516SOL    HW229448   6.997   4.098   0.886
 9517SOL     OW29449   0.872   4.848   0.493
 9517SOL    HW129450   0.920   4.805   0.416
 9517SOL    HW229451   0.800   4.786   0.525
 9518SOL     OW29452   0.945   0.984   0.232
 9518SOL    HW129453   0.912   1.064   0.182
 9518SOL    HW229454   1.012   0.935   0.177
 9519SOL     OW29455   1.089   3.185   5.247
 9519SOL    HW129456   1.167   3.190   5.309
 9519SOL    HW229457   1.103   3.248   5.170
 9520SOL     OW29458   3.422   6.921   1.722
 9520SOL    HW129459   3.505   6.876   1.756
 9520SOL    HW229460   3.407   6.895   1.627
 9521SOL     OW29461   5.595   5.001   3.974
 9521SOL    HW129462   5.526   4.982   4.043
 9521SOL    HW229463   5.611   5.100   3.969
 9522SOL     OW29464   3.566   5.718   0.902
 9522SOL    HW129465   3.611   5.764   0.825
 9522SOL    HW229466   3.634   5.682   0.965
 9523SOL     OW29467   3.776   6.172   4.724
 9523SOL    HW129468   3.682   6.186   4.695
 9523SOL    HW229469   3.835   6.241   4.682
 9524SOL     OW29470   4.641   2.704   0.746
 9524SOL    HW129471   4.664   2.739   0.837
 9524SOL    HW229472   4.564   2.641   0.753
 9525SOL     OW29473   3.724   0.530   6.499
 9525SOL    HW129474   3.813   0.548   6.457
 9525SOL    HW229475   3.726   0.558   6.595
 9526SOL     OW29476   5.374   5.396   2.069
 9526SOL    HW129477   5.390   5.422   1.973
 9526SOL    HW229478   5.289   5.344   2.075
 9527SOL     OW29479   6.167   2.186   1.965
 9527SOL    HW129480   6.097   2.206   1.896
 9527SOL    HW229481   6.185   2.088   1.967
 9528SOL     OW29482   6.178   0.969   2.368
 9528SOL    HW129483   6.119   0.932   2.296
 9528SOL    HW229484   6.191   1.067   2.355
 9529SOL     OW29485   0.356   3.477   5.148
 9529SOL    HW129486   0.323   3.448   5.058
 9529SOL    HW229487   0.386   3.397   5.200
 9530SOL     OW29488   1.440   2.517   4.210
 9530SOL    HW129489   1.486   2.435   4.246
 9530SOL    HW229490   1.389   2.494   4.128
 9531SOL     OW29491   3.050   6.196   3.158
 9531SOL    HW129492   3.086   6.143   3.234
 9531SOL    HW229493   3.112   6.271   3.137
 9532SOL     OW29494   2.385   0.646   1.892
 9532SOL    HW129495   2.337   0.592   1.961
 9532SOL    HW229496   2.355   0.616   1.801
 9533SOL     OW29497   2.160   0.307   5.200
 9533SOL    HW129498   2.213   0.386   5.169
 9533SOL    HW229499   2.066   0.336   5.220
 9534SOL     OW29500   4.666   1.981   4.852
 9534SOL    HW129501   4.706   2.072   4.844
 9534SOL    HW229502   4.738   1.912   4.860
 9535SOL     OW29503   2.198   1.958   5.895
 9535SOL    HW129504   2.218   1.926   5.988
 9535SOL    HW229505   2.282   1.958   5.841
 9536SOL     OW29506   2.471   0.005   5.987
 9536SOL    HW129507   2.389   6.972   5.977
 9536SOL    HW229508   2.489   0.053   5.902
 9537SOL     OW29509   2.775   6.903   0.753
 9537SOL    HW129510   2.829   6.919   0.836
 9537SOL    HW229511   2.835   6.903   0.673
 9538SOL     OW29512   6.120   3.237   3.739
 9538SOL    HW129513   6.071   3.151   3.721
 9538SOL    HW229514   6.143   3.281   3.652
 9539SOL     OW29515   0.131   4.982   1.066
 9539SOL    HW129516   0.033   4.965   1.076
 9539SOL    HW229517   0.148   5.080   1.070
 9540SOL     OW29518   5.370   3.667   4.710
 9540SOL    HW129519   5.438   3.730   4.749
 9540SOL    HW229520   5.300   3.648   4.779
 9541SOL     OW29521   1.757   1.921   3.725
 9541SOL    HW129522   1.849   1.940   3.692
 9541SOL    HW229523   1.717   2.004   3.763
 9542SOL     OW29524   4.926   3.478   4.390
 9542SOL    HW129525   4.952   3.423   4.469
 9542SOL    HW229526   4.903   3.417   4.314
 9543SOL     OW29527   4.934   2.637   2.248
 9543SOL    HW129528   4.963   2.710   2.186
 9543SOL    HW229529   5.003   2.565   2.249
 9544SOL     OW29530   3.220   1.756   2.095
 9544SOL    HW129531   3.262   1.699   2.025
 9544SOL    HW229532   3.269   1.744   2.182
 9545SOL     OW29533   0.389   6.667   4.225
 9545SOL    HW129534   0.444   6.745   4.196
 9545SOL    HW229535   0.393   6.659   4.325
 9546SOL     OW29536   2.707   5.118   0.801
 9546SOL    HW129537   2.719   5.154   0.708
 9546SOL    HW229538   2.618   5.073   0.808
 9547SOL     OW29539   6.249   6.286   3.023
 9547SOL    HW129540   6.191   6.334   2.957
 9547SOL    HW229541   6.340   6.273   2.984
 9548SOL     OW29542   4.808   6.431   3.034
 9548SOL    HW129543   4.772   6.470   3.119
 9548SOL    HW229544   4.902   6.464   3.020
 9549SOL     OW29545   2.674   5.942   0.785
 9549SOL    HW129546   2.613   6.003   0.735
 9549SOL    HW229547   2.733   5.894   0.721
 9550SOL     OW29548   1.039   1.571   0.415
 9550SOL    HW129549   0.968   1.519   0.367
 9550SOL    HW229550   0.996   1.637   0.477
 9551SOL     OW29551   2.338   5.909   4.930
 9551SOL    HW129552   2.269   5.982   4.935
 9551SOL    HW229553   2.313   5.836   4.993
 9552SOL     OW29554   1.210   5.694   3.327
 9552SOL    HW129555   1.236   5.756   3.401
 9552SOL    HW229556   1.175   5.746   3.249
 9553SOL     OW29557   5.539   4.957   5.034
 9553SOL    HW129558   5.520   4.861   5.013
 9553SOL    HW229559   5.452   5.006   5.046
 9554SOL     OW29560   2.307   1.301   1.785
 9554SOL    HW129561   2.298   1.316   1.884
 9554SOL    HW229562   2.369   1.368   1.747
 9555SOL     OW29563   6.277   2.388   7.009
 9555SOL    HW129564   6.277   2.419   6.914
 9555SOL    HW229565   6.285   2.289   7.012
 9556SOL     OW29566   0.524   1.567   1.358
 9556SOL    HW129567   0.526   1.636   1.430
 9556SOL    HW229568   0.532   1.612   1.269
 9557SOL     OW29569   5.281   2.359   1.514
 9557SOL    HW129570   5.240   2.387   1.601
 9557SOL    HW229571   5.378   2.340   1.528
 9558SOL     OW29572   6.089   5.072   2.137
 9558SOL    HW129573   5.991   5.086   2.146
 9558SOL    HW229574   6.136   5.108   2.217
 9559SOL     OW29575   6.501   2.905   2.143
 9559SOL    HW129576   6.422   2.953   2.182
 9559SOL    HW229577   6.533   2.835   2.207
 9560SOL     OW29578   3.243   1.507   4.036
 9560SOL    HW129579   3.238   1.492   3.937
 9560SOL    HW229580   3.196   1.592   4.059
 9561SOL     OW29581   4.350   7.017   1.283
 9561SOL    HW129582   4.305   6.956   1.218
 9561SOL    HW229583   4.449   7.003   1.279
 9562SOL     OW29584   6.088   5.835   3.273
 9562SOL    HW129585   6.021   5.808   3.204
 9562SOL    HW229586   6.153   5.901   3.234
 9563SOL     OW29587   0.013   5.627   6.867
 9563SOL    HW129588   6.976   5.695   6.909
 9563SOL    HW229589   0.102   5.628   6.914
 9564SOL     OW29590   2.321   6.801   6.601
 9564SOL    HW129591   2.381   6.831   6.527
 9564SOL    HW229592   2.263   6.877   6.631
 9565SOL     OW29593   4.302   6.276   4.502
 9565SOL    HW129594   4.262   6.333   4.430
 9565SOL    HW229595   4.275   6.310   4.591
 9566SOL     OW29596   3.234   4.890   5.242
 9566SOL    HW129597   3.197   4.801   5.218
 9566SOL    HW229598   3.272   4.886   5.335
 9567SOL     OW29599   6.115   5.747   5.853
 9567SOL    HW129600   6.044   5.688   5.890
 9567SOL    HW229601   6.080   5.840   5.844
 9568SOL     OW29602   5.561   3.720   6.841
 9568SOL    HW129603   5.609   3.796   6.797
 9568SOL    HW229604   5.462   3.737   6.837
 9569SOL     OW29605   6.261   0.315   1.065
 9569SOL    HW129606   6.250   0.285   0.970
 9569SOL    HW229607   6.180   0.365   1.094
 9570SOL     OW29608   0.753   0.270   6.567
 9570SOL    HW129609   0.780   0.173   6.572
 9570SOL    HW229610   0.669   0.283   6.619
 9571SOL     OW29611   1.887   3.943   0.158
 9571SOL    HW129612   1.934   3.930   0.071
 9571SOL    HW229613   1.941   3.902   0.232
 9572SOL     OW29614   0.747   4.213   0.795
 9572SOL    HW129615   0.743   4.225   0.696
 9572SOL    HW229616   0.823   4.152   0.818
 9573SOL     OW29617   6.724   2.268   1.689
 9573SOL    HW129618   6.672   2.183   1.695
 9573SOL    HW229619   6.683   2.338   1.746
 9574SOL     OW29620   2.227   2.335   4.839
 9574SOL    HW129621   2.265   2.419   4.800
 9574SOL    HW229622   2.285   2.257   4.814
 9575SOL     OW29623   4.905   1.097   1.692
 9575SOL    HW129624   4.971   1.165   1.661
 9575SOL    HW229625   4.812   1.134   1.683
 9576SOL     OW29626   3.431   1.351   5.063
 9576SOL    HW129627   3.390   1.267   5.099
 9576SOL    HW229628   3.530   1.349   5.080
 9577SOL     OW29629   0.228   6.152   3.247
 9577SOL    HW129630   0.257   6.132   3.340
 9577SOL    HW229631   0.220   6.251   3.235
 9578SOL     OW29632   5.742   3.666   1.709
 9578SOL    HW129633   5.657   3.701   1.670
 9578SOL    HW229634   5.750   3.569   1.689
 9579SOL     OW29635   0.988   6.535   2.938
 9579SOL    HW129636   0.907   6.483   2.911
 9579SOL    HW229637   1.063   6.471   2.958
 9580SOL     OW29638   4.399   4.156   5.776
 9580SOL    HW129639   4.462   4.215   5.727
 9580SOL    HW229640   4.336   4.113   5.711
 9581SOL     OW29641   1.547   5.296   6.595
 9581SOL    HW129642   1.591   5.331   6.512
 9581SOL    HW229643   1.553   5.196   6.596
 9582SOL     OW29644   4.431   4.642   4.559
 9582SOL    HW129645   4.501   4.574   4.537
 9582SOL    HW229646   4.353   4.632   4.496
 9583SOL     OW29647   2.277   4.494   2.085
 9583SOL    HW129648   2.227   4.581   2.088
 9583SOL    HW229649   2.219   4.423   2.045
 9584SOL     OW29650   6.069   5.829   6.128
 9584SOL    HW129651   5.980   5.876   6.122
 9584SOL    HW229652   6.067   5.748   6.069
 9585SOL     OW29653   0.186   6.580   4.055
 9585SOL    HW129654   0.169   6.665   4.005
 9585SOL    HW229655   0.266   6.591   4.114
 9586SOL     OW29656   5.216   3.650   2.483
 9586SOL    HW129657   5.152   3.711   2.437
 9586SOL    HW229658   5.183   3.556   2.477
 9587SOL     OW29659   4.779   6.536   2.737
 9587SOL    HW129660   4.861   6.517   2.791
 9587SOL    HW229661   4.700   6.495   2.781
 9588SOL     OW29662   6.972   0.713   3.293
 9588SOL    HW129663   0.040   0.707   3.334
 9588SOL    HW229664   6.959   0.639   3.228
 9589SOL     OW29665   2.161   1.360   5.825
 9589SOL    HW129666   2.241   1.402   5.870
 9589SOL    HW229667   2.124   1.424   5.758
 9590SOL     OW29668   0.157   4.626   4.673
 9590SOL    HW129669   0.237   4.566   4.666
 9590SOL    HW229670   0.187   4.718   4.697
 9591SOL     OW29671   1.576   4.531   2.223
 9591SOL    HW129672   1.536   4.580   2.146
 9591SOL    HW229673   1.519   4.543   2.304
 9592SOL     OW29674   4.765   5.305   2.056
 9592SOL    HW129675   4.845   5.297   1.997
 9592SOL    HW229676   4.757   5.399   2.090
 9593SOL     OW29677   1.663   2.520   3.928
 9593SOL    HW129678   1.603   2.441   3.919
 9593SOL    HW229679   1.744   2.508   3.870
 9594SOL     OW29680   5.983   6.501   2.035
 9594SOL    HW129681   5.914   6.451   2.086
 9594SOL    HW229682   5.939   6.564   1.971
 9595SOL     OW29683   0.689   4.140   4.559
 9595SOL    HW129684   0.771   4.092   4.591
 9595SOL    HW229685   0.612   4.115   4.617
 9596SOL     OW29686   4.627   5.722   2.946
 9596SOL    HW129687   4.666   5.811   2.924
 9596SOL    HW229688   4.695   5.651   2.928
 9597SOL     OW29689   1.902   4.017   1.180
 9597SOL    HW129690   1.975   4.035   1.114
 9597SOL    HW229691   1.890   4.096   1.240
 9598SOL     OW29692   1.200   5.771   5.720
 9598SOL    HW129693   1.256   5.794   5.640
 9598SOL    HW229694   1.223   5.833   5.796
 9599SOL     OW29695   4.955   1.738   4.196
 9599SOL    HW129696   5.026   1.726   4.127
 9599SOL    HW229697   4.870   1.697   4.164
 9600SOL     OW29698   1.291   6.275   0.358
 9600SOL    HW129699   1.202   6.242   0.325
 9600SOL    HW229700   1.277   6.339   0.434
 9601SOL     OW29701   0.729   6.018   6.376
 9601SOL    HW129702   0.742   5.935   6.322
 9601SOL    HW229703   0.642   6.013   6.424
 9602SOL     OW29704   1.042   5.745   0.556
 9602SOL    HW129705   1.141   5.748   0.570
 9602SOL    HW229706   1.006   5.838   0.551
 9603SOL     OW29707   1.258   4.446   4.098
 9603SOL    HW129708   1.193   4.504   4.147
 9603SOL    HW229709   1.350   4.463   4.132
 9604SOL     OW29710   6.626   0.008   0.787
 9604SOL    HW129711   6.708   6.998   0.741
 9604SOL    HW229712   6.629   0.108   0.790
 9605SOL     OW29713   2.193   6.005   6.693
 9605SOL    HW129714   2.212   5.916   6.736
 9605SOL    HW229715   2.205   5.996   6.594
 9606SOL     OW29716   6.700   6.813   4.818
 9606SOL    HW129717   6.734   6.871   4.892
 9606SOL    HW229718   6.600   6.808   4.823
 9607SOL     OW29719   0.232   3.192   1.809
 9607SOL    HW129720   0.159   3.138   1.853
 9607SOL    HW229721   0.233   3.172   1.711
 9608SOL     OW29722   6.927   6.837   2.599
 9608SOL    HW129723   6.883   6.748   2.586
 9608SOL    HW229724   6.882   6.886   2.674
 9609SOL     OW29725   2.024   2.230   3.348
 9609SOL    HW129726   2.099   2.172   3.379
 9609SOL    HW229727   2.017   2.227   3.248
 9610SOL     OW29728   3.403   2.079   6.279
 9610SOL    HW129729   3.484   2.029   6.311
 9610SOL    HW229730   3.373   2.142   6.351
 9611SOL     OW29731   5.745   5.997   1.165
 9611SOL    HW129732   5.721   6.093   1.150
 9611SOL    HW229733   5.832   5.993   1.214
 9612SOL     OW29734   4.919   3.599   2.765
 9612SOL    HW129735   4.913   3.698   2.749
 9612SOL    HW229736   4.896   3.550   2.681
 9613SOL     OW29737   5.488   6.711   5.756
 9613SOL    HW129738   5.496   6.807   5.731
 9613SOL    HW229739   5.498   6.653   5.675
 9614SOL     OW29740   3.471   2.867   2.328
 9614SOL    HW129741   3.411   2.897   2.254
 9614SOL    HW229742   3.446   2.775   2.356
 9615SOL     OW29743   0.914   6.111   3.758
 9615SOL    HW129744   0.841   6.123   3.691
 9615SOL    HW229745   0.899   6.026   3.808
 9616SOL     OW29746   2.182   3.192   1.381
 9616SOL    HW129747   2.187   3.093   1.378
 9616SOL    HW229748   2.189   3.229   1.289
 9617SOL     OW29749   1.075   3.523   2.542
 9617SOL    HW129750   1.117   3.487   2.459
 9617SOL    HW229751   0.981   3.551   2.522
 9618SOL     OW29752   3.820   4.798   0.554
 9618SOL    HW129753   3.828   4.796   0.654
 9618SOL    HW229754   3.753   4.867   0.528
 9619SOL     OW29755   2.010   6.824   1.137
 9619SOL    HW129756   1.985   6.799   1.043
 9619SOL    HW229757   2.008   6.924   1.146
 9620SOL     OW29758   3.603   1.802   6.978
 9620SOL    HW129759   3.530   1.791   0.021
 9620SOL    HW229760   3.572   1.765   6.889
 9621SOL     OW29761   1.104   2.192   1.853
 9621SOL    HW129762   1.067   2.232   1.936
 9621SOL    HW229763   1.110   2.093   1.863
 9622SOL     OW29764   0.013   6.252   5.575
 9622SOL    HW129765   0.087   6.319   5.587
 9622SOL    HW229766   0.050   6.169   5.534
 9623SOL     OW29767   4.830   6.659   6.166
 9623SOL    HW129768   4.821   6.758   6.179
 9623SOL    HW229769   4.743   6.621   6.136
 9624SOL     OW29770   4.875   5.103   5.144
 9624SOL    HW129771   4.809   5.144   5.081
 9624SOL    HW229772   4.947   5.169   5.163
 9625SOL     OW29773   4.478   3.518   5.494
 9625SOL    HW129774   4.528   3.456   5.434
 9625SOL    HW229775   4.491   3.491   5.589
 9626SOL     OW29776   2.054   2.255   6.360
 9626SOL    HW129777   1.986   2.308   6.309
 9626SOL    HW229778   2.122   2.219   6.296
 9627SOL     OW29779   0.483   5.357   6.962
 9627SOL    HW129780   0.409   5.291   6.972
 9627SOL    HW229781   0.517   5.383   0.029
 9628SOL     OW29782   5.889   1.362   6.172
 9628SOL    HW129783   5.883   1.287   6.106
 9628SOL    HW229784   5.976   1.357   6.221
 9629SOL     OW29785   0.434   5.494   4.328
 9629SOL    HW129786   0.465   5.425   4.263
 9629SOL    HW229787   0.355   5.459   4.379
 9630SOL     OW29788   6.080   6.996   5.445
 9630SOL    HW129789   6.143   0.004   5.374
 9630SOL    HW229790   6.130   6.983   5.531
 9631SOL     OW29791   3.545   0.012   0.620
 9631SOL    HW129792   3.459   7.007   0.661
 9631SOL    HW229793   3.621   7.015   0.682
 9632SOL     OW29794   3.258   5.315   2.154
 9632SOL    HW129795   3.313   5.274   2.227
 9632SOL    HW229796   3.312   5.382   2.104
 9633SOL     OW29797   3.793   3.326   2.788
 9633SOL    HW129798   3.830   3.385   2.715
 9633SOL    HW229799   3.757   3.384   2.861
 9634SOL     OW29800   5.848   4.705   3.885
 9634SOL    HW129801   5.783   4.653   3.830
 9634SOL    HW229802   5.850   4.800   3.855
 9635SOL     OW29803   1.429   5.183   4.007
 9635SOL    HW129804   1.439   5.122   3.929
 9635SOL    HW229805   1.513   5.236   4.020
 9636SOL     OW29806   5.171   3.789   4.121
 9636SOL    HW129807   5.166   3.709   4.181
 9636SOL    HW229808   5.255   3.785   4.067
 9637SOL     OW29809   1.828   3.266   0.025
 9637SOL    HW129810   1.841   3.187   0.085
 9637SOL    HW229811   1.854   3.242   6.956
 9638SOL     OW29812   5.568   5.594   5.248
 9638SOL    HW129813   5.536   5.500   5.255
 9638SOL    HW229814   5.661   5.596   5.212
 9639SOL     OW29815   4.252   1.791   2.067
 9639SOL    HW129816   4.190   1.803   2.144
 9639SOL    HW229817   4.300   1.877   2.048
 9640SOL     OW29818   4.615   0.618   3.452
 9640SOL    HW129819   4.534   0.657   3.496
 9640SOL    HW229820   4.592   0.530   3.410
 9641SOL     OW29821   6.630   3.415   3.241
 9641SOL    HW129822   6.644   3.505   3.284
 9641SOL    HW229823   6.558   3.366   3.290
 9642SOL     OW29824   1.510   0.113   4.556
 9642SOL    HW129825   1.486   0.108   4.653
 9642SOL    HW229826   1.428   0.099   4.501
 9643SOL     OW29827   4.777   4.829   4.544
 9643SOL    HW129828   4.744   4.912   4.499
 9643SOL    HW229829   4.854   4.791   4.492
 9644SOL     OW29830   1.875   5.333   3.804
 9644SOL    HW129831   1.894   5.309   3.708
 9644SOL    HW229832   1.845   5.428   3.809
 9645SOL     OW29833   0.680   4.686   5.962
 9645SOL    HW129834   0.581   4.698   5.966
 9645SOL    HW229835   0.708   4.611   6.022
 9646SOL     OW29836   4.352   5.457   6.332
 9646SOL    HW129837   4.309   5.371   6.307
 9646SOL    HW229838   4.326   5.482   6.425
 9647SOL     OW29839   6.749   6.969   3.409
 9647SOL    HW129840   6.679   6.996   3.475
 9647SOL    HW229841   6.711   6.973   3.316
 9648SOL     OW29842   3.685   2.143   1.299
 9648SOL    HW129843   3.739   2.119   1.380
 9648SOL    HW229844   3.645   2.234   1.313
 9649SOL     OW29845   1.100   5.535   6.934
 9649SOL    HW129846   1.039   5.612   6.951
 9649SOL    HW229847   1.194   5.561   6.960
 9650SOL     OW29848   6.893   4.545   4.662
 9650SOL    HW129849   6.991   4.566   4.662
 9650SOL    HW229850   6.881   4.445   4.659
 9651SOL     OW29851   4.309   1.888   0.171
 9651SOL    HW129852   4.293   1.891   0.072
 9651SOL    HW229853   4.298   1.793   0.203
 9652SOL     OW29854   0.014   3.835   0.277
 9652SOL    HW129855   0.047   3.756   0.329
 9652SOL    HW229856   6.941   3.849   0.298
 9653SOL     OW29857   4.345   4.625   5.970
 9653SOL    HW129858   4.337   4.574   5.885
 9653SOL    HW229859   4.277   4.699   5.972
 9654SOL     OW29860   3.223   3.576   3.014
 9654SOL    HW129861   3.230   3.676   3.013
 9654SOL    HW229862   3.314   3.535   3.022
 9655SOL     OW29863   4.024   1.290   1.403
 9655SOL    HW129864   3.938   1.334   1.378
 9655SOL    HW229865   4.100   1.346   1.371
 9656SOL     OW29866   5.900   3.696   0.195
 9656SOL    HW129867   5.907   3.613   0.251
 9656SOL    HW229868   5.806   3.709   0.166
 9657SOL     OW29869   5.923   3.814   3.711
 9657SOL    HW129870   5.957   3.785   3.800
 9657SOL    HW229871   5.852   3.883   3.724
 9658SOL     OW29872   4.858   2.213   2.210
 9658SOL    HW129873   4.897   2.244   2.123
 9658SOL    HW229874   4.763   2.243   2.216
 9659SOL     OW29875   2.585   3.253   6.700
 9659SOL    HW129876   2.673   3.208   6.715
 9659SOL    HW229877   2.577   3.280   6.604
 9660SOL     OW29878   1.561   6.035   1.955
 9660SOL    HW129879   1.620   6.115   1.943
 9660SOL    HW229880   1.530   6.003   1.865
 9661SOL     OW29881   4.428   3.904   0.917
 9661SOL    HW129882   4.329   3.906   0.931
 9661SOL    HW229883   4.466   3.995   0.934
 9662SOL     OW29884   5.632   5.386   6.130
 9662SOL    HW129885   5.538   5.406   6.157
 9662SOL    HW229886   5.694   5.451   6.173
 9663SOL     OW29887   0.802   5.212   2.675
 9663SOL    HW129888   0.824   5.273   2.751
 9663SOL    HW229889   0.832   5.119   2.697
 9664SOL     OW29890   4.997   4.574   2.372
 9664SOL    HW129891   5.033   4.489   2.412
 9664SOL    HW229892   4.913   4.554   2.322
 9665SOL     OW29893   6.715   5.826   6.161
 9665SOL    HW129894   6.658   5.759   6.114
 9665SOL    HW229895   6.800   5.840   6.110
 9666SOL     OW29896   6.009   3.943   0.286
 9666SOL    HW129897   5.944   3.868   0.289
 9666SOL    HW229898   5.996   3.995   0.202
 9667SOL     OW29899   5.851   5.995   6.141
 9667SOL    HW129900   5.755   5.987   6.113
 9667SOL    HW229901   5.856   5.997   6.241
 9668SOL     OW29902   1.071   0.676   6.759
 9668SOL    HW129903   1.132   0.665   6.838
 9668SOL    HW229904   1.023   0.590   6.742
 9669SOL     OW29905   3.821   0.598   0.459
 9669SOL    HW129906   3.761   0.625   0.384
 9669SOL    HW229907   3.823   0.672   0.527
 9670SOL     OW29908   0.020   0.063   6.870
 9670SOL    HW129909   0.087   7.020   6.903
 9670SOL    HW229910   0.061   0.119   6.798
 9671SOL     OW29911   1.376   5.232   6.882
 9671SOL    HW129912   1.468   5.263   6.907
 9671SOL    HW229913   1.314   5.310   6.878
 9672SOL     OW29914   0.995   3.404   3.602
 9672SOL    HW129915   1.012   3.433   3.696
 9672SOL    HW229916   1.082   3.385   3.557
 9673SOL     OW29917   2.157   3.471   0.351
 9673SOL    HW129918   2.120   3.387   0.390
 9673SOL    HW229919   2.158   3.543   0.420
 9674SOL     OW29920   2.737   6.334   4.316
 9674SOL    HW129921   2.670   6.399   4.351
 9674SOL    HW229922   2.702   6.241   4.326
 9675SOL     OW29923   5.800   3.537   6.854
 9675SOL    HW129924   5.713   3.578   6.828
 9675SOL    HW229925   5.783   3.456   6.911
 9676SOL     OW29926   0.766   2.994   6.903
 9676SOL    HW129927   0.718   3.073   6.864
 9676SOL    HW229928   0.727   2.973   6.993
 9677SOL     OW29929   0.070   4.883   1.457
 9677SOL    HW129930   0.031   4.822   1.525
 9677SOL    HW229931   0.138   4.943   1.500
 9678SOL     OW29932   3.522   3.711   5.251
 9678SOL    HW129933   3.493   3.799   5.215
 9678SOL    HW229934   3.530   3.716   5.350
 9679SOL     OW29935   1.562   1.648   4.462
 9679SOL    HW129936   1.661   1.650   4.478
 9679SOL    HW229937   1.527   1.741   4.458
 9680SOL     OW29938   4.673   6.047   2.249
 9680SOL    HW129939   4.738   6.124   2.250
 9680SOL    HW229940   4.711   5.972   2.195
 9681SOL     OW29941   1.482   1.600   1.944
 9681SOL    HW129942   1.383   1.614   1.934
 9681SOL    HW229943   1.526   1.689   1.956
 9682SOL     OW29944   4.863   6.165   5.698
 9682SOL    HW129945   4.929   6.158   5.623
 9682SOL    HW229946   4.899   6.117   5.778
 9683SOL     OW29947   3.137   6.667   2.773
 9683SOL    HW129948   3.172   6.643   2.683
 9683SOL    HW229949   3.213   6.682   2.836
 9684SOL     OW29950   0.201   3.299   5.336
 9684SOL    HW129951   0.246   3.356   5.404
 9684SOL    HW229952   0.129   3.351   5.290
 9685SOL     OW29953   3.883   4.097   1.401
 9685SOL    HW129954   3.966   4.065   1.447
 9685SOL    HW229955   3.908   4.146   1.318
 9686SOL     OW29956   6.302   1.770   5.654
 9686SOL    HW129957   6.353   1.684   5.647
 9686SOL    HW229958   6.250   1.784   5.570
 9687SOL     OW29959   5.704   1.578   2.916
 9687SOL    HW129960   5.685   1.539   3.007
 9687SOL    HW229961   5.801   1.598   2.909
 9688SOL     OW29962   0.351   4.484   1.257
 9688SOL    HW129963   0.292   4.446   1.186
 9688SOL    HW229964   0.423   4.418   1.280
 9689SOL     OW29965   2.496   6.064   1.035
 9689SOL    HW129966   2.426   5.998   1.009
 9689SOL    HW229967   2.559   6.078   0.958
 9690SOL     OW29968   6.475   5.367   4.690
 9690SOL    HW129969   6.556   5.413   4.727
 9690SOL    HW229970   6.466   5.388   4.593
 9691SOL     OW29971   2.987   3.618   1.888
 9691SOL    HW129972   3.032   3.549   1.832
 9691SOL    HW229973   2.940   3.575   1.964
 9692SOL     OW29974   4.878   4.226   0.995
 9692SOL    HW129975   4.806   4.239   1.063
 9692SOL    HW229976   4.961   4.275   1.024
 9693SOL     OW29977   5.290   3.368   5.177
 9693SOL    HW129978   5.263   3.434   5.247
 9693SOL    HW229979   5.334   3.290   5.221
 9694SOL     OW29980   2.834   0.161   2.465
 9694SOL    HW129981   2.803   0.246   2.507
 9694SOL    HW229982   2.857   0.178   2.368
 9695SOL     OW29983   0.997   2.683   2.716
 9695SOL    HW129984   0.956   2.763   2.760
 9695SOL    HW229985   0.991   2.605   2.779
 9696SOL     OW29986   5.117   2.544   3.263
 9696SOL    HW129987   5.137   2.457   3.217
 9696SOL    HW229988   5.023   2.542   3.298
 9697SOL     OW29989   0.596   6.627   1.046
 9697SOL    HW129990   0.676   6.591   0.999
 9697SOL    HW229991   0.599   6.727   1.046
 9698SOL     OW29992   6.351   3.686   1.678
 9698SOL    HW129993   6.267   3.730   1.644
 9698SOL    HW229994   6.344   3.674   1.777
 9699SOL     OW29995   1.230   5.962   0.852
 9699SOL    HW129996   1.213   5.965   0.754
 9699SOL    HW229997   1.328   5.962   0.869
 9700SOL     OW29998   5.662   6.975   5.112
 9700SOL    HW129999   5.633   6.914   5.186
 9700SOL    HW230000   5.737   6.932   5.061
 9701SOL     OW30001   4.110   3.408   6.206
 9701SOL    HW130002   4.091   3.505   6.196
 9701SOL    HW230003   4.085   3.378   6.298
 9702SOL     OW30004   3.566   3.400   2.010
 9702SOL    HW130005   3.664   3.412   2.027
 9702SOL    HW230006   3.518   3.485   2.029
 9703SOL     OW30007   6.824   4.320   4.925
 9703SOL    HW130008   6.738   4.272   4.907
 9703SOL    HW230009   6.870   4.278   5.003
 9704SOL     OW30010   1.750   3.984   2.849
 9704SOL    HW130011   1.792   3.898   2.820
 9704SOL    HW230012   1.742   4.045   2.769
 9705SOL     OW30013   5.942   3.506   5.674
 9705SOL    HW130014   5.975   3.537   5.585
 9705SOL    HW230015   5.919   3.585   5.731
 9706SOL     OW30016   0.604   1.442   2.763
 9706SOL    HW130017   0.647   1.532   2.751
 9706SOL    HW230018   0.604   1.394   2.675
 9707SOL     OW30019   1.128   4.686   2.408
 9707SOL    HW130020   1.115   4.687   2.507
 9707SOL    HW230021   1.117   4.779   2.373
 9708SOL     OW30022   2.180   0.328   1.483
 9708SOL    HW130023   2.232   0.297   1.403
 9708SOL    HW230024   2.098   0.271   1.493
 9709SOL     OW30025   5.447   1.953   1.704
 9709SOL    HW130026   5.363   1.992   1.666
 9709SOL    HW230027   5.452   1.856   1.679
 9710SOL     OW30028   6.911   5.733   3.342
 9710SOL    HW130029   6.902   5.634   3.354
 9710SOL    HW230030   6.836   5.767   3.286
 9711SOL     OW30031   3.655   0.987   0.967
 9711SOL    HW130032   3.621   0.943   0.884
 9711SOL    HW230033   3.754   0.973   0.973
 9712SOL     OW30034   5.681   1.851   6.326
 9712SOL    HW130035   5.700   1.849   6.424
 9712SOL    HW230036   5.629   1.769   6.301
 9713SOL     OW30037   0.912   6.753   3.141
 9713SOL    HW130038   0.937   6.686   3.072
 9713SOL    HW230039   0.958   6.840   3.121
 9714SOL     OW30040   2.425   4.375   4.153
 9714SOL    HW130041   2.470   4.318   4.222
 9714SOL    HW230042   2.347   4.325   4.114
 9715SOL     OW30043   6.830   3.799   6.544
 9715SOL    HW130044   6.773   3.745   6.482
 9715SOL    HW230045   6.900   3.847   6.492
 9716SOL     OW30046   2.086   4.990   0.039
 9716SOL    HW130047   2.162   4.988   0.104
 9716SOL    HW230048   2.112   5.041   6.981
 9717SOL     OW30049   3.764   1.978   5.378
 9717SOL    HW130050   3.682   1.983   5.321
 9717SOL    HW230051   3.743   1.926   5.461
 9718SOL     OW30052   3.669   2.829   6.337
 9718SOL    HW130053   3.718   2.853   6.422
 9718SOL    HW230054   3.660   2.911   6.280
 9719SOL     OW30055   5.115   6.959   6.001
 9719SOL    HW130056   5.198   7.015   6.000
 9719SOL    HW230057   5.134   6.873   6.049
 9720SOL     OW30058   1.841   3.116   3.114
 9720SOL    HW130059   1.868   3.123   3.018
 9720SOL    HW230060   1.792   3.031   3.129
 9721SOL     OW30061   0.716   1.041   0.401
 9721SOL    HW130062   0.788   1.008   0.339
 9721SOL    HW230063   0.680   0.964   0.453
 9722SOL     OW30064   4.209   2.735   5.365
 9722SOL    HW130065   4.195   2.652   5.311
 9722SOL    HW230066   4.184   2.815   5.311
 9723SOL     OW30067   6.771   6.935   5.036
 9723SOL    HW130068   6.671   6.942   5.048
 9723SOL    HW230069   6.815   7.005   5.091
 9724SOL     OW30070   1.487   5.440   0.045
 9724SOL    HW130071   1.586   5.450   0.034
 9724SOL    HW230072   1.468   5.356   0.096
 9725SOL     OW30073   4.049   5.413   5.243
 9725SOL    HW130074   3.983   5.391   5.315
 9725SOL    HW230075   4.087   5.329   5.206
 9726SOL     OW30076   0.099   1.120   4.133
 9726SOL    HW130077   0.155   1.084   4.058
 9726SOL    HW230078   0.034   1.187   4.097
 9727SOL     OW30079   0.410   1.382   0.570
 9727SOL    HW130080   0.426   1.291   0.608
 9727SOL    HW230081   0.365   1.374   0.481
 9728SOL     OW30082   4.761   1.417   5.103
 9728SOL    HW130083   4.799   1.480   5.035
 9728SOL    HW230084   4.796   1.325   5.086
 9729SOL     OW30085   0.539   5.116   2.740
 9729SOL    HW130086   0.630   5.154   2.726
 9729SOL    HW230087   0.545   5.040   2.805
 9730SOL     OW30088   0.440   3.979   2.896
 9730SOL    HW130089   0.364   4.040   2.920
 9730SOL    HW230090   0.429   3.892   2.943
 9731SOL     OW30091   5.390   3.524   1.539
 9731SOL    HW130092   5.404   3.588   1.615
 9731SOL    HW230093   5.320   3.561   1.477
 9732SOL     OW30094   1.663   3.247   2.912
 9732SOL    HW130095   1.745   3.197   2.884
 9732SOL    HW230096   1.680   3.345   2.906
 9733SOL     OW30097   6.402   4.624   2.329
 9733SOL    HW130098   6.353   4.637   2.415
 9733SOL    HW230099   6.344   4.651   2.253
 9734SOL     OW30100   5.502   5.981   6.129
 9734SOL    HW130101   5.439   6.010   6.056
 9734SOL    HW230102   5.546   6.062   6.167
 9735SOL     OW30103   0.610   2.912   1.163
 9735SOL    HW130104   0.643   3.002   1.193
 9735SOL    HW230105   0.539   2.880   1.226
 9736SOL     OW30106   5.226   1.779   4.520
 9736SOL    HW130107   5.317   1.800   4.485
 9736SOL    HW230108   5.220   1.807   4.616
 9737SOL     OW30109   5.765   3.004   2.906
 9737SOL    HW130110   5.688   2.972   2.850
 9737SOL    HW230111   5.846   2.951   2.883
 9738SOL     OW30112   2.523   6.340   1.816
 9738SOL    HW130113   2.448   6.383   1.765
 9738SOL    HW230114   2.509   6.241   1.818
 9739SOL     OW30115   5.834   0.140   6.832
 9739SOL    HW130116   5.928   0.145   6.865
 9739SOL    HW230117   5.792   0.055   6.863
 9740SOL     OW30118   6.092   0.508   2.924
 9740SOL    HW130119   6.154   0.583   2.950
 9740SOL    HW230120   6.094   0.438   2.995
 9741SOL     OW30121   2.349   1.800   4.804
 9741SOL    HW130122   2.418   1.744   4.850
 9741SOL    HW230123   2.301   1.857   4.872
 9742SOL     OW30124   3.998   1.771   5.976
 9742SOL    HW130125   3.959   1.863   5.977
 9742SOL    HW230126   4.064   1.762   6.050
 9743SOL     OW30127   5.161   3.563   4.285
 9743SOL    HW130128   5.075   3.549   4.333
 9743SOL    HW230129   5.183   3.482   4.231
 9744SOL     OW30130   1.579   0.916   3.229
 9744SOL    HW130131   1.508   0.906   3.298
 9744SOL    HW230132   1.654   0.853   3.249
 9745SOL     OW30133   0.230   0.300   5.743
 9745SOL    HW130134   0.154   0.239   5.765
 9745SOL    HW230135   0.309   0.245   5.713
 9746SOL     OW30136   4.519   5.160   6.309
 9746SOL    HW130137   4.612   5.184   6.335
 9746SOL    HW230138   4.506   5.175   6.211
 9747SOL     OW30139   2.314   1.968   3.060
 9747SOL    HW130140   2.413   1.972   3.077
 9747SOL    HW230141   2.267   1.939   3.143
 9748SOL     OW30142   1.443   0.833   3.775
 9748SOL    HW130143   1.516   0.839   3.707
 9748SOL    HW230144   1.480   0.801   3.862
 9749SOL     OW30145   6.599   1.136   2.154
 9749SOL    HW130146   6.539   1.070   2.110
 9749SOL    HW230147   6.546   1.216   2.182
 9750SOL     OW30148   6.362   3.012   3.935
 9750SOL    HW130149   6.373   3.010   3.836
 9750SOL    HW230150   6.264   3.011   3.957
 9751SOL     OW30151   3.292   0.127   1.739
 9751SOL    HW130152   3.341   0.041   1.756
 9751SOL    HW230153   3.229   0.115   1.662
 9752SOL     OW30154   3.266   3.374   6.711
 9752SOL    HW130155   3.191   3.439   6.697
 9752SOL    HW230156   3.353   3.418   6.688
 9753SOL     OW30157   0.078   6.245   4.909
 9753SOL    HW130158   0.072   6.239   4.809
 9753SOL    HW230159   0.136   6.322   4.934
 9754SOL     OW30160   3.220   1.027   1.621
 9754SOL    HW130161   3.290   0.958   1.608
 9754SOL    HW230162   3.254   1.099   1.682
 9755SOL     OW30163   3.126   4.563   0.490
 9755SOL    HW130164   3.041   4.527   0.529
 9755SOL    HW230165   3.104   4.625   0.416
 9756SOL     OW30166   5.779   0.400   5.734
 9756SOL    HW130167   5.862   0.372   5.782
 9756SOL    HW230168   5.791   0.491   5.696
 9757SOL     OW30169   4.962   4.294   3.779
 9757SOL    HW130170   5.026   4.358   3.822
 9757SOL    HW230171   4.891   4.270   3.846
 9758SOL     OW30172   1.872   0.070   1.754
 9758SOL    HW130173   1.954   0.013   1.765
 9758SOL    HW230174   1.877   0.147   1.818
 9759SOL     OW30175   6.926   0.848   1.481
 9759SOL    HW130176   7.000   0.896   1.527
 9759SOL    HW230177   6.838   0.874   1.522
 9760SOL     OW30178   4.566   1.390   0.135
 9760SOL    HW130179   4.548   1.488   0.126
 9760SOL    HW230180   4.514   1.340   0.065
 9761SOL     OW30181   1.111   2.108   0.670
 9761SOL    HW130182   1.147   2.069   0.755
 9761SOL    HW230183   1.084   2.033   0.609
 9762SOL     OW30184   2.616   2.022   5.968
 9762SOL    HW130185   2.580   1.979   6.051
 9762SOL    HW230186   2.715   2.008   5.964
 9763SOL     OW30187   6.443   0.985   0.855
 9763SOL    HW130188   6.537   1.018   0.860
 9763SOL    HW230189   6.442   0.886   0.870
 9764SOL     OW30190   6.749   2.563   2.086
 9764SOL    HW130191   6.771   2.649   2.132
 9764SOL    HW230192   6.812   2.492   2.117
 9765SOL     OW30193   6.615   0.531   2.001
 9765SOL    HW130194   6.650   0.487   2.084
 9765SOL    HW230195   6.648   0.481   1.921
 9766SOL     OW30196   2.350   2.113   4.751
 9766SOL    HW130197   2.406   2.081   4.675
 9766SOL    HW230198   2.258   2.073   4.744
 9767SOL     OW30199   2.383   3.089   5.627
 9767SOL    HW130200   2.347   3.113   5.537
 9767SOL    HW230201   2.335   3.141   5.698
 9768SOL     OW30202   5.637   3.068   0.839
 9768SOL    HW130203   5.581   3.010   0.780
 9768SOL    HW230204   5.711   3.014   0.878
 9769SOL     OW30205   2.919   2.218   5.248
 9769SOL    HW130206   3.001   2.251   5.201
 9769SOL    HW230207   2.877   2.144   5.195
 9770SOL     OW30208   2.447   2.585   6.520
 9770SOL    HW130209   2.381   2.659   6.509
 9770SOL    HW230210   2.532   2.609   6.473
 9771SOL     OW30211   3.008   6.889   2.487
 9771SOL    HW130212   2.957   6.843   2.560
 9771SOL    HW230213   2.960   6.972   2.460
 9772SOL     OW30214   1.314   0.561   1.202
 9772SOL    HW130215   1.229   0.530   1.159
 9772SOL    HW230216   1.324   0.519   1.292
 9773SOL     OW30217   5.043   4.793   2.021
 9773SOL    HW130218   5.107   4.778   2.097
 9773SOL    HW230219   4.949   4.798   2.057
 9774SOL     OW30220   1.365   5.157   5.203
 9774SOL    HW130221   1.311   5.156   5.119
 9774SOL    HW230222   1.462   5.143   5.181
 9775SOL     OW30223   2.550   1.252   3.393
 9775SOL    HW130224   2.514   1.311   3.320
 9775SOL    HW230225   2.480   1.187   3.421
 9776SOL     OW30226   2.556   5.273   0.240
 9776SOL    HW130227   2.601   5.216   0.171
 9776SOL    HW230228   2.583   5.242   0.331
 9777SOL     OW30229   4.340   0.707   5.502
 9777SOL    HW130230   4.283   0.784   5.475
 9777SOL    HW230231   4.386   0.727   5.588
 9778SOL     OW30232   0.339   3.613   4.060
 9778SOL    HW130233   0.386   3.561   3.990
 9778SOL    HW230234   0.364   3.710   4.053
 9779SOL     OW30235   2.235   0.941   4.068
 9779SOL    HW130236   2.189   0.884   4.000
 9779SOL    HW230237   2.334   0.933   4.058
 9780SOL     OW30238   0.883   2.352   1.764
 9780SOL    HW130239   0.901   2.440   1.808
 9780SOL    HW230240   0.968   2.301   1.755
 9781SOL     OW30241   2.237   2.190   3.718
 9781SOL    HW130242   2.239   2.170   3.620
 9781SOL    HW230243   2.212   2.108   3.769
 9782SOL     OW30244   6.799   2.583   1.287
 9782SOL    HW130245   6.796   2.541   1.378
 9782SOL    HW230246   6.792   2.511   1.218
 9783SOL     OW30247   3.594   1.080   3.282
 9783SOL    HW130248   3.644   1.006   3.327
 9783SOL    HW230249   3.650   1.163   3.281
 9784SOL     OW30250   1.369   1.157   6.145
 9784SOL    HW130251   1.353   1.071   6.193
 9784SOL    HW230252   1.311   1.162   6.064
 9785SOL     OW30253   0.371   3.506   4.862
 9785SOL    HW130254   0.321   3.429   4.821
 9785SOL    HW230255   0.462   3.511   4.822
 9786SOL     OW30256   2.147   4.134   0.704
 9786SOL    HW130257   2.144   4.047   0.753
 9786SOL    HW230258   2.072   4.139   0.638
 9787SOL     OW30259   3.285   3.697   3.412
 9787SOL    HW130260   3.311   3.718   3.506
 9787SOL    HW230261   3.359   3.724   3.350
 9788SOL     OW30262   4.996   7.009   2.125
 9788SOL    HW130263   5.085   6.966   2.137
 9788SOL    HW230264   4.924   6.941   2.141
 9789SOL     OW30265   3.882   1.300   6.215
 9789SOL    HW130266   3.819   1.269   6.286
 9789SOL    HW230267   3.881   1.400   6.210
 9790SOL     OW30268   0.124   4.562   4.173
 9790SOL    HW130269   0.049   4.622   4.198
 9790SOL    HW230270   0.094   4.467   4.177
 9791SOL     OW30271   1.187   6.307   1.003
 9791SOL    HW130272   1.160   6.223   0.956
 9791SOL    HW230273   1.152   6.305   1.097
 9792SOL     OW30274   4.206   6.397   0.440
 9792SOL    HW130275   4.235   6.312   0.395
 9792SOL    HW230276   4.116   6.424   0.405
 9793SOL     OW30277   5.412   1.001   3.081
 9793SOL    HW130278   5.436   0.907   3.059
 9793SOL    HW230279   5.313   1.010   3.084
 9794SOL     OW30280   4.662   4.663   4.726
 9794SOL    HW130281   4.724   4.700   4.657
 9794SOL    HW230282   4.567   4.676   4.695
 9795SOL     OW30283   1.879   3.765   3.352
 9795SOL    HW130284   1.839   3.777   3.443
 9795SOL    HW230285   1.881   3.853   3.305
 9796SOL     OW30286   4.009   3.503   3.647
 9796SOL    HW130287   4.073   3.470   3.717
 9796SOL    HW230288   3.917   3.470   3.667
 9797SOL     OW30289   3.356   5.876   6.792
 9797SOL    HW130290   3.348   5.796   6.851
 9797SOL    HW230291   3.317   5.955   6.838
 9798SOL     OW30292   0.739   3.733   0.185
 9798SOL    HW130293   0.685   3.699   0.108
 9798SOL    HW230294   0.680   3.747   0.264
 9799SOL     OW30295   3.114   0.500   6.808
 9799SOL    HW130296   3.038   0.560   6.784
 9799SOL    HW230297   3.109   0.416   6.755
 9800SOL     OW30298   6.551   3.475   5.161
 9800SOL    HW130299   6.495   3.557   5.152
 9800SOL    HW230300   6.555   3.428   5.073
 9801SOL     OW30301   6.112   6.053   6.675
 9801SOL    HW130302   6.105   5.959   6.711
 9801SOL    HW230303   6.171   6.107   6.736
 9802SOL     OW30304   3.858   4.773   0.280
 9802SOL    HW130305   3.803   4.842   0.233
 9802SOL    HW230306   3.859   4.793   0.378
 9803SOL     OW30307   1.126   3.906   6.870
 9803SOL    HW130308   1.082   3.946   6.790
 9803SOL    HW230309   1.217   3.873   6.845
 9804SOL     OW30310   0.191   5.827   2.696
 9804SOL    HW130311   0.101   5.867   2.712
 9804SOL    HW230312   0.189   5.775   2.611
 9805SOL     OW30313   0.838   6.381   3.567
 9805SOL    HW130314   0.861   6.425   3.480
 9805SOL    HW230315   0.743   6.351   3.565
 9806SOL     OW30316   3.585   1.845   6.391
 9806SOL    HW130317   3.517   1.773   6.375
 9806SOL    HW230318   3.655   1.812   6.454
 9807SOL     OW30319   3.154   3.313   2.128
 9807SOL    HW130320   3.129   3.238   2.190
 9807SOL    HW230321   3.180   3.275   2.039
 9808SOL     OW30322   4.527   6.024   2.729
 9808SOL    HW130323   4.610   5.995   2.776
 9808SOL    HW230324   4.551   6.080   2.650
 9809SOL     OW30325   6.930   3.123   1.318
 9809SOL    HW130326   6.954   3.056   1.248
 9809SOL    HW230327   6.852   3.089   1.371
 9810SOL     OW30328   2.359   1.323   6.999
 9810SOL    HW130329   2.303   1.405   6.985
 9810SOL    HW230330   2.452   1.350   0.001
 9811SOL     OW30331   6.430   3.505   4.116
 9811SOL    HW130332   6.391   3.445   4.046
 9811SOL    HW230333   6.423   3.600   4.086
 9812SOL     OW30334   3.365   6.441   5.516
 9812SOL    HW130335   3.329   6.501   5.587
 9812SOL    HW230336   3.445   6.392   5.551
 9813SOL     OW30337   4.938   1.964   1.612
 9813SOL    HW130338   4.906   1.969   1.707
 9813SOL    HW230339   4.998   1.884   1.602
 9814SOL     OW30340   5.621   1.147   0.265
 9814SOL    HW130341   5.721   1.156   0.264
 9814SOL    HW230342   5.594   1.069   0.209
 9815SOL     OW30343   4.389   2.243   4.881
 9815SOL    HW130344   4.380   2.144   4.893
 9815SOL    HW230345   4.303   2.287   4.903
 9816SOL     OW30346   1.699   6.651   0.026
 9816SOL    HW130347   1.707   6.668   0.124
 9816SOL    HW230348   1.720   6.555   0.007
 9817SOL     OW30349   6.942   6.599   3.094
 9817SOL    HW130350   6.868   6.568   3.154
 9817SOL    HW230351   6.954   6.697   3.105
 9818SOL     OW30352   6.850   2.705   4.273
 9818SOL    HW130353   6.920   2.776   4.274
 9818SOL    HW230354   6.761   2.747   4.254
 9819SOL     OW30355   3.655   1.017   3.588
 9819SOL    HW130356   3.611   1.031   3.676
 9819SOL    HW230357   3.735   1.077   3.581
 9820SOL     OW30358   4.249   3.666   5.603
 9820SOL    HW130359   4.183   3.642   5.531
 9820SOL    HW230360   4.337   3.624   5.582
 9821SOL     OW30361   5.913   5.759   0.250
 9821SOL    HW130362   5.822   5.718   0.251
 9821SOL    HW230363   5.976   5.700   0.200
 9822SOL     OW30364   0.554   7.017   2.733
 9822SOL    HW130365   0.609   6.971   2.802
 9822SOL    HW230366   0.496   0.062   2.778
 9823SOL     OW30367   3.077   1.063   2.127
 9823SOL    HW130368   3.061   1.006   2.046
 9823SOL    HW230369   3.042   1.155   2.111
 9824SOL     OW30370   1.326   4.288   5.113
 9824SOL    HW130371   1.412   4.285   5.062
 9824SOL    HW230372   1.316   4.204   5.167
 9825SOL     OW30373   4.170   4.969   5.335
 9825SOL    HW130374   4.259   4.926   5.346
 9825SOL    HW230375   4.110   4.909   5.281
 9826SOL     OW30376   4.193   0.055   6.026
 9826SOL    HW130377   4.146   0.137   5.996
 9826SOL    HW230378   4.277   0.043   5.973
 9827SOL     OW30379   1.000   3.534   4.735
 9827SOL    HW130380   0.943   3.545   4.817
 9827SOL    HW230381   1.071   3.604   4.734
 9828SOL     OW30382   3.633   2.494   6.669
 9828SOL    HW130383   3.614   2.530   6.577
 9828SOL    HW230384   3.550   2.452   6.705
 9829SOL     OW30385   2.190   5.852   0.334
 9829SOL    HW130386   2.280   5.823   0.365
 9829SOL    HW230387   2.191   5.950   0.315
 9830SOL     OW30388   6.082   1.453   1.497
 9830SOL    HW130389   6.040   1.514   1.564
 9830SOL    HW230390   6.076   1.359   1.529
 9831SOL     OW30391   0.076   6.932   1.864
 9831SOL    HW130392   0.091   6.974   1.953
 9831SOL    HW230393   0.005   6.982   1.815
 9832SOL     OW30394   4.195   5.347   1.544
 9832SOL    HW130395   4.101   5.314   1.550
 9832SOL    HW230396   4.196   5.446   1.555
 9833SOL     OW30397   3.581   3.909   5.450
 9833SOL    HW130398   3.646   3.886   5.522
 9833SOL    HW230399   3.606   3.997   5.409
 9834SOL     OW30400   1.097   3.702   4.976
 9834SOL    HW130401   1.159   3.740   4.908
 9834SOL    HW230402   1.132   3.615   5.009
 9835SOL     OW30403   5.332   1.522   4.215
 9835SOL    HW130404   5.287   1.586   4.152
 9835SOL    HW230405   5.398   1.573   4.271
 9836SOL     OW30406   5.099   4.686   3.559
 9836SOL    HW130407   5.074   4.755   3.626
 9836SOL    HW230408   5.085   4.722   3.467
 9837SOL     OW30409   2.619   6.679   4.664
 9837SOL    HW130410   2.614   6.630   4.751
 9837SOL    HW230411   2.687   6.636   4.605
 9838SOL     OW30412   0.834   6.176   6.139
 9838SOL    HW130413   0.801   6.127   6.219
 9838SOL    HW230414   0.911   6.234   6.164
 9839SOL     OW30415   0.078   1.355   1.512
 9839SOL    HW130416   0.053   1.258   1.516
 9839SOL    HW230417   0.177   1.364   1.516
 9840SOL     OW30418   6.512   0.277   0.944
 9840SOL    HW130419   6.422   0.303   0.979
 9840SOL    HW230420   6.582   0.329   0.993
 9841SOL     OW30421   1.896   3.947   4.452
 9841SOL    HW130422   1.919   4.000   4.371
 9841SOL    HW230423   1.863   4.008   4.524
 9842SOL     OW30424   3.048   3.172   2.618
 9842SOL    HW130425   3.140   3.144   2.592
 9842SOL    HW230426   3.021   3.126   2.702
 9843SOL     OW30427   6.920   2.077   1.594
 9843SOL    HW130428   6.918   2.070   1.494
 9843SOL    HW230429   6.859   2.151   1.623
 9844SOL     OW30430   5.327   0.237   2.548
 9844SOL    HW130431   5.270   0.155   2.541
 9844SOL    HW230432   5.272   0.314   2.580
 9845SOL     OW30433   1.824   1.878   4.001
 9845SOL    HW130434   1.840   1.973   4.027
 9845SOL    HW230435   1.806   1.873   3.903
 9846SOL     OW30436   3.103   3.552   3.289
 9846SOL    HW130437   3.148   3.507   3.213
 9846SOL    HW230438   3.166   3.617   3.332
 9847SOL     OW30439   1.365   3.805   6.804
 9847SOL    HW130440   1.434   3.869   6.773
 9847SOL    HW230441   1.343   3.740   6.731
 9848SOL     OW30442   4.278   2.700   0.163
 9848SOL    HW130443   4.320   2.643   0.234
 9848SOL    HW230444   4.313   2.672   0.074
 9849SOL     OW30445   6.615   0.103   6.220
 9849SOL    HW130446   6.581   0.092   6.314
 9849SOL    HW230447   6.551   0.160   6.169
 9850SOL     OW30448   3.929   7.020   2.213
 9850SOL    HW130449   3.933   6.988   2.118
 9850SOL    HW230450   4.016   0.039   2.237
 9851SOL     OW30451   5.282   1.884   5.023
 9851SOL    HW130452   5.318   1.973   5.053
 9851SOL    HW230453   5.209   1.856   5.085
 9852SOL     OW30454   4.857   1.765   3.644
 9852SOL    HW130455   4.911   1.849   3.650
 9852SOL    HW230456   4.873   1.722   3.555
 9853SOL     OW30457   5.626   3.912   2.723
 9853SOL    HW130458   5.569   3.835   2.694
 9853SOL    HW230459   5.665   3.957   2.643
 9854SOL     OW30460   5.539   5.329   4.592
 9854SOL    HW130461   5.560   5.359   4.685
 9854SOL    HW230462   5.624   5.306   4.545
 9855SOL     OW30463   0.757   4.274   1.573
 9855SOL    HW130464   0.683   4.332   1.609
 9855SOL    HW230465   0.760   4.188   1.624
 9856SOL     OW30466   3.681   3.792   0.334
 9856SOL    HW130467   3.675   3.851   0.254
 9856SOL    HW230468   3.594   3.792   0.383
 9857SOL     OW30469   5.311   3.310   3.251
 9857SOL    HW130470   5.319   3.259   3.336
 9857SOL    HW230471   5.237   3.377   3.259
 9858SOL     OW30472   5.172   1.203   2.113
 9858SOL    HW130473   5.198   1.259   2.191
 9858SOL    HW230474   5.162   1.108   2.142
 9859SOL     OW30475   6.461   0.944   1.947
 9859SOL    HW130476   6.422   0.953   1.856
 9859SOL    HW230477   6.431   0.858   1.988
 9860SOL     OW30478   0.326   0.779   2.454
 9860SOL    HW130479   0.305   0.721   2.375
 9860SOL    HW230480   0.356   0.722   2.531
 9861SOL     OW30481   4.480   6.114   4.384
 9861SOL    HW130482   4.444   6.022   4.368
 9861SOL    HW230483   4.424   6.160   4.452
 9862SOL     OW30484   1.910   3.069   0.435
 9862SOL    HW130485   1.967   3.002   0.484
 9862SOL    HW230486   1.823   3.079   0.482
 9863SOL     OW30487   3.045   0.268   3.252
 9863SOL    HW130488   3.121   0.283   3.189
 9863SOL    HW230489   3.004   0.356   3.276
 9864SOL     OW30490   4.417   5.572   3.542
 9864SOL    HW130491   4.320   5.599   3.545
 9864SOL    HW230492   4.426   5.478   3.573
 9865SOL     OW30493   0.767   0.178   3.611
 9865SOL    HW130494   0.843   0.180   3.676
 9865SOL    HW230495   0.687   0.135   3.655
 9866SOL     OW30496   4.910   3.755   4.387
 9866SOL    HW130497   4.886   3.658   4.391
 9866SOL    HW230498   4.918   3.791   4.480
 9867SOL     OW30499   4.642   1.321   0.755
 9867SOL    HW130500   4.699   1.250   0.714
 9867SOL    HW230501   4.693   1.366   0.828
 9868SOL     OW30502   6.737   4.260   6.864
 9868SOL    HW130503   6.749   4.359   6.855
 9868SOL    HW230504   6.800   4.225   6.933
 9869SOL     OW30505   2.165   3.946   3.106
 9869SOL    HW130506   2.197   4.013   3.039
 9869SOL    HW230507   2.160   3.855   3.063
 9870SOL     OW30508   4.715   4.618   2.616
 9870SOL    HW130509   4.674   4.528   2.630
 9870SOL    HW230510   4.648   4.680   2.577
 9871SOL     OW30511   2.225   0.565   5.757
 9871SOL    HW130512   2.144   0.513   5.733
 9871SOL    HW230513   2.285   0.508   5.814
 9872SOL     OW30514   2.937   4.783   3.320
 9872SOL    HW130515   2.927   4.725   3.239
 9872SOL    HW230516   2.852   4.781   3.373
 9873SOL     OW30517   1.857   2.996   0.200
 9873SOL    HW130518   1.808   2.910   0.203
 9873SOL    HW230519   1.884   3.023   0.293
 9874SOL     OW30520   0.516   2.753   3.236
 9874SOL    HW130521   0.555   2.695   3.164
 9874SOL    HW230522   0.585   2.818   3.266
 9875SOL     OW30523   0.456   0.646   2.671
 9875SOL    HW130524   0.542   0.690   2.697
 9875SOL    HW230525   0.388   0.660   2.743
 9876SOL     OW30526   6.609   0.007   2.659
 9876SOL    HW130527   6.661   0.061   2.724
 9876SOL    HW230528   6.589   0.062   2.578
 9877SOL     OW30529   3.113   0.191   2.575
 9877SOL    HW130530   3.015   0.194   2.559
 9877SOL    HW230531   3.157   0.132   2.508
 9878SOL     OW30532   1.621   5.559   5.656
 9878SOL    HW130533   1.646   5.650   5.624
 9878SOL    HW230534   1.652   5.546   5.750
 9879SOL     OW30535   4.471   5.543   4.717
 9879SOL    HW130536   4.420   5.628   4.706
 9879SOL    HW230537   4.546   5.557   4.782
 9880SOL     OW30538   0.872   2.003   5.881
 9880SOL    HW130539   0.955   2.031   5.833
 9880SOL    HW230540   0.895   1.980   5.976
 9881SOL     OW30541   0.752   2.441   4.958
 9881SOL    HW130542   0.686   2.508   4.923
 9881SOL    HW230543   0.799   2.479   5.037
 9882SOL     OW30544   1.307   2.673   4.370
 9882SOL    HW130545   1.365   2.615   4.314
 9882SOL    HW230546   1.293   2.761   4.323
 9883SOL     OW30547   1.474   0.339   1.609
 9883SOL    HW130548   1.532   0.413   1.643
 9883SOL    HW230549   1.525   0.286   1.541
 9884SOL     OW30550   4.138   0.788   3.566
 9884SOL    HW130551   4.194   0.727   3.623
 9884SOL    HW230552   4.158   0.883   3.589
 9885SOL     OW30553   6.297   4.140   4.997
 9885SOL    HW130554   6.274   4.231   5.033
 9885SOL    HW230555   6.244   4.071   5.045
 9886SOL     OW30556   1.306   4.868   2.858
 9886SOL    HW130557   1.406   4.868   2.855
 9886SOL    HW230558   1.276   4.820   2.941
 9887SOL     OW30559   3.557   1.739   6.699
 9887SOL    HW130560   3.517   1.650   6.678
 9887SOL    HW230561   3.488   1.810   6.687
 9888SOL     OW30562   0.516   3.584   0.459
 9888SOL    HW130563   0.498   3.492   0.495
 9888SOL    HW230564   0.490   3.587   0.363
 9889SOL     OW30565   6.343   5.409   0.499
 9889SOL    HW130566   6.423   5.468   0.485
 9889SOL    HW230567   6.373   5.317   0.526
 9890SOL     OW30568   1.730   2.447   0.996
 9890SOL    HW130569   1.680   2.404   0.921
 9890SOL    HW230570   1.827   2.422   0.990
 9891SOL     OW30571   5.603   2.691   0.321
 9891SOL    HW130572   5.682   2.745   0.349
 9891SOL    HW230573   5.532   2.751   0.285
 9892SOL     OW30574   6.925   4.628   0.080
 9892SOL    HW130575   6.911   4.708   0.139
 9892SOL    HW230576   7.020   4.598   0.088
 9893SOL     OW30577   2.472   0.796   0.706
 9893SOL    HW130578   2.390   0.846   0.732
 9893SOL    HW230579   2.475   0.787   0.606
 9894SOL     OW30580   1.216   1.605   0.713
 9894SOL    HW130581   1.266   1.519   0.714
 9894SOL    HW230582   1.278   1.678   0.683
 9895SOL     OW30583   5.688   3.736   4.524
 9895SOL    HW130584   5.603   3.756   4.475
 9895SOL    HW230585   5.733   3.657   4.482
 9896SOL     OW30586   6.869   6.908   0.048
 9896SOL    HW130587   6.788   6.852   0.033
 9896SOL    HW230588   6.887   6.965   6.992
 9897SOL     OW30589   5.747   5.260   3.574
 9897SOL    HW130590   5.754   5.247   3.673
 9897SOL    HW230591   5.787   5.349   3.550
 9898SOL     OW30592   3.106   6.289   6.037
 9898SOL    HW130593   3.185   6.241   5.999
 9898SOL    HW230594   3.135   6.345   6.114
 9899SOL     OW30595   0.821   5.295   0.635
 9899SOL    HW130596   0.862   5.331   0.719
 9899SOL    HW230597   0.888   5.238   0.587
 9900SOL     OW30598   1.508   4.289   3.548
 9900SOL    HW130599   1.566   4.318   3.472
 9900SOL    HW230600   1.538   4.199   3.581
 9901SOL     OW30601   2.671   2.212   5.569
 9901SOL    HW130602   2.699   2.254   5.655
 9901SOL    HW230603   2.692   2.274   5.493
 9902SOL     OW30604   2.405   4.778   6.493
 9902SOL    HW130605   2.426   4.867   6.453
 9902SOL    HW230606   2.321   4.742   6.452
 9903SOL     OW30607   4.983   1.643   3.215
 9903SOL    HW130608   4.965   1.606   3.306
 9903SOL    HW230609   4.898   1.682   3.178
 9904SOL     OW30610   0.580   3.257   6.112
 9904SOL    HW130611   0.521   3.333   6.141
 9904SOL    HW230612   0.579   3.186   6.181
 9905SOL     OW30613   3.984   1.534   0.797
 9905SOL    HW130614   3.930   1.524   0.713
 9905SOL    HW230615   3.926   1.517   0.877
 9906SOL     OW30616   3.914   2.952   2.597
 9906SOL    HW130617   3.929   2.954   2.498
 9906SOL    HW230618   3.820   2.921   2.615
 9907SOL     OW30619   0.013   0.601   1.537
 9907SOL    HW130620   7.001   0.691   1.511
 9907SOL    HW230621   0.044   0.604   1.632
 9908SOL     OW30622   5.101   2.863   3.071
 9908SOL    HW130623   5.053   2.789   3.023
 9908SOL    HW230624   5.049   2.888   3.152
 9909SOL     OW30625   3.545   6.728   3.591
 9909SOL    HW130626   3.553   6.736   3.690
 9909SOL    HW230627   3.504   6.640   3.567
 9910SOL     OW30628   1.131   4.156   2.661
 9910SOL    HW130629   1.098   4.216   2.734
 9910SOL    HW230630   1.053   4.121   2.609
 9911SOL     OW30631   4.079   0.359   2.174
 9911SOL    HW130632   4.120   0.268   2.166
 9911SOL    HW230633   4.067   0.382   2.270
 9912SOL     OW30634   4.175   1.974   1.266
 9912SOL    HW130635   4.163   2.070   1.291
 9912SOL    HW230636   4.113   1.950   1.192
 9913SOL     OW30637   6.032   3.681   6.989
 9913SOL    HW130638   6.011   3.688   0.063
 9913SOL    HW230639   5.950   3.654   6.939
 9914SOL     OW30640   0.482   3.080   4.453
 9914SOL    HW130641   0.564   3.102   4.505
 9914SOL    HW230642   0.427   3.163   4.440
 9915SOL     OW30643   4.454   1.163   2.970
 9915SOL    HW130644   4.417   1.072   2.988
 9915SOL    HW230645   4.382   1.231   2.984
 9916SOL     OW30646   2.374   2.724   2.390
 9916SOL    HW130647   2.448   2.662   2.415
 9916SOL    HW230648   2.287   2.686   2.421
 9917SOL     OW30649   6.458   3.638   6.821
 9917SOL    HW130650   6.458   3.558   6.761
 9917SOL    HW230651   6.499   3.716   6.773
 9918SOL     OW30652   4.055   1.709   2.844
 9918SOL    HW130653   4.154   1.715   2.854
 9918SOL    HW230654   4.028   1.748   2.756
 9919SOL     OW30655   6.243   6.206   1.072
 9919SOL    HW130656   6.181   6.137   1.107
 9919SOL    HW230657   6.202   6.251   0.992
 9920SOL     OW30658   4.956   1.194   2.396
 9920SOL    HW130659   4.952   1.279   2.343
 9920SOL    HW230660   4.931   1.117   2.337
 9921SOL     OW30661   4.706   5.538   5.921
 9921SOL    HW130662   4.709   5.616   5.858
 9921SOL    HW230663   4.635   5.553   5.990
 9922SOL     OW30664   1.130   5.316   0.082
 9922SOL    HW130665   1.055   5.268   0.126
 9922SOL    HW230666   1.094   5.385   0.019
 9923SOL     OW30667   4.507   5.017   0.010
 9923SOL    HW130668   4.596   5.061   0.019
 9923SOL    HW230669   4.464   5.045   6.948
 9924SOL     OW30670   6.992   2.803   4.686
 9924SOL    HW130671   7.017   2.856   4.767
 9924SOL    HW230672   0.041   2.739   4.665
 9925SOL     OW30673   6.444   3.575   3.807
 9925SOL    HW130674   6.522   3.565   3.869
 9925SOL    HW230675   6.414   3.671   3.807
 9926SOL     OW30676   2.490   4.128   6.873
 9926SOL    HW130677   2.487   4.207   6.812
 9926SOL    HW230678   2.397   4.098   6.894
 9927SOL     OW30679   6.393   6.893   2.550
 9927SOL    HW130680   6.386   6.794   2.565
 9927SOL    HW230681   6.451   6.933   2.620
 9928SOL     OW30682   4.639   4.812   1.236
 9928SOL    HW130683   4.731   4.798   1.198
 9928SOL    HW230684   4.640   4.794   1.334
 9929SOL     OW30685   2.201   5.688   4.753
 9929SOL    HW130686   2.157   5.736   4.829
 9929SOL    HW230687   2.280   5.638   4.786
 9930SOL     OW30688   6.589   0.439   4.797
 9930SOL    HW130689   6.613   0.391   4.881
 9930SOL    HW230690   6.490   0.438   4.785
 9931SOL     OW30691   0.614   4.509   5.162
 9931SOL    HW130692   0.707   4.530   5.193
 9931SOL    HW230693   0.576   4.436   5.218
 9932SOL     OW30694   1.702   6.857   6.284
 9932SOL    HW130695   1.638   6.782   6.297
 9932SOL    HW230696   1.677   6.910   6.203
 9933SOL     OW30697   2.063   5.198   2.698
 9933SOL    HW130698   2.091   5.220   2.604
 9933SOL    HW230699   2.141   5.207   2.759
 9934SOL     OW30700   5.587   2.295   5.692
 9934SOL    HW130701   5.530   2.350   5.754
 9934SOL    HW230702   5.586   2.200   5.721
 9935SOL     OW30703   2.590   0.985   0.438
 9935SOL    HW130704   2.656   1.004   0.511
 9935SOL    HW230705   2.592   1.058   0.371
 9936SOL     OW30706   0.017   5.394   4.787
 9936SOL    HW130707   6.977   5.412   4.861
 9936SOL    HW230708   0.111   5.402   4.821
 9937SOL     OW30709   6.183   2.346   5.953
 9937SOL    HW130710   6.091   2.384   5.960
 9937SOL    HW230711   6.180   2.263   5.898
 9938SOL     OW30712   6.658   5.824   3.245
 9938SOL    HW130713   6.660   5.900   3.180
 9938SOL    HW230714   6.614   5.854   3.330
 9939SOL     OW30715   3.202   2.961   0.899
 9939SOL    HW130716   3.181   2.900   0.823
 9939SOL    HW230717   3.163   3.051   0.881
 9940SOL     OW30718   0.408   0.682   0.927
 9940SOL    HW130719   0.416   0.585   0.949
 9940SOL    HW230720   0.457   0.701   0.842
 9941SOL     OW30721   2.920   3.879   5.010
 9941SOL    HW130722   2.854   3.904   5.081
 9941SOL    HW230723   3.013   3.887   5.046
 9942SOL     OW30724   2.148   6.329   2.539
 9942SOL    HW130725   2.134   6.337   2.638
 9942SOL    HW230726   2.239   6.362   2.516
 9943SOL     OW30727   0.399   5.837   6.066
 9943SOL    HW130728   0.378   5.784   6.148
 9943SOL    HW230729   0.491   5.877   6.075
 9944SOL     OW30730   2.139   4.713   6.138
 9944SOL    HW130731   2.236   4.731   6.122
 9944SOL    HW230732   2.121   4.616   6.126
 9945SOL     OW30733   6.843   5.310   6.909
 9945SOL    HW130734   6.748   5.282   6.895
 9945SOL    HW230735   6.846   5.389   6.970
 9946SOL     OW30736   5.182   1.162   4.945
 9946SOL    HW130737   5.265   1.117   4.911
 9946SOL    HW230738   5.112   1.093   4.961
 9947SOL     OW30739   6.746   4.031   6.005
 9947SOL    HW130740   6.844   4.039   6.020
 9947SOL    HW230741   6.725   3.942   5.966
 9948SOL     OW30742   4.764   4.210   4.906
 9948SOL    HW130743   4.683   4.266   4.890
 9948SOL    HW230744   4.846   4.263   4.885
 9949SOL     OW30745   5.486   4.742   3.437
 9949SOL    HW130746   5.400   4.787   3.413
 9949SOL    HW230747   5.536   4.719   3.354
 9950SOL     OW30748   5.501   6.289   5.271
 9950SOL    HW130749   5.591   6.332   5.285
 9950SOL    HW230750   5.505   6.193   5.298
 9951SOL     OW30751   6.028   2.185   3.770
 9951SOL    HW130752   6.039   2.086   3.765
 9951SOL    HW230753   5.965   2.216   3.699
 9952SOL     OW30754   6.357   3.763   0.811
 9952SOL    HW130755   6.419   3.815   0.870
 9952SOL    HW230756   6.397   3.674   0.791
 9953SOL     OW30757   6.639   2.315   3.567
 9953SOL    HW130758   6.559   2.370   3.593
 9953SOL    HW230759   6.677   2.272   3.648
 9954SOL     OW30760   6.036   6.601   5.611
 9954SOL    HW130761   5.961   6.664   5.590
 9954SOL    HW230762   6.091   6.638   5.685
 9955SOL     OW30763   6.825   5.091   4.670
 9955SOL    HW130764   6.828   5.098   4.769
 9955SOL    HW230765   6.731   5.101   4.638
 9956SOL     OW30766   1.500   6.999   1.832
 9956SOL    HW130767   1.417   0.031   1.829
 9956SOL    HW230768   1.494   6.925   1.765
 9957SOL     OW30769   6.095   5.462   3.591
 9957SOL    HW130770   6.007   5.454   3.545
 9957SOL    HW230771   6.158   5.514   3.534
 9958SOL     OW30772   3.421   4.725   0.816
 9958SOL    HW130773   3.487   4.783   0.864
 9958SOL    HW230774   3.342   4.708   0.875
 9959SOL     OW30775   4.113   3.737   5.896
 9959SOL    HW130776   4.175   3.735   5.974
 9959SOL    HW230777   4.162   3.708   5.814
 9960SOL     OW30778   0.086   1.217   2.821
 9960SOL    HW130779   0.186   1.207   2.818
 9960SOL    HW230780   0.044   1.146   2.765
 9961SOL     OW30781   2.169   5.547   3.785
 9961SOL    HW130782   2.242   5.586   3.841
 9961SOL    HW230783   2.167   5.448   3.796
 9962SOL     OW30784   5.614   6.192   4.814
 9962SOL    HW130785   5.605   6.143   4.727
 9962SOL    HW230786   5.535   6.251   4.828
 9963SOL     OW30787   3.348   1.917   0.830
 9963SOL    HW130788   3.341   1.958   0.739
 9963SOL    HW230789   3.267   1.862   0.849
 9964SOL     OW30790   4.708   5.506   4.302
 9964SOL    HW130791   4.808   5.499   4.300
 9964SOL    HW230792   4.668   5.431   4.250
 9965SOL     OW30793   3.846   6.824   6.973
 9965SOL    HW130794   3.917   6.864   0.007
 9965SOL    HW230795   3.759   6.824   7.022
 9966SOL     OW30796   1.512   5.136   1.816
 9966SOL    HW130797   1.544   5.184   1.898
 9966SOL    HW230798   1.430   5.180   1.781
 9967SOL     OW30799   1.198   5.558   1.446
 9967SOL    HW130800   1.228   5.654   1.448
 9967SOL    HW230801   1.152   5.536   1.532
 9968SOL     OW30802   3.585   3.889   1.936
 9968SOL    HW130803   3.557   3.813   1.995
 9968SOL    HW230804   3.663   3.936   1.978
 9969SOL     OW30805   1.382   3.670   2.820
 9969SOL    HW130806   1.381   3.688   2.919
 9969SOL    HW230807   1.413   3.753   2.772
 9970SOL     OW30808   5.236   4.927   1.842
 9970SOL    HW130809   5.326   4.896   1.810
 9970SOL    HW230810   5.201   4.863   1.910
 9971SOL     OW30811   1.380   4.461   0.837
 9971SOL    HW130812   1.327   4.535   0.796
 9971SOL    HW230813   1.329   4.375   0.829
 9972SOL     OW30814   5.923   5.054   2.972
 9972SOL    HW130815   5.900   5.033   3.067
 9972SOL    HW230816   5.938   5.152   2.962
 9973SOL     OW30817   5.937   0.665   4.159
 9973SOL    HW130818   6.035   0.672   4.179
 9973SOL    HW230819   5.922   0.590   4.094
 9974SOL     OW30820   1.673   0.591   3.932
 9974SOL    HW130821   1.583   0.621   3.962
 9974SOL    HW230822   1.693   0.501   3.971
 9975SOL     OW30823   0.082   2.748   0.395
 9975SOL    HW130824   0.071   2.837   0.351
 9975SOL    HW230825   0.175   2.740   0.431
 9976SOL     OW30826   1.222   0.170   5.151
 9976SOL    HW130827   1.158   0.214   5.214
 9976SOL    HW230828   1.268   0.240   5.096
 9977SOL     OW30829   6.628   4.221   5.201
 9977SOL    HW130830   6.705   4.187   5.255
 9977SOL    HW230831   6.634   4.186   5.107
 9978SOL     OW30832   0.493   2.787   4.276
 9978SOL    HW130833   0.485   2.866   4.337
 9978SOL    HW230834   0.531   2.817   4.188
 9979SOL     OW30835   5.998   4.000   4.920
 9979SOL    HW130836   5.992   4.084   4.866
 9979SOL    HW230837   5.966   3.923   4.865
 9980SOL     OW30838   3.573   0.469   6.859
 9980SOL    HW130839   3.510   0.513   6.796
 9980SOL    HW230840   3.527   0.454   6.947
 9981SOL     OW30841   3.283   1.391   3.783
 9981SOL    HW130842   3.206   1.386   3.720
 9981SOL    HW230843   3.298   1.302   3.825
 9982SOL     OW30844   6.675   6.216   3.943
 9982SOL    HW130845   6.704   6.171   3.858
 9982SOL    HW230846   6.750   6.216   4.008
 9983SOL     OW30847   6.804   1.199   2.539
 9983SOL    HW130848   6.736   1.134   2.572
 9983SOL    HW230849   6.896   1.162   2.553
 9984SOL     OW30850   3.031   1.921   6.558
 9984SOL    HW130851   2.970   1.913   6.479
 9984SOL    HW230852   3.000   1.859   6.630
 9985SOL     OW30853   1.711   1.132   1.759
 9985SOL    HW130854   1.787   1.082   1.800
 9985SOL    HW230855   1.638   1.067   1.735
 9986SOL     OW30856   5.553   4.127   4.802
 9986SOL    HW130857   5.457   4.105   4.785
 9986SOL    HW230858   5.565   4.150   4.899
 9987SOL     OW30859   6.157   3.895   6.278
 9987SOL    HW130860   6.060   3.895   6.299
 9987SOL    HW230861   6.176   3.956   6.201
 9988SOL     OW30862   6.544   6.819   5.213
 9988SOL    HW130863   6.621   6.834   5.275
 9988SOL    HW230864   6.511   6.725   5.222
 9989SOL     OW30865   7.000   3.618   4.860
 9989SOL    HW130866   6.953   3.640   4.945
 9989SOL    HW230867   0.039   3.542   4.875
 9990SOL     OW30868   1.146   4.729   3.027
 9990SOL    HW130869   1.112   4.638   3.000
 9990SOL    HW230870   1.070   4.783   3.064
 9991SOL     OW30871   2.963   2.263   4.361
 9991SOL    HW130872   3.034   2.240   4.295
 9991SOL    HW230873   2.932   2.357   4.345
 9992SOL     OW30874   5.788   5.603   6.247
 9992SOL    HW130875   5.725   5.675   6.220
 9992SOL    HW230876   5.782   5.589   6.346
 9993SOL     OW30877   1.618   1.625   1.536
 9993SOL    HW130878   1.566   1.540   1.545
 9993SOL    HW230879   1.556   1.703   1.549
 9994SOL     OW30880   6.142   4.581   3.755
 9994SOL    HW130881   6.049   4.546   3.769
 9994SOL    HW230882   6.149   4.673   3.793
 9995SOL     OW30883   5.846   0.895   4.052
 9995SOL    HW130884   5.834   0.874   3.955
 9995SOL    HW230885   5.862   0.811   4.103
 9996SOL     OW30886   3.520   4.399   6.854
 9996SOL    HW130887   3.566   4.471   6.801
 9996SOL    HW230888   3.568   4.386   6.941
 9997SOL     OW30889   2.576   0.465   5.213
 9997SOL    HW130890   2.567   0.414   5.298
 9997SOL    HW230891   2.673   0.485   5.196
 9998SOL     OW30892   5.902   5.502   5.712
 9998SOL    HW130893   5.924   5.597   5.738
 9998SOL    HW230894   5.944   5.439   5.778
 9999SOL     OW30895   6.369   2.573   5.917
 9999SOL    HW130896   6.295   2.622   5.872
 9999SOL    HW230897   6.335   2.483   5.947
10000SOL     OW30898   6.998   2.266   6.631
10000SOL    HW130899   0.034   2.270   6.711
10000SOL    HW230900   6.913   2.221   6.655
10001SOL     OW30901   4.960   0.556   2.649
10001SOL    HW130902   4.972   0.654   2.633
10001SOL    HW230903   4.911   0.543   2.735
10002SOL     OW30904   1.298   0.603   1.804
10002SOL    HW130905   1.241   0.540   1.856
10002SOL    HW230906   1.388   0.562   1.789
10003SOL     OW30907   3.614   1.957   3.297
10003SOL    HW130908   3.539   2.015   3.266
10003SOL    HW230909   3.579   1.889   3.362
10004SOL     OW30910   6.909   2.400   2.916
10004SOL    HW130911   6.966   2.462   2.970
10004SOL    HW230912   6.916   2.307   2.954
10005SOL     OW30913   4.802   0.170   4.010
10005SOL    HW130914   4.874   0.226   3.968
10005SOL    HW230915   4.713   0.195   3.971
10006SOL     OW30916   3.957   6.645   4.191
10006SOL    HW130917   3.954   6.586   4.111
10006SOL    HW230918   3.895   6.609   4.261
10007SOL     OW30919   0.177   3.397   4.153
10007SOL    HW130920   0.110   3.471   4.142
10007SOL    HW230921   0.269   3.436   4.158
10008SOL     OW30922   3.076   0.558   4.240
10008SOL    HW130923   3.078   0.506   4.155
10008SOL    HW230924   3.164   0.604   4.253
10009SOL     OW30925   2.031   4.005   2.006
10009SOL    HW130926   1.934   4.020   2.023
10009SOL    HW230927   2.044   3.915   1.963
10010SOL     OW30928   1.280   1.963   6.436
10010SOL    HW130929   1.252   1.883   6.489
10010SOL    HW230930   1.380   1.967   6.433
10011SOL     OW30931   6.493   6.935   5.809
10011SOL    HW130932   6.516   6.840   5.788
10011SOL    HW230933   6.425   6.937   5.883
10012SOL     OW30934   6.011   1.126   3.843
10012SOL    HW130935   6.067   1.078   3.910
10012SOL    HW230936   5.936   1.173   3.888
10013SOL     OW30937   0.549   0.828   3.044
10013SOL    HW130938   0.544   0.728   3.038
10013SOL    HW230939   0.642   0.855   3.068
10014SOL     OW30940   0.213   4.851   6.151
10014SOL    HW130941   0.292   4.881   6.204
10014SOL    HW230942   0.137   4.914   6.166
10015SOL     OW30943   2.054   4.475   6.872
10015SOL    HW130944   2.136   4.460   6.817
10015SOL    HW230945   2.075   4.536   6.948
10016SOL     OW30946   2.691   0.876   5.515
10016SOL    HW130947   2.700   0.971   5.546
10016SOL    HW230948   2.612   0.834   5.560
10017SOL     OW30949   2.153   2.473   4.348
10017SOL    HW130950   2.156   2.555   4.291
10017SOL    HW230951   2.064   2.468   4.394
10018SOL     OW30952   5.273   0.509   5.580
10018SOL    HW130953   5.281   0.602   5.617
10018SOL    HW230954   5.311   0.506   5.488
10019SOL     OW30955   1.196   0.852   3.222
10019SOL    HW130956   1.175   0.949   3.227
10019SOL    HW230957   1.112   0.801   3.203
10020SOL     OW30958   0.511   2.877   0.883
10020SOL    HW130959   0.573   2.863   0.960
10020SOL    HW230960   0.424   2.830   0.900
10021SOL     OW30961   0.267   3.509   1.230
10021SOL    HW130962   0.181   3.554   1.252
10021SOL    HW230963   0.261   3.412   1.252
10022SOL     OW30964   1.152   2.059   6.692
10022SOL    HW130965   1.190   2.025   6.778
10022SOL    HW230966   1.200   2.016   6.615
10023SOL     OW30967   6.966   3.469   0.962
10023SOL    HW130968   6.884   3.452   0.907
10023SOL    HW230969   7.014   3.382   0.976
10024SOL     OW30970   1.907   4.340   3.645
10024SOL    HW130971   1.856   4.411   3.694
10024SOL    HW230972   1.954   4.281   3.712
10025SOL     OW30973   1.742   1.277   0.919
10025SOL    HW130974   1.798   1.328   0.853
10025SOL    HW230975   1.789   1.192   0.943
10026SOL     OW30976   6.544   0.746   3.397
10026SOL    HW130977   6.480   0.819   3.372
10026SOL    HW230978   6.628   0.754   3.343
10027SOL     OW30979   4.952   3.396   5.114
10027SOL    HW130980   4.881   3.460   5.086
10027SOL    HW230981   4.948   3.314   5.057
10028SOL     OW30982   1.913   1.387   0.748
10028SOL    HW130983   1.900   1.473   0.699
10028SOL    HW230984   1.915   1.311   0.682
10029SOL     OW30985   5.902   1.149   3.567
10029SOL    HW130986   5.907   1.243   3.602
10029SOL    HW230987   5.940   1.086   3.634
10030SOL     OW30988   1.541   0.233   3.772
10030SOL    HW130989   1.537   0.133   3.767
10030SOL    HW230990   1.462   0.272   3.724
10031SOL     OW30991   6.413   4.185   4.106
10031SOL    HW130992   6.452   4.105   4.062
10031SOL    HW230993   6.341   4.223   4.048
10032SOL     OW30994   3.107   1.557   4.585
10032SOL    HW130995   3.068   1.470   4.616
10032SOL    HW230996   3.111   1.558   4.485
10033SOL     OW30997   5.881   3.238   5.365
10033SOL    HW130998   5.836   3.188   5.291
10033SOL    HW230999   5.812   3.284   5.421
10034SOL     OW31000   5.632   0.677   5.244
10034SOL    HW131001   5.546   0.632   5.224
10034SOL    HW231002   5.691   0.615   5.295
10035SOL     OW31003   0.344   5.565   1.350
10035SOL    HW131004   0.421   5.538   1.408
10035SOL    HW231005   0.344   5.664   1.340
10036SOL     OW31006   6.715   1.345   0.509
10036SOL    HW131007   6.693   1.248   0.506
10036SOL    HW231008   6.791   1.360   0.571
10037SOL     OW31009   0.722   6.816   6.907
10037SOL    HW131010   0.699   6.877   6.832
10037SOL    HW231011   0.765   6.733   6.871
10038SOL     OW31012   6.556   6.504   0.753
10038SOL    HW131013   6.649   6.533   0.776
10038SOL    HW231014   6.558   6.410   0.718
10039SOL     OW31015   3.337   0.009   3.678
10039SOL    HW131016   3.388   0.090   3.707
10039SOL    HW231017   3.357   7.013   3.582
10040SOL     OW31018   0.147   2.921   1.370
10040SOL    HW131019   0.196   2.903   1.455
10040SOL    HW231020   0.063   2.972   1.390
10041SOL     OW31021   2.001   6.049   0.232
10041SOL    HW131022   1.951   6.136   0.231
10041SOL    HW231023   1.951   5.983   0.288
10042SOL     OW31024   6.283   2.707   2.515
10042SOL    HW131025   6.314   2.613   2.506
10042SOL    HW231026   6.279   2.733   2.611
10043SOL     OW31027   6.973   1.627   5.803
10043SOL    HW131028   0.023   1.662   5.862
10043SOL    HW231029   7.013   1.577   5.727
10044SOL     OW31030   3.520   2.115   5.524
10044SOL    HW131031   3.568   2.109   5.611
10044SOL    HW231032   3.421   2.110   5.540
10045SOL     OW31033   3.751   1.298   0.751
10045SOL    HW131034   3.758   1.391   0.715
10045SOL    HW231035   3.686   1.296   0.826
10046SOL     OW31036   1.813   5.288   1.118
10046SOL    HW131037   1.901   5.259   1.155
10046SOL    HW231038   1.739   5.255   1.176
10047SOL     OW31039   0.721   3.351   0.861
10047SOL    HW131040   0.624   3.335   0.843
10047SOL    HW231041   0.754   3.424   0.802
10048SOL     OW31042   5.925   5.692   3.087
10048SOL    HW131043   5.960   5.668   2.996
10048SOL    HW231044   5.887   5.610   3.130
10049SOL     OW31045   0.143   0.775   5.788
10049SOL    HW131046   0.150   0.850   5.854
10049SOL    HW231047   0.136   0.813   5.696
10050SOL     OW31048   6.832   3.141   6.866
10050SOL    HW131049   6.792   3.130   6.776
10050SOL    HW231050   6.887   3.225   6.868
10051SOL     OW31051   2.110   3.277   3.577
10051SOL    HW131052   2.038   3.336   3.612
10051SOL    HW231053   2.094   3.258   3.480
10052SOL     OW31054   1.213   6.590   3.201
10052SOL    HW131055   1.284   6.658   3.217
10052SOL    HW231056   1.151   6.622   3.129
10053SOL     OW31057   5.880   5.337   4.852
10053SOL    HW131058   5.894   5.391   4.769
10053SOL    HW231059   5.782   5.331   4.871
10054SOL     OW31060   5.899   4.112   5.157
10054SOL    HW131061   5.948   4.066   5.083
10054SOL    HW231062   5.963   4.166   5.211
10055SOL     OW31063   0.711   1.877   6.458
10055SOL    HW131064   0.623   1.924   6.451
10055SOL    HW231065   0.708   1.792   6.405
10056SOL     OW31066   6.626   2.505   3.365
10056SOL    HW131067   6.635   2.428   3.428
10056SOL    HW231068   6.558   2.484   3.295
10057SOL     OW31069   6.348   4.614   5.343
10057SOL    HW131070   6.347   4.709   5.312
10057SOL    HW231071   6.422   4.565   5.298
10058SOL     OW31072   6.946   3.864   5.574
10058SOL    HW131073   7.004   3.936   5.536
10058SOL    HW231074   6.929   3.883   5.671
10059SOL     OW31075   6.346   0.672   6.703
10059SOL    HW131076   6.338   0.772   6.705
10059SOL    HW231077   6.299   0.637   6.622
10060SOL     OW31078   2.462   2.138   1.897
10060SOL    HW131079   2.373   2.181   1.915
10060SOL    HW231080   2.526   2.208   1.867
10061SOL     OW31081   3.650   0.008   3.204
10061SOL    HW131082   3.581   6.984   3.151
10061SOL    HW231083   3.710   6.966   3.249
10062SOL     OW31084   6.816   6.838   4.591
10062SOL    HW131085   6.909   6.856   4.621
10062SOL    HW231086   6.754   6.841   4.670
10063SOL     OW31087   2.101   2.554   5.505
10063SOL    HW131088   2.003   2.567   5.496
10063SOL    HW231089   2.138   2.618   5.572
10064SOL     OW31090   2.977   6.934   0.528
10064SOL    HW131091   2.909   6.955   0.457
10064SOL    HW231092   3.010   7.018   0.570
10065SOL     OW31093   0.622   1.386   1.748
10065SOL    HW131094   0.607   1.288   1.737
10065SOL    HW231095   0.678   1.420   1.672
10066SOL     OW31096   6.696   3.342   3.579
10066SOL    HW131097   6.601   3.324   3.604
10066SOL    HW231098   6.746   3.256   3.572
10067SOL     OW31099   6.955   3.289   5.892
10067SOL    HW131100   6.897   3.343   5.831
10067SOL    HW231101   6.900   3.255   5.968
10068SOL     OW31102   2.145   3.347   3.172
10068SOL    HW131103   2.116   3.379   3.082
10068SOL    HW231104   2.149   3.425   3.235
10069SOL     OW31105   3.139   5.072   0.686
10069SOL    HW131106   3.118   5.169   0.682
10069SOL    HW231107   3.061   5.022   0.725
10070SOL     OW31108   4.223   6.885   6.331
10070SOL    HW131109   4.310   6.934   6.334
10070SOL    HW231110   4.202   6.862   6.236
10071SOL     OW31111   6.042   0.144   3.983
10071SOL    HW131112   6.002   0.149   4.074
10071SOL    HW231113   6.141   0.131   3.990
10072SOL     OW31114   6.676   3.277   1.543
10072SOL    HW131115   6.735   3.339   1.595
10072SOL    HW231116   6.725   3.192   1.524
10073SOL     OW31117   6.547   4.640   4.827
10073SOL    HW131118   6.641   4.628   4.861
10073SOL    HW231119   6.529   4.574   4.755
10074SOL     OW31120   1.120   4.766   0.390
10074SOL    HW131121   1.128   4.700   0.315
10074SOL    HW231122   1.152   4.724   0.474
10075SOL     OW31123   1.505   3.834   1.769
10075SOL    HW131124   1.410   3.862   1.754
10075SOL    HW231125   1.537   3.868   1.857
10076SOL     OW31126   5.221   5.231   4.224
10076SOL    HW131127   5.250   5.246   4.319
10076SOL    HW231128   5.278   5.285   4.163
10077SOL     OW31129   4.791   3.371   7.008
10077SOL    HW131130   4.812   3.394   0.079
10077SOL    HW231131   4.826   3.442   6.947
10078SOL     OW31132   6.708   5.735   4.910
10078SOL    HW131133   6.677   5.806   4.847
10078SOL    HW231134   6.699   5.646   4.866
10079SOL     OW31135   4.847   2.843   3.850
10079SOL    HW131136   4.819   2.939   3.859
10079SOL    HW231137   4.795   2.787   3.914
10080SOL     OW31138   4.949   1.630   5.406
10080SOL    HW131139   4.881   1.560   5.382
10080SOL    HW231140   4.919   1.679   5.488
10081SOL     OW31141   1.508   4.219   0.613
10081SOL    HW131142   1.563   4.173   0.683
10081SOL    HW231143   1.489   4.156   0.538
10082SOL     OW31144   0.657   4.705   0.941
10082SOL    HW131145   0.754   4.729   0.949
10082SOL    HW231146   0.648   4.606   0.936
10083SOL     OW31147   3.149   5.209   2.652
10083SOL    HW131148   3.146   5.302   2.617
10083SOL    HW231149   3.077   5.197   2.721
10084SOL     OW31150   0.845   0.994   5.251
10084SOL    HW131151   0.932   1.014   5.206
10084SOL    HW231152   0.859   0.983   5.349
10085SOL     OW31153   5.356   0.425   0.234
10085SOL    HW131154   5.298   0.456   0.159
10085SOL    HW231155   5.373   0.500   0.297
10086SOL     OW31156   5.969   6.633   3.545
10086SOL    HW131157   6.028   6.566   3.500
10086SOL    HW231158   5.880   6.593   3.563
10087SOL     OW31159   1.168   6.443   5.739
10087SOL    HW131160   1.068   6.436   5.738
10087SOL    HW231161   1.199   6.455   5.834
10088SOL     OW31162   6.325   2.983   1.061
10088SOL    HW131163   6.337   3.018   1.153
10088SOL    HW231164   6.396   2.915   1.041
10089SOL     OW31165   3.544   1.205   1.643
10089SOL    HW131166   3.469   1.204   1.710
10089SOL    HW231167   3.630   1.215   1.692
10090SOL     OW31168   2.908   6.502   2.514
10090SOL    HW131169   2.909   6.537   2.608
10090SOL    HW231170   2.814   6.480   2.488
10091SOL     OW31171   6.555   4.386   5.567
10091SOL    HW131172   6.620   4.430   5.504
10091SOL    HW231173   6.600   4.370   5.655
10092SOL     OW31174   0.781   2.253   3.985
10092SOL    HW131175   0.835   2.225   4.065
10092SOL    HW231176   0.834   2.239   3.902
10093SOL     OW31177   4.768   4.900   6.603
10093SOL    HW131178   4.669   4.903   6.595
10093SOL    HW231179   4.809   4.972   6.547
10094SOL     OW31180   3.351   1.440   1.251
10094SOL    HW131181   3.417   1.374   1.286
10094SOL    HW231182   3.267   1.393   1.225
10095SOL     OW31183   4.300   2.675   5.620
10095SOL    HW131184   4.203   2.651   5.630
10095SOL    HW231185   4.327   2.667   5.525
10096SOL     OW31186   6.108   2.588   1.959
10096SOL    HW131187   6.198   2.594   2.001
10096SOL    HW231188   6.037   2.593   2.030
10097SOL     OW31189   0.529   1.226   0.314
10097SOL    HW131190   0.586   1.149   0.343
10097SOL    HW231191   0.434   1.210   0.340
10098SOL     OW31192   2.822   5.290   3.262
10098SOL    HW131193   2.764   5.239   3.326
10098SOL    HW231194   2.860   5.227   3.194
10099SOL     OW31195   0.397   5.027   1.921
10099SOL    HW131196   0.465   4.986   1.862
10099SOL    HW231197   0.312   5.042   1.870
10100SOL     OW31198   4.932   5.267   3.887
10100SOL    HW131199   4.832   5.269   3.893
10100SOL    HW231200   4.968   5.358   3.907
10101SOL     OW31201   0.034   3.224   1.020
10101SOL    HW131202   0.010   3.204   1.115
10101SOL    HW231203   7.015   3.156   0.960
10102SOL     OW31204   6.954   5.378   3.103
10102SOL    HW131205   6.941   5.456   3.041
10102SOL    HW231206   0.027   5.367   3.122
10103SOL     OW31207   6.872   5.944   6.389
10103SOL    HW131208   6.818   5.867   6.354
10103SOL    HW231209   6.910   5.920   6.478
10104SOL     OW31210   2.287   0.804   4.835
10104SOL    HW131211   2.227   0.734   4.874
10104SOL    HW231212   2.377   0.799   4.879
10105SOL     OW31213   3.109   0.931   5.000
10105SOL    HW131214   3.100   0.998   5.073
10105SOL    HW231215   3.160   0.971   4.924
10106SOL     OW31216   5.377   4.348   1.290
10106SOL    HW131217   5.415   4.269   1.242
10106SOL    HW231218   5.447   4.418   1.300
10107SOL     OW31219   5.391   4.996   0.213
10107SOL    HW131220   5.456   5.047   0.270
10107SOL    HW231221   5.431   4.982   0.123
10108SOL     OW31222   2.293   2.125   6.584
10108SOL    HW131223   2.253   2.073   6.508
10108SOL    HW231224   2.352   2.197   6.548
10109SOL     OW31225   1.101   2.238   1.449
10109SOL    HW131226   1.128   2.328   1.414
10109SOL    HW231227   1.005   2.240   1.476
10110SOL     OW31228   5.787   5.689   2.610
10110SOL    HW131229   5.765   5.777   2.653
10110SOL    HW231230   5.704   5.650   2.570
10111SOL     OW31231   0.851   2.291   1.507
10111SOL    HW131232   0.859   2.298   1.606
10111SOL    HW231233   0.782   2.356   1.474
10112SOL     OW31234   0.807   2.164   2.154
10112SOL    HW131235   0.733   2.195   2.095
10112SOL    HW231236   0.816   2.065   2.147
10113SOL     OW31237   6.800   0.583   6.331
10113SOL    HW131238   6.736   0.510   6.355
10113SOL    HW231239   6.856   0.555   6.253
10114SOL     OW31240   5.890   2.526   1.299
10114SOL    HW131241   5.976   2.538   1.248
10114SOL    HW231242   5.872   2.607   1.354
10115SOL     OW31243   3.438   2.746   5.930
10115SOL    HW131244   3.523   2.794   5.953
10115SOL    HW231245   3.455   2.684   5.853
10116SOL     OW31246   0.062   0.480   5.455
10116SOL    HW131247   6.987   0.492   5.459
10116SOL    HW231248   0.107   0.548   5.514
10117SOL     OW31249   6.250   4.833   3.874
10117SOL    HW131250   6.330   4.868   3.825
10117SOL    HW231251   6.171   4.892   3.857
10118SOL     OW31252   3.982   5.412   3.580
10118SOL    HW131253   3.995   5.506   3.548
10118SOL    HW231254   3.997   5.408   3.679
10119SOL     OW31255   6.648   6.039   5.877
10119SOL    HW131256   6.597   5.964   5.837
10119SOL    HW231257   6.715   6.003   5.943
10120SOL     OW31258   2.254   2.945   3.778
10120SOL    HW131259   2.190   2.975   3.849
10120SOL    HW231260   2.318   2.880   3.817
10121SOL     OW31261   6.711   4.749   0.707
10121SOL    HW131262   6.713   4.849   0.701
10121SOL    HW231263   6.770   4.710   0.637
10122SOL     OW31264   1.573   0.614   3.604
10122SOL    HW131265   1.580   0.596   3.702
10122SOL    HW231266   1.507   0.551   3.563
10123SOL     OW31267   6.950   5.012   6.618
10123SOL    HW131268   6.988   4.986   6.707
10123SOL    HW231269   7.016   5.068   6.569
10124SOL     OW31270   2.126   5.380   3.052
10124SOL    HW131271   2.225   5.377   3.040
10124SOL    HW231272   2.093   5.290   3.081
10125SOL     OW31273   1.625   0.273   4.870
10125SOL    HW131274   1.536   0.308   4.898
10125SOL    HW231275   1.697   0.326   4.914
10126SOL     OW31276   6.352   6.576   6.020
10126SOL    HW131277   6.335   6.628   6.104
10126SOL    HW231278   6.451   6.569   6.005
10127SOL     OW31279   2.856   6.806   5.319
10127SOL    HW131280   2.950   6.780   5.340
10127SOL    HW231281   2.841   6.901   5.345
10128SOL     OW31282   2.632   3.033   7.003
10128SOL    HW131283   2.542   3.011   0.017
10128SOL    HW231284   2.657   3.126   0.005
10129SOL     OW31285   6.071   1.531   4.424
10129SOL    HW131286   5.973   1.516   4.413
10129SOL    HW231287   6.116   1.523   4.335
10130SOL     OW31288   0.706   1.610   4.434
10130SOL    HW131289   0.630   1.635   4.374
10130SOL    HW231290   0.678   1.537   4.496
10131SOL     OW31291   2.041   6.564   4.455
10131SOL    HW131292   2.002   6.646   4.412
10131SOL    HW231293   2.023   6.485   4.397
10132SOL     OW31294   6.070   0.097   1.435
10132SOL    HW131295   6.000   0.169   1.433
10132SOL    HW231296   6.028   0.012   1.467
10133SOL     OW31297   5.078   6.448   0.851
10133SOL    HW131298   5.087   6.362   0.800
10133SOL    HW231299   5.121   6.522   0.799
10134SOL     OW31300   0.017   0.099   2.712
10134SOL    HW131301   0.075   0.020   2.731
10134SOL    HW231302   6.972   0.075   2.644
10135SOL     OW31303   6.015   0.752   3.257
10135SOL    HW131304   5.974   0.679   3.311
10135SOL    HW231305   6.051   0.823   3.318
10136SOL     OW31306   4.830   2.129   3.140
10136SOL    HW131307   4.850   2.032   3.150
10136SOL    HW231308   4.875   2.164   3.058
10137SOL     OW31309   6.586   5.047   5.125
10137SOL    HW131310   6.596   4.952   5.097
10137SOL    HW231311   6.497   5.082   5.095
10138SOL     OW31312   0.333   2.386   1.355
10138SOL    HW131313   0.250   2.437   1.333
10138SOL    HW231314   0.324   2.291   1.325
10139SOL     OW31315   2.785   2.839   6.698
10139SOL    HW131316   2.790   2.850   6.598
10139SOL    HW231317   2.689   2.831   6.725
10140SOL     OW31318   1.276   6.531   6.016
10140SOL    HW131319   1.350   6.580   5.970
10140SOL    HW231320   1.314   6.452   6.065
10141SOL     OW31321   1.774   2.327   4.156
10141SOL    HW131322   1.716   2.315   4.236
10141SOL    HW231323   1.811   2.420   4.154
10142SOL     OW31324   4.979   6.714   3.357
10142SOL    HW131325   4.896   6.704   3.303
10142SOL    HW231326   5.005   6.810   3.361
10143SOL     OW31327   5.438   2.957   6.485
10143SOL    HW131328   5.402   2.935   6.575
10143SOL    HW231329   5.426   3.055   6.467
10144SOL     OW31330   3.233   6.480   0.478
10144SOL    HW131331   3.259   6.505   0.572
10144SOL    HW231332   3.266   6.388   0.458
10145SOL     OW31333   5.793   0.098   6.073
10145SOL    HW131334   5.713   0.039   6.064
10145SOL    HW231335   5.765   0.190   6.099
10146SOL     OW31336   0.464   2.822   4.887
10146SOL    HW131337   0.548   2.821   4.833
10146SOL    HW231338   0.432   2.728   4.901
10147SOL     OW31339   4.129   6.040   5.472
10147SOL    HW131340   4.071   5.986   5.411
10147SOL    HW231341   4.220   5.999   5.476
10148SOL     OW31342   0.835   4.363   0.327
10148SOL    HW131343   0.859   4.296   0.397
10148SOL    HW231344   0.747   4.338   0.286
10149SOL     OW31345   4.183   3.414   1.117
10149SOL    HW131346   4.254   3.395   1.185
10149SOL    HW231347   4.140   3.329   1.088
10150SOL     OW31348   4.671   4.287   1.169
10150SOL    HW131349   4.639   4.376   1.136
10150SOL    HW231350   4.624   4.214   1.120
10151SOL     OW31351   6.319   0.426   6.045
10151SOL    HW131352   6.222   0.439   6.021
10151SOL    HW231353   6.365   0.514   6.050
10152SOL     OW31354   4.308   0.089   2.545
10152SOL    HW131355   4.244   0.055   2.614
10152SOL    HW231356   4.391   0.034   2.546
10153SOL     OW31357   4.793   4.582   2.191
10153SOL    HW131358   4.720   4.514   2.192
10153SOL    HW231359   4.779   4.646   2.115
10154SOL     OW31360   4.997   5.178   5.823
10154SOL    HW131361   4.956   5.167   5.732
10154SOL    HW231362   5.089   5.215   5.813
10155SOL     OW31363   4.421   1.920   4.402
10155SOL    HW131364   4.501   1.898   4.346
10155SOL    HW231365   4.346   1.860   4.377
10156SOL     OW31366   3.834   1.679   0.024
10156SOL    HW131367   3.760   1.622   7.013
10156SOL    HW231368   3.805   1.775   0.026
10157SOL     OW31369   0.521   4.402   1.622
10157SOL    HW131370   0.553   4.454   1.701
10157SOL    HW231371   0.468   4.461   1.562
10158SOL     OW31372   5.818   5.282   0.180
10158SOL    HW131373   5.880   5.269   0.102
10158SOL    HW231374   5.728   5.244   0.157
10159SOL     OW31375   3.294   2.967   2.143
10159SOL    HW131376   3.203   2.998   2.166
10159SOL    HW231377   3.305   2.967   2.043
10160SOL     OW31378   0.326   4.355   2.670
10160SOL    HW131379   0.370   4.426   2.726
10160SOL    HW231380   0.396   4.291   2.637
10161SOL     OW31381   5.416   3.111   5.215
10161SOL    HW131382   5.345   3.042   5.201
10161SOL    HW231383   5.494   3.069   5.263
10162SOL     OW31384   1.473   2.425   1.715
10162SOL    HW131385   1.520   2.375   1.787
10162SOL    HW231386   1.396   2.371   1.681
10163SOL     OW31387   2.933   5.360   5.114
10163SOL    HW131388   2.913   5.262   5.120
10163SOL    HW231389   2.865   5.405   5.056
10164SOL     OW31390   0.737   1.401   3.751
10164SOL    HW131391   0.697   1.329   3.808
10164SOL    HW231392   0.716   1.381   3.655
10165SOL     OW31393   0.694   3.495   4.162
10165SOL    HW131394   0.683   3.437   4.082
10165SOL    HW231395   0.696   3.437   4.244
10166SOL     OW31396   2.326   6.394   2.171
10166SOL    HW131397   2.418   6.354   2.176
10166SOL    HW231398   2.332   6.484   2.126
10167SOL     OW31399   2.054   1.606   6.730
10167SOL    HW131400   2.098   1.648   6.809
10167SOL    HW231401   1.976   1.551   6.760
10168SOL     OW31402   6.841   0.280   6.544
10168SOL    HW131403   6.931   0.275   6.585
10168SOL    HW231404   6.774   0.310   6.612
10169SOL     OW31405   5.081   4.484   3.941
10169SOL    HW131406   5.023   4.565   3.929
10169SOL    HW231407   5.136   4.493   4.023
10170SOL     OW31408   5.334   5.889   0.140
10170SOL    HW131409   5.360   5.934   0.226
10170SOL    HW231410   5.347   5.790   0.150
10171SOL     OW31411   2.166   4.968   5.040
10171SOL    HW131412   2.243   4.950   4.978
10171SOL    HW231413   2.160   4.894   5.107
10172SOL     OW31414   6.661   0.751   2.901
10172SOL    HW131415   6.747   0.726   2.855
10172SOL    HW231416   6.589   0.686   2.875
10173SOL     OW31417   3.610   3.494   4.594
10173SOL    HW131418   3.637   3.584   4.626
10173SOL    HW231419   3.534   3.503   4.530
10174SOL     OW31420   4.421   4.979   1.200
10174SOL    HW131421   4.386   5.041   1.271
10174SOL    HW231422   4.498   4.927   1.237
10175SOL     OW31423   0.220   0.126   4.284
10175SOL    HW131424   0.307   0.135   4.331
10175SOL    HW231425   0.168   0.211   4.293
10176SOL     OW31426   6.698   1.011   4.755
10176SOL    HW131427   6.731   1.079   4.820
10176SOL    HW231428   6.760   0.933   4.753
10177SOL     OW31429   2.664   1.035   3.563
10177SOL    HW131430   2.734   1.103   3.539
10177SOL    HW231431   2.577   1.060   3.521
10178SOL     OW31432   0.590   1.618   1.096
10178SOL    HW131433   0.622   1.706   1.063
10178SOL    HW231434   0.490   1.613   1.087
10179SOL     OW31435   1.227   4.409   0.032
10179SOL    HW131436   1.180   4.462   0.103
10179SOL    HW231437   1.316   4.450   0.013
10180SOL     OW31438   3.928   6.875   6.037
10180SOL    HW131439   3.914   6.971   6.016
10180SOL    HW231440   3.841   6.832   6.059
10181SOL     OW31441   5.889   3.266   2.830
10181SOL    HW131442   5.876   3.166   2.833
10181SOL    HW231443   5.925   3.292   2.741
10182SOL     OW31444   4.184   0.901   1.414
10182SOL    HW131445   4.184   0.840   1.493
10182SOL    HW231446   4.092   0.903   1.374
10183SOL     OW31447   5.478   0.939   5.390
10183SOL    HW131448   5.558   0.885   5.362
10183SOL    HW231449   5.457   0.919   5.486
10184SOL     OW31450   5.026   1.957   5.899
10184SOL    HW131451   5.093   2.021   5.861
10184SOL    HW231452   5.066   1.910   5.978
10185SOL     OW31453   3.365   5.460   1.133
10185SOL    HW131454   3.380   5.555   1.160
10185SOL    HW231455   3.416   5.441   1.049
10186SOL     OW31456   3.435   3.355   6.384
10186SOL    HW131457   3.420   3.300   6.466
10186SOL    HW231458   3.436   3.296   6.304
10187SOL     OW31459   2.149   4.870   5.317
10187SOL    HW131460   2.238   4.834   5.346
10187SOL    HW231461   2.128   4.951   5.371
10188SOL     OW31462   3.143   0.222   6.222
10188SOL    HW131463   3.134   0.226   6.122
10188SOL    HW231464   3.155   0.314   6.258
10189SOL     OW31465   1.982   1.871   5.515
10189SOL    HW131466   1.990   1.949   5.453
10189SOL    HW231467   2.073   1.837   5.537
10190SOL     OW31468   4.320   4.718   0.859
10190SOL    HW131469   4.399   4.767   0.822
10190SOL    HW231470   4.328   4.711   0.959
10191SOL     OW31471   5.271   7.005   7.021
10191SOL    HW131472   5.231   6.913   0.003
10191SOL    HW231473   5.261   0.027   0.085
10192SOL     OW31474   1.533   1.225   4.476
10192SOL    HW131475   1.468   1.210   4.551
10192SOL    HW231476   1.483   1.246   4.392
10193SOL     OW31477   3.787   3.403   3.758
10193SOL    HW131478   3.712   3.438   3.814
10193SOL    HW231479   3.826   3.322   3.802
10194SOL     OW31480   2.760   0.401   2.883
10194SOL    HW131481   2.854   0.418   2.853
10194SOL    HW231482   2.696   0.445   2.820
10195SOL     OW31483   5.104   6.734   2.622
10195SOL    HW131484   5.010   6.767   2.632
10195SOL    HW231485   5.152   6.741   2.709
10196SOL     OW31486   5.929   3.255   4.296
10196SOL    HW131487   5.850   3.227   4.350
10196SOL    HW231488   5.940   3.354   4.301
10197SOL     OW31489   5.310   1.333   2.332
10197SOL    HW131490   5.355   1.265   2.390
10197SOL    HW231491   5.361   1.419   2.335
10198SOL     OW31492   2.429   0.119   0.825
10198SOL    HW131493   2.444   0.143   0.729
10198SOL    HW231494   2.342   0.157   0.856
10199SOL     OW31495   0.991   1.740   0.643
10199SOL    HW131496   0.933   1.785   0.711
10199SOL    HW231497   1.077   1.713   0.685
10200SOL     OW31498   5.791   4.652   5.689
10200SOL    HW131499   5.734   4.636   5.769
10200SOL    HW231500   5.846   4.571   5.669
10201SOL     OW31501   1.842   5.047   2.915
10201SOL    HW131502   1.923   5.083   2.962
10201SOL    HW231503   1.827   5.098   2.831
10202SOL     OW31504   0.894   2.614   2.348
10202SOL    HW131505   0.956   2.677   2.394
10202SOL    HW231506   0.936   2.524   2.340
10203SOL     OW31507   0.923   3.282   1.869
10203SOL    HW131508   0.975   3.366   1.887
10203SOL    HW231509   0.915   3.268   1.770
10204SOL     OW31510   3.438   5.294   4.062
10204SOL    HW131511   3.516   5.252   4.015
10204SOL    HW231512   3.363   5.228   4.068
10205SOL     OW31513   4.467   1.440   2.749
10205SOL    HW131514   4.473   1.372   2.677
10205SOL    HW231515   4.534   1.513   2.733
10206SOL     OW31516   4.813   0.446   6.227
10206SOL    HW131517   4.842   0.429   6.133
10206SOL    HW231518   4.719   0.480   6.227
10207SOL     OW31519   4.199   1.263   2.988
10207SOL    HW131520   4.135   1.339   2.988
10207SOL    HW231521   4.150   1.176   2.999
10208SOL     OW31522   5.594   3.895   5.166
10208SOL    HW131523   5.521   3.870   5.101
10208SOL    HW231524   5.566   3.871   5.259
10209SOL     OW31525   5.241   6.942   6.732
10209SOL    HW131526   5.208   6.980   6.819
10209SOL    HW231527   5.263   7.017   6.669
10210SOL     OW31528   4.810   5.832   1.831
10210SOL    HW131529   4.831   5.794   1.741
10210SOL    HW231530   4.894   5.837   1.885
10211SOL     OW31531   3.568   6.072   5.137
10211SOL    HW131532   3.611   5.984   5.158
10211SOL    HW231533   3.491   6.087   5.199
10212SOL     OW31534   6.395   6.168   5.122
10212SOL    HW131535   6.297   6.148   5.125
10212SOL    HW231536   6.409   6.262   5.090
10213SOL     OW31537   5.391   0.577   3.778
10213SOL    HW131538   5.471   0.629   3.750
10213SOL    HW231539   5.384   0.577   3.877
10214SOL     OW31540   6.830   0.048   2.166
10214SOL    HW131541   6.736   0.066   2.138
10214SOL    HW231542   6.849   6.974   2.161
10215SOL     OW31543   3.533   2.601   0.231
10215SOL    HW131544   3.577   2.600   0.141
10215SOL    HW231545   3.603   2.611   0.302
10216SOL     OW31546   5.104   0.546   2.345
10216SOL    HW131547   5.116   0.446   2.348
10216SOL    HW231548   5.017   0.568   2.301
10217SOL     OW31549   3.071   1.942   5.777
10217SOL    HW131550   3.158   1.973   5.814
10217SOL    HW231551   3.067   1.961   5.679
10218SOL     OW31552   2.307   2.674   0.965
10218SOL    HW131553   2.305   2.668   0.865
10218SOL    HW231554   2.369   2.604   1.001
10219SOL     OW31555   1.001   3.995   0.703
10219SOL    HW131556   0.945   3.946   0.635
10219SOL    HW231557   1.013   3.937   0.783
10220SOL     OW31558   4.020   1.964   1.017
10220SOL    HW131559   4.009   1.889   0.952
10220SOL    HW231560   4.068   2.039   0.972
10221SOL     OW31561   3.180   0.708   5.254
10221SOL    HW131562   3.112   0.722   5.326
10221SOL    HW231563   3.133   0.691   5.168
10222SOL     OW31564   2.081   4.982   6.102
10222SOL    HW131565   2.118   4.894   6.131
10222SOL    HW231566   2.019   4.968   6.025
10223SOL     OW31567   6.570   4.708   0.170
10223SOL    HW131568   6.624   4.687   0.089
10223SOL    HW231569   6.603   4.794   0.211
10224SOL     OW31570   2.186   6.638   4.674
10224SOL    HW131571   2.175   6.737   4.689
10224SOL    HW231572   2.106   6.604   4.625
10225SOL     OW31573   5.537   5.724   4.484
10225SOL    HW131574   5.606   5.685   4.545
10225SOL    HW231575   5.471   5.777   4.537
10226SOL     OW31576   6.991   2.607   0.632
10226SOL    HW131577   6.932   2.529   0.614
10226SOL    HW231578   7.019   2.648   0.545
10227SOL     OW31579   5.400   5.971   6.614
10227SOL    HW131580   5.314   5.928   6.638
10227SOL    HW231581   5.476   5.923   6.658
10228SOL     OW31582   0.687   3.767   3.031
10228SOL    HW131583   0.757   3.814   2.977
10228SOL    HW231584   0.608   3.747   2.973
10229SOL     OW31585   2.113   0.760   2.027
10229SOL    HW131586   2.067   0.741   1.941
10229SOL    HW231587   2.180   0.833   2.014
10230SOL     OW31588   6.465   6.542   4.634
10230SOL    HW131589   6.411   6.465   4.602
10230SOL    HW231590   6.523   6.576   4.560
10231SOL     OW31591   4.412   6.530   4.309
10231SOL    HW131592   4.316   6.535   4.338
10231SOL    HW231593   4.430   6.438   4.273
10232SOL     OW31594   3.837   2.116   4.570
10232SOL    HW131595   3.831   2.017   4.560
10232SOL    HW231596   3.765   2.159   4.515
10233SOL     OW31597   4.640   1.068   5.630
10233SOL    HW131598   4.552   1.031   5.657
10233SOL    HW231599   4.696   0.995   5.589
10234SOL     OW31600   5.678   6.256   1.432
10234SOL    HW131601   5.643   6.325   1.368
10234SOL    HW231602   5.602   6.203   1.469
10235SOL     OW31603   5.220   1.528   6.165
10235SOL    HW131604   5.252   1.623   6.162
10235SOL    HW231605   5.126   1.526   6.198
10236SOL     OW31606   2.413   6.009   2.913
10236SOL    HW131607   2.339   5.983   2.974
10236SOL    HW231608   2.438   6.104   2.929
10237SOL     OW31609   7.002   2.331   3.487
10237SOL    HW131610   6.970   2.414   3.440
10237SOL    HW231611   0.054   2.292   3.436
10238SOL     OW31612   4.711   4.694   4.238
10238SOL    HW131613   4.726   4.725   4.332
10238SOL    HW231614   4.686   4.597   4.238
10239SOL     OW31615   0.005   4.040   4.071
10239SOL    HW131616   6.958   4.019   4.139
10239SOL    HW231617   6.987   4.082   3.991
10240SOL     OW31618   6.762   3.613   3.632
10240SOL    HW131619   6.740   3.679   3.560
10240SOL    HW231620   6.716   3.527   3.614
10241SOL     OW31621   2.209   1.319   3.487
10241SOL    HW131622   2.175   1.413   3.481
10241SOL    HW231623   2.138   1.255   3.457
10242SOL     OW31624   0.451   6.323   6.108
10242SOL    HW131625   0.371   6.285   6.062
10242SOL    HW231626   0.527   6.329   6.043
10243SOL     OW31627   0.836   5.637   2.543
10243SOL    HW131628   0.748   5.682   2.526
10243SOL    HW231629   0.909   5.704   2.539
10244SOL     OW31630   1.948   6.480   6.758
10244SOL    HW131631   1.894   6.417   6.701
10244SOL    HW231632   1.916   6.476   6.852
10245SOL     OW31633   2.112   2.411   6.813
10245SOL    HW131634   2.063   2.336   6.858
10245SOL    HW231635   2.209   2.407   6.837
10246SOL     OW31636   4.112   3.619   4.517
10246SOL    HW131637   4.200   3.618   4.469
10246SOL    HW231638   4.047   3.675   4.466
10247SOL     OW31639   1.604   5.801   5.521
10247SOL    HW131640   1.509   5.827   5.500
10247SOL    HW231641   1.620   5.812   5.619
10248SOL     OW31642   4.809   0.361   2.231
10248SOL    HW131643   4.729   0.416   2.208
10248SOL    HW231644   4.810   0.342   2.329
10249SOL     OW31645   3.734   1.097   0.092
10249SOL    HW131646   3.706   1.080   7.021
10249SOL    HW231647   3.764   1.011   0.133
10250SOL     OW31648   6.737   0.302   0.111
10250SOL    HW131649   6.817   0.249   0.138
10250SOL    HW231650   6.756   0.400   0.121
10251SOL     OW31651   3.730   4.511   6.610
10251SOL    HW131652   3.762   4.457   6.533
10251SOL    HW231653   3.806   4.564   6.647
10252SOL     OW31654   6.429   5.226   2.129
10252SOL    HW131655   6.474   5.298   2.182
10252SOL    HW231656   6.384   5.266   2.049
10253SOL     OW31657   3.521   4.806   6.529
10253SOL    HW131658   3.498   4.710   6.512
10253SOL    HW231659   3.492   4.861   6.450
10254SOL     OW31660   2.466   1.939   4.580
10254SOL    HW131661   2.425   1.877   4.647
10254SOL    HW231662   2.539   1.892   4.531
10255SOL     OW31663   2.760   5.865   3.010
10255SOL    HW131664   2.790   5.941   3.068
10255SOL    HW231665   2.661   5.852   3.021
10256SOL     OW31666   5.810   6.109   6.788
10256SOL    HW131667   5.886   6.068   6.838
10256SOL    HW231668   5.743   6.144   6.853
10257SOL     OW31669   1.510   6.586   6.295
10257SOL    HW131670   1.530   6.610   6.200
10257SOL    HW231671   1.421   6.542   6.299
10258SOL     OW31672   4.024   1.058   3.419
10258SOL    HW131673   4.002   0.966   3.386
10258SOL    HW231674   4.116   1.083   3.388
10259SOL     OW31675   0.794   3.713   3.291
10259SOL    HW131676   0.758   3.743   3.203
10259SOL    HW231677   0.855   3.635   3.277
10260SOL     OW31678   0.053   6.925   1.209
10260SOL    HW131679   7.011   6.909   1.283
10260SOL    HW231680   0.146   6.920   1.246
10261SOL     OW31681   2.127   6.567   1.560
10261SOL    HW131682   2.039   6.527   1.534
10261SOL    HW231683   2.122   6.599   1.654
10262SOL     OW31684   2.323   5.114   5.206
10262SOL    HW131685   2.265   5.063   5.144
10262SOL    HW231686   2.396   5.055   5.240
10263SOL     OW31687   5.986   1.843   6.177
10263SOL    HW131688   6.081   1.815   6.160
10263SOL    HW231689   5.981   1.942   6.183
10264SOL     OW31690   0.469   6.688   6.944
10264SOL    HW131691   0.471   6.781   6.908
10264SOL    HW231692   0.542   6.678   7.012
10265SOL     OW31693   4.416   1.647   2.283
10265SOL    HW131694   4.457   1.723   2.333
10265SOL    HW231695   4.318   1.642   2.305
10266SOL     OW31696   3.788   4.224   6.088
10266SOL    HW131697   3.762   4.127   6.095
10266SOL    HW231698   3.862   4.243   6.153
10267SOL     OW31699   5.986   1.846   6.550
10267SOL    HW131700   5.964   1.845   6.452
10267SOL    HW231701   6.061   1.911   6.567
10268SOL     OW31702   6.369   4.772   1.832
10268SOL    HW131703   6.349   4.737   1.741
10268SOL    HW231704   6.288   4.819   1.868
10269SOL     OW31705   2.622   2.918   6.138
10269SOL    HW131706   2.675   2.843   6.178
10269SOL    HW231707   2.658   3.005   6.170
10270SOL     OW31708   2.617   6.240   0.812
10270SOL    HW131709   2.688   6.256   0.744
10270SOL    HW231710   2.529   6.225   0.766
10271SOL     OW31711   3.850   5.220   0.906
10271SOL    HW131712   3.799   5.221   0.821
10271SOL    HW231713   3.789   5.241   0.982
10272SOL     OW31714   0.977   0.650   6.131
10272SOL    HW131715   0.981   0.700   6.217
10272SOL    HW231716   0.912   0.575   6.138
10273SOL     OW31717   4.312   5.758   4.652
10273SOL    HW131718   4.243   5.766   4.724
10273SOL    HW231719   4.267   5.742   4.564
10274SOL     OW31720   2.070   6.163   5.844
10274SOL    HW131721   2.029   6.249   5.874
10274SOL    HW231722   2.112   6.117   5.923
10275SOL     OW31723   0.738   6.301   1.984
10275SOL    HW131724   0.825   6.295   2.034
10275SOL    HW231725   0.731   6.390   1.938
10276SOL     OW31726   6.755   6.214   6.348
10276SOL    HW131727   6.827   6.274   6.383
10276SOL    HW231728   6.777   6.119   6.372
10277SOL     OW31729   1.891   5.400   3.376
10277SOL    HW131730   1.795   5.385   3.398
10277SOL    HW231731   1.922   5.333   3.310
10278SOL     OW31732   5.826   0.664   5.768
10278SOL    HW131733   5.758   0.697   5.834
10278SOL    HW231734   5.917   0.692   5.798
10279SOL     OW31735   3.416   6.502   3.518
10279SOL    HW131736   3.410   6.404   3.536
10279SOL    HW231737   3.337   6.530   3.464
10280SOL     OW31738   2.871   3.198   6.771
10280SOL    HW131739   2.899   3.233   6.682
10280SOL    HW231740   2.900   3.103   6.780
10281SOL     OW31741   4.200   6.761   3.762
10281SOL    HW131742   4.174   6.806   3.847
10281SOL    HW231743   4.235   6.830   3.698
10282SOL     OW31744   1.158   2.668   4.778
10282SOL    HW131745   1.238   2.662   4.718
10282SOL    HW231746   1.185   2.645   4.871
10283SOL     OW31747   0.904   3.470   5.951
10283SOL    HW131748   0.861   3.394   5.902
10283SOL    HW231749   0.885   3.461   6.049
10284SOL     OW31750   5.309   3.828   6.336
10284SOL    HW131751   5.394   3.775   6.346
10284SOL    HW231752   5.299   3.889   6.414
10285SOL     OW31753   5.808   0.185   0.482
10285SOL    HW131754   5.781   0.200   0.387
10285SOL    HW231755   5.768   0.256   0.539
10286SOL     OW31756   4.626   1.248   3.813
10286SOL    HW131757   4.605   1.153   3.836
10286SOL    HW231758   4.542   1.296   3.787
10287SOL     OW31759   2.585   5.838   1.628
10287SOL    HW131760   2.523   5.780   1.574
10287SOL    HW231761   2.666   5.786   1.653
10288SOL     OW31762   4.805   6.122   4.066
10288SOL    HW131763   4.737   6.058   4.100
10288SOL    HW231764   4.871   6.143   4.139
10289SOL     OW31765   2.949   1.690   1.789
10289SOL    HW131766   3.024   1.749   1.759
10289SOL    HW231767   2.888   1.672   1.711
10290SOL     OW31768   3.057   3.685   2.347
10290SOL    HW131769   2.970   3.635   2.349
10290SOL    HW231770   3.047   3.764   2.286
10291SOL     OW31771   3.597   0.236   6.130
10291SOL    HW131772   3.682   0.189   6.105
10291SOL    HW231773   3.542   0.176   6.188
10292SOL     OW31774   0.349   1.227   4.253
10292SOL    HW131775   0.274   1.167   4.225
10292SOL    HW231776   0.427   1.171   4.282
10293SOL     OW31777   2.549   5.753   2.822
10293SOL    HW131778   2.607   5.713   2.751
10293SOL    HW231779   2.576   5.848   2.836
10294SOL     OW31780   5.797   1.511   3.447
10294SOL    HW131781   5.859   1.443   3.407
10294SOL    HW231782   5.703   1.489   3.421
10295SOL     OW31783   1.049   5.191   5.462
10295SOL    HW131784   0.961   5.155   5.493
10295SOL    HW231785   1.105   5.115   5.428
10296SOL     OW31786   6.266   1.732   0.895
10296SOL    HW131787   6.209   1.650   0.896
10296SOL    HW231788   6.266   1.773   0.987
10297SOL     OW31789   1.983   5.256   4.028
10297SOL    HW131790   2.036   5.174   4.009
10297SOL    HW231791   1.944   5.291   3.944
10298SOL     OW31792   5.762   3.087   3.754
10298SOL    HW131793   5.712   3.000   3.755
10298SOL    HW231794   5.766   3.122   3.661
10299SOL     OW31795   4.749   4.853   2.318
10299SOL    HW131796   4.730   4.760   2.346
10299SOL    HW231797   4.665   4.908   2.324
10300SOL     OW31798   2.097   4.930   2.664
10300SOL    HW131799   2.067   5.025   2.669
10300SOL    HW231800   2.019   4.870   2.682
10301SOL     OW31801   5.549   1.683   1.655
10301SOL    HW131802   5.512   1.595   1.627
10301SOL    HW231803   5.633   1.702   1.604
10302SOL     OW31804   1.716   5.510   3.102
10302SOL    HW131805   1.775   5.554   3.034
10302SOL    HW231806   1.720   5.411   3.091
10303SOL     OW31807   3.505   2.871   0.836
10303SOL    HW131808   3.419   2.891   0.789
10303SOL    HW231809   3.566   2.819   0.776
10304SOL     OW31810   6.069   6.672   3.789
10304SOL    HW131811   6.010   6.725   3.849
10304SOL    HW231812   6.031   6.672   3.697
10305SOL     OW31813   1.885   5.957   1.335
10305SOL    HW131814   1.831   5.896   1.277
10305SOL    HW231815   1.892   6.047   1.291
10306SOL     OW31816   4.499   5.120   0.428
10306SOL    HW131817   4.458   5.029   0.438
10306SOL    HW231818   4.447   5.172   0.359
10307SOL     OW31819   2.483   1.120   5.226
10307SOL    HW131820   2.426   1.039   5.234
10307SOL    HW231821   2.434   1.190   5.175
10308SOL     OW31822   3.158   5.557   3.462
10308SOL    HW131823   3.165   5.651   3.492
10308SOL    HW231824   3.071   5.519   3.493
10309SOL     OW31825   0.633   6.427   3.299
10309SOL    HW131826   0.725   6.455   3.328
10309SOL    HW231827   0.623   6.328   3.310
10310SOL     OW31828   3.926   3.196   3.896
10310SOL    HW131829   3.986   3.166   3.970
10310SOL    HW231830   3.906   3.119   3.836
10311SOL     OW31831   0.007   6.242   0.415
10311SOL    HW131832   0.057   6.323   0.383
10311SOL    HW231833   0.066   6.162   0.409
10312SOL     OW31834   1.657   4.816   1.028
10312SOL    HW131835   1.757   4.817   1.018
10312SOL    HW231836   1.614   4.828   0.939
10313SOL     OW31837   5.673   5.940   3.403
10313SOL    HW131838   5.723   5.887   3.471
10313SOL    HW231839   5.672   6.037   3.430
10314SOL     OW31840   6.247   5.441   6.574
10314SOL    HW131841   6.299   5.526   6.581
10314SOL    HW231842   6.163   5.459   6.523
10315SOL     OW31843   6.254   5.834   4.637
10315SOL    HW131844   6.300   5.751   4.668
10315SOL    HW231845   6.235   5.893   4.715
10316SOL     OW31846   0.086   4.017   2.524
10316SOL    HW131847   0.001   4.051   2.564
10316SOL    HW231848   0.150   3.994   2.598
10317SOL     OW31849   3.456   4.666   1.276
10317SOL    HW131850   3.466   4.579   1.226
10317SOL    HW231851   3.372   4.711   1.247
10318SOL     OW31852   6.407   5.860   2.241
10318SOL    HW131853   6.457   5.775   2.255
10318SOL    HW231854   6.435   5.902   2.154
10319SOL     OW31855   5.108   6.401   4.254
10319SOL    HW131856   5.043   6.425   4.326
10319SOL    HW231857   5.078   6.316   4.210
10320SOL     OW31858   4.533   6.668   0.804
10320SOL    HW131859   4.449   6.698   0.759
10320SOL    HW231860   4.581   6.603   0.745
10321SOL     OW31861   4.149   6.524   4.376
10321SOL    HW131862   4.111   6.462   4.307
10321SOL    HW231863   4.100   6.611   4.372
10322SOL     OW31864   6.617   2.518   6.922
10322SOL    HW131865   6.562   2.451   6.970
10322SOL    HW231866   6.558   2.589   6.884
10323SOL     OW31867   5.861   2.331   5.043
10323SOL    HW131868   5.898   2.329   5.136
10323SOL    HW231869   5.788   2.399   5.038
10324SOL     OW31870   2.917   3.742   3.661
10324SOL    HW131871   2.993   3.807   3.659
10324SOL    HW231872   2.844   3.774   3.602
10325SOL     OW31873   1.012   3.790   3.713
10325SOL    HW131874   0.948   3.731   3.763
10325SOL    HW231875   0.961   3.863   3.667
10326SOL     OW31876   4.628   1.532   1.419
10326SOL    HW131877   4.696   1.490   1.479
10326SOL    HW231878   4.654   1.627   1.400
10327SOL     OW31879   0.242   0.944   3.848
10327SOL    HW131880   0.234   1.029   3.796
10327SOL    HW231881   0.159   0.890   3.837
10328SOL     OW31882   5.993   2.943   2.183
10328SOL    HW131883   5.982   3.032   2.140
10328SOL    HW231884   5.938   2.875   2.134
10329SOL     OW31885   3.995   6.134   2.199
10329SOL    HW131886   3.970   6.039   2.220
10329SOL    HW231887   3.988   6.149   2.100
10330SOL     OW31888   3.748   4.667   1.131
10330SOL    HW131889   3.819   4.714   1.184
10330SOL    HW231890   3.791   4.597   1.073
10331SOL     OW31891   5.584   0.653   4.497
10331SOL    HW131892   5.545   0.695   4.415
10331SOL    HW231893   5.618   0.725   4.558
10332SOL     OW31894   0.081   1.997   6.878
10332SOL    HW131895   0.071   1.902   6.909
10332SOL    HW231896   0.034   2.058   6.943
10333SOL     OW31897   4.749   4.050   4.636
10333SOL    HW131898   4.797   3.966   4.662
10333SOL    HW231899   4.709   4.093   4.717
10334SOL     OW31900   0.996   4.890   4.922
10334SOL    HW131901   0.945   4.964   4.965
10334SOL    HW231902   1.084   4.879   4.969
10335SOL     OW31903   1.908   5.374   1.811
10335SOL    HW131904   1.914   5.376   1.911
10335SOL    HW231905   1.881   5.465   1.778
10336SOL     OW31906   4.430   6.864   2.808
10336SOL    HW131907   4.488   6.883   2.729
10336SOL    HW231908   4.469   6.790   2.862
10337SOL     OW31909   0.819   5.070   5.062
10337SOL    HW131910   0.795   4.989   5.116
10337SOL    HW231911   0.736   5.108   5.020
10338SOL     OW31912   3.744   4.858   3.321
10338SOL    HW131913   3.793   4.826   3.239
10338SOL    HW231914   3.803   4.850   3.401
10339SOL     OW31915   3.161   5.433   0.877
10339SOL    HW131916   3.164   5.377   0.960
10339SOL    HW231917   3.229   5.505   0.883
10340SOL     OW31918   1.708   6.708   6.777
10340SOL    HW131919   1.717   6.704   6.876
10340SOL    HW231920   1.701   6.616   6.740
10341SOL     OW31921   1.668   1.469   2.562
10341SOL    HW131922   1.763   1.481   2.592
10341SOL    HW231923   1.667   1.426   2.472
10342SOL     OW31924   2.641   6.909   4.488
10342SOL    HW131925   2.681   6.989   4.532
10342SOL    HW231926   2.628   6.837   4.556
10343SOL     OW31927   2.064   2.783   3.977
10343SOL    HW131928   2.116   2.858   4.017
10343SOL    HW231929   2.127   2.720   3.930
10344SOL     OW31930   4.181   3.909   6.957
10344SOL    HW131931   4.137   3.877   0.017
10344SOL    HW231932   4.280   3.913   6.970
10345SOL     OW31933   1.494   1.705   5.954
10345SOL    HW131934   1.542   1.630   6.000
10345SOL    HW231935   1.558   1.781   5.940
10346SOL     OW31936   5.203   5.487   0.369
10346SOL    HW131937   5.159   5.500   0.280
10346SOL    HW231938   5.299   5.463   0.356
10347SOL     OW31939   4.697   1.763   1.662
10347SOL    HW131940   4.659   1.695   1.724
10347SOL    HW231941   4.738   1.838   1.715
10348SOL     OW31942   0.012   4.870   5.960
10348SOL    HW131943   6.957   4.812   5.941
10348SOL    HW231944   0.010   4.898   6.056
10349SOL     OW31945   6.922   1.464   0.943
10349SOL    HW131946   6.996   1.449   0.876
10349SOL    HW231947   6.945   1.418   1.028
10350SOL     OW31948   2.212   4.432   4.476
10350SOL    HW131949   2.257   4.369   4.540
10350SOL    HW231950   2.183   4.514   4.525
10351SOL     OW31951   4.577   4.415   4.865
10351SOL    HW131952   4.495   4.449   4.913
10351SOL    HW231953   4.625   4.492   4.823
10352SOL     OW31954   5.205   1.452   6.667
10352SOL    HW131955   5.106   1.467   6.673
10352SOL    HW231956   5.234   1.454   6.572
10353SOL     OW31957   6.495   2.832   3.447
10353SOL    HW131958   6.561   2.815   3.375
10353SOL    HW231959   6.432   2.755   3.453
10354SOL     OW31960   6.290   2.912   0.780
10354SOL    HW131961   6.272   2.925   0.877
10354SOL    HW231962   6.346   2.988   0.746
10355SOL     OW31963   0.317   1.619   1.045
10355SOL    HW131964   0.283   1.617   0.951
10355SOL    HW231965   0.249   1.579   1.106
10356SOL     OW31966   5.765   3.307   5.857
10356SOL    HW131967   5.841   3.351   5.905
10356SOL    HW231968   5.691   3.289   5.921
10357SOL     OW31969   0.778   1.022   6.055
10357SOL    HW131970   0.795   1.079   6.135
10357SOL    HW231971   0.688   1.042   6.017
10358SOL     OW31972   0.620   2.172   2.989
10358SOL    HW131973   0.695   2.238   2.992
10358SOL    HW231974   0.533   2.220   2.992
10359SOL     OW31975   5.878   2.193   1.912
10359SOL    HW131976   5.817   2.241   1.849
10359SOL    HW231977   5.863   2.226   2.005
10360SOL     OW31978   5.890   4.363   1.910
10360SOL    HW131979   5.840   4.403   1.833
10360SOL    HW231980   5.986   4.393   1.906
10361SOL     OW31981   6.788   1.695   2.522
10361SOL    HW131982   6.838   1.744   2.451
10361SOL    HW231983   6.803   1.740   2.610
10362SOL     OW31984   1.001   5.842   1.461
10362SOL    HW131985   0.954   5.815   1.545
10362SOL    HW231986   0.933   5.866   1.391
10363SOL     OW31987   5.387   4.531   6.658
10363SOL    HW131988   5.303   4.508   6.707
10363SOL    HW231989   5.446   4.585   6.718
10364SOL     OW31990   6.259   4.654   2.569
10364SOL    HW131991   6.175   4.623   2.616
10364SOL    HW231992   6.338   4.638   2.629
10365SOL     OW31993   5.645   5.301   0.577
10365SOL    HW131994   5.625   5.394   0.609
10365SOL    HW231995   5.728   5.302   0.522
10366SOL     OW31996   2.869   6.387   3.121
10366SOL    HW131997   2.928   6.308   3.109
10366SOL    HW231998   2.774   6.357   3.128
10367SOL     OW31999   5.957   6.621   1.746
10367SOL    HW132000   6.048   6.614   1.705
10367SOL    HW232001   5.900   6.545   1.715
10368SOL     OW32002   1.867   6.439   1.666
10368SOL    HW132003   1.868   6.534   1.699
10368SOL    HW232004   1.778   6.419   1.623
10369SOL     OW32005   2.976   6.741   5.931
10369SOL    HW132006   3.007   6.711   6.022
10369SOL    HW232007   2.952   6.661   5.876
10370SOL     OW32008   1.292   0.770   5.952
10370SOL    HW132009   1.215   0.833   5.957
10370SOL    HW232010   1.313   0.751   5.856
10371SOL     OW32011   4.727   5.168   3.114
10371SOL    HW132012   4.757   5.089   3.060
10371SOL    HW232013   4.705   5.244   3.053
10372SOL     OW32014   2.916   6.301   1.764
10372SOL    HW132015   2.871   6.222   1.805
10372SOL    HW232016   2.982   6.340   1.829
10373SOL     OW32017   6.931   1.273   6.113
10373SOL    HW132018   6.892   1.195   6.065
10373SOL    HW232019   6.943   1.250   6.210
10374SOL     OW32020   3.836   5.524   3.310
10374SOL    HW132021   3.797   5.530   3.402
10374SOL    HW232022   3.935   5.544   3.315
10375SOL     OW32023   2.358   4.744   0.129
10375SOL    HW132024   2.269   4.746   0.174
10375SOL    HW232025   2.431   4.741   0.198
10376SOL     OW32026   2.160   5.065   3.309
10376SOL    HW132027   2.243   5.009   3.303
10376SOL    HW232028   2.088   5.012   3.354
10377SOL     OW32029   1.818   1.028   2.025
10377SOL    HW132030   1.835   0.932   2.002
10377SOL    HW232031   1.899   1.082   2.001
10378SOL     OW32032   0.155   5.470   4.037
10378SOL    HW132033   0.144   5.435   3.944
10378SOL    HW232034   0.253   5.482   4.056
10379SOL     OW32035   1.961   6.357   4.313
10379SOL    HW132036   1.887   6.329   4.253
10379SOL    HW232037   2.025   6.282   4.326
10380SOL     OW32038   2.527   2.263   4.392
10380SOL    HW132039   2.593   2.253   4.467
10380SOL    HW232040   2.573   2.250   4.304
10381SOL     OW32041   4.283   6.312   1.963
10381SOL    HW132042   4.198   6.264   1.982
10381SOL    HW232043   4.355   6.278   2.023
10382SOL     OW32044   4.096   5.927   1.750
10382SOL    HW132045   4.097   5.907   1.652
10382SOL    HW232046   4.189   5.926   1.785
10383SOL     OW32047   1.459   4.510   0.279
10383SOL    HW132048   1.485   4.528   0.374
10383SOL    HW232049   1.499   4.581   0.220
10384SOL     OW32050   5.795   6.456   1.589
10384SOL    HW132051   5.781   6.391   1.515
10384SOL    HW232052   5.710   6.504   1.608
10385SOL     OW32053   4.434   4.659   6.921
10385SOL    HW132054   4.413   4.754   6.944
10385SOL    HW232055   4.534   4.647   6.918
10386SOL     OW32056   0.076   0.939   0.678
10386SOL    HW132057   7.004   0.912   0.687
10386SOL    HW232058   0.131   0.889   0.746
10387SOL     OW32059   5.087   3.439   2.143
10387SOL    HW132060   5.164   3.502   2.132
10387SOL    HW232061   5.087   3.373   2.068
10388SOL     OW32062   2.532   0.300   5.020
10388SOL    HW132063   2.477   0.223   5.052
10388SOL    HW232064   2.536   0.369   5.092
10389SOL     OW32065   0.615   3.770   0.646
10389SOL    HW132066   0.616   3.855   0.594
10389SOL    HW232067   0.583   3.695   0.587
10390SOL     OW32068   2.345   2.134   1.406
10390SOL    HW132069   2.330   2.126   1.504
10390SOL    HW232070   2.358   2.231   1.382
10391SOL     OW32071   5.427   6.960   4.313
10391SOL    HW132072   5.373   6.924   4.389
10391SOL    HW232073   5.513   6.910   4.306
10392SOL     OW32074   6.600   3.979   4.061
10392SOL    HW132075   6.619   3.938   3.972
10392SOL    HW232076   6.647   3.927   4.132
10393SOL     OW32077   1.550   3.423   3.762
10393SOL    HW132078   1.593   3.333   3.754
10393SOL    HW232079   1.583   3.482   3.688
10394SOL     OW32080   3.539   6.347   4.510
10394SOL    HW132081   3.457   6.306   4.470
10394SOL    HW232082   3.533   6.343   4.610
10395SOL     OW32083   0.963   0.871   0.898
10395SOL    HW132084   0.895   0.943   0.880
10395SOL    HW232085   1.039   0.910   0.950
10396SOL     OW32086   2.688   2.420   4.831
10396SOL    HW132087   2.689   2.371   4.744
10396SOL    HW232088   2.676   2.518   4.814
10397SOL     OW32089   3.565   2.103   2.702
10397SOL    HW132090   3.657   2.112   2.663
10397SOL    HW232091   3.572   2.100   2.802
10398SOL     OW32092   6.606   2.663   1.670
10398SOL    HW132093   6.538   2.709   1.613
10398SOL    HW232094   6.652   2.591   1.617
10399SOL     OW32095   6.311   3.606   1.942
10399SOL    HW132096   6.351   3.562   2.022
10399SOL    HW232097   6.217   3.634   1.962
10400SOL     OW32098   4.052   6.534   0.152
10400SOL    HW132099   4.152   6.533   0.140
10400SOL    HW232100   4.030   6.498   0.243
10401SOL     OW32101   0.249   1.156   5.324
10401SOL    HW132102   0.313   1.186   5.395
10401SOL    HW232103   0.156   1.180   5.351
10402SOL     OW32104   6.762   2.869   4.556
10402SOL    HW132105   6.837   2.810   4.587
10402SOL    HW232106   6.795   2.930   4.484
10403SOL     OW32107   2.596   0.637   2.756
10403SOL    HW132108   2.611   0.679   2.666
10403SOL    HW232109   2.602   0.707   2.827
10404SOL     OW32110   0.171   6.889   6.714
10404SOL    HW132111   0.245   6.913   6.651
10404SOL    HW232112   0.114   6.818   6.671
10405SOL     OW32113   0.183   1.008   5.963
10405SOL    HW132114   0.171   0.992   6.061
10405SOL    HW232115   0.097   1.040   5.924
10406SOL     OW32116   2.975   4.779   1.825
10406SOL    HW132117   3.053   4.784   1.887
10406SOL    HW232118   2.916   4.703   1.852
10407SOL     OW32119   3.261   6.883   0.170
10407SOL    HW132120   3.240   6.825   0.248
10407SOL    HW232121   3.297   6.971   0.202
10408SOL     OW32122   4.090   0.658   0.876
10408SOL    HW132123   3.995   0.686   0.887
10408SOL    HW232124   4.099   0.560   0.898
10409SOL     OW32125   5.864   4.945   1.356
10409SOL    HW132126   5.899   5.004   1.429
10409SOL    HW232127   5.859   4.997   1.271
10410SOL     OW32128   5.796   0.740   0.787
10410SOL    HW132129   5.849   0.676   0.842
10410SOL    HW232130   5.792   0.829   0.833
10411SOL     OW32131   2.938   5.053   3.109
10411SOL    HW132132   3.031   5.033   3.138
10411SOL    HW232133   2.879   4.975   3.129
10412SOL     OW32134   6.221   0.331   0.599
10412SOL    HW132135   6.241   0.397   0.526
10412SOL    HW232136   6.172   0.377   0.673
10413SOL     OW32137   5.719   2.309   0.823
10413SOL    HW132138   5.814   2.301   0.793
10413SOL    HW232139   5.658   2.276   0.751
10414SOL     OW32140   4.683   2.633   4.274
10414SOL    HW132141   4.673   2.661   4.369
10414SOL    HW232142   4.699   2.534   4.269
10415SOL     OW32143   0.914   6.162   6.539
10415SOL    HW132144   0.918   6.125   6.632
10415SOL    HW232145   0.853   6.106   6.483
10416SOL     OW32146   5.900   3.155   4.856
10416SOL    HW132147   5.879   3.241   4.809
10416SOL    HW232148   5.859   3.079   4.805
10417SOL     OW32149   2.516   5.018   4.098
10417SOL    HW132150   2.478   5.063   4.179
10417SOL    HW232151   2.514   5.081   4.020
10418SOL     OW32152   0.799   4.357   5.469
10418SOL    HW132153   0.879   4.345   5.410
10418SOL    HW232154   0.823   4.332   5.563
10419SOL     OW32155   1.101   1.130   0.809
10419SOL    HW132156   1.010   1.131   0.767
10419SOL    HW232157   1.154   1.209   0.778
10420SOL     OW32158   6.788   3.096   2.806
10420SOL    HW132159   6.878   3.074   2.845
10420SOL    HW232160   6.725   3.119   2.880
10421SOL     OW32161   1.021   0.716   3.454
10421SOL    HW132162   1.005   0.658   3.373
10421SOL    HW232163   0.973   0.803   3.442
10422SOL     OW32164   6.230   2.772   6.200
10422SOL    HW132165   6.140   2.756   6.242
10422SOL    HW232166   6.230   2.862   6.156
10423SOL     OW32167   4.547   4.394   3.635
10423SOL    HW132168   4.549   4.300   3.601
10423SOL    HW232169   4.532   4.457   3.559
10424SOL     OW32170   5.053   1.721   6.593
10424SOL    HW132171   5.122   1.656   6.624
10424SOL    HW232172   5.010   1.764   6.673
10425SOL     OW32173   1.269   5.789   2.722
10425SOL    HW132174   1.345   5.844   2.686
10425SOL    HW232175   1.289   5.762   2.816
10426SOL     OW32176   6.308   4.714   6.948
10426SOL    HW132177   6.403   4.719   6.979
10426SOL    HW232178   6.248   4.713   0.004
10427SOL     OW32179   5.335   2.270   0.505
10427SOL    HW132180   5.370   2.245   0.415
10427SOL    HW232181   5.295   2.362   0.501
10428SOL     OW32182   4.472   0.462   4.120
10428SOL    HW132183   4.560   0.496   4.087
10428SOL    HW232184   4.483   0.421   4.210
10429SOL     OW32185   7.017   5.986   1.850
10429SOL    HW132186   0.024   6.082   1.845
10429SOL    HW232187   0.058   5.928   1.801
10430SOL     OW32188   4.119   6.637   2.630
10430SOL    HW132189   4.035   6.691   2.631
10430SOL    HW232190   4.097   6.541   2.612
10431SOL     OW32191   2.865   0.351   4.440
10431SOL    HW132192   2.919   0.399   4.371
10431SOL    HW232193   2.866   0.403   4.525
10432SOL     OW32194   6.024   0.750   4.478
10432SOL    HW132195   5.980   0.679   4.534
10432SOL    HW232196   6.118   0.723   4.458
10433SOL     OW32197   1.971   6.568   1.284
10433SOL    HW132198   2.048   6.505   1.295
10433SOL    HW232199   1.997   6.644   1.225
10434SOL     OW32200   2.673   0.514   4.027
10434SOL    HW132201   2.578   0.498   4.002
10434SOL    HW232202   2.710   0.434   4.074
10435SOL     OW32203   5.736   6.676   6.167
10435SOL    HW132204   5.742   6.662   6.068
10435SOL    HW232205   5.827   6.688   6.205
10436SOL     OW32206   1.660   4.847   4.052
10436SOL    HW132207   1.631   4.871   3.959
10436SOL    HW232208   1.691   4.929   4.100
10437SOL     OW32209   6.548   5.261   5.813
10437SOL    HW132210   6.596   5.188   5.765
10437SOL    HW232211   6.532   5.235   5.908
10438SOL     OW32212   4.496   6.913   0.219
10438SOL    HW132213   4.450   6.993   0.259
10438SOL    HW232214   4.586   6.939   0.186
10439SOL     OW32215   3.494   6.958   5.990
10439SOL    HW132216   3.502   6.998   5.898
10439SOL    HW232217   3.408   6.987   6.031
10440SOL     OW32218   1.717   6.467   1.303
10440SOL    HW132219   1.817   6.470   1.309
10440SOL    HW232220   1.690   6.426   1.217
10441SOL     OW32221   5.435   2.407   6.555
10441SOL    HW132222   5.416   2.355   6.472
10441SOL    HW232223   5.525   2.382   6.591
10442SOL     OW32224   3.809   4.729   5.565
10442SOL    HW132225   3.778   4.657   5.627
10442SOL    HW232226   3.805   4.817   5.612
10443SOL     OW32227   5.846   3.806   5.211
10443SOL    HW132228   5.878   3.843   5.298
10443SOL    HW232229   5.770   3.862   5.177
10444SOL     OW32230   3.774   5.402   5.161
10444SOL    HW132231   3.816   5.408   5.252
10444SOL    HW232232   3.841   5.427   5.092
10445SOL     OW32233   6.787   6.368   4.714
10445SOL    HW132234   6.764   6.332   4.805
10445SOL    HW232235   6.722   6.333   4.647
10446SOL     OW32236   1.496   5.170   5.726
10446SOL    HW132237   1.452   5.141   5.811
10446SOL    HW232238   1.585   5.125   5.718
10447SOL     OW32239   6.098   2.195   1.049
10447SOL    HW132240   6.031   2.168   1.117
10447SOL    HW232241   6.091   2.134   0.969
10448SOL     OW32242   4.094   3.812   2.145
10448SOL    HW132243   4.092   3.855   2.055
10448SOL    HW232244   4.129   3.719   2.137
10449SOL     OW32245   2.782   5.418   4.465
10449SOL    HW132246   2.768   5.389   4.370
10449SOL    HW232247   2.880   5.434   4.480
10450SOL     OW32248   6.888   2.020   0.639
10450SOL    HW132249   6.986   2.039   0.637
10450SOL    HW232250   6.870   1.935   0.589
10451SOL     OW32251   2.573   4.581   3.025
10451SOL    HW132252   2.560   4.541   3.116
10451SOL    HW232253   2.517   4.531   2.959
10452SOL     OW32254   0.929   3.005   3.447
10452SOL    HW132255   0.978   2.951   3.516
10452SOL    HW232256   0.860   3.061   3.491
10453SOL     OW32257   4.722   6.085   1.789
10453SOL    HW132258   4.746   5.993   1.821
10453SOL    HW232259   4.631   6.109   1.821
10454SOL     OW32260   5.229   3.036   2.007
10454SOL    HW132261   5.231   2.987   1.920
10454SOL    HW232262   5.309   3.011   2.061
10455SOL     OW32263   6.787   4.973   3.774
10455SOL    HW132264   6.815   5.045   3.838
10455SOL    HW232265   6.713   4.919   3.815
10456SOL     OW32266   4.584   6.279   1.035
10456SOL    HW132267   4.660   6.309   0.977
10456SOL    HW232268   4.610   6.196   1.084
10457SOL     OW32269   4.088   3.748   3.508
10457SOL    HW132270   4.026   3.672   3.528
10457SOL    HW232271   4.182   3.714   3.507
10458SOL     OW32272   1.031   6.842   0.892
10458SOL    HW132273   0.970   6.821   0.969
10458SOL    HW232274   0.985   6.819   0.806
10459SOL     OW32275   6.347   5.397   2.819
10459SOL    HW132276   6.350   5.439   2.910
10459SOL    HW232277   6.259   5.351   2.806
10460SOL     OW32278   2.272   5.018   2.096
10460SOL    HW132279   2.288   5.071   2.013
10460SOL    HW232280   2.302   5.071   2.176
10461SOL     OW32281   2.980   0.750   6.752
10461SOL    HW132282   3.067   0.792   6.724
10461SOL    HW232283   2.906   0.789   6.697
10462SOL     OW32284   6.509   0.670   0.894
10462SOL    HW132285   6.430   0.610   0.909
10462SOL    HW232286   6.545   0.700   0.983
10463SOL     OW32287   2.990   5.048   0.413
10463SOL    HW132288   3.041   5.062   0.497
10463SOL    HW232289   3.045   5.077   0.334
10464SOL     OW32290   5.886   0.567   0.967
10464SOL    HW132291   5.941   0.555   1.049
10464SOL    HW232292   5.796   0.527   0.980
10465SOL     OW32293   6.456   5.154   6.074
10465SOL    HW132294   6.432   5.080   6.012
10465SOL    HW232295   6.494   5.116   6.159
10466SOL     OW32296   4.831   6.319   5.992
10466SOL    HW132297   4.785   6.358   5.912
10466SOL    HW232298   4.793   6.228   6.010
10467SOL     OW32299   2.731   0.957   5.268
10467SOL    HW132300   2.644   0.975   5.222
10467SOL    HW232301   2.713   0.934   5.364
10468SOL     OW32302   3.315   6.556   3.878
10468SOL    HW132303   3.284   6.502   3.956
10468SOL    HW232304   3.267   6.527   3.796
10469SOL     OW32305   1.399   4.858   0.763
10469SOL    HW132306   1.324   4.811   0.716
10469SOL    HW232307   1.361   4.928   0.823
10470SOL     OW32308   2.610   1.732   4.436
10470SOL    HW132309   2.671   1.674   4.492
10470SOL    HW232310   2.527   1.681   4.415
10471SOL     OW32311   2.977   3.502   0.841
10471SOL    HW132312   3.028   3.417   0.830
10471SOL    HW232313   2.939   3.507   0.933
10472SOL     OW32314   4.187   1.281   2.076
10472SOL    HW132315   4.228   1.190   2.084
10472SOL    HW232316   4.095   1.273   2.039
10473SOL     OW32317   4.929   6.081   0.296
10473SOL    HW132318   4.892   6.059   0.205
10473SOL    HW232319   4.871   6.040   0.366
10474SOL     OW32320   4.119   0.440   4.816
10474SOL    HW132321   4.215   0.417   4.801
10474SOL    HW232322   4.108   0.539   4.819
10475SOL     OW32323   4.111   0.132   1.667
10475SOL    HW132324   4.128   0.153   1.571
10475SOL    HW232325   4.198   0.128   1.717
10476SOL     OW32326   0.109   5.357   0.053
10476SOL    HW132327   0.174   5.286   0.024
10476SOL    HW232328   0.119   5.437   7.018
10477SOL     OW32329   5.071   4.193   5.124
10477SOL    HW132330   5.020   4.255   5.066
10477SOL    HW232331   5.013   4.114   5.147
10478SOL     OW32332   0.259   6.412   1.345
10478SOL    HW132333   0.176   6.411   1.290
10478SOL    HW232334   0.325   6.476   1.305
10479SOL     OW32335   1.162   4.006   3.528
10479SOL    HW132336   1.198   4.027   3.619
10479SOL    HW232337   1.121   3.915   3.529
10480SOL     OW32338   5.841   0.157   2.340
10480SOL    HW132339   5.835   0.236   2.401
10480SOL    HW232340   5.853   0.189   2.246
10481SOL     OW32341   2.125   0.647   5.266
10481SOL    HW132342   2.102   0.731   5.217
10481SOL    HW232343   2.042   0.595   5.285
10482SOL     OW32344   1.915   5.494   5.678
10482SOL    HW132345   1.863   5.422   5.633
10482SOL    HW232346   1.902   5.580   5.629
10483SOL     OW32347   0.150   4.990   0.064
10483SOL    HW132348   0.054   4.982   0.035
10483SOL    HW232349   0.154   5.015   0.161
10484SOL     OW32350   6.402   1.147   1.486
10484SOL    HW132351   6.434   1.124   1.394
10484SOL    HW232352   6.439   1.235   1.514
10485SOL     OW32353   3.517   4.022   3.207
10485SOL    HW132354   3.567   3.941   3.237
10485SOL    HW232355   3.520   4.092   3.279
10486SOL     OW32356   6.163   6.693   5.832
10486SOL    HW132357   6.241   6.649   5.876
10486SOL    HW232358   6.111   6.745   5.900
10487SOL     OW32359   4.717   2.542   1.754
10487SOL    HW132360   4.704   2.642   1.754
10487SOL    HW232361   4.792   2.518   1.692
10488SOL     OW32362   6.012   2.556   6.101
10488SOL    HW132363   6.027   2.488   6.172
10488SOL    HW232364   6.075   2.632   6.113
10489SOL     OW32365   6.228   4.554   5.013
10489SOL    HW132366   6.310   4.514   5.056
10489SOL    HW232367   6.234   4.653   5.016
10490SOL     OW32368   5.686   6.358   6.493
10490SOL    HW132369   5.759   6.351   6.424
10490SOL    HW232370   5.666   6.267   6.528
10491SOL     OW32371   1.854   2.709   6.231
10491SOL    HW132372   1.855   2.748   6.139
10491SOL    HW232373   1.867   2.610   6.225
10492SOL     OW32374   3.836   1.106   0.523
10492SOL    HW132375   3.844   1.139   0.617
10492SOL    HW232376   3.772   1.165   0.473
10493SOL     OW32377   4.809   6.005   0.578
10493SOL    HW132378   4.753   5.984   0.659
10493SOL    HW232379   4.837   6.101   0.581
10494SOL     OW32380   1.003   4.792   5.387
10494SOL    HW132381   1.071   4.864   5.404
10494SOL    HW232382   0.959   4.767   5.474
10495SOL     OW32383   0.246   6.502   0.723
10495SOL    HW132384   0.300   6.473   0.802
10495SOL    HW232385   0.154   6.464   0.730
10496SOL     OW32386   0.261   3.735   5.088
10496SOL    HW132387   0.278   3.768   4.995
10496SOL    HW232388   0.280   3.637   5.092
10497SOL     OW32389   2.179   0.233   1.065
10497SOL    HW132390   2.250   0.264   1.128
10497SOL    HW232391   2.140   0.312   1.018
10498SOL     OW32392   4.187   4.462   0.204
10498SOL    HW132393   4.286   4.467   0.215
10498SOL    HW232394   4.143   4.463   0.294
10499SOL     OW32395   6.212   4.947   2.668
10499SOL    HW132396   6.247   4.916   2.756
10499SOL    HW232397   6.207   4.870   2.604
10500SOL     OW32398   6.705   3.605   5.322
10500SOL    HW132399   6.661   3.552   5.250
10500SOL    HW232400   6.700   3.555   5.408
10501SOL     OW32401   3.435   4.927   2.638
10501SOL    HW132402   3.459   5.018   2.673
10501SOL    HW232403   3.338   4.927   2.612
10502SOL     OW32404   3.248   3.525   2.253
10502SOL    HW132405   3.212   3.461   2.186
10502SOL    HW232406   3.174   3.587   2.283
10503SOL     OW32407   6.407   2.604   6.334
10503SOL    HW132408   6.356   2.518   6.331
10503SOL    HW232409   6.346   2.680   6.311
10504SOL     OW32410   1.432   2.683   5.997
10504SOL    HW132411   1.333   2.697   5.989
10504SOL    HW232412   1.451   2.585   6.002
10505SOL     OW32413   5.970   6.434   0.926
10505SOL    HW132414   5.910   6.433   0.845
10505SOL    HW232415   5.959   6.521   0.974
10506SOL     OW32416   1.172   2.660   0.367
10506SOL    HW132417   1.107   2.655   0.443
10506SOL    HW232418   1.179   2.754   0.334
10507SOL     OW32419   1.218   5.281   6.337
10507SOL    HW132420   1.213   5.212   6.410
10507SOL    HW232421   1.298   5.339   6.351
10508SOL     OW32422   1.994   4.823   4.689
10508SOL    HW132423   1.936   4.770   4.752
10508SOL    HW232424   2.027   4.905   4.735
10509SOL     OW32425   4.723   2.715   3.624
10509SOL    HW132426   4.747   2.674   3.712
10509SOL    HW232427   4.725   2.815   3.631
10510SOL     OW32428   5.392   5.691   3.538
10510SOL    HW132429   5.476   5.734   3.571
10510SOL    HW232430   5.327   5.761   3.508
10511SOL     OW32431   4.555   2.352   1.822
10511SOL    HW132432   4.628   2.410   1.786
10511SOL    HW232433   4.572   2.333   1.918
10512SOL     OW32434   4.604   1.015   4.895
10512SOL    HW132435   4.698   1.043   4.915
10512SOL    HW232436   4.541   1.078   4.940
10513SOL     OW32437   4.734   3.518   1.014
10513SOL    HW132438   4.706   3.457   0.940
10513SOL    HW232439   4.830   3.502   1.037
10514SOL     OW32440   0.893   3.242   1.590
10514SOL    HW132441   0.799   3.270   1.572
10514SOL    HW232442   0.908   3.150   1.553
10515SOL     OW32443   2.309   2.834   4.883
10515SOL    HW132444   2.324   2.763   4.951
10515SOL    HW232445   2.325   2.924   4.925
10516SOL     OW32446   3.830   2.121   1.529
10516SOL    HW132447   3.905   2.058   1.548
10516SOL    HW232448   3.799   2.162   1.615
10517SOL     OW32449   1.513   2.411   3.034
10517SOL    HW132450   1.577   2.481   3.002
10517SOL    HW232451   1.497   2.345   2.961
10518SOL     OW32452   0.585   4.932   2.951
10518SOL    HW132453   0.490   4.905   2.969
10518SOL    HW232454   0.636   4.852   2.920
10519SOL     OW32455   3.793   6.674   1.231
10519SOL    HW132456   3.784   6.761   1.279
10519SOL    HW232457   3.796   6.599   1.297
10520SOL     OW32458   6.952   2.581   5.526
10520SOL    HW132459   6.939   2.585   5.625
10520SOL    HW232460   6.875   2.533   5.485
10521SOL     OW32461   6.811   2.900   1.992
10521SOL    HW132462   6.790   2.992   2.024
10521SOL    HW232463   6.814   2.837   2.069
10522SOL     OW32464   4.971   2.813   3.350
10522SOL    HW132465   5.059   2.810   3.398
10522SOL    HW232466   4.921   2.727   3.366
10523SOL     OW32467   0.298   4.498   3.313
10523SOL    HW132468   0.294   4.557   3.394
10523SOL    HW232469   0.312   4.403   3.342
10524SOL     OW32470   0.332   6.265   5.007
10524SOL    HW132471   0.311   6.231   4.915
10524SOL    HW232472   0.386   6.349   5.000
10525SOL     OW32473   4.798   1.558   4.047
10525SOL    HW132474   4.776   1.563   3.950
10525SOL    HW232475   4.844   1.471   4.067
10526SOL     OW32476   1.498   4.965   0.532
10526SOL    HW132477   1.468   4.913   0.611
10526SOL    HW232478   1.568   4.914   0.483
10527SOL     OW32479   0.807   6.991   4.807
10527SOL    HW132480   0.852   6.906   4.777
10527SOL    HW232481   0.877   0.036   4.827
10528SOL     OW32482   1.458   4.075   5.671
10528SOL    HW132483   1.423   4.028   5.590
10528SOL    HW232484   1.462   4.012   5.748
10529SOL     OW32485   0.628   6.104   0.985
10529SOL    HW132486   0.603   6.053   1.067
10529SOL    HW232487   0.600   6.200   0.995
10530SOL     OW32488   0.375   5.449   0.567
10530SOL    HW132489   0.401   5.544   0.580
10530SOL    HW232490   0.436   5.390   0.621
10531SOL     OW32491   2.930   3.295   5.218
10531SOL    HW132492   2.974   3.207   5.237
10531SOL    HW232493   2.832   3.288   5.235
10532SOL     OW32494   5.298   6.369   6.717
10532SOL    HW132495   5.380   6.411   6.678
10532SOL    HW232496   5.222   6.380   6.653
10533SOL     OW32497   3.839   6.305   3.009
10533SOL    HW132498   3.818   6.402   3.026
10533SOL    HW232499   3.800   6.277   2.922
10534SOL     OW32500   1.414   5.955   3.933
10534SOL    HW132501   1.434   5.960   3.835
10534SOL    HW232502   1.500   5.954   3.984
10535SOL     OW32503   3.541   2.105   2.414
10535SOL    HW132504   3.564   2.199   2.440
10535SOL    HW232505   3.449   2.102   2.377
10536SOL     OW32506   5.952   1.897   4.168
10536SOL    HW132507   6.018   1.861   4.102
10536SOL    HW232508   5.975   1.992   4.190
10537SOL     OW32509   3.943   6.971   3.971
10537SOL    HW132510   3.942   0.031   4.026
10537SOL    HW232511   3.894   6.987   3.885
10538SOL     OW32512   6.508   3.766   2.858
10538SOL    HW132513   6.601   3.779   2.890
10538SOL    HW232514   6.473   3.677   2.890
10539SOL     OW32515   6.670   0.360   3.020
10539SOL    HW132516   6.640   0.424   2.950
10539SOL    HW232517   6.591   0.329   3.073
10540SOL     OW32518   1.687   3.527   5.807
10540SOL    HW132519   1.679   3.556   5.902
10540SOL    HW232520   1.757   3.582   5.761
10541SOL     OW32521   3.394   3.191   5.305
10541SOL    HW132522   3.368   3.287   5.292
10541SOL    HW232523   3.339   3.152   5.378
10542SOL     OW32524   5.037   6.956   4.678
10542SOL    HW132525   5.055   6.859   4.662
10542SOL    HW232526   4.940   6.974   4.664
10543SOL     OW32527   0.796   3.584   4.929
10543SOL    HW132528   0.735   3.625   4.996
10543SOL    HW232529   0.769   3.489   4.913
10544SOL     OW32530   2.102   1.625   2.858
10544SOL    HW132531   2.092   1.657   2.764
10544SOL    HW232532   2.092   1.703   2.921
10545SOL     OW32533   2.089   2.689   2.422
10545SOL    HW132534   2.012   2.714   2.363
10545SOL    HW232535   2.114   2.594   2.406
10546SOL     OW32536   2.881   6.621   6.749
10546SOL    HW132537   2.946   6.687   6.787
10546SOL    HW232538   2.788   6.656   6.759
10547SOL     OW32539   4.456   0.342   4.376
10547SOL    HW132540   4.521   0.341   4.452
10547SOL    HW232541   4.458   0.253   4.329
10548SOL     OW32542   0.146   5.359   3.782
10548SOL    HW132543   0.196   5.418   3.719
10548SOL    HW232544   0.187   5.268   3.781
10549SOL     OW32545   6.653   0.458   1.100
10549SOL    HW132546   6.613   0.546   1.126
10549SOL    HW232547   6.750   0.458   1.121
10550SOL     OW32548   4.928   5.818   3.548
10550SOL    HW132549   4.844   5.819   3.602
10550SOL    HW232550   4.985   5.741   3.576
10551SOL     OW32551   2.437   2.040   5.766
10551SOL    HW132552   2.532   2.033   5.796
10551SOL    HW232553   2.430   2.102   5.688
10552SOL     OW32554   2.588   1.317   4.881
10552SOL    HW132555   2.666   1.254   4.876
10552SOL    HW232556   2.618   1.403   4.921
10553SOL     OW32557   6.719   5.028   0.540
10553SOL    HW132558   6.809   5.031   0.496
10553SOL    HW232559   6.717   5.095   0.614
10554SOL     OW32560   6.313   6.082   1.834
10554SOL    HW132561   6.393   6.132   1.868
10554SOL    HW232562   6.237   6.094   1.898
10555SOL     OW32563   3.836   2.913   0.698
10555SOL    HW132564   3.843   2.956   0.788
10555SOL    HW232565   3.917   2.938   0.644
10556SOL     OW32566   2.274   1.985   2.791
10556SOL    HW132567   2.264   1.961   2.888
10556SOL    HW232568   2.200   2.046   2.764
10557SOL     OW32569   2.520   4.560   3.554
10557SOL    HW132570   2.475   4.619   3.621
10557SOL    HW232571   2.482   4.468   3.559
10558SOL     OW32572   3.270   5.309   4.647
10558SOL    HW132573   3.186   5.256   4.632
10558SOL    HW232574   3.315   5.326   4.560
10559SOL     OW32575   4.129   6.833   0.421
10559SOL    HW132576   4.209   6.836   0.481
10559SOL    HW232577   4.046   6.834   0.476
10560SOL     OW32578   5.744   6.977   2.473
10560SOL    HW132579   5.802   0.023   2.432
10560SOL    HW232580   5.766   6.968   2.570
10561SOL     OW32581   6.164   4.648   0.153
10561SOL    HW132582   6.150   4.583   0.227
10561SOL    HW232583   6.086   4.646   0.091
10562SOL     OW32584   4.259   6.005   2.836
10562SOL    HW132585   4.348   6.038   2.805
10562SOL    HW232586   4.193   6.079   2.832
10563SOL     OW32587   0.310   0.400   1.721
10563SOL    HW132588   0.314   0.305   1.751
10563SOL    HW232589   0.353   0.408   1.631
10564SOL     OW32590   5.514   4.683   3.973
10564SOL    HW132591   5.445   4.663   3.904
10564SOL    HW232592   5.549   4.597   4.011
10565SOL     OW32593   1.056   0.185   6.017
10565SOL    HW132594   0.969   0.149   6.052
10565SOL    HW232595   1.081   0.138   5.933
10566SOL     OW32596   3.147   3.042   0.307
10566SOL    HW132597   3.080   3.045   0.380
10566SOL    HW232598   3.109   3.083   0.224
10567SOL     OW32599   1.397   2.319   6.528
10567SOL    HW132600   1.341   2.336   6.609
10567SOL    HW232601   1.477   2.264   6.553
10568SOL     OW32602   4.659   2.369   5.635
10568SOL    HW132603   4.616   2.322   5.712
10568SOL    HW232604   4.657   2.468   5.650
10569SOL     OW32605   5.814   6.661   0.529
10569SOL    HW132606   5.776   6.751   0.551
10569SOL    HW232607   5.914   6.666   0.525
10570SOL     OW32608   1.062   4.668   3.344
10570SOL    HW132609   1.021   4.742   3.291
10570SOL    HW232610   0.995   4.631   3.407
10571SOL     OW32611   6.434   4.413   5.996
10571SOL    HW132612   6.415   4.470   5.916
10571SOL    HW232613   6.388   4.450   6.076
10572SOL     OW32614   5.810   4.430   0.852
10572SOL    HW132615   5.805   4.346   0.798
10572SOL    HW232616   5.847   4.504   0.796
10573SOL     OW32617   5.707   1.980   3.428
10573SOL    HW132618   5.707   2.053   3.496
10573SOL    HW232619   5.747   1.898   3.469
10574SOL     OW32620   0.031   2.543   3.149
10574SOL    HW132621   0.083   2.628   3.161
10574SOL    HW232622   6.975   2.544   3.209
10575SOL     OW32623   6.545   0.230   1.605
10575SOL    HW132624   6.581   0.318   1.575
10575SOL    HW232625   6.465   0.207   1.551
10576SOL     OW32626   1.314   4.526   4.398
10576SOL    HW132627   1.370   4.566   4.325
10576SOL    HW232628   1.337   4.429   4.408
10577SOL     OW32629   4.117   4.698   0.517
10577SOL    HW132630   4.019   4.705   0.538
10577SOL    HW232631   4.146   4.603   0.529
10578SOL     OW32632   0.147   3.253   4.456
10578SOL    HW132633   0.055   3.228   4.486
10578SOL    HW232634   0.151   3.351   4.438
10579SOL     OW32635   1.026   3.544   6.805
10579SOL    HW132636   1.107   3.575   6.856
10579SOL    HW232637   1.055   3.491   6.726
10580SOL     OW32638   6.560   6.682   0.175
10580SOL    HW132639   6.487   6.669   0.242
10580SOL    HW232640   6.596   6.775   0.180
10581SOL     OW32641   5.387   6.939   2.908
10581SOL    HW132642   5.467   6.887   2.937
10581SOL    HW232643   5.416   7.021   2.859
10582SOL     OW32644   5.623   4.407   6.270
10582SOL    HW132645   5.554   4.418   6.198
10582SOL    HW232646   5.714   4.416   6.229
10583SOL     OW32647   3.053   1.165   5.168
10583SOL    HW132648   3.053   1.236   5.098
10583SOL    HW232649   3.062   1.207   5.258
10584SOL     OW32650   0.963   6.809   4.679
10584SOL    HW132651   1.012   6.793   4.765
10584SOL    HW232652   1.005   6.756   4.606
10585SOL     OW32653   0.913   6.903   5.345
10585SOL    HW132654   0.860   6.972   5.296
10585SOL    HW232655   1.010   6.926   5.341
10586SOL     OW32656   4.271   4.253   5.317
10586SOL    HW132657   4.236   4.184   5.254
10586SOL    HW232658   4.268   4.343   5.274
10587SOL     OW32659   2.600   5.218   5.394
10587SOL    HW132660   2.602   5.126   5.356
10587SOL    HW232661   2.552   5.280   5.332
10588SOL     OW32662   1.026   3.849   4.379
10588SOL    HW132663   1.021   3.844   4.279
10588SOL    HW232664   0.944   3.895   4.413
10589SOL     OW32665   5.056   6.254   3.938
10589SOL    HW132666   5.026   6.205   4.020
10589SOL    HW232667   5.013   6.214   3.857
10590SOL     OW32668   0.903   4.968   2.709
10590SOL    HW132669   0.998   4.995   2.720
10590SOL    HW232670   0.898   4.870   2.686
10591SOL     OW32671   6.834   2.489   1.550
10591SOL    HW132672   6.931   2.491   1.576
10591SOL    HW232673   6.799   2.396   1.562
10592SOL     OW32674   6.510   1.973   4.938
10592SOL    HW132675   6.461   2.029   4.871
10592SOL    HW232676   6.462   1.978   5.026
10593SOL     OW32677   3.376   5.316   2.992
10593SOL    HW132678   3.279   5.322   2.968
10593SOL    HW232679   3.431   5.363   2.923
10594SOL     OW32680   2.650   6.833   3.810
10594SOL    HW132681   2.727   6.876   3.763
10594SOL    HW232682   2.638   6.876   3.900
10595SOL     OW32683   5.682   6.530   7.017
10595SOL    HW132684   5.667   6.517   6.919
10595SOL    HW232685   5.615   6.596   0.028
10596SOL     OW32686   4.779   2.885   0.046
10596SOL    HW132687   4.845   2.935   0.102
10596SOL    HW232688   4.686   2.916   0.069
10597SOL     OW32689   2.383   0.866   5.289
10597SOL    HW132690   2.291   0.878   5.326
10597SOL    HW232691   2.429   0.793   5.339
10598SOL     OW32692   2.627   1.490   6.396
10598SOL    HW132693   2.634   1.390   6.400
10598SOL    HW232694   2.557   1.522   6.459
10599SOL     OW32695   6.849   2.617   6.721
10599SOL    HW132696   6.852   2.517   6.719
10599SOL    HW232697   6.764   2.647   6.764
10600SOL     OW32698   2.726   2.352   1.358
10600SOL    HW132699   2.822   2.361   1.384
10600SOL    HW232700   2.670   2.416   1.411
10601SOL     OW32701   1.492   0.192   6.094
10601SOL    HW132702   1.417   0.252   6.066
10601SOL    HW232703   1.460   0.132   6.168
10602SOL     OW32704   6.936   0.189   1.117
10602SOL    HW132705   6.908   0.099   1.083
10602SOL    HW232706   6.889   0.209   1.203
10603SOL     OW32707   5.248   0.685   2.961
10603SOL    HW132708   5.211   0.773   2.992
10603SOL    HW232709   5.217   0.612   3.021
10604SOL     OW32710   5.321   6.595   4.963
10604SOL    HW132711   5.388   6.526   4.989
10604SOL    HW232712   5.361   6.686   4.972
10605SOL     OW32713   2.358   2.090   1.056
10605SOL    HW132714   2.285   2.151   1.023
10605SOL    HW232715   2.441   2.143   1.072
10606SOL     OW32716   6.379   0.525   6.959
10606SOL    HW132717   6.343   0.435   6.935
10606SOL    HW232718   6.384   0.582   6.878
10607SOL     OW32719   2.834   4.787   6.712
10607SOL    HW132720   2.889   4.721   6.660
10607SOL    HW232721   2.860   4.784   6.808
10608SOL     OW32722   5.829   3.965   3.135
10608SOL    HW132723   5.852   3.893   3.069
10608SOL    HW232724   5.897   3.966   3.208
10609SOL     OW32725   4.191   1.409   6.612
10609SOL    HW132726   4.189   1.370   6.520
10609SOL    HW232727   4.150   1.500   6.610
10610SOL     OW32728   0.750   0.764   3.598
10610SOL    HW132729   0.721   0.774   3.503
10610SOL    HW232730   0.791   0.849   3.630
10611SOL     OW32731   3.520   5.571   4.358
10611SOL    HW132732   3.545   5.659   4.317
10611SOL    HW232733   3.565   5.563   4.447
10612SOL     OW32734   6.136   1.892   3.517
10612SOL    HW132735   6.088   1.883   3.604
10612SOL    HW232736   6.104   1.974   3.470
10613SOL     OW32737   4.374   6.036   4.745
10613SOL    HW132738   4.358   5.941   4.718
10613SOL    HW232739   4.365   6.095   4.664
10614SOL     OW32740   3.913   0.868   5.998
10614SOL    HW132741   3.829   0.904   5.959
10614SOL    HW232742   3.947   0.930   6.069
10615SOL     OW32743   1.410   1.382   5.812
10615SOL    HW132744   1.382   1.287   5.824
10615SOL    HW232745   1.439   1.397   5.718
10616SOL     OW32746   2.472   6.335   0.116
10616SOL    HW132747   2.501   6.280   0.038
10616SOL    HW232748   2.372   6.334   0.123
10617SOL     OW32749   2.415   3.345   1.486
10617SOL    HW132750   2.457   3.339   1.576
10617SOL    HW232751   2.335   3.285   1.482
10618SOL     OW32752   1.601   4.907   3.790
10618SOL    HW132753   1.505   4.912   3.815
10618SOL    HW232754   1.636   4.999   3.772
10619SOL     OW32755   1.702   2.493   2.634
10619SOL    HW132756   1.713   2.394   2.627
10619SOL    HW232757   1.746   2.525   2.718
10620SOL     OW32758   3.216   1.181   6.502
10620SOL    HW132759   3.161   1.183   6.585
10620SOL    HW232760   3.177   1.115   6.438
10621SOL     OW32761   0.295   3.707   3.206
10621SOL    HW132762   0.334   3.629   3.255
10621SOL    HW232763   0.355   3.786   3.217
10622SOL     OW32764   4.257   2.138   0.283
10622SOL    HW132765   4.226   2.204   0.215
10622SOL    HW232766   4.282   2.052   0.238
10623SOL     OW32767   5.030   6.398   6.150
10623SOL    HW132768   5.087   6.440   6.079
10623SOL    HW232769   4.943   6.371   6.111
10624SOL     OW32770   0.378   2.063   6.694
10624SOL    HW132771   0.398   2.000   6.620
10624SOL    HW232772   0.304   2.027   6.751
10625SOL     OW32773   5.707   4.692   0.179
10625SOL    HW132774   5.614   4.659   0.162
10625SOL    HW232775   5.719   4.707   0.277
10626SOL     OW32776   5.341   3.037   1.002
10626SOL    HW132777   5.435   3.025   1.036
10626SOL    HW232778   5.342   3.037   0.902
10627SOL     OW32779   5.956   5.587   6.024
10627SOL    HW132780   5.970   5.490   6.001
10627SOL    HW232781   5.883   5.595   6.092
10628SOL     OW32782   4.009   6.658   1.005
10628SOL    HW132783   4.032   6.655   1.102
10628SOL    HW232784   3.912   6.681   0.994
10629SOL     OW32785   3.261   5.566   4.211
10629SOL    HW132786   3.345   5.598   4.254
10629SOL    HW232787   3.274   5.564   4.111
10630SOL     OW32788   3.646   1.048   2.369
10630SOL    HW132789   3.585   1.053   2.448
10630SOL    HW232790   3.626   1.124   2.307
10631SOL     OW32791   3.955   5.967   6.838
10631SOL    HW132792   4.028   5.901   6.822
10631SOL    HW232793   3.992   6.060   6.831
10632SOL     OW32794   4.468   5.835   3.565
10632SOL    HW132795   4.449   5.860   3.470
10632SOL    HW232796   4.436   5.742   3.581
10633SOL     OW32797   1.253   3.301   1.577
10633SOL    HW132798   1.318   3.248   1.522
10633SOL    HW232799   1.247   3.261   1.668
10634SOL     OW32800   0.748   3.563   6.753
10634SOL    HW132801   0.721   3.616   6.672
10634SOL    HW232802   0.842   3.586   6.779
10635SOL     OW32803   2.429   4.179   5.989
10635SOL    HW132804   2.469   4.260   5.944
10635SOL    HW232805   2.499   4.135   6.045
10636SOL     OW32806   6.373   2.372   6.204
10636SOL    HW132807   6.297   2.363   6.139
10636SOL    HW232808   6.456   2.398   6.156
10637SOL     OW32809   3.125   1.017   0.195
10637SOL    HW132810   3.124   0.918   0.187
10637SOL    HW232811   3.037   1.054   0.165
10638SOL     OW32812   6.891   5.749   1.789
10638SOL    HW132813   6.930   5.835   1.820
10638SOL    HW232814   6.949   5.673   1.820
10639SOL     OW32815   1.576   4.307   1.674
10639SOL    HW132816   1.657   4.291   1.619
10639SOL    HW232817   1.525   4.385   1.637
10640SOL     OW32818   4.320   6.976   3.654
10640SOL    HW132819   4.296   0.041   3.693
10640SOL    HW232820   4.321   6.982   3.555
10641SOL     OW32821   1.614   1.171   3.691
10641SOL    HW132822   1.625   1.092   3.630
10641SOL    HW232823   1.538   1.228   3.658
10642SOL     OW32824   5.721   2.315   6.423
10642SOL    HW132825   5.682   2.379   6.357
10642SOL    HW232826   5.764   2.367   6.498
10643SOL     OW32827   1.769   4.887   5.568
10643SOL    HW132828   1.676   4.906   5.536
10643SOL    HW232829   1.791   4.948   5.644
10644SOL     OW32830   6.629   2.388   2.942
10644SOL    HW132831   6.585   2.417   2.857
10644SOL    HW232832   6.728   2.389   2.930
10645SOL     OW32833   2.668   2.305   3.529
10645SOL    HW132834   2.617   2.362   3.464
10645SOL    HW232835   2.629   2.316   3.620
10646SOL     OW32836   5.094   0.614   3.890
10646SOL    HW132837   5.123   0.642   3.982
10646SOL    HW232838   5.151   0.659   3.822
10647SOL     OW32839   3.518   4.999   4.789
10647SOL    HW132840   3.574   5.080   4.805
10647SOL    HW232841   3.423   5.019   4.812
10648SOL     OW32842   5.104   5.265   5.144
10648SOL    HW132843   5.119   5.288   5.047
10648SOL    HW232844   5.145   5.176   5.163
10649SOL     OW32845   6.194   2.985   3.073
10649SOL    HW132846   6.254   3.002   2.995
10649SOL    HW232847   6.156   2.893   3.066
10650SOL     OW32848   0.562   0.255   3.930
10650SOL    HW132849   0.582   0.186   3.860
10650SOL    HW232850   0.541   0.210   4.017
10651SOL     OW32851   4.181   6.388   6.127
10651SOL    HW132852   4.181   6.401   6.028
10651SOL    HW232853   4.159   6.293   6.148
10652SOL     OW32854   1.953   0.034   6.889
10652SOL    HW132855   1.976   0.039   6.986
10652SOL    HW232856   1.944   0.127   6.852
10653SOL     OW32857   4.097   5.353   4.132
10653SOL    HW132858   4.042   5.305   4.201
10653SOL    HW232859   4.149   5.427   4.176
10654SOL     OW32860   5.553   1.726   4.384
10654SOL    HW132861   5.555   1.767   4.476
10654SOL    HW232862   5.641   1.743   4.339
10655SOL     OW32863   0.407   4.964   1.300
10655SOL    HW132864   0.408   4.870   1.264
10655SOL    HW232865   0.455   5.024   1.238
10656SOL     OW32866   6.241   1.951   2.860
10656SOL    HW132867   6.297   1.875   2.893
10656SOL    HW232868   6.214   2.009   2.937
10657SOL     OW32869   5.268   6.409   4.476
10657SOL    HW132870   5.231   6.409   4.383
10657SOL    HW232871   5.314   6.322   4.493
10658SOL     OW32872   0.554   2.795   5.375
10658SOL    HW132873   0.533   2.700   5.399
10658SOL    HW232874   0.490   2.827   5.305
10659SOL     OW32875   1.064   5.221   0.476
10659SOL    HW132876   1.110   5.158   0.413
10659SOL    HW232877   0.995   5.273   0.426
10660SOL     OW32878   6.141   3.126   5.392
10660SOL    HW132879   6.207   3.169   5.330
10660SOL    HW232880   6.058   3.182   5.396
10661SOL     OW32881   1.784   4.536   5.738
10661SOL    HW132882   1.810   4.569   5.647
10661SOL    HW232883   1.721   4.602   5.780
10662SOL     OW32884   2.488   1.112   3.016
10662SOL    HW132885   2.476   1.119   3.115
10662SOL    HW232886   2.521   1.199   2.980
10663SOL     OW32887   1.857   1.611   4.337
10663SOL    HW132888   1.894   1.577   4.423
10663SOL    HW232889   1.909   1.692   4.309
10664SOL     OW32890   1.641   5.420   4.354
10664SOL    HW132891   1.588   5.338   4.370
10664SOL    HW232892   1.737   5.396   4.337
10665SOL     OW32893   1.915   2.791   5.974
10665SOL    HW132894   1.972   2.840   5.908
10665SOL    HW232895   1.886   2.704   5.935
10666SOL     OW32896   3.437   3.648   2.072
10666SOL    HW132897   3.383   3.642   1.988
10666SOL    HW232898   3.375   3.654   2.151
10667SOL     OW32899   5.697   2.194   3.611
10667SOL    HW132900   5.608   2.194   3.564
10667SOL    HW232901   5.687   2.154   3.702
10668SOL     OW32902   3.020   2.443   5.387
10668SOL    HW132903   2.954   2.381   5.345
10668SOL    HW232904   3.096   2.459   5.323
10669SOL     OW32905   6.069   1.430   1.004
10669SOL    HW132906   6.085   1.357   0.938
10669SOL    HW232907   6.140   1.428   1.074
10670SOL     OW32908   5.114   3.221   4.565
10670SOL    HW132909   5.179   3.297   4.562
10670SOL    HW232910   5.103   3.183   4.473
10671SOL     OW32911   1.189   3.261   3.932
10671SOL    HW132912   1.237   3.221   3.853
10671SOL    HW232913   1.253   3.274   4.007
10672SOL     OW32914   6.401   3.309   1.037
10672SOL    HW132915   6.351   3.395   1.024
10672SOL    HW232916   6.349   3.249   1.097
10673SOL     OW32917   2.183   0.939   1.062
10673SOL    HW132918   2.189   1.010   0.992
10673SOL    HW232919   2.102   0.883   1.044
10674SOL     OW32920   3.747   4.111   4.411
10674SOL    HW132921   3.714   4.022   4.380
10674SOL    HW232922   3.669   4.169   4.434
10675SOL     OW32923   4.015   7.006   5.645
10675SOL    HW132924   4.013   0.066   5.699
10675SOL    HW232925   4.109   6.988   5.615
10676SOL     OW32926   2.128   6.003   5.606
10676SOL    HW132927   2.158   6.082   5.661
10676SOL    HW232928   2.029   6.007   5.594
10677SOL     OW32929   0.216   1.228   1.008
10677SOL    HW132930   0.200   1.135   1.041
10677SOL    HW232931   0.194   1.233   0.911
10678SOL     OW32932   4.185   5.231   3.737
10678SOL    HW132933   4.086   5.222   3.730
10678SOL    HW232934   4.225   5.242   3.646
10679SOL     OW32935   3.832   3.540   6.824
10679SOL    HW132936   3.865   3.600   6.897
10679SOL    HW232937   3.874   3.449   6.834
10680SOL     OW32938   4.149   1.260   3.903
10680SOL    HW132939   4.224   1.247   3.969
10680SOL    HW232940   4.073   1.199   3.927
10681SOL     OW32941   0.993   3.041   5.807
10681SOL    HW132942   1.007   2.958   5.861
10681SOL    HW232943   0.926   3.100   5.852
10682SOL     OW32944   5.871   2.854   6.047
10682SOL    HW132945   5.851   2.821   5.955
10682SOL    HW232946   5.970   2.864   6.058
10683SOL     OW32947   3.689   0.037   3.803
10683SOL    HW132948   3.654   6.977   3.762
10683SOL    HW232949   3.626   0.112   3.783
10684SOL     OW32950   4.258   4.664   1.403
10684SOL    HW132951   4.311   4.579   1.403
10684SOL    HW232952   4.294   4.726   1.473
10685SOL     OW32953   1.017   6.184   1.737
10685SOL    HW132954   1.031   6.177   1.638
10685SOL    HW232955   0.943   6.124   1.764
10686SOL     OW32956   2.343   3.223   6.810
10686SOL    HW132957   2.278   3.283   6.765
10686SOL    HW232958   2.433   3.234   6.768
10687SOL     OW32959   0.644   4.507   3.187
10687SOL    HW132960   0.570   4.461   3.138
10687SOL    HW232961   0.695   4.441   3.242
10688SOL     OW32962   5.230   1.677   2.319
10688SOL    HW132963   5.217   1.683   2.220
10688SOL    HW232964   5.328   1.685   2.340
10689SOL     OW32965   0.167   6.720   2.484
10689SOL    HW132966   0.261   6.750   2.503
10689SOL    HW232967   0.108   6.800   2.475
10690SOL     OW32968   6.857   6.253   3.582
10690SOL    HW132969   6.823   6.210   3.498
10690SOL    HW232970   6.839   6.193   3.660
10691SOL     OW32971   3.006   1.463   2.834
10691SOL    HW132972   2.986   1.423   2.745
10691SOL    HW232973   3.086   1.418   2.874
10692SOL     OW32974   2.482   1.163   4.451
10692SOL    HW132975   2.451   1.072   4.421
10692SOL    HW232976   2.511   1.158   4.547
10693SOL     OW32977   1.645   5.551   0.818
10693SOL    HW132978   1.570   5.607   0.855
10693SOL    HW232979   1.612   5.500   0.739
10694SOL     OW32980   4.851   6.593   5.530
10694SOL    HW132981   4.833   6.495   5.526
10694SOL    HW232982   4.815   6.630   5.616
10695SOL     OW32983   0.008   3.624   1.321
10695SOL    HW132984   6.992   3.703   1.275
10695SOL    HW232985   6.964   3.550   1.324
10696SOL     OW32986   0.102   4.407   4.879
10696SOL    HW132987   0.104   4.486   4.818
10696SOL    HW232988   0.022   4.350   4.856
10697SOL     OW32989   1.436   5.276   4.809
10697SOL    HW132990   1.394   5.342   4.747
10697SOL    HW232991   1.525   5.310   4.839
10698SOL     OW32992   4.431   3.569   0.075
10698SOL    HW132993   4.400   3.662   0.096
10698SOL    HW232994   4.452   3.562   7.001
10699SOL     OW32995   3.278   4.070   0.822
10699SOL    HW132996   3.352   4.006   0.802
10699SOL    HW232997   3.194   4.037   0.779
10700SOL     OW32998   5.262   0.158   0.207
10700SOL    HW132999   5.279   0.255   0.186
10700SOL    HW233000   5.261   0.145   0.306
10701SOL     OW33001   2.924   0.283   6.421
10701SOL    HW133002   2.931   0.203   6.479
10701SOL    HW233003   2.992   0.278   6.348
10702SOL     OW33004   4.878   3.047   2.247
10702SOL    HW133005   4.832   3.042   2.159
10702SOL    HW233006   4.833   2.986   2.312
10703SOL     OW33007   1.851   2.398   6.195
10703SOL    HW133008   1.764   2.349   6.200
10703SOL    HW233009   1.861   2.438   6.103
10704SOL     OW33010   6.944   6.349   2.671
10704SOL    HW133011   7.001   6.269   2.652
10704SOL    HW233012   6.848   6.326   2.659
10705SOL     OW33013   5.620   5.031   0.966
10705SOL    HW133014   5.562   5.093   0.914
10705SOL    HW233015   5.661   4.964   0.904
10706SOL     OW33016   5.125   0.261   2.310
10706SOL    HW133017   5.139   0.166   2.337
10706SOL    HW233018   5.180   0.281   2.229
10707SOL     OW33019   6.268   6.989   4.277
10707SOL    HW133020   6.363   7.002   4.246
10707SOL    HW233021   6.233   0.049   4.316
10708SOL     OW33022   4.699   2.829   2.825
10708SOL    HW133023   4.728   2.883   2.905
10708SOL    HW233024   4.599   2.825   2.823
10709SOL     OW33025   5.881   5.342   4.021
10709SOL    HW133026   5.842   5.376   4.107
10709SOL    HW233027   5.935   5.415   3.978
10710SOL     OW33028   4.834   0.632   3.236
10710SOL    HW133029   4.790   0.585   3.160
10710SOL    HW233030   4.818   0.580   3.321
10711SOL     OW33031   3.620   6.656   2.455
10711SOL    HW133032   3.540   6.716   2.463
10711SOL    HW233033   3.685   6.696   2.391
10712SOL     OW33034   3.502   0.250   2.850
10712SOL    HW133035   3.473   0.340   2.817
10712SOL    HW233036   3.513   0.254   2.950
10713SOL     OW33037   1.089   3.396   0.793
10713SOL    HW133038   1.055   3.447   0.872
10713SOL    HW233039   1.073   3.298   0.808
10714SOL     OW33040   3.754   2.986   4.208
10714SOL    HW133041   3.768   2.979   4.109
10714SOL    HW233042   3.766   3.081   4.236
10715SOL     OW33043   5.678   0.332   2.509
10715SOL    HW133044   5.648   0.333   2.604
10715SOL    HW233045   5.638   0.253   2.462
10716SOL     OW33046   6.669   2.121   3.072
10716SOL    HW133047   6.637   2.054   3.138
10716SOL    HW233048   6.623   2.208   3.088
10717SOL     OW33049   1.308   2.790   0.819
10717SOL    HW133050   1.300   2.791   0.719
10717SOL    HW233051   1.218   2.799   0.860
10718SOL     OW33052   0.664   4.703   6.261
10718SOL    HW133053   0.634   4.780   6.205
10718SOL    HW233054   0.584   4.652   6.294
10719SOL     OW33055   5.985   6.063   3.458
10719SOL    HW133056   6.005   6.151   3.415
10719SOL    HW233057   5.963   5.995   3.387
10720SOL     OW33058   5.774   5.271   4.458
10720SOL    HW133059   5.766   5.349   4.397
10720SOL    HW233060   5.863   5.272   4.503
10721SOL     OW33061   4.950   3.997   5.359
10721SOL    HW133062   4.971   4.085   5.401
10721SOL    HW233063   4.926   3.931   5.429
10722SOL     OW33064   6.335   3.813   6.605
10722SOL    HW133065   6.433   3.823   6.619
10722SOL    HW233066   6.300   3.891   6.553
10723SOL     OW33067   0.051   1.219   7.021
10723SOL    HW133068   0.001   1.193   0.079
10723SOL    HW233069   0.111   1.143   6.993
10724SOL     OW33070   0.633   6.811   0.343
10724SOL    HW133071   0.569   6.884   0.323
10724SOL    HW233072   0.613   6.773   0.433
10725SOL     OW33073   2.680   5.432   5.046
10725SOL    HW133074   2.706   5.528   5.062
10725SOL    HW233075   2.598   5.411   5.099
10726SOL     OW33076   5.098   1.069   3.740
10726SOL    HW133077   5.069   1.161   3.769
10726SOL    HW233078   5.165   1.034   3.805
10727SOL     OW33079   1.376   5.383   6.047
10727SOL    HW133080   1.320   5.458   6.012
10727SOL    HW233081   1.345   5.297   6.007
10728SOL     OW33082   6.937   5.158   0.463
10728SOL    HW133083   6.910   5.199   0.376
10728SOL    HW233084   0.008   5.182   0.482
10729SOL     OW33085   5.907   2.291   1.477
10729SOL    HW133086   5.919   2.364   1.409
10729SOL    HW233087   5.857   2.328   1.556
10730SOL     OW33088   3.807   0.731   1.671
10730SOL    HW133089   3.897   0.766   1.643
10730SOL    HW233090   3.807   0.631   1.667
10731SOL     OW33091   4.094   1.219   0.988
10731SOL    HW133092   4.173   1.224   1.049
10731SOL    HW233093   4.040   1.302   0.996
10732SOL     OW33094   0.246   5.000   5.276
10732SOL    HW133095   0.284   5.080   5.322
10732SOL    HW233096   0.169   5.028   5.218
10733SOL     OW33097   5.471   1.660   6.401
10733SOL    HW133098   5.478   1.643   6.499
10733SOL    HW233099   5.388   1.713   6.382
10734SOL     OW33100   0.912   1.608   1.022
10734SOL    HW133101   0.906   1.669   1.101
10734SOL    HW233102   0.880   1.655   0.941
10735SOL     OW33103   0.506   2.387   1.565
10735SOL    HW133104   0.481   2.329   1.641
10735SOL    HW233105   0.439   2.378   1.491
10736SOL     OW33106   1.954   0.156   3.916
10736SOL    HW133107   1.916   0.102   3.841
10736SOL    HW233108   2.018   0.224   3.878
10737SOL     OW33109   0.536   1.748   1.556
10737SOL    HW133110   0.446   1.737   1.597
10737SOL    HW233111   0.571   1.840   1.577
10738SOL     OW33112   3.520   5.774   2.931
10738SOL    HW133113   3.459   5.771   3.010
10738SOL    HW233114   3.506   5.861   2.882
10739SOL     OW33115   1.547   2.626   1.351
10739SOL    HW133116   1.527   2.545   1.296
10739SOL    HW233117   1.600   2.690   1.297
10740SOL     OW33118   5.630   5.108   5.316
10740SOL    HW133119   5.634   5.064   5.225
10740SOL    HW233120   5.592   5.200   5.307
10741SOL     OW33121   4.360   1.115   2.323
10741SOL    HW133122   4.395   1.209   2.333
10741SOL    HW233123   4.292   1.098   2.395
10742SOL     OW33124   5.850   5.697   1.439
10742SOL    HW133125   5.756   5.725   1.459
10742SOL    HW233126   5.848   5.621   1.374
10743SOL     OW33127   1.905   2.127   4.012
10743SOL    HW133128   1.837   2.177   4.065
10743SOL    HW233129   1.996   2.143   4.051
10744SOL     OW33130   2.763   1.508   1.493
10744SOL    HW133131   2.854   1.492   1.456
10744SOL    HW233132   2.752   1.605   1.515
10745SOL     OW33133   0.022   5.115   5.703
10745SOL    HW133134   0.084   5.053   5.752
10745SOL    HW233135   0.055   5.209   5.713
10746SOL     OW33136   1.231   3.856   5.904
10746SOL    HW133137   1.328   3.846   5.880
10746SOL    HW233138   1.189   3.766   5.911
10747SOL     OW33139   3.075   1.242   4.426
10747SOL    HW133140   3.080   1.330   4.378
10747SOL    HW233141   2.993   1.239   4.483
10748SOL     OW33142   6.234   1.531   2.386
10748SOL    HW133143   6.230   1.432   2.399
10748SOL    HW233144   6.165   1.575   2.443
10749SOL     OW33145   0.984   6.361   5.534
10749SOL    HW133146   1.004   6.351   5.436
10749SOL    HW233147   0.952   6.274   5.570
10750SOL     OW33148   4.017   0.291   5.013
10750SOL    HW133149   4.013   0.374   4.959
10750SOL    HW233150   3.959   0.300   5.094
10751SOL     OW33151   2.065   4.410   4.027
10751SOL    HW133152   2.072   4.467   4.109
10751SOL    HW233153   2.113   4.323   4.042
10752SOL     OW33154   5.194   4.791   5.197
10752SOL    HW133155   5.223   4.696   5.191
10752SOL    HW233156   5.094   4.796   5.190
10753SOL     OW33157   0.329   4.133   4.293
10753SOL    HW133158   0.428   4.128   4.289
10753SOL    HW233159   0.295   4.067   4.361
10754SOL     OW33160   0.953   0.169   2.929
10754SOL    HW133161   0.854   0.176   2.926
10754SOL    HW233162   0.979   0.083   2.974
10755SOL     OW33163   6.991   6.525   1.898
10755SOL    HW133164   6.998   6.514   1.997
10755SOL    HW233165   0.043   6.582   1.865
10756SOL     OW33166   7.023   5.616   5.388
10756SOL    HW133167   0.012   5.548   5.460
10756SOL    HW233168   0.088   5.637   5.346
10757SOL     OW33169   2.169   2.874   0.142
10757SOL    HW133170   2.163   2.778   0.115
10757SOL    HW233171   2.077   2.908   0.161
10758SOL     OW33172   0.553   6.158   3.351
10758SOL    HW133173   0.531   6.173   3.255
10758SOL    HW233174   0.541   6.061   3.373
10759SOL     OW33175   0.976   2.940   0.695
10759SOL    HW133176   0.960   2.949   0.793
10759SOL    HW233177   1.022   3.023   0.661
10760SOL     OW33178   5.607   1.122   3.568
10760SOL    HW133179   5.700   1.086   3.571
10760SOL    HW233180   5.585   1.151   3.475
10761SOL     OW33181   1.987   5.380   6.145
10761SOL    HW133182   1.964   5.285   6.165
10761SOL    HW233183   2.076   5.384   6.100
10762SOL     OW33184   3.076   0.241   5.144
10762SOL    HW133185   3.116   0.150   5.146
10762SOL    HW233186   3.057   0.272   5.237
10763SOL     OW33187   3.661   0.265   3.476
10763SOL    HW133188   3.579   0.314   3.444
10763SOL    HW233189   3.742   0.308   3.437
10764SOL     OW33190   5.173   1.404   4.446
10764SOL    HW133191   5.212   1.456   4.371
10764SOL    HW233192   5.143   1.466   4.518
10765SOL     OW33193   5.127   3.196   1.042
10765SOL    HW133194   5.204   3.134   1.025
10765SOL    HW233195   5.046   3.162   0.994
10766SOL     OW33196   3.948   4.483   0.681
10766SOL    HW133197   3.978   4.482   0.585
10766SOL    HW233198   3.857   4.442   0.688
10767SOL     OW33199   2.698   0.365   0.584
10767SOL    HW133200   2.725   0.294   0.649
10767SOL    HW233201   2.667   0.446   0.634
10768SOL     OW33202   6.542   5.022   0.932
10768SOL    HW133203   6.584   5.077   0.860
10768SOL    HW233204   6.607   5.008   1.006
10769SOL     OW33205   1.668   3.282   5.719
10769SOL    HW133206   1.668   3.379   5.741
10769SOL    HW233207   1.757   3.257   5.680
10770SOL     OW33208   5.220   5.559   3.310
10770SOL    HW133209   5.255   5.601   3.394
10770SOL    HW233210   5.220   5.626   3.236
10771SOL     OW33211   4.168   6.817   4.047
10771SOL    HW133212   4.093   6.877   4.020
10771SOL    HW233213   4.134   6.749   4.112
10772SOL     OW33214   6.909   5.860   3.602
10772SOL    HW133215   6.907   5.824   3.508
10772SOL    HW233216   6.956   5.794   3.661
10773SOL     OW33217   5.742   4.429   5.295
10773SOL    HW133218   5.738   4.519   5.339
10773SOL    HW233219   5.721   4.438   5.198
10774SOL     OW33220   1.686   1.022   4.009
10774SOL    HW133221   1.649   1.034   4.101
10774SOL    HW233222   1.633   1.077   3.944
10775SOL     OW33223   0.972   4.329   1.896
10775SOL    HW133224   0.928   4.326   1.807
10775SOL    HW233225   1.039   4.403   1.898
10776SOL     OW33226   1.420   0.929   6.316
10776SOL    HW133227   1.420   0.833   6.286
10776SOL    HW233228   1.356   0.941   6.391
10777SOL     OW33229   3.700   4.990   1.242
10777SOL    HW133230   3.787   4.993   1.193
10777SOL    HW233231   3.631   5.039   1.190
10778SOL     OW33232   5.515   6.595   4.252
10778SOL    HW133233   5.426   6.625   4.285
10778SOL    HW233234   5.508   6.502   4.217
10779SOL     OW33235   6.011   2.734   3.117
10779SOL    HW133236   5.960   2.772   3.194
10779SOL    HW233237   5.947   2.705   3.046
10780SOL     OW33238   1.344   0.956   4.197
10780SOL    HW133239   1.413   1.006   4.249
10780SOL    HW233240   1.384   0.874   4.157
10781SOL     OW33241   3.982   0.282   3.894
10781SOL    HW133242   3.920   0.306   3.820
10781SOL    HW233243   3.929   0.252   3.974
10782SOL     OW33244   6.132   6.830   4.093
10782SOL    HW133245   6.168   6.880   4.172
10782SOL    HW233246   6.165   6.873   4.009
10783SOL     OW33247   0.334   2.625   2.541
10783SOL    HW133248   0.287   2.710   2.516
10783SOL    HW233249   0.432   2.641   2.548
10784SOL     OW33250   2.515   1.136   3.811
10784SOL    HW133251   2.580   1.133   3.735
10784SOL    HW233252   2.425   1.162   3.777
10785SOL     OW33253   0.950   4.029   0.260
10785SOL    HW133254   0.889   4.075   0.197
10785SOL    HW233255   1.021   3.981   0.208
10786SOL     OW33256   5.963   5.749   3.560
10786SOL    HW133257   5.992   5.812   3.488
10786SOL    HW233258   6.041   5.726   3.618
10787SOL     OW33259   0.445   0.528   5.481
10787SOL    HW133260   0.375   0.543   5.550
10787SOL    HW233261   0.407   0.475   5.405
10788SOL     OW33262   0.595   3.632   6.974
10788SOL    HW133263   0.536   3.697   6.927
10788SOL    HW233264   0.646   3.578   6.906
10789SOL     OW33265   6.781   2.889   0.280
10789SOL    HW133266   6.874   2.925   0.274
10789SOL    HW233267   6.733   2.907   0.194
10790SOL     OW33268   0.429   6.721   1.551
10790SOL    HW133269   0.449   6.670   1.635
10790SOL    HW233270   0.346   6.683   1.509
10791SOL     OW33271   6.473   6.308   2.212
10791SOL    HW133272   6.449   6.376   2.281
10791SOL    HW233273   6.571   6.290   2.215
10792SOL     OW33274   3.853   3.684   5.199
10792SOL    HW133275   3.897   3.612   5.252
10792SOL    HW233276   3.907   3.701   5.116
10793SOL     OW33277   5.530   3.629   5.364
10793SOL    HW133278   5.546   3.576   5.447
10793SOL    HW233279   5.601   3.608   5.297
10794SOL     OW33280   4.112   3.771   4.125
10794SOL    HW133281   4.065   3.848   4.168
10794SOL    HW233282   4.124   3.789   4.027
10795SOL     OW33283   1.045   4.474   2.981
10795SOL    HW133284   0.994   4.445   2.900
10795SOL    HW233285   1.022   4.415   3.058
10796SOL     OW33286   0.500   5.888   5.622
10796SOL    HW133287   0.452   5.971   5.649
10796SOL    HW233288   0.503   5.883   5.522
10797SOL     OW33289   4.101   2.970   0.607
10797SOL    HW133290   4.181   3.017   0.644
10797SOL    HW233291   4.109   2.964   0.507
10798SOL     OW33292   1.998   1.827   0.575
10798SOL    HW133293   2.082   1.822   0.522
10798SOL    HW233294   2.019   1.855   0.669
10799SOL     OW33295   3.750   0.460   2.990
10799SOL    HW133296   3.845   0.466   3.020
10799SOL    HW233297   3.696   0.411   3.058
10800SOL     OW33298   0.854   5.891   0.183
10800SOL    HW133299   0.848   5.929   0.090
10800SOL    HW233300   0.818   5.958   0.248
10801SOL     OW33301   1.509   0.794   0.481
10801SOL    HW133302   1.487   0.889   0.458
10801SOL    HW233303   1.432   0.754   0.532
10802SOL     OW33304   6.287   6.876   3.827
10802SOL    HW133305   6.202   6.851   3.781
10802SOL    HW233306   6.365   6.845   3.772
10803SOL     OW33307   1.553   5.686   6.688
10803SOL    HW133308   1.550   5.710   6.785
10803SOL    HW233309   1.647   5.664   6.661
10804SOL     OW33310   0.143   3.054   3.532
10804SOL    HW133311   0.171   3.123   3.598
10804SOL    HW233312   0.212   2.981   3.528
10805SOL     OW33313   5.822   1.015   4.589
10805SOL    HW133314   5.894   0.960   4.633
10805SOL    HW233315   5.762   1.054   4.659
10806SOL     OW33316   2.877   5.268   6.840
10806SOL    HW133317   2.803   5.335   6.845
10806SOL    HW233318   2.963   5.315   6.817
10807SOL     OW33319   2.462   6.034   3.884
10807SOL    HW133320   2.384   6.022   3.945
10807SOL    HW233321   2.510   6.119   3.907
10808SOL     OW33322   0.027   2.504   6.494
10808SOL    HW133323   6.964   2.545   6.465
10808SOL    HW233324   0.011   2.412   6.529
10809SOL     OW33325   2.587   4.764   4.405
10809SOL    HW133326   2.504   4.720   4.370
10809SOL    HW233327   2.665   4.738   4.348
10810SOL     OW33328   0.151   0.379   3.626
10810SOL    HW133329   0.242   0.401   3.591
10810SOL    HW233330   0.083   0.438   3.584
10811SOL     OW33331   4.643   5.280   4.687
10811SOL    HW133332   4.594   5.366   4.675
10811SOL    HW233333   4.742   5.297   4.682
10812SOL     OW33334   6.922   3.204   6.426
10812SOL    HW133335   6.961   3.119   6.461
10812SOL    HW233336   6.991   3.253   6.373
10813SOL     OW33337   0.599   3.816   5.727
10813SOL    HW133338   0.598   3.767   5.640
10813SOL    HW233339   0.690   3.855   5.743
10814SOL     OW33340   1.937   0.273   0.401
10814SOL    HW133341   1.999   0.229   0.467
10814SOL    HW233342   1.858   0.310   0.450
10815SOL     OW33343   5.107   1.555   3.692
10815SOL    HW133344   5.183   1.524   3.636
10815SOL    HW233345   5.141   1.618   3.762
10816SOL     OW33346   3.376   2.914   3.658
10816SOL    HW133347   3.283   2.947   3.674
10816SOL    HW233348   3.395   2.912   3.560
10817SOL     OW33349   2.820   0.195   3.493
10817SOL    HW133350   2.896   0.136   3.463
10817SOL    HW233351   2.822   0.203   3.592
10818SOL     OW33352   4.970   5.443   6.183
10818SOL    HW133353   4.981   5.525   6.127
10818SOL    HW233354   4.876   5.436   6.215
10819SOL     OW33355   7.009   5.463   6.377
10819SOL    HW133356   0.065   5.409   6.351
10819SOL    HW233357   6.975   5.513   6.297
10820SOL     OW33358   1.489   5.404   5.314
10820SOL    HW133359   1.452   5.332   5.256
10820SOL    HW233360   1.450   5.397   5.406
10821SOL     OW33361   4.373   5.284   2.549
10821SOL    HW133362   4.329   5.245   2.629
10821SOL    HW233363   4.358   5.383   2.548
10822SOL     OW33364   5.623   2.461   0.467
10822SOL    HW133365   5.628   2.550   0.422
10822SOL    HW233366   5.611   2.389   0.398
10823SOL     OW33367   0.182   6.798   2.820
10823SOL    HW133368   0.106   6.796   2.755
10823SOL    HW233369   0.267   6.773   2.773
10824SOL     OW33370   1.414   0.654   4.289
10824SOL    HW133371   1.321   0.659   4.325
10824SOL    HW233372   1.479   0.662   4.364
10825SOL     OW33373   1.172   1.987   0.420
10825SOL    HW133374   1.081   1.946   0.427
10825SOL    HW233375   1.168   2.068   0.361
10826SOL     OW33376   1.417   2.209   2.891
10826SOL    HW133377   1.494   2.146   2.886
10826SOL    HW233378   1.350   2.175   2.957
10827SOL     OW33379   6.414   3.715   5.076
10827SOL    HW133380   6.322   3.752   5.084
10827SOL    HW233381   6.477   3.788   5.049
10828SOL     OW33382   6.193   3.428   6.987
10828SOL    HW133383   6.142   3.461   6.907
10828SOL    HW233384   6.211   3.504   0.025
10829SOL     OW33385   4.569   3.305   6.880
10829SOL    HW133386   4.530   3.388   6.841
10829SOL    HW233387   4.659   3.326   6.919
10830SOL     OW33388   4.653   1.269   3.347
10830SOL    HW133389   4.738   1.216   3.351
10830SOL    HW233390   4.665   1.355   3.396
10831SOL     OW33391   4.255   1.173   2.726
10831SOL    HW133392   4.255   1.213   2.818
10831SOL    HW233393   4.198   1.229   2.666
10832SOL     OW33394   6.760   3.396   0.787
10832SOL    HW133395   6.689   3.329   0.808
10832SOL    HW233396   6.724   3.488   0.800
10833SOL     OW33397   0.768   1.588   0.732
10833SOL    HW133398   0.832   1.646   0.682
10833SOL    HW233399   0.674   1.615   0.709
10834SOL     OW33400   6.354   6.642   0.364
10834SOL    HW133401   6.374   6.739   0.377
10834SOL    HW233402   6.261   6.623   0.397
10835SOL     OW33403   5.740   3.521   6.449
10835SOL    HW133404   5.733   3.428   6.483
10835SOL    HW233405   5.661   3.542   6.391
10836SOL     OW33406   0.876   1.561   3.175
10836SOL    HW133407   0.965   1.528   3.142
10836SOL    HW233408   0.861   1.654   3.143
10837SOL     OW33409   6.649   4.564   2.013
10837SOL    HW133410   6.629   4.483   2.069
10837SOL    HW233411   6.605   4.644   2.055
10838SOL     OW33412   5.859   5.477   3.453
10838SOL    HW133413   5.815   5.462   3.364
10838SOL    HW233414   5.851   5.574   3.478
10839SOL     OW33415   4.795   3.664   0.722
10839SOL    HW133416   4.885   3.696   0.691
10839SOL    HW233417   4.764   3.719   0.799
10840SOL     OW33418   2.888   0.000   1.029
10840SOL    HW133419   2.790   0.018   1.016
10840SOL    HW233420   2.902   6.978   1.117
10841SOL     OW33421   1.236   5.138   4.960
10841SOL    HW133422   1.301   5.209   4.932
10841SOL    HW233423   1.145   5.160   4.924
10842SOL     OW33424   4.777   3.826   1.178
10842SOL    HW133425   4.732   3.898   1.231
10842SOL    HW233426   4.769   3.846   1.080
10843SOL     OW33427   1.944   1.647   1.195
10843SOL    HW133428   1.885   1.566   1.198
10843SOL    HW233429   1.973   1.672   1.287
10844SOL     OW33430   1.094   5.538   4.892
10844SOL    HW133431   1.167   5.499   4.836
10844SOL    HW233432   1.010   5.547   4.837
10845SOL     OW33433   4.652   6.114   5.316
10845SOL    HW133434   4.566   6.077   5.282
10845SOL    HW233435   4.692   6.173   5.246
10846SOL     OW33436   5.435   6.463   0.369
10846SOL    HW133437   5.425   6.406   0.288
10846SOL    HW233438   5.345   6.495   0.400
10847SOL     OW33439   1.980   1.457   0.096
10847SOL    HW133440   2.000   1.398   0.174
10847SOL    HW233441   1.890   1.434   0.059
10848SOL     OW33442   1.549   4.191   1.230
10848SOL    HW133443   1.487   4.149   1.164
10848SOL    HW233444   1.553   4.135   1.313
10849SOL     OW33445   3.033   5.483   3.843
10849SOL    HW133446   3.009   5.509   3.750
10849SOL    HW233447   2.958   5.505   3.905
10850SOL     OW33448   4.274   6.152   0.337
10850SOL    HW133449   4.223   6.087   0.279
10850SOL    HW233450   4.294   6.109   0.425
10851SOL     OW33451   2.423   4.347   1.933
10851SOL    HW133452   2.393   4.261   1.973
10851SOL    HW233453   2.393   4.423   1.990
10852SOL     OW33454   1.984   1.920   1.093
10852SOL    HW133455   1.972   1.828   1.131
10852SOL    HW233456   2.027   1.979   1.161
10853SOL     OW33457   2.254   2.178   6.218
10853SOL    HW133458   2.337   2.126   6.237
10853SOL    HW233459   2.250   2.200   6.120
10854SOL     OW33460   4.311   6.198   5.204
10854SOL    HW133461   4.355   6.110   5.218
10854SOL    HW233462   4.317   6.225   5.108
10855SOL     OW33463   2.920   1.442   0.678
10855SOL    HW133464   2.925   1.436   0.777
10855SOL    HW233465   3.003   1.403   0.637
10856SOL     OW33466   0.024   0.555   0.089
10856SOL    HW133467   0.005   0.584   0.183
10856SOL    HW233468   0.101   0.607   0.053
10857SOL     OW33469   6.571   1.294   2.421
10857SOL    HW133470   6.644   1.287   2.489
10857SOL    HW233471   6.482   1.282   2.466
10858SOL     OW33472   2.603   5.953   1.374
10858SOL    HW133473   2.568   5.924   1.463
10858SOL    HW233474   2.552   6.033   1.342
10859SOL     OW33475   0.546   5.248   3.946
10859SOL    HW133476   0.527   5.337   3.904
10859SOL    HW233477   0.636   5.215   3.917
10860SOL     OW33478   6.584   3.005   2.649
10860SOL    HW133479   6.516   3.075   2.671
10860SOL    HW233480   6.669   3.025   2.699
10861SOL     OW33481   3.168   3.058   4.254
10861SOL    HW133482   3.219   2.978   4.222
10861SOL    HW233483   3.172   3.062   4.354
10862SOL     OW33484   2.009   6.828   5.199
10862SOL    HW133485   2.040   6.862   5.287
10862SOL    HW233486   1.963   6.901   5.149
10863SOL     OW33487   3.198   6.104   4.821
10863SOL    HW133488   3.272   6.070   4.763
10863SOL    HW233489   3.113   6.056   4.800
10864SOL     OW33490   3.430   6.761   2.289
10864SOL    HW133491   3.484   6.691   2.244
10864SOL    HW233492   3.342   6.771   2.242
10865SOL     OW33493   5.794   1.483   6.676
10865SOL    HW133494   5.803   1.445   6.768
10865SOL    HW233495   5.697   1.492   6.653
10866SOL     OW33496   5.439   4.647   0.166
10866SOL    HW133497   5.390   4.567   0.129
10866SOL    HW233498   5.372   4.715   0.195
10867SOL     OW33499   3.466   3.875   0.741
10867SOL    HW133500   3.414   3.857   0.658
10867SOL    HW233501   3.553   3.825   0.738
10868SOL     OW33502   3.630   1.611   3.465
10868SOL    HW133503   3.648   1.527   3.515
10868SOL    HW233504   3.533   1.616   3.442
10869NA      NA33505   5.818   2.321   5.599
10870NA      NA33506   4.303   4.687   5.176
10871NA      NA33507   2.044   3.590   1.437
10872NA      NA33508   4.806   3.831   5.198
10873NA      NA33509   4.328   2.370   5.219
10874NA      NA33510   3.686   4.780   1.711
10875NA      NA33511   6.791   5.663   5.397
10876NA      NA33512   3.677   3.601   5.078
10877NA      NA33513   4.943   6.618   6.703
10878NA      NA33514   3.808   6.893   5.588
10879NA      NA33515   6.528   5.019   2.192
10880NA      NA33516   2.203   0.530   3.852
10881NA      NA33517   3.595   4.835   1.375
10882NA      NA33518   3.398   3.758   2.695
   7.02394   7.02394   7.02394
