Generated by trjconv : CNT in water t= 232.00000
33518
    1C        C    1   2.851   2.779   4.749
    1C        C    2   2.902   2.727   4.870
    1C        C    3   2.844   2.774   4.988
    1C        C    4   2.851   2.777   4.263
    1C        C    5   2.904   2.729   4.385
    1C        C    6   2.850   2.773   4.507
    1C        C    7   3.020   2.646   4.630
    1C        C    8   2.903   2.726   4.629
    1C        C    9   3.079   2.606   4.752
    1C        C   10   3.009   2.636   4.871
    1C        C   11   3.186   2.499   4.975
    1C        C   12   3.068   2.573   4.981
    1C        C   13   2.856   2.780   3.775
    1C        C   14   2.906   2.728   3.896
    1C        C   15   2.857   2.779   4.018
    1C        C   16   3.021   2.648   4.142
    1C        C   17   2.906   2.731   4.142
    1C        C   18   3.084   2.613   4.263
    1C        C   19   3.024   2.654   4.384
    1C        C   20   3.214   2.564   4.507
    1C        C   21   3.081   2.613   4.507
    1C        C   22   3.280   2.535   4.628
    1C        C   23   3.209   2.549   4.750
    1C        C   24   3.420   2.486   4.868
    1C        C   25   3.278   2.505   4.866
    1C        C   26   3.491   2.481   4.989
    1C        C   27   2.853   2.774   3.285
    1C        C   28   2.909   2.730   3.407
    1C        C   29   2.856   2.776   3.529
    1C        C   30   3.022   2.648   3.653
    1C        C   31   2.911   2.734   3.653
    1C        C   32   3.084   2.613   3.775
    1C        C   33   3.020   2.644   3.898
    1C        C   34   3.211   2.554   4.018
    1C        C   35   3.081   2.609   4.020
    1C        C   36   3.281   2.538   4.140
    1C        C   37   3.216   2.563   4.263
    1C        C   38   3.420   2.510   4.385
    1C        C   39   3.283   2.542   4.385
    1C        C   40   3.492   2.498   4.506
    1C        C   41   3.419   2.508   4.626
    1C        C   42   3.633   2.487   4.748
    1C        C   43   3.491   2.485   4.745
    1C        C   44   3.708   2.490   4.867
    1C        C   45   3.630   2.476   4.983
    1C        C   46   2.843   2.758   2.795
    1C        C   47   2.903   2.722   2.918
    1C        C   48   2.854   2.771   3.041
    1C        C   49   3.021   2.643   3.165
    1C        C   50   2.907   2.726   3.164
    1C        C   51   3.085   2.610   3.287
    1C        C   52   3.020   2.642   3.408
    1C        C   53   3.211   2.553   3.530
    1C        C   54   3.081   2.607   3.531
    1C        C   55   3.279   2.527   3.651
    1C        C   56   3.213   2.555   3.773
    1C        C   57   3.418   2.508   3.896
    1C        C   58   3.279   2.533   3.896
    1C        C   59   3.490   2.504   4.017
    1C        C   60   3.420   2.511   4.140
    1C        C   61   3.631   2.496   4.262
    1C        C   62   3.490   2.498   4.262
    1C        C   63   3.703   2.500   4.383
    1C        C   64   3.634   2.497   4.507
    1C        C   65   3.841   2.543   4.626
    1C        C   66   3.706   2.499   4.628
    1C        C   67   3.911   2.564   4.747
    1C        C   68   3.844   2.530   4.866
    1C        C   69   4.055   2.592   4.983
    1C        C   70   3.925   2.539   4.980
    1C        C   71   2.821   2.732   2.311
    1C        C   72   2.886   2.698   2.431
    1C        C   73   2.835   2.752   2.552
    1C        C   74   3.011   2.631   2.677
    1C        C   75   2.892   2.708   2.673
    1C        C   76   3.075   2.598   2.798
    1C        C   77   3.018   2.640   2.920
    1C        C   78   3.210   2.549   3.039
    1C        C   79   3.080   2.605   3.042
    1C        C   80   3.279   2.533   3.161
    1C        C   81   3.215   2.554   3.285
    1C        C   82   3.420   2.507   3.408
    1C        C   83   3.281   2.533   3.409
    1C        C   84   3.488   2.500   3.531
    1C        C   85   3.418   2.503   3.653
    1C        C   86   3.631   2.498   3.773
    1C        C   87   3.490   2.498   3.775
    1C        C   88   3.701   2.511   3.895
    1C        C   89   3.631   2.507   4.018
    1C        C   90   3.837   2.549   4.142
    1C        C   91   3.702   2.508   4.140
    1C        C   92   3.906   2.574   4.263
    1C        C   93   3.839   2.539   4.382
    1C        C   94   4.026   2.641   4.502
    1C        C   95   3.906   2.567   4.503
    1C        C   96   4.088   2.679   4.623
    1C        C   97   4.038   2.628   4.744
    1C        C   98   4.196   2.768   4.866
    1C        C   99   4.102   2.660   4.867
    1C        C  100   4.214   2.851   4.977
    1C        C  101   2.825   2.739   2.072
    1C        C  102   2.990   2.596   2.194
    1C        C  103   2.874   2.680   2.189
    1C        C  104   3.064   2.580   2.314
    1C        C  105   3.007   2.625   2.435
    1C        C  106   3.202   2.534   2.556
    1C        C  107   3.074   2.594   2.556
    1C        C  108   3.272   2.517   2.677
    1C        C  109   3.204   2.540   2.799
    1C        C  110   3.417   2.505   2.918
    1C        C  111   3.277   2.522   2.918
    1C        C  112   3.488   2.499   3.041
    1C        C  113   3.417   2.503   3.163
    1C        C  114   3.629   2.499   3.285
    1C        C  115   3.488   2.496   3.285
    1C        C  116   3.700   2.509   3.407
    1C        C  117   3.630   2.502   3.529
    1C        C  118   3.837   2.549   3.650
    1C        C  119   3.701   2.514   3.651
    1C        C  120   3.900   2.577   3.774
    1C        C  121   3.836   2.552   3.897
    1C        C  122   4.028   2.641   4.016
    1C        C  123   3.901   2.579   4.020
    1C        C  124   4.088   2.682   4.137
    1C        C  125   4.029   2.642   4.259
    1C        C  126   4.199   2.770   4.378
    1C        C  127   4.089   2.681   4.382
    1C        C  128   4.245   2.823   4.500
    1C        C  129   4.193   2.774   4.623
    1C        C  130   4.332   2.936   4.742
    1C        C  131   4.245   2.824   4.744
    1C        C  132   4.363   3.005   4.861
    1C        C  133   4.292   2.967   4.975
    1C        C  134   3.171   2.466   2.091
    1C        C  135   3.040   2.516   2.087
    1C        C  136   3.261   2.479   2.197
    1C        C  137   3.195   2.525   2.314
    1C        C  138   3.407   2.487   2.433
    1C        C  139   3.268   2.508   2.434
    1C        C  140   3.484   2.489   2.552
    1C        C  141   3.412   2.499   2.673
    1C        C  142   3.626   2.500   2.793
    1C        C  143   3.484   2.497   2.794
    1C        C  144   3.697   2.504   2.915
    1C        C  145   3.629   2.497   3.039
    1C        C  146   3.834   2.544   3.159
    1C        C  147   3.698   2.506   3.162
    1C        C  148   3.901   2.568   3.281
    1C        C  149   3.836   2.546   3.405
    1C        C  150   4.031   2.631   3.528
    1C        C  151   3.904   2.568   3.527
    1C        C  152   4.087   2.675   3.650
    1C        C  153   4.025   2.643   3.773
    1C        C  154   4.196   2.771   3.891
    1C        C  155   4.087   2.681   3.894
    1C        C  156   4.242   2.825   4.013
    1C        C  157   4.199   2.771   4.135
    1C        C  158   4.341   2.928   4.256
    1C        C  159   4.253   2.818   4.257
    1C        C  160   4.379   2.987   4.379
    1C        C  161   4.333   2.933   4.501
    1C        C  162   4.442   3.119   4.619
    1C        C  163   4.375   2.995   4.621
    1C        C  164   4.471   3.189   4.738
    1C        C  165   4.438   3.125   4.860
    1C        C  166   4.521   3.324   4.973
    1C        C  167   4.485   3.190   4.975
    1C        C  168   3.477   2.432   2.081
    1C        C  169   3.401   2.460   2.195
    1C        C  170   3.620   2.470   2.310
    1C        C  171   3.478   2.466   2.313
    1C        C  172   3.694   2.493   2.428
    1C        C  173   3.626   2.491   2.551
    1C        C  174   3.835   2.541   2.671
    1C        C  175   3.698   2.505   2.672
    1C        C  176   3.901   2.565   2.794
    1C        C  177   3.833   2.541   2.916
    1C        C  178   4.027   2.631   3.036
    1C        C  179   3.901   2.567   3.037
    1C        C  180   4.085   2.670   3.159
    1C        C  181   4.026   2.634   3.282
    1C        C  182   4.196   2.757   3.400
    1C        C  183   4.089   2.665   3.404
    1C        C  184   4.245   2.812   3.521
    1C        C  185   4.198   2.763   3.645
    1C        C  186   4.342   2.919   3.765
    1C        C  187   4.251   2.811   3.767
    1C        C  188   4.384   2.978   3.887
    1C        C  189   4.337   2.930   4.011
    1C        C  190   4.453   3.106   4.131
    1C        C  191   4.384   2.983   4.133
    1C        C  192   4.475   3.175   4.252
    1C        C  193   4.448   3.110   4.374
    1C        C  194   4.507   3.317   4.494
    1C        C  195   4.467   3.182   4.495
    1C        C  196   4.522   3.392   4.613
    1C        C  197   4.512   3.325   4.737
    1C        C  198   4.556   3.539   4.856
    1C        C  199   4.543   3.397   4.856
    1C        C  200   4.587   3.626   4.966
    1C        C  201   3.617   2.426   2.074
    1C        C  202   3.829   2.512   2.184
    1C        C  203   3.693   2.467   2.188
    1C        C  204   3.901   2.541   2.304
    1C        C  205   3.831   2.530   2.426
    1C        C  206   4.024   2.623   2.546
    1C        C  207   3.895   2.567   2.546
    1C        C  208   4.086   2.660   2.667
    1C        C  209   4.028   2.626   2.791
    1C        C  210   4.199   2.754   2.910
    1C        C  211   4.087   2.668   2.913
    1C        C  212   4.252   2.798   3.033
    1C        C  213   4.199   2.753   3.156
    1C        C  214   4.339   2.913   3.276
    1C        C  215   4.250   2.803   3.278
    1C        C  216   4.370   2.979   3.396
    1C        C  217   4.336   2.920   3.520
    1C        C  218   4.439   3.105   3.641
    1C        C  219   4.378   2.978   3.642
    1C        C  220   4.474   3.169   3.763
    1C        C  221   4.451   3.102   3.885
    1C        C  222   4.511   3.306   4.007
    1C        C  223   4.480   3.168   4.006
    1C        C  224   4.518   3.381   4.126
    1C        C  225   4.507   3.313   4.249
    1C        C  226   4.528   3.526   4.368
    1C        C  227   4.520   3.385   4.370
    1C        C  228   4.533   3.599   4.489
    1C        C  229   4.544   3.531   4.613
    1C        C  230   4.512   3.746   4.729
    1C        C  231   4.541   3.607   4.732
    1C        C  232   4.500   3.822   4.847
    1C        C  233   4.550   3.761   4.963
    1C        C  234   4.024   2.610   2.066
    1C        C  235   3.901   2.547   2.069
    1C        C  236   4.091   2.642   2.185
    1C        C  237   4.030   2.601   2.306
    1C        C  238   4.203   2.736   2.424
    1C        C  239   4.091   2.648   2.424
    1C        C  240   4.255   2.789   2.544
    1C        C  241   4.197   2.747   2.666
    1C        C  242   4.340   2.907   2.788
    1C        C  243   4.253   2.796   2.787
    1C        C  244   4.380   2.966   2.910
    1C        C  245   4.342   2.907   3.032
    1C        C  246   4.442   3.096   3.151
    1C        C  247   4.383   2.968   3.153
    1C        C  248   4.461   3.165   3.273
    1C        C  249   4.433   3.106   3.398
    1C        C  250   4.500   3.308   3.518
    1C        C  251   4.464   3.171   3.519
    1C        C  252   4.515   3.376   3.641
    1C        C  253   4.509   3.306   3.763
    1C        C  254   4.520   3.519   3.881
    1C        C  255   4.520   3.377   3.885
    1C        C  256   4.520   3.592   4.002
    1C        C  257   4.524   3.522   4.125
    1C        C  258   4.500   3.734   4.246
    1C        C  259   4.526   3.595   4.246
    1C        C  260   4.478   3.805   4.367
    1C        C  261   4.502   3.736   4.488
    1C        C  262   4.431   3.942   4.608
    1C        C  263   4.487   3.812   4.606
    1C        C  264   4.404   4.014   4.726
    1C        C  265   4.434   3.947   4.846
    1C        C  266   4.318   4.133   4.963
    1C        C  267   4.391   4.014   4.961
    1C        C  268   4.260   2.779   2.065
    1C        C  269   4.202   2.729   2.182
    1C        C  270   4.348   2.889   2.303
    1C        C  271   4.258   2.779   2.301
    1C        C  272   4.386   2.956   2.421
    1C        C  273   4.344   2.899   2.543
    1C        C  274   4.445   3.087   2.660
    1C        C  275   4.384   2.960   2.664
    1C        C  276   4.468   3.155   2.782
    1C        C  277   4.443   3.092   2.905
    1C        C  278   4.502   3.297   3.026
    1C        C  279   4.470   3.159   3.027
    1C        C  280   4.514   3.366   3.148
    1C        C  281   4.508   3.299   3.272
    1C        C  282   4.525   3.512   3.392
    1C        C  283   4.516   3.371   3.393
    1C        C  284   4.524   3.586   3.513
    1C        C  285   4.519   3.517   3.636
    1C        C  286   4.496   3.728   3.757
    1C        C  287   4.515   3.588   3.758
    1C        C  288   4.482   3.798   3.879
    1C        C  289   4.502   3.732   4.002
    1C        C  290   4.429   3.932   4.118
    1C        C  291   4.485   3.802   4.124
    1C        C  292   4.395   3.995   4.240
    1C        C  293   4.428   3.937   4.365
    1C        C  294   4.326   4.126   4.482
    1C        C  295   4.396   4.003   4.486
    1C        C  296   4.287   4.190   4.602
    1C        C  297   4.326   4.133   4.725
    1C        C  298   4.203   4.316   4.841
    1C        C  299   4.284   4.198   4.844
    1C        C  300   4.171   4.405   4.949
    1C        C  301   4.351   2.884   2.066
    1C        C  302   4.470   3.069   2.178
    1C        C  303   4.400   2.945   2.182
    1C        C  304   4.481   3.145   2.297
    1C        C  305   4.454   3.080   2.420
    1C        C  306   4.507   3.289   2.538
    1C        C  307   4.483   3.150   2.539
    1C        C  308   4.513   3.362   2.658
    1C        C  309   4.503   3.292   2.781
    1C        C  310   4.524   3.504   2.899
    1C        C  311   4.517   3.363   2.902
    1C        C  312   4.518   3.573   3.022
    1C        C  313   4.518   3.508   3.147
    1C        C  314   4.494   3.719   3.266
    1C        C  315   4.518   3.580   3.268
    1C        C  316   4.476   3.789   3.388
    1C        C  317   4.499   3.725   3.511
    1C        C  318   4.430   3.926   3.631
    1C        C  319   4.479   3.794   3.633
    1C        C  320   4.399   3.991   3.753
    1C        C  321   4.429   3.929   3.876
    1C        C  322   4.321   4.114   3.994
    1C        C  323   4.400   3.997   3.996
    1C        C  324   4.278   4.169   4.116
    1C        C  325   4.326   4.118   4.239
    1C        C  326   4.184   4.281   4.357
    1C        C  327   4.282   4.179   4.359
    1C        C  328   4.136   4.339   4.476
    1C        C  329   4.191   4.294   4.598
    1C        C  330   4.026   4.433   4.716
    1C        C  331   4.144   4.354   4.717
    1C        C  332   3.971   4.491   4.833
    1C        C  333   4.051   4.476   4.948
    1C        C  334   4.563   3.267   2.062
    1C        C  335   4.534   3.130   2.065
    1C        C  336   4.539   3.351   2.172
    1C        C  337   4.517   3.283   2.294
    1C        C  338   4.530   3.497   2.411
    1C        C  339   4.520   3.356   2.414
    1C        C  340   4.523   3.571   2.531
    1C        C  341   4.524   3.503   2.655
    1C        C  342   4.492   3.713   2.777
    1C        C  343   4.521   3.574   2.776
    1C        C  344   4.473   3.782   2.899
    1C        C  345   4.492   3.712   3.021
    1C        C  346   4.431   3.917   3.142
    1C        C  347   4.478   3.784   3.142
    1C        C  348   4.399   3.984   3.263
    1C        C  349   4.428   3.922   3.386
    1C        C  350   4.318   4.104   3.507
    1C        C  351   4.399   3.988   3.508
    1C        C  352   4.271   4.162   3.627
    1C        C  353   4.321   4.110   3.748
    1C        C  354   4.181   4.269   3.870
    1C        C  355   4.279   4.167   3.870
    1C        C  356   4.123   4.312   3.992
    1C        C  357   4.173   4.264   4.115
    1C        C  358   4.015   4.408   4.230
    1C        C  359   4.126   4.321   4.235
    1C        C  360   3.957   4.448   4.352
    1C        C  361   4.019   4.419   4.475
    1C        C  362   3.833   4.525   4.594
    1C        C  363   3.959   4.463   4.596
    1C        C  364   3.767   4.553   4.716
    1C        C  365   3.840   4.543   4.837
    1C        C  366   3.631   4.594   4.955
    1C        C  367   3.769   4.573   4.954
    1C        C  368   4.510   3.566   2.053
    1C        C  369   4.521   3.491   2.171
    1C        C  370   4.496   3.708   2.291
    1C        C  371   4.520   3.568   2.289
    1C        C  372   4.482   3.780   2.411
    1C        C  373   4.498   3.710   2.533
    1C        C  374   4.428   3.912   2.653
    1C        C  375   4.478   3.780   2.654
    1C        C  376   4.402   3.980   2.774
    1C        C  377   4.430   3.916   2.897
    1C        C  378   4.322   4.097   3.017
    1C        C  379   4.402   3.981   3.020
    1C        C  380   4.275   4.156   3.137
    1C        C  381   4.316   4.099   3.260
    1C        C  382   4.179   4.259   3.382
    1C        C  383   4.276   4.156   3.382
    1C        C  384   4.122   4.308   3.501
    1C        C  385   4.174   4.264   3.625
    1C        C  386   4.011   4.396   3.746
    1C        C  387   4.129   4.317   3.748
    1C        C  388   3.947   4.431   3.866
    1C        C  389   4.009   4.395   3.988
    1C        C  390   3.819   4.493   4.110
    1C        C  391   3.949   4.438   4.109
    1C        C  392   3.756   4.524   4.233
    1C        C  393   3.829   4.508   4.353
    1C        C  394   3.622   4.561   4.477
    1C        C  395   3.762   4.540   4.473
    1C        C  396   3.551   4.576   4.598
    1C        C  397   3.628   4.574   4.717
    1C        C  398   3.416   4.554   4.839
    1C        C  399   3.555   4.579   4.838
    1C        C  400   3.342   4.526   4.954
    1C        C  401   4.500   3.705   2.053
    1C        C  402   4.457   3.918   2.170
    1C        C  403   4.489   3.781   2.170
    1C        C  404   4.416   3.983   2.289
    1C        C  405   4.432   3.913   2.410
    1C        C  406   4.321   4.095   2.529
    1C        C  407   4.399   3.978   2.531
    1C        C  408   4.279   4.152   2.651
    1C        C  409   4.321   4.096   2.774
    1C        C  410   4.178   4.254   2.894
    1C        C  411   4.274   4.150   2.895
    1C        C  412   4.123   4.303   3.015
    1C        C  413   4.178   4.258   3.137
    1C        C  414   4.006   4.380   3.259
    1C        C  415   4.125   4.305   3.259
    1C        C  416   3.945   4.419   3.380
    1C        C  417   4.005   4.387   3.504
    1C        C  418   3.812   4.476   3.622
    1C        C  419   3.944   4.426   3.625
    1C        C  420   3.747   4.504   3.744
    1C        C  421   3.817   4.487   3.865
    1C        C  422   3.615   4.548   3.989
    1C        C  423   3.754   4.519   3.988
    1C        C  424   3.546   4.557   4.112
    1C        C  425   3.618   4.553   4.234
    1C        C  426   3.407   4.552   4.358
    1C        C  427   3.548   4.563   4.356
    1C        C  428   3.336   4.553   4.480
    1C        C  429   3.410   4.566   4.599
    1C        C  430   3.199   4.528   4.722
    1C        C  431   3.339   4.554   4.720
    1C        C  432   3.129   4.503   4.843
    1C        C  433   3.204   4.507   4.961
    1C        C  434   4.390   4.128   2.055
    1C        C  435   4.453   4.003   2.059
    1C        C  436   4.306   4.168   2.164
    1C        C  437   4.338   4.102   2.286
    1C        C  438   4.185   4.255   2.404
    1C        C  439   4.286   4.156   2.406
    1C        C  440   4.123   4.292   2.526
    1C        C  441   4.175   4.248   2.649
    1C        C  442   4.007   4.377   2.769
    1C        C  443   4.123   4.297   2.771
    1C        C  444   3.947   4.414   2.891
    1C        C  445   4.006   4.382   3.015
    1C        C  446   3.815   4.475   3.133
    1C        C  447   3.943   4.415   3.137
    1C        C  448   3.749   4.501   3.255
    1C        C  449   3.818   4.481   3.377
    1C        C  450   3.612   4.538   3.499
    1C        C  451   3.749   4.503   3.498
    1C        C  452   3.542   4.550   3.621
    1C        C  453   3.612   4.547   3.744
    1C        C  454   3.403   4.552   3.867
    1C        C  455   3.544   4.559   3.867
    1C        C  456   3.333   4.543   3.990
    1C        C  457   3.405   4.550   4.111
    1C        C  458   3.201   4.507   4.239
    1C        C  459   3.338   4.540   4.235
    1C        C  460   3.131   4.492   4.360
    1C        C  461   3.197   4.523   4.481
    1C        C  462   3.002   4.440   4.605
    1C        C  463   3.128   4.505   4.603
    1C        C  464   2.938   4.400   4.724
    1C        C  465   2.996   4.450   4.844
    1C        C  466   2.805   4.345   4.960
    1C        C  467   2.909   4.439   4.958
    1C        C  468   4.126   4.286   2.043
    1C        C  469   4.192   4.253   2.162
    1C        C  470   4.012   4.377   2.281
    1C        C  471   4.134   4.303   2.282
    1C        C  472   3.944   4.405   2.402
    1C        C  473   4.007   4.372   2.524
    1C        C  474   3.819   4.472   2.646
    1C        C  475   3.947   4.412   2.646
    1C        C  476   3.748   4.492   2.767
    1C        C  477   3.817   4.471   2.888
    1C        C  478   3.611   4.523   3.012
    1C        C  479   3.750   4.498   3.010
    1C        C  480   3.540   4.536   3.134
    1C        C  481   3.610   4.529   3.256
    1C        C  482   3.399   4.540   3.379
    1C        C  483   3.540   4.543   3.378
    1C        C  484   3.331   4.529   3.503
    1C        C  485   3.401   4.546   3.624
    1C        C  486   3.194   4.505   3.749
    1C        C  487   3.330   4.543   3.747
    1C        C  488   3.128   4.486   3.873
    1C        C  489   3.196   4.510   3.994
    1C        C  490   3.007   4.419   4.118
    1C        C  491   3.132   4.486   4.117
    1C        C  492   2.948   4.384   4.242
    1C        C  493   3.005   4.428   4.363
    1C        C  494   2.833   4.304   4.488
    1C        C  495   2.943   4.394   4.485
    1C        C  496   2.776   4.258   4.609
    1C        C  497   2.824   4.316   4.728
    1C        C  498   2.669   4.167   4.850
    1C        C  499   2.759   4.275   4.847
    1C        C  500   2.599   4.118   4.962
    1C        C  501   4.004   4.354   2.043
    1C        C  502   3.818   4.465   2.161
    1C        C  503   3.947   4.407   2.159
    1C        C  504   3.748   4.487   2.281
    1C        C  505   3.813   4.456   2.403
    1C        C  506   3.610   4.516   2.524
    1C        C  507   3.748   4.484   2.525
    1C        C  508   3.540   4.523   2.646
    1C        C  509   3.611   4.523   2.769
    1C        C  510   3.398   4.534   2.891
    1C        C  511   3.539   4.528   2.891
    1C        C  512   3.326   4.529   3.012
    1C        C  513   3.399   4.541   3.132
    1C        C  514   3.193   4.498   3.258
    1C        C  515   3.330   4.532   3.256
    1C        C  516   3.127   4.470   3.380
    1C        C  517   3.195   4.491   3.502
    1C        C  518   3.005   4.411   3.627
    1C        C  519   3.132   4.472   3.627
    1C        C  520   2.950   4.370   3.751
    1C        C  521   3.008   4.411   3.873
    1C        C  522   2.848   4.275   3.999
    1C        C  523   2.953   4.370   3.997
    1C        C  524   2.795   4.235   4.124
    1C        C  525   2.842   4.290   4.244
    1C        C  526   2.703   4.133   4.366
    1C        C  527   2.790   4.245   4.368
    1C        C  528   2.656   4.080   4.488
    1C        C  529   2.688   4.147   4.607
    1C        C  530   2.591   3.963   4.736
    1C        C  531   2.644   4.095   4.731
    1C        C  532   2.545   3.903   4.857
    1C        C  533   2.529   3.997   4.964
    1C        C  534   3.619   4.560   2.042
    1C        C  535   3.750   4.511   2.047
    1C        C  536   3.538   4.541   2.158
    1C        C  537   3.609   4.519   2.280
    1C        C  538   3.397   4.523   2.403
    1C        C  539   3.539   4.525   2.402
    1C        C  540   3.327   4.523   2.525
    1C        C  541   3.399   4.524   2.647
    1C        C  542   3.190   4.491   2.769
    1C        C  543   3.328   4.520   2.769
    1C        C  544   3.124   4.466   2.892
    1C        C  545   3.191   4.486   3.014
    1C        C  546   3.000   4.402   3.136
    1C        C  547   3.124   4.469   3.138
    1C        C  548   2.942   4.367   3.260
    1C        C  549   3.000   4.408   3.382
    1C        C  550   2.837   4.278   3.508
    1C        C  551   2.943   4.371   3.506
    1C        C  552   2.790   4.228   3.632
    1C        C  553   2.842   4.279   3.753
    1C        C  554   2.708   4.119   3.878
    1C        C  555   2.794   4.231   3.877
    1C        C  556   2.663   4.065   4.001
    1C        C  557   2.703   4.127   4.121
    1C        C  558   2.604   3.943   4.250
    1C        C  559   2.667   4.070   4.245
    1C        C  560   2.575   3.881   4.373
    1C        C  561   2.593   3.953   4.493
    1C        C  562   2.538   3.753   4.617
    1C        C  563   2.568   3.891   4.617
    1C        C  564   2.523   3.685   4.740
    1C        C  565   2.526   3.761   4.860
    1C        C  566   2.529   3.550   4.977
    1C        C  567   2.531   3.689   4.979
    1C        C  568   3.330   4.483   2.042
    1C        C  569   3.398   4.518   2.160
    1C        C  570   3.188   4.474   2.285
    1C        C  571   3.326   4.509   2.282
    1C        C  572   3.121   4.454   2.407
    1C        C  573   3.191   4.486   2.526
    1C        C  574   2.994   4.406   2.650
    1C        C  575   3.122   4.467   2.648
    1C        C  576   2.937   4.363   2.772
    1C        C  577   3.001   4.398   2.893
    1C        C  578   2.835   4.267   3.018
    1C        C  579   2.937   4.364   3.015
    1C        C  580   2.783   4.224   3.142
    1C        C  581   2.835   4.275   3.262
    1C        C  582   2.705   4.112   3.388
    1C        C  583   2.787   4.227   3.386
    1C        C  584   2.668   4.055   3.512
    1C        C  585   2.704   4.116   3.635
    1C        C  586   2.597   3.935   3.758
    1C        C  587   2.663   4.060   3.758
    1C        C  588   2.570   3.874   3.882
    1C        C  589   2.599   3.939   4.004
    1C        C  590   2.540   3.739   4.130
    1C        C  591   2.578   3.875   4.129
    1C        C  592   2.520   3.674   4.254
    1C        C  593   2.532   3.746   4.375
    1C        C  594   2.516   3.538   4.501
    1C        C  595   2.521   3.679   4.498
    1C        C  596   2.523   3.467   4.623
    1C        C  597   2.522   3.542   4.743
    1C        C  598   2.542   3.328   4.866
    1C        C  599   2.532   3.469   4.863
    1C        C  600   2.539   3.251   4.983
    1C        C  601   3.200   4.440   2.048
    1C        C  602   2.985   4.397   2.162
    1C        C  603   3.120   4.444   2.163
    1C        C  604   2.927   4.362   2.287
    1C        C  605   2.990   4.402   2.407
    1C        C  606   2.821   4.278   2.532
    1C        C  607   2.930   4.368   2.531
    1C        C  608   2.771   4.226   2.654
    1C        C  609   2.826   4.275   2.774
    1C        C  610   2.692   4.110   2.898
    1C        C  611   2.781   4.220   2.896
    1C        C  612   2.663   4.049   3.022
    1C        C  613   2.700   4.109   3.145
    1C        C  614   2.591   3.930   3.269
    1C        C  615   2.659   4.053   3.268
    1C        C  616   2.570   3.865   3.393
    1C        C  617   2.603   3.930   3.514
    1C        C  618   2.528   3.732   3.641
    1C        C  619   2.573   3.866   3.637
    1C        C  620   2.516   3.665   3.765
    1C        C  621   2.535   3.737   3.884
    1C        C  622   2.514   3.528   4.012
    1C        C  623   2.525   3.669   4.008
    1C        C  624   2.517   3.462   4.137
    1C        C  625   2.514   3.533   4.259
    1C        C  626   2.541   3.324   4.380
    1C        C  627   2.514   3.463   4.381
    1C        C  628   2.561   3.257   4.503
    1C        C  629   2.536   3.326   4.623
    1C        C  630   2.592   3.120   4.747
    1C        C  631   2.555   3.257   4.745
    1C        C  632   2.617   3.052   4.870
    1C        C  633   2.562   3.113   4.987
    1C        C  634   2.781   4.306   2.058
    1C        C  635   2.890   4.394   2.055
    1C        C  636   2.752   4.231   2.172
    1C        C  637   2.814   4.276   2.291
    1C        C  638   2.681   4.114   2.414
    1C        C  639   2.763   4.229   2.413
    1C        C  640   2.644   4.050   2.535
    1C        C  641   2.686   4.113   2.655
    1C        C  642   2.587   3.925   2.779
    1C        C  643   2.652   4.051   2.777
    1C        C  644   2.568   3.858   2.902
    1C        C  645   2.596   3.924   3.024
    1C        C  646   2.526   3.727   3.151
    1C        C  647   2.566   3.862   3.147
    1C        C  648   2.516   3.659   3.275
    1C        C  649   2.531   3.729   3.397
    1C        C  650   2.510   3.520   3.522
    1C        C  651   2.519   3.660   3.520
    1C        C  652   2.516   3.453   3.647
    1C        C  653   2.516   3.524   3.769
    1C        C  654   2.539   3.315   3.892
    1C        C  655   2.516   3.454   3.892
    1C        C  656   2.557   3.250   4.017
    1C        C  657   2.541   3.323   4.136
    1C        C  658   2.604   3.121   4.263
    1C        C  659   2.555   3.253   4.259
    1C        C  660   2.638   3.059   4.385
    1C        C  661   2.606   3.123   4.507
    1C        C  662   2.714   2.940   4.628
    1C        C  663   2.633   3.056   4.628
    1C        C  664   2.753   2.883   4.751
    1C        C  665   2.701   2.936   4.872
    1C        C  666   2.750   2.877   4.989
    1C        C  667   2.689   4.027   2.056
    1C        C  668   2.688   4.105   2.172
    1C        C  669   2.594   3.915   2.293
    1C        C  670   2.648   4.047   2.294
    1C        C  671   2.557   3.855   2.416
    1C        C  672   2.584   3.923   2.537
    1C        C  673   2.516   3.722   2.662
    1C        C  674   2.557   3.857   2.659
    1C        C  675   2.511   3.650   2.784
    1C        C  676   2.529   3.722   2.904
    1C        C  677   2.510   3.517   3.033
    1C        C  678   2.514   3.658   3.028
    1C        C  679   2.509   3.447   3.156
    1C        C  680   2.505   3.519   3.278
    1C        C  681   2.530   3.308   3.403
    1C        C  682   2.510   3.448   3.400
    1C        C  683   2.556   3.244   3.526
    1C        C  684   2.539   3.313   3.647
    1C        C  685   2.601   3.112   3.773
    1C        C  686   2.553   3.245   3.770
    1C        C  687   2.635   3.052   3.897
    1C        C  688   2.603   3.116   4.019
    1C        C  689   2.715   2.937   4.142
    1C        C  690   2.638   3.056   4.142
    1C        C  691   2.756   2.882   4.265
    1C        C  692   2.712   2.938   4.387
    1C        C  693   2.755   2.878   4.508
    1C        C  694   2.633   3.899   2.061
    1C        C  695   2.530   3.707   2.178
    1C        C  696   2.577   3.840   2.175
    1C        C  697   2.510   3.642   2.301
    1C        C  698   2.522   3.718   2.420
    1C        C  699   2.489   3.509   2.547
    1C        C  700   2.503   3.649   2.542
    1C        C  701   2.501   3.437   2.668
    1C        C  702   2.504   3.509   2.789
    1C        C  703   2.526   3.302   2.910
    1C        C  704   2.511   3.442   2.914
    1C        C  705   2.547   3.239   3.034
    1C        C  706   2.535   3.308   3.157
    1C        C  707   2.601   3.110   3.281
    1C        C  708   2.546   3.240   3.280
    1C        C  709   2.632   3.047   3.403
    1C        C  710   2.605   3.111   3.527
    1C        C  711   2.712   2.932   3.650
    1C        C  712   2.634   3.050   3.651
    1C        C  713   2.755   2.879   3.774
    1C        C  714   2.717   2.937   3.897
    1C        C  715   2.761   2.883   4.020
    1C        C  716   2.454   3.503   2.065
    1C        C  717   2.496   3.636   2.062
    1C        C  718   2.471   3.427   2.185
    1C        C  719   2.489   3.501   2.305
    1C        C  720   2.509   3.292   2.428
    1C        C  721   2.492   3.432   2.428
    1C        C  722   2.525   3.220   2.548
    1C        C  723   2.514   3.297   2.667
    1C        C  724   2.582   3.095   2.792
    1C        C  725   2.541   3.230   2.789
    1C        C  726   2.626   3.039   2.914
    1C        C  727   2.599   3.107   3.034
    1C        C  728   2.714   2.932   3.160
    1C        C  729   2.630   3.046   3.158
    1C        C  730   2.755   2.876   3.283
    1C        C  731   2.713   2.932   3.406
    1C        C  732   2.759   2.878   3.529
    1C        C  733   2.485   3.202   2.076
    1C        C  734   2.488   3.285   2.189
    1C        C  735   2.581   3.088   2.309
    1C        C  736   2.525   3.218   2.309
    1C        C  737   2.614   3.023   2.430
    1C        C  738   2.580   3.089   2.550
    1C        C  739   2.697   2.915   2.674
    1C        C  740   2.610   3.026   2.672
    1C        C  741   2.747   2.862   2.795
    1C        C  742   2.705   2.922   2.916
    1C        C  743   2.755   2.872   3.039
    1C        C  744   2.537   3.072   2.076
    1C        C  745   2.681   2.901   2.191
    1C        C  746   2.605   3.020   2.187
    1C        C  747   2.733   2.844   2.309
    1C        C  748   2.692   2.905   2.429
    1C        C  749   2.738   2.855   2.553
    1C        C  750   2.729   2.839   2.074
    1C        C  751   3.668   2.333   1.971
    1C        O  752   3.639   2.211   1.980
    1C        O  753   3.677   2.376   1.838
    1C        C  754   4.621   3.049   1.977
    1C        O  755   4.582   3.030   1.859
    1C        O  756   4.716   2.951   2.007
    1C        C  757   4.449   4.233   1.970
    1C        O  758   4.555   4.294   2.000
    1C        O  759   4.401   4.239   1.838
    1C        C  760   3.605   4.672   1.946
    1C        O  761   3.542   4.778   1.974
    1C        O  762   3.639   4.666   1.811
    1C        C  763   2.895   4.498   1.950
    1C        O  764   2.904   4.479   1.826
    1C        O  765   2.833   4.620   1.982
    1C        C  766   2.353   3.474   1.961
    1C        O  767   2.382   3.482   1.838
    1C        O  768   2.231   3.532   2.000
    1C        C  769   4.658   3.584   5.089
    1C        O  770   4.598   3.577   5.200
    1C        O  771   4.795   3.609   5.103
    1C        C  772   4.283   4.465   5.025
    1C        O  773   4.277   4.487   5.149
    1C        O  774   4.365   4.567   4.976
    1C        C  775   4.151   2.512   5.063
    1C        O  776   4.225   2.428   5.006
    1C        O  777   4.181   2.545   5.196
    1C        C  778   2.897   4.541   5.065
    1C        O  779   2.822   4.640   5.044
    1C        O  780   2.918   4.508   5.199
    1C        C  781   2.463   3.042   5.070
    1C        O  782   2.373   2.977   5.010
    1C        O  783   2.467   3.051   5.209
    1C        C  784   2.416   3.988   5.059
    1C        O  785   2.304   4.041   5.036
    1C        O  786   2.426   3.974   5.198
    1C        C  787   2.952   2.454   1.985
    1C        O  788   2.970   2.450   1.860
    1C        O  789   2.886   2.342   2.033
    1C        C  790   3.168   2.376   5.056
    1C        O  791   3.178   2.264   4.999
    1C        O  792   3.223   2.372   5.185
    1C        H  793   4.264   3.041   5.047
    1C        H  794   4.183   2.818   5.074
    1C        H  795   4.484   3.142   5.071
    1C        H  796   4.565   3.360   5.064
    1C        H  797   4.616   3.826   5.017
    1C        H  798   4.420   3.973   5.055
    1C        H  799   4.318   4.192   5.052
    1C        H  800   4.032   4.539   5.032
    1C        H  801   3.820   4.639   5.021
    1C        H  802   3.583   4.646   5.035
    1C        H  803   3.397   4.513   5.045
    1C        H  804   3.160   4.508   5.058
    1C        H  805   3.885   2.503   5.073
    1C        H  806   3.679   2.437   5.069
    1C        H  807   3.022   2.591   5.076
    1C        H  808   3.437   2.500   5.079
    1C        H  809   2.832   2.702   5.067
    1C        H  810   2.750   2.935   5.079
    1C        H  811   2.524   3.302   5.076
    1C        H  812   2.475   3.506   5.059
    1C        H  813   2.490   3.736   5.066
    1C        H  814   2.564   4.192   5.031
    1C        H  815   2.776   4.304   5.055
    1C        H  816   2.674   2.850   1.983
    1C        H  817   2.878   2.722   1.980
    1C        H  818   3.196   2.385   2.025
    1C        H  819   3.425   2.374   2.007
    1C        H  820   3.862   2.523   1.972
    1C        H  821   4.079   2.596   1.975
    1C        H  822   4.266   2.714   1.980
    1C        H  823   4.411   2.898   1.977
    1C        H  824   4.580   3.308   1.965
    1C        H  825   4.492   3.512   1.963
    1C        H  826   4.479   3.750   1.958
    1C        H  827   3.802   4.512   1.953
    1C        H  828   3.986   4.401   1.949
    1C        H  829   4.177   4.269   1.951
    1C        H  830   4.496   3.960   1.970
    1C        H  831   2.666   3.841   1.977
    1C        H  832   2.752   4.054   1.974
    1C        H  833   2.724   4.293   1.968
    1C        H  834   3.358   4.522   1.946
    1C        H  835   3.157   4.405   1.956
    1C        H  836   2.534   3.027   1.980
    1C        H  837   2.413   3.218   1.999
    1C        H  838   2.479   3.689   1.970
    2V3OU   H29  839   2.803   3.557   2.252
    2V3OU   C27  840   2.789   3.507   2.352
    2V3OU   H27  841   2.732   3.570   2.424
    2V3OU   H28  842   2.731   3.412   2.335
    2V3OU   O11  843   2.919   3.479   2.404
    2V3OU   C15  844   2.927   3.406   2.521
    2V3OU   C13  845   3.055   3.381   2.575
    2V3OU   C14  846   3.083   3.275   2.662
    2V3OU   C16  847   2.979   3.192   2.703
    2V3OU    H6  848   2.995   3.108   2.772
    2V3OU   C12  849   3.219   3.231   2.697
    2V3OU    O2  850   3.243   3.125   2.759
    2V3OU   C10  851   3.333   3.313   2.653
    2V3OU    C8  852   3.461   3.273   2.692
    2V3OU   O10  853   3.494   3.160   2.760
    2V3OU   H26  854   3.408   3.121   2.784
    2V3OU    C6  855   3.568   3.358   2.652
    2V3OU    C5  856   3.540   3.476   2.585
    2V3OU    C4  857   3.705   3.298   2.654
    2V3OU    H4  858   3.726   3.228   2.740
    2V3OU    H5  859   3.717   3.234   2.562
    2V3OU    C2  860   3.821   3.397   2.663
    2V3OU    O6  861   3.815   3.480   2.780
    2V3OU   H21  862   3.771   3.556   2.739
    2V3OU    C3  863   3.788   3.498   2.553
    2V3OU    H2  864   3.868   3.577   2.548
    2V3OU    H3  865   3.792   3.445   2.455
    2V3OU   C25  866   3.953   3.322   2.649
    2V3OU    O7  867   3.999   3.292   2.539
    2V3OU   C26  868   4.029   3.288   2.776
    2V3OU   H22  869   4.070   3.382   2.821
    2V3OU   H23  870   4.120   3.226   2.752
    2V3OU    O8  871   3.962   3.211   2.874
    2V3OU   H24  872   3.925   3.274   2.938
    2V3OU    C1  873   3.655   3.571   2.566
    2V3OU    H1  874   3.632   3.622   2.468
    2V3OU    O3  875   3.660   3.655   2.682
    2V3OU   C19  876   3.629   3.794   2.669
    2V3OU    H9  877   3.531   3.804   2.615
    2V3OU    O4  878   3.719   3.855   2.580
    2V3OU   C20  879   3.847   3.878   2.639
    2V3OU   H10  880   3.896   3.778   2.661
    2V3OU   C24  881   3.619   3.858   2.808
    2V3OU   H16  882   3.553   3.796   2.875
    2V3OU   H17  883   3.568   3.954   2.782
    2V3OU   C23  884   3.754   3.882   2.875
    2V3OU   H15  885   3.797   3.778   2.890
    2V3OU    N1  886   3.745   3.954   3.000
    2V3OU   H19  887   3.811   3.928   3.071
    2V3OU   H20  888   3.651   3.937   3.030
    2V3OU   C21  889   3.851   3.950   2.774
    2V3OU   H11  890   3.956   3.932   2.810
    2V3OU    O5  891   3.831   4.091   2.782
    2V3OU   H18  892   3.792   4.102   2.870
    2V3OU   C22  893   3.914   3.958   2.528
    2V3OU   H12  894   3.863   4.057   2.516
    2V3OU   H13  895   3.909   3.900   2.432
    2V3OU   H14  896   4.024   3.967   2.551
    2V3OU   C11  897   3.163   3.477   2.551
    2V3OU    O1  898   3.142   3.596   2.519
    2V3OU    C9  899   3.301   3.432   2.583
    2V3OU    C7  900   3.407   3.515   2.551
    2V3OU    O9  901   3.391   3.622   2.465
    2V3OU   H25  902   3.295   3.636   2.459
    2V3OU   C17  903   2.828   3.315   2.560
    2V3OU    H7  904   2.726   3.352   2.549
    2V3OU   C18  905   2.853   3.210   2.647
    2V3OU    H8  906   2.776   3.166   2.713
    3SOL     OW  907   2.956   4.905   0.601
    3SOL    HW1  908   2.982   4.976   0.535
    3SOL    HW2  909   2.881   4.939   0.658
    4SOL     OW  910   0.112   6.452   2.240
    4SOL    HW1  911   0.117   6.519   2.166
    4SOL    HW2  912   0.130   6.497   2.328
    5SOL     OW  913   4.334   1.450   2.610
    5SOL    HW1  914   4.252   1.448   2.668
    5SOL    HW2  915   4.406   1.500   2.658
    6SOL     OW  916   4.117   0.729   1.647
    6SOL    HW1  917   4.148   0.818   1.682
    6SOL    HW2  918   4.122   0.730   1.547
    7SOL     OW  919   6.800   3.199   2.318
    7SOL    HW1  920   6.840   3.108   2.328
    7SOL    HW2  921   6.862   3.267   2.358
    8SOL     OW  922   3.295   0.635   0.134
    8SOL    HW1  923   3.215   0.606   0.080
    8SOL    HW2  924   3.334   0.557   0.182
    9SOL     OW  925   5.630   0.336   6.288
    9SOL    HW1  926   5.561   0.264   6.277
    9SOL    HW2  927   5.589   0.414   6.335
   10SOL     OW  928   1.439   5.118   6.543
   10SOL    HW1  929   1.535   5.114   6.570
   10SOL    HW2  930   1.416   5.035   6.491
   11SOL     OW  931   2.872   0.065   6.075
   11SOL    HW1  932   2.866   7.002   6.112
   11SOL    HW2  933   2.787   0.087   6.026
   12SOL     OW  934   3.783   5.866   3.387
   12SOL    HW1  935   3.819   5.949   3.345
   12SOL    HW2  936   3.757   5.800   3.316
   13SOL     OW  937   4.179   6.250   4.151
   13SOL    HW1  938   4.142   6.340   4.129
   13SOL    HW2  939   4.203   6.202   4.066
   14SOL     OW  940   3.378   6.051   5.751
   14SOL    HW1  941   3.339   6.135   5.713
   14SOL    HW2  942   3.462   6.028   5.701
   15SOL     OW  943   1.167   6.162   1.866
   15SOL    HW1  944   1.123   6.239   1.819
   15SOL    HW2  945   1.266   6.172   1.861
   16SOL     OW  946   4.896   2.777   5.911
   16SOL    HW1  947   4.974   2.838   5.900
   16SOL    HW2  948   4.831   2.818   5.974
   17SOL     OW  949   5.216   6.238   5.895
   17SOL    HW1  950   5.263   6.287   5.967
   17SOL    HW2  951   5.133   6.288   5.869
   18SOL     OW  952   3.399   1.279   5.818
   18SOL    HW1  953   3.316   1.305   5.769
   18SOL    HW2  954   3.476   1.332   5.783
   19SOL     OW  955   0.255   1.446   3.181
   19SOL    HW1  956   0.269   1.366   3.122
   19SOL    HW2  957   0.290   1.528   3.135
   20SOL     OW  958   5.376   1.839   4.148
   20SOL    HW1  959   5.361   1.877   4.239
   20SOL    HW2  960   5.448   1.770   4.153
   21SOL     OW  961   3.577   1.679   2.227
   21SOL    HW1  962   3.519   1.723   2.296
   21SOL    HW2  963   3.575   1.733   2.143
   22SOL     OW  964   2.449   6.503   0.471
   22SOL    HW1  965   2.467   6.440   0.548
   22SOL    HW2  966   2.499   6.588   0.486
   23SOL     OW  967   5.413   5.769   3.233
   23SOL    HW1  968   5.469   5.848   3.209
   23SOL    HW2  969   5.317   5.790   3.215
   24SOL     OW  970   4.431   0.452   3.394
   24SOL    HW1  971   4.504   0.518   3.409
   24SOL    HW2  972   4.389   0.428   3.482
   25SOL     OW  973   3.112   0.506   4.774
   25SOL    HW1  974   3.133   0.588   4.720
   25SOL    HW2  975   3.162   0.428   4.737
   26SOL     OW  976   0.621   0.890   0.079
   26SOL    HW1  977   0.638   0.881   0.177
   26SOL    HW2  978   0.586   0.981   0.059
   27SOL     OW  979   0.937   2.388   2.427
   27SOL    HW1  980   0.884   2.433   2.355
   27SOL    HW2  981   0.980   2.458   2.485
   28SOL     OW  982   3.108   2.047   5.572
   28SOL    HW1  983   3.104   2.040   5.472
   28SOL    HW2  984   3.117   2.143   5.598
   29SOL     OW  985   6.125   1.562   1.812
   29SOL    HW1  986   6.063   1.485   1.830
   29SOL    HW2  987   6.208   1.528   1.767
   30SOL     OW  988   4.213   0.687   4.229
   30SOL    HW1  989   4.297   0.725   4.191
   30SOL    HW2  990   4.208   0.709   4.327
   31SOL     OW  991   0.847   2.642   6.548
   31SOL    HW1  992   0.783   2.565   6.535
   31SOL    HW2  993   0.914   2.617   6.617
   32SOL     OW  994   0.491   1.754   2.366
   32SOL    HW1  995   0.521   1.678   2.309
   32SOL    HW2  996   0.570   1.791   2.415
   33SOL     OW  997   1.897   4.372   6.117
   33SOL    HW1  998   1.920   4.384   6.021
   33SOL    HW2  999   1.853   4.455   6.151
   34SOL     OW 1000   2.663   0.222   4.487
   34SOL    HW1 1001   2.742   0.213   4.548
   34SOL    HW2 1002   2.670   0.307   4.435
   35SOL     OW 1003   3.616   4.028   6.906
   35SOL    HW1 1004   3.617   4.106   6.843
   35SOL    HW2 1005   3.705   4.019   6.949
   36SOL     OW 1006   6.077   1.080   4.856
   36SOL    HW1 1007   6.095   1.009   4.788
   36SOL    HW2 1008   5.981   1.076   4.883
   37SOL     OW 1009   1.227   1.650   0.260
   37SOL    HW1 1010   1.247   1.611   0.170
   37SOL    HW2 1011   1.224   1.577   0.328
   38SOL     OW 1012   6.908   4.759   2.340
   38SOL    HW1 1013   6.847   4.770   2.263
   38SOL    HW2 1014   7.001   4.784   2.313
   39SOL     OW 1015   0.017   4.895   6.785
   39SOL    HW1 1016   0.057   4.986   6.772
   39SOL    HW2 1017   0.089   4.826   6.777
   40SOL     OW 1018   4.912   1.551   0.363
   40SOL    HW1 1019   4.986   1.571   0.427
   40SOL    HW2 1020   4.847   1.489   0.405
   41SOL     OW 1021   6.737   5.330   3.259
   41SOL    HW1 1022   6.738   5.362   3.354
   41SOL    HW2 1023   6.653   5.362   3.215
   42SOL     OW 1024   3.071   5.263   5.171
   42SOL    HW1 1025   3.032   5.180   5.211
   42SOL    HW2 1026   3.063   5.338   5.236
   43SOL     OW 1027   6.139   0.105   5.568
   43SOL    HW1 1028   6.214   0.095   5.634
   43SOL    HW2 1029   6.085   0.021   5.566
   44SOL     OW 1030   4.372   1.598   6.123
   44SOL    HW1 1031   4.407   1.692   6.116
   44SOL    HW2 1032   4.443   1.538   6.158
   45SOL     OW 1033   4.131   5.890   2.589
   45SOL    HW1 1034   4.198   5.922   2.655
   45SOL    HW2 1035   4.056   5.955   2.583
   46SOL     OW 1036   0.414   2.827   2.901
   46SOL    HW1 1037   0.465   2.898   2.854
   46SOL    HW2 1038   0.352   2.868   2.968
   47SOL     OW 1039   5.127   4.356   0.796
   47SOL    HW1 1040   5.171   4.401   0.718
   47SOL    HW2 1041   5.159   4.261   0.801
   48SOL     OW 1042   0.273   3.045   5.772
   48SOL    HW1 1043   0.345   3.106   5.739
   48SOL    HW2 1044   0.253   3.066   5.868
   49SOL     OW 1045   5.065   4.014   1.666
   49SOL    HW1 1046   5.090   3.934   1.720
   49SOL    HW2 1047   5.128   4.024   1.589
   50SOL     OW 1048   5.503   0.839   4.908
   50SOL    HW1 1049   5.549   0.881   4.986
   50SOL    HW2 1050   5.568   0.826   4.833
   51SOL     OW 1051   2.446   6.845   2.954
   51SOL    HW1 1052   2.456   6.917   2.884
   51SOL    HW2 1053   2.434   6.888   3.043
   52SOL     OW 1054   5.951   3.081   2.496
   52SOL    HW1 1055   5.996   3.080   2.585
   52SOL    HW2 1056   5.996   3.016   2.436
   53SOL     OW 1057   3.665   6.658   4.156
   53SOL    HW1 1058   3.568   6.684   4.155
   53SOL    HW2 1059   3.680   6.583   4.092
   54SOL     OW 1060   3.392   5.134   1.103
   54SOL    HW1 1061   3.352   5.043   1.100
   54SOL    HW2 1062   3.450   5.143   1.184
   55SOL     OW 1063   2.541   2.650   6.209
   55SOL    HW1 1064   2.459   2.594   6.219
   55SOL    HW2 1065   2.568   2.687   6.298
   56SOL     OW 1066   0.137   0.040   0.877
   56SOL    HW1 1067   0.223   0.017   0.831
   56SOL    HW2 1068   0.060   0.020   0.816
   57SOL     OW 1069   4.699   0.896   1.323
   57SOL    HW1 1070   4.749   0.945   1.252
   57SOL    HW2 1071   4.758   0.825   1.362
   58SOL     OW 1072   0.392   6.301   5.636
   58SOL    HW1 1073   0.319   6.232   5.626
   58SOL    HW2 1074   0.382   6.370   5.564
   59SOL     OW 1075   1.156   2.272   5.462
   59SOL    HW1 1076   1.171   2.196   5.526
   59SOL    HW2 1077   1.058   2.289   5.453
   60SOL     OW 1078   5.212   2.526   5.076
   60SOL    HW1 1079   5.184   2.561   4.987
   60SOL    HW2 1080   5.307   2.495   5.070
   61SOL     OW 1081   6.115   2.249   4.595
   61SOL    HW1 1082   6.107   2.346   4.573
   61SOL    HW2 1083   6.115   2.195   4.511
   62SOL     OW 1084   0.869   1.150   1.781
   62SOL    HW1 1085   0.818   1.224   1.736
   62SOL    HW2 1086   0.966   1.156   1.755
   63SOL     OW 1087   5.366   1.344   3.497
   63SOL    HW1 1088   5.275   1.304   3.485
   63SOL    HW2 1089   5.429   1.273   3.529
   64SOL     OW 1090   0.084   3.478   5.741
   64SOL    HW1 1091   0.183   3.470   5.754
   64SOL    HW2 1092   0.039   3.405   5.793
   65SOL     OW 1093   0.635   4.872   6.161
   65SOL    HW1 1094   0.688   4.830   6.235
   65SOL    HW2 1095   0.625   4.970   6.179
   66SOL     OW 1096   4.218   1.194   5.334
   66SOL    HW1 1097   4.141   1.212   5.273
   66SOL    HW2 1098   4.287   1.264   5.322
   67SOL     OW 1099   5.420   3.850   5.915
   67SOL    HW1 1100   5.365   3.770   5.941
   67SOL    HW2 1101   5.391   3.929   5.969
   68SOL     OW 1102   5.956   1.086   6.617
   68SOL    HW1 1103   6.036   1.146   6.624
   68SOL    HW2 1104   5.941   1.061   6.522
   69SOL     OW 1105   0.778   3.248   5.924
   69SOL    HW1 1106   0.751   3.289   5.837
   69SOL    HW2 1107   0.852   3.301   5.964
   70SOL     OW 1108   5.498   4.294   5.013
   70SOL    HW1 1109   5.444   4.337   4.941
   70SOL    HW2 1110   5.592   4.283   4.983
   71SOL     OW 1111   4.539   1.638   3.149
   71SOL    HW1 1112   4.475   1.565   3.175
   71SOL    HW2 1113   4.619   1.598   3.105
   72SOL     OW 1114   2.149   6.749   4.252
   72SOL    HW1 1115   2.055   6.723   4.274
   72SOL    HW2 1116   2.209   6.670   4.264
   73SOL     OW 1117   3.463   0.512   1.569
   73SOL    HW1 1118   3.536   0.476   1.627
   73SOL    HW2 1119   3.503   0.542   1.482
   74SOL     OW 1120   4.421   6.771   0.009
   74SOL    HW1 1121   4.451   6.844   6.978
   74SOL    HW2 1122   4.411   6.807   0.102
   75SOL     OW 1123   4.729   0.383   1.092
   75SOL    HW1 1124   4.738   0.326   1.174
   75SOL    HW2 1125   4.654   0.349   1.036
   76SOL     OW 1126   3.255   3.571   1.410
   76SOL    HW1 1127   3.341   3.522   1.402
   76SOL    HW2 1128   3.188   3.515   1.460
   77SOL     OW 1129   0.382   6.933   3.218
   77SOL    HW1 1130   0.417   6.858   3.162
   77SOL    HW2 1131   0.322   6.990   3.162
   78SOL     OW 1132   6.107   1.751   0.096
   78SOL    HW1 1133   6.124   1.808   0.016
   78SOL    HW2 1134   6.124   1.655   0.072
   79SOL     OW 1135   3.151   5.712   0.911
   79SOL    HW1 1136   3.181   5.725   1.006
   79SOL    HW2 1137   3.058   5.745   0.901
   80SOL     OW 1138   5.146   1.378   4.554
   80SOL    HW1 1139   5.147   1.417   4.462
   80SOL    HW2 1140   5.222   1.313   4.565
   81SOL     OW 1141   1.899   0.302   2.413
   81SOL    HW1 1142   1.988   0.256   2.423
   81SOL    HW2 1143   1.827   0.234   2.400
   82SOL     OW 1144   5.968   4.634   0.689
   82SOL    HW1 1145   5.991   4.557   0.750
   82SOL    HW2 1146   6.044   4.700   0.690
   83SOL     OW 1147   0.532   0.487   0.352
   83SOL    HW1 1148   0.623   0.447   0.367
   83SOL    HW2 1149   0.470   0.417   0.317
   84SOL     OW 1150   5.919   3.154   3.336
   84SOL    HW1 1151   5.831   3.196   3.358
   84SOL    HW2 1152   5.904   3.071   3.282
   85SOL     OW 1153   1.638   0.902   3.901
   85SOL    HW1 1154   1.599   0.810   3.894
   85SOL    HW2 1155   1.714   0.911   3.836
   86SOL     OW 1156   0.316   1.200   5.696
   86SOL    HW1 1157   0.237   1.178   5.754
   86SOL    HW2 1158   0.285   1.250   5.616
   87SOL     OW 1159   4.739   3.921   1.086
   87SOL    HW1 1160   4.775   3.832   1.058
   87SOL    HW2 1161   4.786   3.951   1.169
   88SOL     OW 1162   3.441   1.723   5.642
   88SOL    HW1 1163   3.395   1.801   5.683
   88SOL    HW2 1164   3.405   1.708   5.549
   89SOL     OW 1165   1.707   2.750   5.871
   89SOL    HW1 1166   1.727   2.764   5.968
   89SOL    HW2 1167   1.733   2.657   5.844
   90SOL     OW 1168   3.497   4.991   2.299
   90SOL    HW1 1169   3.586   5.034   2.314
   90SOL    HW2 1170   3.476   4.992   2.202
   91SOL     OW 1171   5.594   4.121   5.624
   91SOL    HW1 1172   5.646   4.128   5.538
   91SOL    HW2 1173   5.531   4.198   5.630
   92SOL     OW 1174   4.434   4.633   0.708
   92SOL    HW1 1175   4.425   4.610   0.611
   92SOL    HW2 1176   4.489   4.716   0.718
   93SOL     OW 1177   3.083   3.938   0.310
   93SOL    HW1 1178   3.020   3.877   0.358
   93SOL    HW2 1179   3.031   3.997   0.248
   94SOL     OW 1180   2.099   5.999   6.284
   94SOL    HW1 1181   2.086   6.082   6.230
   94SOL    HW2 1182   2.060   6.013   6.375
   95SOL     OW 1183   0.890   0.440   3.483
   95SOL    HW1 1184   0.970   0.456   3.424
   95SOL    HW2 1185   0.915   0.376   3.556
   96SOL     OW 1186   2.780   0.905   5.036
   96SOL    HW1 1187   2.772   0.806   5.045
   96SOL    HW2 1188   2.854   0.927   4.972
   97SOL     OW 1189   2.239   3.345   6.140
   97SOL    HW1 1190   2.254   3.291   6.222
   97SOL    HW2 1191   2.274   3.296   6.060
   98SOL     OW 1192   0.476   3.503   0.990
   98SOL    HW1 1193   0.569   3.525   1.022
   98SOL    HW2 1194   0.481   3.433   0.919
   99SOL     OW 1195   3.994   2.584   1.417
   99SOL    HW1 1196   4.076   2.595   1.474
   99SOL    HW2 1197   3.977   2.487   1.401
  100SOL     OW 1198   0.228   6.958   4.929
  100SOL    HW1 1199   0.244   6.861   4.948
  100SOL    HW2 1200   0.152   6.991   4.987
  101SOL     OW 1201   1.448   5.100   2.474
  101SOL    HW1 1202   1.362   5.144   2.450
  101SOL    HW2 1203   1.497   5.074   2.390
  102SOL     OW 1204   4.180   5.691   1.681
  102SOL    HW1 1205   4.230   5.611   1.649
  102SOL    HW2 1206   4.147   5.744   1.603
  103SOL     OW 1207   2.214   1.964   1.649
  103SOL    HW1 1208   2.297   1.994   1.696
  103SOL    HW2 1209   2.205   2.015   1.563
  104SOL     OW 1210   1.517   5.422   2.457
  104SOL    HW1 1211   1.459   5.450   2.381
  104SOL    HW2 1212   1.499   5.327   2.480
  105SOL     OW 1213   6.674   1.526   6.736
  105SOL    HW1 1214   6.576   1.527   6.755
  105SOL    HW2 1215   6.716   1.607   6.777
  106SOL     OW 1216   3.605   5.947   4.747
  106SOL    HW1 1217   3.526   5.905   4.701
  106SOL    HW2 1218   3.644   6.017   4.688
  107SOL     OW 1219   1.252   1.043   1.232
  107SOL    HW1 1220   1.344   1.006   1.220
  107SOL    HW2 1221   1.220   1.080   1.144
  108SOL     OW 1222   2.343   6.527   5.631
  108SOL    HW1 1223   2.366   6.434   5.604
  108SOL    HW2 1224   2.244   6.538   5.634
  109SOL     OW 1225   0.762   0.443   1.891
  109SOL    HW1 1226   0.704   0.377   1.843
  109SOL    HW2 1227   0.790   0.405   1.979
  110SOL     OW 1228   2.931   5.765   4.240
  110SOL    HW1 1229   2.864   5.832   4.271
  110SOL    HW2 1230   2.893   5.673   4.252
  111SOL     OW 1231   1.344   0.888   4.338
  111SOL    HW1 1232   1.352   0.872   4.437
  111SOL    HW2 1233   1.332   0.800   4.291
  112SOL     OW 1234   3.418   6.587   6.475
  112SOL    HW1 1235   3.426   6.687   6.472
  112SOL    HW2 1236   3.506   6.546   6.451
  113SOL     OW 1237   0.563   5.097   3.122
  113SOL    HW1 1238   0.544   5.011   3.170
  113SOL    HW2 1239   0.582   5.169   3.188
  114SOL     OW 1240   1.198   6.834   2.110
  114SOL    HW1 1241   1.225   6.761   2.173
  114SOL    HW2 1242   1.143   6.902   2.159
  115SOL     OW 1243   4.964   1.654   3.232
  115SOL    HW1 1244   4.958   1.616   3.324
  115SOL    HW2 1245   4.952   1.754   3.236
  116SOL     OW 1246   6.189   5.526   2.211
  116SOL    HW1 1247   6.114   5.541   2.275
  116SOL    HW2 1248   6.267   5.582   2.237
  117SOL     OW 1249   1.504   1.971   0.372
  117SOL    HW1 1250   1.527   1.949   0.277
  117SOL    HW2 1251   1.418   1.926   0.396
  118SOL     OW 1252   1.970   1.016   2.424
  118SOL    HW1 1253   2.029   1.063   2.490
  118SOL    HW2 1254   2.025   0.952   2.370
  119SOL     OW 1255   0.393   0.222   0.045
  119SOL    HW1 1256   0.352   0.208   6.985
  119SOL    HW2 1257   0.429   0.136   0.080
  120SOL     OW 1258   5.531   0.511   6.832
  120SOL    HW1 1259   5.516   0.562   6.747
  120SOL    HW2 1260   5.627   0.520   6.859
  121SOL     OW 1261   1.130   3.140   5.868
  121SOL    HW1 1262   1.119   3.225   5.815
  121SOL    HW2 1263   1.214   3.145   5.921
  122SOL     OW 1264   1.844   3.414   6.111
  122SOL    HW1 1265   1.799   3.451   6.029
  122SOL    HW2 1266   1.941   3.436   6.108
  123SOL     OW 1267   0.616   1.189   2.451
  123SOL    HW1 1268   0.640   1.178   2.355
  123SOL    HW2 1269   0.532   1.242   2.460
  124SOL     OW 1270   3.758   2.817   0.316
  124SOL    HW1 1271   3.686   2.754   0.287
  124SOL    HW2 1272   3.795   2.786   0.405
  125SOL     OW 1273   3.529   1.840   0.441
  125SOL    HW1 1274   3.590   1.909   0.479
  125SOL    HW2 1275   3.507   1.772   0.511
  126SOL     OW 1276   2.059   4.190   0.726
  126SOL    HW1 1277   1.969   4.227   0.749
  126SOL    HW2 1278   2.093   4.234   0.643
  127SOL     OW 1279   0.736   4.969   6.741
  127SOL    HW1 1280   0.800   5.031   6.788
  127SOL    HW2 1281   0.659   4.949   6.800
  128SOL     OW 1282   5.269   1.997   1.078
  128SOL    HW1 1283   5.185   1.959   1.039
  128SOL    HW2 1284   5.282   1.961   1.170
  129SOL     OW 1285   2.703   3.261   6.212
  129SOL    HW1 1286   2.753   3.323   6.152
  129SOL    HW2 1287   2.727   3.166   6.191
  130SOL     OW 1288   1.321   1.855   4.479
  130SOL    HW1 1289   1.345   1.873   4.384
  130SOL    HW2 1290   1.404   1.854   4.535
  131SOL     OW 1291   4.640   1.009   3.261
  131SOL    HW1 1292   4.661   1.106   3.269
  131SOL    HW2 1293   4.690   0.958   3.331
  132SOL     OW 1294   2.774   3.039   1.513
  132SOL    HW1 1295   2.839   2.990   1.571
  132SOL    HW2 1296   2.693   3.063   1.567
  133SOL     OW 1297   5.545   0.757   4.044
  133SOL    HW1 1298   5.453   0.773   4.008
  133SOL    HW2 1299   5.565   0.659   4.042
  134SOL     OW 1300   6.623   0.929   2.717
  134SOL    HW1 1301   6.578   0.983   2.646
  134SOL    HW2 1302   6.628   0.983   2.801
  135SOL     OW 1303   5.770   3.524   3.689
  135SOL    HW1 1304   5.762   3.560   3.596
  135SOL    HW2 1305   5.837   3.579   3.740
  136SOL     OW 1306   1.813   4.859   6.142
  136SOL    HW1 1307   1.837   4.939   6.087
  136SOL    HW2 1308   1.896   4.814   6.175
  137SOL     OW 1309   5.655   2.113   3.254
  137SOL    HW1 1310   5.725   2.062   3.203
  137SOL    HW2 1311   5.586   2.049   3.287
  138SOL     OW 1312   1.350   4.713   2.469
  138SOL    HW1 1313   1.407   4.648   2.519
  138SOL    HW2 1314   1.397   4.741   2.385
  139SOL     OW 1315   1.456   0.234   5.333
  139SOL    HW1 1316   1.484   0.139   5.335
  139SOL    HW2 1317   1.384   0.246   5.265
  140SOL     OW 1318   1.283   6.467   3.780
  140SOL    HW1 1319   1.356   6.462   3.712
  140SOL    HW2 1320   1.200   6.503   3.737
  141SOL     OW 1321   0.277   2.835   5.241
  141SOL    HW1 1322   0.222   2.822   5.324
  141SOL    HW2 1323   0.365   2.876   5.266
  142SOL     OW 1324   1.198   3.839   1.186
  142SOL    HW1 1325   1.238   3.792   1.265
  142SOL    HW2 1326   1.134   3.908   1.218
  143SOL     OW 1327   5.412   4.308   0.402
  143SOL    HW1 1328   5.490   4.307   0.466
  143SOL    HW2 1329   5.439   4.265   0.316
  144SOL     OW 1330   1.692   4.643   5.995
  144SOL    HW1 1331   1.694   4.640   5.895
  144SOL    HW2 1332   1.737   4.726   6.027
  145SOL     OW 1333   0.733   5.419   0.778
  145SOL    HW1 1334   0.811   5.357   0.771
  145SOL    HW2 1335   0.743   5.478   0.858
  146SOL     OW 1336   4.617   0.701   6.118
  146SOL    HW1 1337   4.567   0.623   6.157
  146SOL    HW2 1338   4.556   0.780   6.114
  147SOL     OW 1339   5.866   3.181   6.714
  147SOL    HW1 1340   5.934   3.252   6.732
  147SOL    HW2 1341   5.810   3.167   6.796
  148SOL     OW 1342   6.589   5.484   0.886
  148SOL    HW1 1343   6.530   5.447   0.958
  148SOL    HW2 1344   6.553   5.573   0.858
  149SOL     OW 1345   4.258   2.373   4.127
  149SOL    HW1 1346   4.352   2.356   4.156
  149SOL    HW2 1347   4.238   2.322   4.044
  150SOL     OW 1348   5.985   6.942   0.931
  150SOL    HW1 1349   5.901   6.939   0.876
  150SOL    HW2 1350   6.064   6.933   0.871
  151SOL     OW 1351   3.101   2.355   1.200
  151SOL    HW1 1352   3.155   2.295   1.142
  151SOL    HW2 1353   3.152   2.377   1.283
  152SOL     OW 1354   0.098   0.371   1.722
  152SOL    HW1 1355   0.182   0.404   1.766
  152SOL    HW2 1356   0.026   0.439   1.732
  153SOL     OW 1357   2.774   0.942   3.301
  153SOL    HW1 1358   2.722   1.019   3.264
  153SOL    HW2 1359   2.718   0.894   3.369
  154SOL     OW 1360   0.912   3.502   2.074
  154SOL    HW1 1361   0.915   3.408   2.107
  154SOL    HW2 1362   0.962   3.508   1.987
  155SOL     OW 1363   0.739   1.450   4.414
  155SOL    HW1 1364   0.809   1.391   4.453
  155SOL    HW2 1365   0.783   1.527   4.366
  156SOL     OW 1366   0.106   0.646   0.691
  156SOL    HW1 1367   0.034   0.600   0.638
  156SOL    HW2 1368   0.099   0.745   0.676
  157SOL     OW 1369   5.373   3.067   1.826
  157SOL    HW1 1370   5.312   3.008   1.878
  157SOL    HW2 1371   5.415   3.133   1.887
  158SOL     OW 1372   1.903   4.012   2.593
  158SOL    HW1 1373   1.941   3.920   2.593
  158SOL    HW2 1374   1.977   4.079   2.602
  159SOL     OW 1375   4.842   3.786   2.785
  159SOL    HW1 1376   4.803   3.728   2.714
  159SOL    HW2 1377   4.811   3.880   2.772
  160SOL     OW 1378   5.311   5.809   0.839
  160SOL    HW1 1379   5.335   5.813   0.936
  160SOL    HW2 1380   5.391   5.831   0.784
  161SOL     OW 1381   1.835   5.940   3.783
  161SOL    HW1 1382   1.784   5.858   3.809
  161SOL    HW2 1383   1.786   5.988   3.710
  162SOL     OW 1384   3.447   6.249   0.429
  162SOL    HW1 1385   3.362   6.197   0.428
  162SOL    HW2 1386   3.473   6.268   0.524
  163SOL     OW 1387   5.951   5.786   1.110
  163SOL    HW1 1388   6.008   5.831   1.042
  163SOL    HW2 1389   6.007   5.756   1.187
  164SOL     OW 1390   6.728   4.039   2.173
  164SOL    HW1 1391   6.643   4.056   2.123
  164SOL    HW2 1392   6.740   4.110   2.243
  165SOL     OW 1393   5.195   3.060   1.289
  165SOL    HW1 1394   5.264   3.007   1.239
  165SOL    HW2 1395   5.208   3.157   1.272
  166SOL     OW 1396   1.074   3.981   2.676
  166SOL    HW1 1397   0.999   4.037   2.642
  166SOL    HW2 1398   1.096   3.909   2.610
  167SOL     OW 1399   5.189   2.962   6.925
  167SOL    HW1 1400   5.174   2.902   7.004
  167SOL    HW2 1401   5.102   3.003   6.897
  168SOL     OW 1402   3.018   3.268   1.177
  168SOL    HW1 1403   3.000   3.191   1.238
  168SOL    HW2 1404   2.940   3.331   1.179
  169SOL     OW 1405   5.443   1.986   1.585
  169SOL    HW1 1406   5.536   1.974   1.552
  169SOL    HW2 1407   5.430   1.936   1.670
  170SOL     OW 1408   0.786   0.128   2.880
  170SOL    HW1 1409   0.733   0.199   2.834
  170SOL    HW2 1410   0.884   0.145   2.867
  171SOL     OW 1411   2.905   4.511   6.744
  171SOL    HW1 1412   2.859   4.481   6.827
  171SOL    HW2 1413   2.929   4.431   6.688
  172SOL     OW 1414   6.561   1.340   2.770
  172SOL    HW1 1415   6.503   1.343   2.689
  172SOL    HW2 1416   6.506   1.313   2.850
  173SOL     OW 1417   6.465   1.181   3.992
  173SOL    HW1 1418   6.403   1.224   3.926
  173SOL    HW2 1419   6.551   1.158   3.946
  174SOL     OW 1420   3.987   5.367   3.477
  174SOL    HW1 1421   3.891   5.385   3.500
  174SOL    HW2 1422   4.013   5.424   3.399
  175SOL     OW 1423   3.181   0.273   1.669
  175SOL    HW1 1424   3.220   0.317   1.750
  175SOL    HW2 1425   3.248   0.210   1.630
  176SOL     OW 1426   6.754   4.243   0.943
  176SOL    HW1 1427   6.838   4.227   0.995
  176SOL    HW2 1428   6.701   4.315   0.988
  177SOL     OW 1429   5.664   2.646   2.543
  177SOL    HW1 1430   5.664   2.671   2.446
  177SOL    HW2 1431   5.754   2.663   2.582
  178SOL     OW 1432   2.389   3.433   6.492
  178SOL    HW1 1433   2.388   3.524   6.451
  178SOL    HW2 1434   2.477   3.390   6.475
  179SOL     OW 1435   4.109   1.591   5.467
  179SOL    HW1 1436   4.144   1.685   5.462
  179SOL    HW2 1437   4.089   1.558   5.375
  180SOL     OW 1438   2.201   6.889   0.226
  180SOL    HW1 1439   2.140   6.819   0.187
  180SOL    HW2 1440   2.164   6.919   0.314
  181SOL     OW 1441   3.391   3.156   6.086
  181SOL    HW1 1442   3.303   3.199   6.105
  181SOL    HW2 1443   3.406   3.080   6.150
  182SOL     OW 1444   3.649   2.116   5.179
  182SOL    HW1 1445   3.559   2.129   5.137
  182SOL    HW2 1446   3.718   2.104   5.108
  183SOL     OW 1447   3.844   2.119   3.220
  183SOL    HW1 1448   3.877   2.034   3.177
  183SOL    HW2 1449   3.877   2.122   3.314
  184SOL     OW 1450   0.725   6.667   4.520
  184SOL    HW1 1451   0.789   6.634   4.589
  184SOL    HW2 1452   0.639   6.618   4.529
  185SOL     OW 1453   0.834   1.350   6.110
  185SOL    HW1 1454   0.768   1.278   6.133
  185SOL    HW2 1455   0.918   1.309   6.075
  186SOL     OW 1456   5.746   0.801   4.224
  186SOL    HW1 1457   5.813   0.726   4.227
  186SOL    HW2 1458   5.674   0.779   4.158
  187SOL     OW 1459   4.886   0.207   2.286
  187SOL    HW1 1460   4.958   0.221   2.217
  187SOL    HW2 1461   4.901   0.120   2.333
  188SOL     OW 1462   0.774   2.732   3.029
  188SOL    HW1 1463   0.824   2.817   3.011
  188SOL    HW2 1464   0.794   2.701   3.122
  189SOL     OW 1465   2.291   5.129   1.237
  189SOL    HW1 1466   2.204   5.156   1.279
  189SOL    HW2 1467   2.361   5.197   1.260
  190SOL     OW 1468   4.897   2.616   4.992
  190SOL    HW1 1469   4.926   2.522   4.976
  190SOL    HW2 1470   4.841   2.647   4.915
  191SOL     OW 1471   5.649   0.232   6.859
  191SOL    HW1 1472   5.694   0.230   6.770
  191SOL    HW2 1473   5.673   0.150   6.911
  192SOL     OW 1474   1.050   5.598   2.062
  192SOL    HW1 1475   0.991   5.653   2.003
  192SOL    HW2 1476   1.095   5.657   2.128
  193SOL     OW 1477   4.377   3.665   5.304
  193SOL    HW1 1478   4.321   3.703   5.230
  193SOL    HW2 1479   4.464   3.634   5.267
  194SOL     OW 1480   4.178   1.126   3.172
  194SOL    HW1 1481   4.268   1.104   3.209
  194SOL    HW2 1482   4.177   1.111   3.073
  195SOL     OW 1483   1.699   0.279   4.474
  195SOL    HW1 1484   1.618   0.247   4.524
  195SOL    HW2 1485   1.737   0.359   4.519
  196SOL     OW 1486   2.706   0.768   0.985
  196SOL    HW1 1487   2.621   0.817   1.002
  196SOL    HW2 1488   2.695   0.672   1.012
  197SOL     OW 1489   2.685   7.005   1.731
  197SOL    HW1 1490   2.591   0.008   1.726
  197SOL    HW2 1491   2.748   0.049   1.707
  198SOL     OW 1492   5.292   0.168   1.498
  198SOL    HW1 1493   5.216   0.181   1.561
  198SOL    HW2 1494   5.295   0.245   1.434
  199SOL     OW 1495   0.393   1.448   4.037
  199SOL    HW1 1496   0.475   1.433   3.981
  199SOL    HW2 1497   0.400   1.395   4.122
  200SOL     OW 1498   0.580   4.276   1.721
  200SOL    HW1 1499   0.675   4.245   1.713
  200SOL    HW2 1500   0.541   4.288   1.630
  201SOL     OW 1501   6.493   6.801   5.874
  201SOL    HW1 1502   6.518   6.842   5.786
  201SOL    HW2 1503   6.502   6.702   5.869
  202SOL     OW 1504   4.509   0.978   6.540
  202SOL    HW1 1505   4.429   0.953   6.595
  202SOL    HW2 1506   4.521   1.078   6.543
  203SOL     OW 1507   4.938   2.386   4.437
  203SOL    HW1 1508   4.946   2.478   4.475
  203SOL    HW2 1509   4.979   2.384   4.345
  204SOL     OW 1510   0.876   0.940   5.925
  204SOL    HW1 1511   0.828   0.924   6.012
  204SOL    HW2 1512   0.915   0.855   5.892
  205SOL     OW 1513   0.755   1.506   2.769
  205SOL    HW1 1514   0.823   1.564   2.815
  205SOL    HW2 1515   0.672   1.503   2.825
  206SOL     OW 1516   6.906   4.615   1.069
  206SOL    HW1 1517   6.871   4.552   1.138
  206SOL    HW2 1518   6.937   4.564   0.989
  207SOL     OW 1519   5.677   1.682   3.111
  207SOL    HW1 1520   5.596   1.682   3.052
  207SOL    HW2 1521   5.648   1.667   3.206
  208SOL     OW 1522   5.727   2.628   5.018
  208SOL    HW1 1523   5.759   2.540   4.983
  208SOL    HW2 1524   5.782   2.702   4.979
  209SOL     OW 1525   0.434   4.474   3.669
  209SOL    HW1 1526   0.446   4.568   3.702
  209SOL    HW2 1527   0.505   4.415   3.709
  210SOL     OW 1528   4.140   2.146   0.959
  210SOL    HW1 1529   4.119   2.055   0.994
  210SOL    HW2 1530   4.072   2.211   0.992
  211SOL     OW 1531   2.373   6.049   2.864
  211SOL    HW1 1532   2.434   6.024   2.940
  211SOL    HW2 1533   2.309   5.974   2.847
  212SOL     OW 1534   1.142   4.429   1.491
  212SOL    HW1 1535   1.184   4.494   1.555
  212SOL    HW2 1536   1.204   4.412   1.415
  213SOL     OW 1537   3.356   0.645   0.596
  213SOL    HW1 1538   3.281   0.683   0.651
  213SOL    HW2 1539   3.400   0.718   0.545
  214SOL     OW 1540   4.891   5.000   1.420
  214SOL    HW1 1541   4.970   4.939   1.414
  214SOL    HW2 1542   4.842   5.000   1.333
  215SOL     OW 1543   2.545   3.709   0.584
  215SOL    HW1 1544   2.549   3.623   0.635
  215SOL    HW2 1545   2.478   3.701   0.510
  216SOL     OW 1546   2.243   5.782   3.803
  216SOL    HW1 1547   2.213   5.688   3.788
  216SOL    HW2 1548   2.325   5.782   3.860
  217SOL     OW 1549   1.205   2.311   3.960
  217SOL    HW1 1550   1.196   2.238   4.027
  217SOL    HW2 1551   1.133   2.379   3.975
  218SOL     OW 1552   0.540   4.121   4.336
  218SOL    HW1 1553   0.563   4.218   4.348
  218SOL    HW2 1554   0.565   4.093   4.243
  219SOL     OW 1555   4.688   7.010   6.456
  219SOL    HW1 1556   4.775   6.963   6.451
  219SOL    HW2 1557   4.614   6.949   6.428
  220SOL     OW 1558   2.762   0.179   1.123
  220SOL    HW1 1559   2.797   0.246   1.057
  220SOL    HW2 1560   2.736   0.096   1.074
  221SOL     OW 1561   6.541   3.106   1.281
  221SOL    HW1 1562   6.609   3.034   1.268
  221SOL    HW2 1563   6.586   3.192   1.306
  222SOL     OW 1564   2.377   5.450   5.678
  222SOL    HW1 1565   2.319   5.508   5.621
  222SOL    HW2 1566   2.473   5.471   5.660
  223SOL     OW 1567   6.139   2.918   6.766
  223SOL    HW1 1568   6.102   2.909   6.673
  223SOL    HW2 1569   6.101   2.845   6.824
  224SOL     OW 1570   1.657   1.356   4.766
  224SOL    HW1 1571   1.568   1.322   4.797
  224SOL    HW2 1572   1.692   1.297   4.694
  225SOL     OW 1573   4.448   3.500   6.161
  225SOL    HW1 1574   4.519   3.478   6.229
  225SOL    HW2 1575   4.426   3.597   6.166
  226SOL     OW 1576   1.372   0.817   5.816
  226SOL    HW1 1577   1.395   0.852   5.907
  226SOL    HW2 1578   1.418   0.871   5.746
  227SOL     OW 1579   1.801   3.211   2.497
  227SOL    HW1 1580   1.740   3.277   2.453
  227SOL    HW2 1581   1.894   3.246   2.497
  228SOL     OW 1582   3.196   6.127   4.094
  228SOL    HW1 1583   3.155   6.146   4.005
  228SOL    HW2 1584   3.184   6.030   4.116
  229SOL     OW 1585   5.609   6.216   6.590
  229SOL    HW1 1586   5.565   6.151   6.527
  229SOL    HW2 1587   5.546   6.239   6.664
  230SOL     OW 1588   3.266   4.990   3.776
  230SOL    HW1 1589   3.267   5.087   3.751
  230SOL    HW2 1590   3.256   4.981   3.875
  231SOL     OW 1591   6.366   1.904   6.131
  231SOL    HW1 1592   6.368   1.915   6.032
  231SOL    HW2 1593   6.278   1.864   6.159
  232SOL     OW 1594   1.136   3.101   6.447
  232SOL    HW1 1595   1.193   3.183   6.450
  232SOL    HW2 1596   1.150   3.053   6.361
  233SOL     OW 1597   2.868   1.655   3.879
  233SOL    HW1 1598   2.876   1.662   3.780
  233SOL    HW2 1599   2.827   1.738   3.916
  234SOL     OW 1600   5.225   0.262   5.327
  234SOL    HW1 1601   5.284   0.334   5.363
  234SOL    HW2 1602   5.131   0.277   5.358
  235SOL     OW 1603   3.562   2.739   1.585
  235SOL    HW1 1604   3.514   2.825   1.604
  235SOL    HW2 1605   3.627   2.720   1.658
  236SOL     OW 1606   5.023   3.210   6.621
  236SOL    HW1 1607   4.931   3.224   6.585
  236SOL    HW2 1608   5.069   3.139   6.568
  237SOL     OW 1609   5.609   4.378   2.116
  237SOL    HW1 1610   5.542   4.362   2.044
  237SOL    HW2 1611   5.636   4.290   2.157
  238SOL     OW 1612   4.936   2.321   0.449
  238SOL    HW1 1613   4.928   2.234   0.497
  238SOL    HW2 1614   4.931   2.396   0.515
  239SOL     OW 1615   0.700   5.763   6.270
  239SOL    HW1 1616   0.689   5.836   6.338
  239SOL    HW2 1617   0.692   5.801   6.178
  240SOL     OW 1618   0.362   2.544   3.205
  240SOL    HW1 1619   0.416   2.460   3.207
  240SOL    HW2 1620   0.308   2.547   3.120
  241SOL     OW 1621   2.111   0.672   4.848
  241SOL    HW1 1622   2.100   0.761   4.803
  241SOL    HW2 1623   2.191   0.626   4.812
  242SOL     OW 1624   3.579   3.038   4.789
  242SOL    HW1 1625   3.615   2.999   4.704
  242SOL    HW2 1626   3.602   2.978   4.866
  243SOL     OW 1627   4.018   0.573   5.586
  243SOL    HW1 1628   4.083   0.553   5.660
  243SOL    HW2 1629   4.068   0.594   5.502
  244SOL     OW 1630   5.673   2.887   4.704
  244SOL    HW1 1631   5.693   2.808   4.646
  244SOL    HW2 1632   5.738   2.890   4.780
  245SOL     OW 1633   6.467   4.238   3.765
  245SOL    HW1 1634   6.559   4.209   3.790
  245SOL    HW2 1635   6.455   4.334   3.790
  246SOL     OW 1636   4.782   2.708   3.523
  246SOL    HW1 1637   4.705   2.657   3.559
  246SOL    HW2 1638   4.865   2.685   3.574
  247SOL     OW 1639   3.039   2.054   1.381
  247SOL    HW1 1640   2.989   2.047   1.295
  247SOL    HW2 1641   2.978   2.089   1.453
  248SOL     OW 1642   3.612   1.852   2.699
  248SOL    HW1 1643   3.687   1.905   2.738
  248SOL    HW2 1644   3.531   1.860   2.757
  249SOL     OW 1645   4.220   7.006   5.240
  249SOL    HW1 1646   4.164   0.058   5.234
  249SOL    HW2 1647   4.316   0.002   5.248
  250SOL     OW 1648   5.269   2.516   1.004
  250SOL    HW1 1649   5.272   2.557   1.096
  250SOL    HW2 1650   5.331   2.438   1.000
  251SOL     OW 1651   4.669   4.273   5.940
  251SOL    HW1 1652   4.692   4.187   5.895
  251SOL    HW2 1653   4.594   4.318   5.890
  252SOL     OW 1654   6.203   6.179   0.319
  252SOL    HW1 1655   6.298   6.161   0.343
  252SOL    HW2 1656   6.189   6.163   0.221
  253SOL     OW 1657   3.086   5.352   0.226
  253SOL    HW1 1658   3.161   5.384   0.168
  253SOL    HW2 1659   3.123   5.318   0.313
  254SOL     OW 1660   5.232   2.897   3.422
  254SOL    HW1 1661   5.295   2.886   3.499
  254SOL    HW2 1662   5.194   2.808   3.397
  255SOL     OW 1663   1.718   3.439   4.755
  255SOL    HW1 1664   1.653   3.363   4.752
  255SOL    HW2 1665   1.699   3.501   4.679
  256SOL     OW 1666   6.682   4.040   5.988
  256SOL    HW1 1667   6.656   3.983   6.065
  256SOL    HW2 1668   6.604   4.053   5.927
  257SOL     OW 1669   4.951   6.604   3.533
  257SOL    HW1 1670   4.907   6.538   3.472
  257SOL    HW2 1671   4.899   6.690   3.531
  258SOL     OW 1672   1.871   4.815   4.583
  258SOL    HW1 1673   1.960   4.851   4.556
  258SOL    HW2 1674   1.807   4.890   4.596
  259SOL     OW 1675   0.907   1.867   1.872
  259SOL    HW1 1676   0.912   1.773   1.837
  259SOL    HW2 1677   0.994   1.914   1.855
  260SOL     OW 1678   4.342   1.183   1.296
  260SOL    HW1 1679   4.304   1.105   1.346
  260SOL    HW2 1680   4.392   1.242   1.360
  261SOL     OW 1681   6.567   3.758   0.416
  261SOL    HW1 1682   6.560   3.658   0.416
  261SOL    HW2 1683   6.476   3.798   0.427
  262SOL     OW 1684   6.723   4.097   0.697
  262SOL    HW1 1685   6.738   4.128   0.790
  262SOL    HW2 1686   6.657   4.157   0.652
  263SOL     OW 1687   0.868   0.941   3.846
  263SOL    HW1 1688   0.863   0.920   3.749
  263SOL    HW2 1689   0.964   0.943   3.875
  264SOL     OW 1690   5.177   3.378   6.751
  264SOL    HW1 1691   5.117   3.311   6.706
  264SOL    HW2 1692   5.122   3.455   6.783
  265SOL     OW 1693   4.760   5.290   2.566
  265SOL    HW1 1694   4.706   5.289   2.482
  265SOL    HW2 1695   4.831   5.220   2.561
  266SOL     OW 1696   2.927   2.827   5.751
  266SOL    HW1 1697   3.024   2.846   5.741
  266SOL    HW2 1698   2.878   2.910   5.776
  267SOL     OW 1699   0.330   1.859   6.573
  267SOL    HW1 1700   0.251   1.918   6.583
  267SOL    HW2 1701   0.313   1.792   6.501
  268SOL     OW 1702   3.636   0.647   5.559
  268SOL    HW1 1703   3.716   0.663   5.502
  268SOL    HW2 1704   3.580   0.730   5.563
  269SOL     OW 1705   1.046   3.698   1.643
  269SOL    HW1 1706   0.949   3.678   1.653
  269SOL    HW2 1707   1.073   3.684   1.548
  270SOL     OW 1708   0.005   0.202   6.967
  270SOL    HW1 1709   0.070   0.138   7.007
  270SOL    HW2 1710   6.984   0.248   0.010
  271SOL     OW 1711   1.285   1.516   0.005
  271SOL    HW1 1712   1.347   1.565   6.974
  271SOL    HW2 1713   1.331   1.436   0.043
  272SOL     OW 1714   3.207   5.007   4.037
  272SOL    HW1 1715   3.173   5.100   4.049
  272SOL    HW2 1716   3.208   4.960   4.125
  273SOL     OW 1717   1.888   4.055   5.013
  273SOL    HW1 1718   1.960   4.035   5.079
  273SOL    HW2 1719   1.922   4.123   4.948
  274SOL     OW 1720   4.656   1.436   2.594
  274SOL    HW1 1721   4.671   1.416   2.691
  274SOL    HW2 1722   4.590   1.510   2.584
  275SOL     OW 1723   5.923   4.998   5.314
  275SOL    HW1 1724   5.917   5.093   5.281
  275SOL    HW2 1725   6.003   4.990   5.374
  276SOL     OW 1726   0.018   5.869   2.185
  276SOL    HW1 1727   7.027   5.853   2.088
  276SOL    HW2 1728   0.036   5.782   2.231
  277SOL     OW 1729   1.435   3.733   0.980
  277SOL    HW1 1730   1.520   3.736   1.033
  277SOL    HW2 1731   1.384   3.818   0.994
  278SOL     OW 1732   6.256   5.320   1.717
  278SOL    HW1 1733   6.219   5.227   1.724
  278SOL    HW2 1734   6.195   5.376   1.661
  279SOL     OW 1735   6.024   2.813   4.644
  279SOL    HW1 1736   6.103   2.853   4.689
  279SOL    HW2 1737   5.980   2.883   4.586
  280SOL     OW 1738   3.005   0.120   3.214
  280SOL    HW1 1739   3.068   0.185   3.257
  280SOL    HW2 1740   2.994   0.040   3.273
  281SOL     OW 1741   3.053   4.929   2.391
  281SOL    HW1 1742   3.047   5.023   2.357
  281SOL    HW2 1743   2.986   4.872   2.344
  282SOL     OW 1744   3.460   1.401   5.404
  282SOL    HW1 1745   3.371   1.446   5.410
  282SOL    HW2 1746   3.462   1.343   5.323
  283SOL     OW 1747   6.701   1.416   5.643
  283SOL    HW1 1748   6.788   1.377   5.612
  283SOL    HW2 1749   6.625   1.375   5.593
  284SOL     OW 1750   1.200   4.138   4.536
  284SOL    HW1 1751   1.217   4.042   4.513
  284SOL    HW2 1752   1.180   4.146   4.633
  285SOL     OW 1753   6.073   4.666   5.716
  285SOL    HW1 1754   6.115   4.719   5.642
  285SOL    HW2 1755   5.974   4.676   5.713
  286SOL     OW 1756   3.316   5.823   5.444
  286SOL    HW1 1757   3.415   5.811   5.446
  286SOL    HW2 1758   3.279   5.811   5.537
  287SOL     OW 1759   0.316   4.580   0.119
  287SOL    HW1 1760   0.342   4.484   0.111
  287SOL    HW2 1761   0.289   4.600   0.213
  288SOL     OW 1762   3.526   2.029   5.781
  288SOL    HW1 1763   3.526   2.057   5.685
  288SOL    HW2 1764   3.431   2.017   5.812
  289SOL     OW 1765   0.157   4.961   4.601
  289SOL    HW1 1766   0.098   5.011   4.665
  289SOL    HW2 1767   0.233   4.920   4.652
  290SOL     OW 1768   5.608   2.230   4.389
  290SOL    HW1 1769   5.659   2.247   4.305
  290SOL    HW2 1770   5.553   2.147   4.379
  291SOL     OW 1771   1.692   1.964   4.555
  291SOL    HW1 1772   1.618   2.032   4.561
  291SOL    HW2 1773   1.654   1.876   4.526
  292SOL     OW 1774   1.495   1.839   2.960
  292SOL    HW1 1775   1.412   1.895   2.962
  292SOL    HW2 1776   1.570   1.892   2.919
  293SOL     OW 1777   4.432   4.770   1.695
  293SOL    HW1 1778   4.421   4.672   1.678
  293SOL    HW2 1779   4.404   4.791   1.789
  294SOL     OW 1780   5.986   5.266   6.363
  294SOL    HW1 1781   5.901   5.289   6.316
  294SOL    HW2 1782   5.983   5.303   6.456
  295SOL     OW 1783   2.904   1.798   4.421
  295SOL    HW1 1784   2.828   1.800   4.356
  295SOL    HW2 1785   2.888   1.866   4.493
  296SOL     OW 1786   4.865   1.713   2.540
  296SOL    HW1 1787   4.942   1.730   2.479
  296SOL    HW2 1788   4.810   1.637   2.505
  297SOL     OW 1789   2.311   4.251   2.933
  297SOL    HW1 1790   2.309   4.251   2.833
  297SOL    HW2 1791   2.349   4.337   2.966
  298SOL     OW 1792   3.525   6.341   0.683
  298SOL    HW1 1793   3.550   6.410   0.751
  298SOL    HW2 1794   3.529   6.250   0.724
  299SOL     OW 1795   4.151   3.618   6.396
  299SOL    HW1 1796   4.188   3.528   6.371
  299SOL    HW2 1797   4.061   3.606   6.438
  300SOL     OW 1798   5.831   0.803   1.416
  300SOL    HW1 1799   5.824   0.773   1.511
  300SOL    HW2 1800   5.904   0.871   1.407
  301SOL     OW 1801   5.188   2.921   0.939
  301SOL    HW1 1802   5.203   2.872   1.025
  301SOL    HW2 1803   5.201   3.019   0.954
  302SOL     OW 1804   0.503   0.881   3.433
  302SOL    HW1 1805   0.506   0.958   3.497
  302SOL    HW2 1806   0.449   0.906   3.353
  303SOL     OW 1807   6.358   6.987   1.208
  303SOL    HW1 1808   6.391   0.050   1.217
  303SOL    HW2 1809   6.357   6.942   1.297
  304SOL     OW 1810   2.402   0.214   4.609
  304SOL    HW1 1811   2.418   0.230   4.707
  304SOL    HW2 1812   2.486   0.183   4.566
  305SOL     OW 1813   0.616   2.926   0.387
  305SOL    HW1 1814   0.579   2.984   0.315
  305SOL    HW2 1815   0.544   2.868   0.424
  306SOL     OW 1816   2.128   0.545   3.771
  306SOL    HW1 1817   2.092   0.637   3.784
  306SOL    HW2 1818   2.053   0.479   3.770
  307SOL     OW 1819   5.202   6.454   0.392
  307SOL    HW1 1820   5.119   6.508   0.396
  307SOL    HW2 1821   5.179   6.356   0.391
  308SOL     OW 1822   6.241   3.566   5.321
  308SOL    HW1 1823   6.172   3.608   5.380
  308SOL    HW2 1824   6.199   3.540   5.234
  309SOL     OW 1825   3.476   5.950   6.725
  309SOL    HW1 1826   3.507   6.042   6.751
  309SOL    HW2 1827   3.416   5.958   6.645
  310SOL     OW 1828   6.382   0.036   4.845
  310SOL    HW1 1829   6.401   0.082   4.932
  310SOL    HW2 1830   6.364   6.969   4.863
  311SOL     OW 1831   4.955   4.723   2.804
  311SOL    HW1 1832   4.913   4.807   2.838
  311SOL    HW2 1833   5.035   4.701   2.861
  312SOL     OW 1834   3.950   0.938   5.433
  312SOL    HW1 1835   3.922   0.845   5.408
  312SOL    HW2 1836   3.994   0.982   5.355
  313SOL     OW 1837   3.361   3.669   2.126
  313SOL    HW1 1838   3.392   3.583   2.166
  313SOL    HW2 1839   3.370   3.742   2.193
  314SOL     OW 1840   3.607   5.287   6.491
  314SOL    HW1 1841   3.611   5.314   6.587
  314SOL    HW2 1842   3.690   5.318   6.444
  315SOL     OW 1843   1.407   2.825   3.597
  315SOL    HW1 1844   1.491   2.804   3.547
  315SOL    HW2 1845   1.334   2.847   3.532
  316SOL     OW 1846   3.005   1.439   3.953
  316SOL    HW1 1847   2.967   1.525   3.919
  316SOL    HW2 1848   2.943   1.364   3.930
  317SOL     OW 1849   0.435   0.724   0.844
  317SOL    HW1 1850   0.470   0.749   0.934
  317SOL    HW2 1851   0.430   0.624   0.838
  318SOL     OW 1852   0.962   5.717   6.719
  318SOL    HW1 1853   1.045   5.684   6.763
  318SOL    HW2 1854   0.946   5.664   6.636
  319SOL     OW 1855   6.719   0.702   3.977
  319SOL    HW1 1856   6.713   0.792   4.022
  319SOL    HW2 1857   6.627   0.673   3.950
  320SOL     OW 1858   6.339   2.465   0.470
  320SOL    HW1 1859   6.246   2.448   0.437
  320SOL    HW2 1860   6.384   2.379   0.489
  321SOL     OW 1861   3.805   1.473   0.283
  321SOL    HW1 1862   3.732   1.404   0.276
  321SOL    HW2 1863   3.839   1.475   0.377
  322SOL     OW 1864   4.093   3.371   4.449
  322SOL    HW1 1865   4.105   3.455   4.503
  322SOL    HW2 1866   4.094   3.292   4.510
  323SOL     OW 1867   0.853   2.785   6.330
  323SOL    HW1 1868   0.848   2.762   6.427
  323SOL    HW2 1869   0.906   2.715   6.282
  324SOL     OW 1870   2.459   2.111   4.598
  324SOL    HW1 1871   2.507   2.110   4.510
  324SOL    HW2 1872   2.512   2.165   4.664
  325SOL     OW 1873   1.023   2.977   1.682
  325SOL    HW1 1874   1.076   2.923   1.747
  325SOL    HW2 1875   0.956   3.033   1.732
  326SOL     OW 1876   0.913   5.125   6.898
  326SOL    HW1 1877   0.951   5.211   6.862
  326SOL    HW2 1878   0.858   5.145   6.979
  327SOL     OW 1879   1.668   4.961   4.017
  327SOL    HW1 1880   1.638   5.047   4.059
  327SOL    HW2 1881   1.644   4.885   4.076
  328SOL     OW 1882   0.967   5.129   1.740
  328SOL    HW1 1883   1.037   5.199   1.760
  328SOL    HW2 1884   0.944   5.080   1.824
  329SOL     OW 1885   4.037   3.774   4.606
  329SOL    HW1 1886   3.955   3.718   4.616
  329SOL    HW2 1887   4.028   3.831   4.524
  330SOL     OW 1888   3.077   0.105   1.025
  330SOL    HW1 1889   3.039   0.124   1.116
  330SOL    HW2 1890   3.176   0.101   1.030
  331SOL     OW 1891   3.941   5.696   0.985
  331SOL    HW1 1892   3.932   5.631   1.060
  331SOL    HW2 1893   3.960   5.646   0.900
  332SOL     OW 1894   3.528   1.604   4.645
  332SOL    HW1 1895   3.542   1.677   4.712
  332SOL    HW2 1896   3.616   1.564   4.620
  333SOL     OW 1897   3.305   0.009   6.244
  333SOL    HW1 1898   3.352   6.978   6.179
  333SOL    HW2 1899   3.360   0.091   6.258
  334SOL     OW 1900   2.575   1.047   1.444
  334SOL    HW1 1901   2.526   1.034   1.358
  334SOL    HW2 1902   2.537   0.986   1.513
  335SOL     OW 1903   4.025   6.477   4.862
  335SOL    HW1 1904   4.077   6.562   4.863
  335SOL    HW2 1905   4.088   6.399   4.858
  336SOL     OW 1906   2.089   0.805   3.892
  336SOL    HW1 1907   2.178   0.835   3.926
  336SOL    HW2 1908   2.046   0.881   3.842
  337SOL     OW 1909   0.519   3.065   0.175
  337SOL    HW1 1910   0.574   2.997   0.127
  337SOL    HW2 1911   0.464   3.116   0.109
  338SOL     OW 1912   2.734   2.632   1.735
  338SOL    HW1 1913   2.833   2.629   1.747
  338SOL    HW2 1914   2.692   2.559   1.789
  339SOL     OW 1915   3.167   6.869   4.292
  339SOL    HW1 1916   3.129   6.777   4.303
  339SOL    HW2 1917   3.265   6.862   4.272
  340SOL     OW 1918   5.110   4.727   5.627
  340SOL    HW1 1919   5.013   4.716   5.606
  340SOL    HW2 1920   5.158   4.756   5.544
  341SOL     OW 1921   6.498   1.568   4.638
  341SOL    HW1 1922   6.527   1.566   4.543
  341SOL    HW2 1923   6.578   1.574   4.698
  342SOL     OW 1924   6.334   3.986   6.763
  342SOL    HW1 1925   6.356   3.954   6.855
  342SOL    HW2 1926   6.401   4.055   6.735
  343SOL     OW 1927   1.968   4.479   0.802
  343SOL    HW1 1928   2.067   4.494   0.798
  343SOL    HW2 1929   1.922   4.564   0.827
  344SOL     OW 1930   0.708   5.166   2.148
  344SOL    HW1 1931   0.751   5.206   2.229
  344SOL    HW2 1932   0.703   5.067   2.158
  345SOL     OW 1933   5.404   1.648   3.811
  345SOL    HW1 1934   5.452   1.688   3.733
  345SOL    HW2 1935   5.400   1.549   3.801
  346SOL     OW 1936   1.735   0.933   2.595
  346SOL    HW1 1937   1.707   1.026   2.618
  346SOL    HW2 1938   1.811   0.936   2.529
  347SOL     OW 1939   3.299   5.912   6.042
  347SOL    HW1 1940   3.370   5.846   6.020
  347SOL    HW2 1941   3.337   5.983   6.101
  348SOL     OW 1942   5.326   4.260   1.539
  348SOL    HW1 1943   5.353   4.249   1.635
  348SOL    HW2 1944   5.403   4.235   1.480
  349SOL     OW 1945   6.626   4.537   0.793
  349SOL    HW1 1946   6.605   4.621   0.843
  349SOL    HW2 1947   6.721   4.539   0.763
  350SOL     OW 1948   3.488   3.177   0.831
  350SOL    HW1 1949   3.508   3.184   0.929
  350SOL    HW2 1950   3.413   3.238   0.807
  351SOL     OW 1951   1.968   2.390   0.199
  351SOL    HW1 1952   2.004   2.429   0.283
  351SOL    HW2 1953   1.999   2.443   0.121
  352SOL     OW 1954   3.206   0.986   4.574
  352SOL    HW1 1955   3.136   1.034   4.627
  352SOL    HW2 1956   3.243   1.047   4.504
  353SOL     OW 1957   2.553   6.134   0.888
  353SOL    HW1 1958   2.613   6.118   0.810
  353SOL    HW2 1959   2.462   6.100   0.868
  354SOL     OW 1960   3.432   2.782   0.500
  354SOL    HW1 1961   3.417   2.864   0.554
  354SOL    HW2 1962   3.390   2.704   0.546
  355SOL     OW 1963   0.468   3.611   2.911
  355SOL    HW1 1964   0.524   3.536   2.877
  355SOL    HW2 1965   0.479   3.690   2.851
  356SOL     OW 1966   3.229   6.489   5.245
  356SOL    HW1 1967   3.243   6.501   5.147
  356SOL    HW2 1968   3.285   6.413   5.277
  357SOL     OW 1969   6.569   6.862   5.595
  357SOL    HW1 1970   6.498   6.817   5.541
  357SOL    HW2 1971   6.657   6.853   5.550
  358SOL     OW 1972   5.081   0.179   1.669
  358SOL    HW1 1973   5.088   0.188   1.768
  358SOL    HW2 1974   4.992   0.214   1.638
  359SOL     OW 1975   1.284   2.143   2.143
  359SOL    HW1 1976   1.289   2.200   2.225
  359SOL    HW2 1977   1.371   2.146   2.095
  360SOL     OW 1978   1.019   5.748   6.435
  360SOL    HW1 1979   1.077   5.804   6.376
  360SOL    HW2 1980   0.923   5.762   6.411
  361SOL     OW 1981   5.696   5.789   3.600
  361SOL    HW1 1982   5.614   5.734   3.586
  361SOL    HW2 1983   5.683   5.880   3.561
  362SOL     OW 1984   3.851   3.815   1.445
  362SOL    HW1 1985   3.772   3.877   1.449
  362SOL    HW2 1986   3.888   3.814   1.352
  363SOL     OW 1987   5.034   4.598   3.819
  363SOL    HW1 1988   4.942   4.599   3.858
  363SOL    HW2 1989   5.057   4.689   3.784
  364SOL     OW 1990   6.226   5.710   5.982
  364SOL    HW1 1991   6.227   5.676   5.888
  364SOL    HW2 1992   6.320   5.713   6.017
  365SOL     OW 1993   5.961   5.613   2.377
  365SOL    HW1 1994   5.924   5.644   2.465
  365SOL    HW2 1995   5.893   5.629   2.305
  366SOL     OW 1996   6.140   0.434   6.613
  366SOL    HW1 1997   6.147   0.344   6.657
  366SOL    HW2 1998   6.045   0.465   6.616
  367SOL     OW 1999   4.957   2.992   1.414
  367SOL    HW1 2000   4.944   2.894   1.429
  367SOL    HW2 2001   5.042   3.006   1.364
  368SOL     OW 2002   0.021   3.713   5.061
  368SOL    HW1 2003   0.101   3.694   5.006
  368SOL    HW2 2004   0.007   3.639   5.127
  369SOL     OW 2005   6.117   5.615   1.619
  369SOL    HW1 2006   6.145   5.588   1.711
  369SOL    HW2 2007   6.020   5.594   1.607
  370SOL     OW 2008   2.560   2.044   5.571
  370SOL    HW1 2009   2.502   1.963   5.579
  370SOL    HW2 2010   2.503   2.126   5.571
  371SOL     OW 2011   2.705   3.359   0.050
  371SOL    HW1 2012   2.615   3.398   0.030
  371SOL    HW2 2013   2.755   3.418   0.113
  372SOL     OW 2014   0.765   0.002   5.643
  372SOL    HW1 2015   0.857   6.995   5.643
  372SOL    HW2 2016   0.702   6.963   5.680
  373SOL     OW 2017   6.383   5.951   4.970
  373SOL    HW1 2018   6.315   5.988   5.034
  373SOL    HW2 2019   6.337   5.926   4.885
  374SOL     OW 2020   3.028   1.877   2.903
  374SOL    HW1 2021   3.081   1.935   2.840
  374SOL    HW2 2022   2.970   1.815   2.850
  375SOL     OW 2023   0.905   4.481   3.822
  375SOL    HW1 2024   0.936   4.486   3.917
  375SOL    HW2 2025   0.975   4.435   3.767
  376SOL     OW 2026   2.087   1.673   4.791
  376SOL    HW1 2027   2.112   1.715   4.704
  376SOL    HW2 2028   2.093   1.574   4.784
  377SOL     OW 2029   0.483   2.418   1.686
  377SOL    HW1 2030   0.496   2.402   1.784
  377SOL    HW2 2031   0.386   2.412   1.664
  378SOL     OW 2032   3.270   2.585   5.786
  378SOL    HW1 2033   3.198   2.569   5.719
  378SOL    HW2 2034   3.281   2.684   5.801
  379SOL     OW 2035   6.154   4.118   1.186
  379SOL    HW1 2036   6.172   4.171   1.103
  379SOL    HW2 2037   6.240   4.097   1.232
  380SOL     OW 2038   3.035   1.271   1.405
  380SOL    HW1 2039   2.974   1.350   1.411
  380SOL    HW2 2040   3.054   1.237   1.497
  381SOL     OW 2041   1.341   4.515   2.865
  381SOL    HW1 2042   1.280   4.475   2.797
  381SOL    HW2 2043   1.310   4.608   2.887
  382SOL     OW 2044   5.214   6.331   5.396
  382SOL    HW1 2045   5.307   6.363   5.378
  382SOL    HW2 2046   5.216   6.258   5.464
  383SOL     OW 2047   4.944   3.151   5.965
  383SOL    HW1 2048   4.932   3.208   5.884
  383SOL    HW2 2049   5.007   3.076   5.943
  384SOL     OW 2050   5.926   5.245   4.569
  384SOL    HW1 2051   5.972   5.156   4.563
  384SOL    HW2 2052   5.991   5.313   4.603
  385SOL     OW 2053   4.512   5.999   5.634
  385SOL    HW1 2054   4.461   6.060   5.694
  385SOL    HW2 2055   4.451   5.964   5.563
  386SOL     OW 2056   2.730   5.935   5.288
  386SOL    HW1 2057   2.781   6.020   5.278
  386SOL    HW2 2058   2.766   5.883   5.365
  387SOL     OW 2059   0.695   6.527   3.264
  387SOL    HW1 2060   0.627   6.553   3.332
  387SOL    HW2 2061   0.730   6.609   3.217
  388SOL     OW 2062   1.686   2.031   3.663
  388SOL    HW1 2063   1.768   1.998   3.709
  388SOL    HW2 2064   1.616   2.053   3.731
  389SOL     OW 2065   4.247   4.074   1.446
  389SOL    HW1 2066   4.224   3.980   1.469
  389SOL    HW2 2067   4.222   4.134   1.522
  390SOL     OW 2068   3.715   1.228   0.045
  390SOL    HW1 2069   3.692   1.320   0.014
  390SOL    HW2 2070   3.812   1.209   0.026
  391SOL     OW 2071   1.925   4.203   5.512
  391SOL    HW1 2072   1.970   4.259   5.443
  391SOL    HW2 2073   1.990   4.133   5.545
  392SOL     OW 2074   1.749   4.053   1.515
  392SOL    HW1 2075   1.693   4.091   1.441
  392SOL    HW2 2076   1.690   4.012   1.584
  393SOL     OW 2077   0.995   4.874   6.955
  393SOL    HW1 2078   0.976   4.830   6.867
  393SOL    HW2 2079   0.976   4.972   6.949
  394SOL     OW 2080   0.351   2.447   7.025
  394SOL    HW1 2081   0.427   2.471   6.964
  394SOL    HW2 2082   0.319   2.529   0.042
  395SOL     OW 2083   4.891   4.719   3.255
  395SOL    HW1 2084   4.901   4.686   3.161
  395SOL    HW2 2085   4.969   4.776   3.279
  396SOL     OW 2086   2.817   3.362   2.009
  396SOL    HW1 2087   2.798   3.421   1.931
  396SOL    HW2 2088   2.771   3.274   1.996
  397SOL     OW 2089   5.257   1.994   5.775
  397SOL    HW1 2090   5.240   1.968   5.869
  397SOL    HW2 2091   5.356   1.990   5.757
  398SOL     OW 2092   1.988   6.796   3.087
  398SOL    HW1 2093   1.983   6.806   3.187
  398SOL    HW2 2094   2.011   6.884   3.046
  399SOL     OW 2095   5.721   6.271   4.393
  399SOL    HW1 2096   5.819   6.272   4.374
  399SOL    HW2 2097   5.690   6.363   4.416
  400SOL     OW 2098   6.079   6.395   6.078
  400SOL    HW1 2099   5.990   6.414   6.037
  400SOL    HW2 2100   6.133   6.479   6.080
  401SOL     OW 2101   4.706   0.035   6.141
  401SOL    HW1 2102   4.615   0.057   6.107
  401SOL    HW2 2103   4.751   0.118   6.175
  402SOL     OW 2104   6.636   1.057   2.964
  402SOL    HW1 2105   6.665   1.140   3.013
  402SOL    HW2 2106   6.554   1.019   3.008
  403SOL     OW 2107   3.829   0.676   5.358
  403SOL    HW1 2108   3.914   0.626   5.342
  403SOL    HW2 2109   3.788   0.702   5.271
  404SOL     OW 2110   1.805   4.887   4.994
  404SOL    HW1 2111   1.851   4.954   4.936
  404SOL    HW2 2112   1.724   4.851   4.947
  405SOL     OW 2113   2.006   3.213   2.744
  405SOL    HW1 2114   2.047   3.256   2.664
  405SOL    HW2 2115   2.025   3.268   2.825
  406SOL     OW 2116   0.276   4.443   4.928
  406SOL    HW1 2117   0.358   4.430   4.984
  406SOL    HW2 2118   0.301   4.442   4.831
  407SOL     OW 2119   1.765   2.244   4.846
  407SOL    HW1 2120   1.687   2.258   4.907
  407SOL    HW2 2121   1.836   2.311   4.868
  408SOL     OW 2122   3.412   2.105   3.030
  408SOL    HW1 2123   3.509   2.130   3.035
  408SOL    HW2 2124   3.403   2.009   3.004
  409SOL     OW 2125   6.355   3.421   1.238
  409SOL    HW1 2126   6.331   3.400   1.332
  409SOL    HW2 2127   6.377   3.519   1.231
  410SOL     OW 2128   1.147   1.742   1.349
  410SOL    HW1 2129   1.085   1.680   1.300
  410SOL    HW2 2130   1.241   1.724   1.322
  411SOL     OW 2131   6.288   0.502   1.545
  411SOL    HW1 2132   6.294   0.433   1.617
  411SOL    HW2 2133   6.198   0.545   1.548
  412SOL     OW 2134   3.306   4.978   3.176
  412SOL    HW1 2135   3.393   4.942   3.210
  412SOL    HW2 2136   3.307   4.980   3.076
  413SOL     OW 2137   4.443   4.355   1.429
  413SOL    HW1 2138   4.364   4.320   1.380
  413SOL    HW2 2139   4.462   4.448   1.400
  414SOL     OW 2140   3.004   6.638   4.281
  414SOL    HW1 2141   3.018   6.619   4.378
  414SOL    HW2 2142   2.915   6.604   4.253
  415SOL     OW 2143   0.571   0.398   6.951
  415SOL    HW1 2144   0.545   0.484   6.994
  415SOL    HW2 2145   0.536   0.322   7.006
  416SOL     OW 2146   5.041   5.257   4.930
  416SOL    HW1 2147   5.137   5.284   4.941
  416SOL    HW2 2148   4.995   5.320   4.868
  417SOL     OW 2149   2.314   0.454   6.078
  417SOL    HW1 2150   2.382   0.516   6.118
  417SOL    HW2 2151   2.352   0.411   5.997
  418SOL     OW 2152   2.565   6.669   6.088
  418SOL    HW1 2153   2.631   6.707   6.023
  418SOL    HW2 2154   2.590   6.696   6.181
  419SOL     OW 2155   0.805   6.877   2.914
  419SOL    HW1 2156   0.774   6.838   2.828
  419SOL    HW2 2157   0.799   6.977   2.910
  420SOL     OW 2158   5.724   1.464   6.451
  420SOL    HW1 2159   5.764   1.486   6.362
  420SOL    HW2 2160   5.629   1.494   6.453
  421SOL     OW 2161   5.854   3.496   5.007
  421SOL    HW1 2162   5.871   3.572   4.944
  421SOL    HW2 2163   5.793   3.527   5.080
  422SOL     OW 2164   4.878   3.206   0.436
  422SOL    HW1 2165   4.828   3.284   0.472
  422SOL    HW2 2166   4.819   3.125   0.434
  423SOL     OW 2167   2.369   1.294   6.771
  423SOL    HW1 2168   2.376   1.352   6.691
  423SOL    HW2 2169   2.458   1.254   6.792
  424SOL     OW 2170   1.571   4.877   2.697
  424SOL    HW1 2171   1.628   4.958   2.687
  424SOL    HW2 2172   1.486   4.889   2.646
  425SOL     OW 2173   5.066   1.816   4.353
  425SOL    HW1 2174   5.024   1.776   4.271
  425SOL    HW2 2175   5.080   1.914   4.338
  426SOL     OW 2176   2.321   2.696   4.594
  426SOL    HW1 2177   2.389   2.627   4.569
  426SOL    HW2 2178   2.314   2.701   4.694
  427SOL     OW 2179   6.276   0.395   4.185
  427SOL    HW1 2180   6.350   0.447   4.228
  427SOL    HW2 2181   6.299   0.378   4.089
  428SOL     OW 2182   3.974   0.632   2.584
  428SOL    HW1 2183   4.032   0.565   2.630
  428SOL    HW2 2184   3.966   0.609   2.488
  429SOL     OW 2185   1.088   5.154   3.775
  429SOL    HW1 2186   1.068   5.244   3.736
  429SOL    HW2 2187   1.002   5.103   3.786
  430SOL     OW 2188   1.120   6.834   4.357
  430SOL    HW1 2189   1.114   6.908   4.291
  430SOL    HW2 2190   1.049   6.766   4.338
  431SOL     OW 2191   2.783   1.921   0.776
  431SOL    HW1 2192   2.839   1.909   0.694
  431SOL    HW2 2193   2.756   1.831   0.811
  432SOL     OW 2194   5.894   2.164   0.648
  432SOL    HW1 2195   5.923   2.170   0.552
  432SOL    HW2 2196   5.795   2.147   0.651
  433SOL     OW 2197   2.445   6.186   6.352
  433SOL    HW1 2198   2.476   6.243   6.276
  433SOL    HW2 2199   2.351   6.209   6.375
  434SOL     OW 2200   4.165   5.949   3.416
  434SOL    HW1 2201   4.109   5.977   3.494
  434SOL    HW2 2202   4.237   6.017   3.401
  435SOL     OW 2203   3.703   2.356   5.308
  435SOL    HW1 2204   3.687   2.274   5.253
  435SOL    HW2 2205   3.798   2.385   5.298
  436SOL     OW 2206   3.380   5.407   2.487
  436SOL    HW1 2207   3.315   5.481   2.471
  436SOL    HW2 2208   3.463   5.443   2.530
  437SOL     OW 2209   0.509   0.999   5.660
  437SOL    HW1 2210   0.490   0.926   5.725
  437SOL    HW2 2211   0.453   1.079   5.682
  438SOL     OW 2212   1.409   3.597   3.836
  438SOL    HW1 2213   1.468   3.653   3.778
  438SOL    HW2 2214   1.355   3.535   3.779
  439SOL     OW 2215   6.200   6.578   2.235
  439SOL    HW1 2216   6.174   6.629   2.318
  439SOL    HW2 2217   6.157   6.488   2.236
  440SOL     OW 2218   3.573   1.574   6.313
  440SOL    HW1 2219   3.551   1.525   6.398
  440SOL    HW2 2220   3.645   1.640   6.331
  441SOL     OW 2221   5.992   4.100   3.641
  441SOL    HW1 2222   6.068   4.151   3.600
  441SOL    HW2 2223   6.012   4.003   3.639
  442SOL     OW 2224   4.710   5.231   5.392
  442SOL    HW1 2225   4.764   5.311   5.366
  442SOL    HW2 2226   4.664   5.193   5.312
  443SOL     OW 2227   6.002   4.165   4.234
  443SOL    HW1 2228   6.019   4.085   4.177
  443SOL    HW2 2229   6.068   4.167   4.309
  444SOL     OW 2230   4.354   0.868   6.326
  444SOL    HW1 2231   4.424   0.921   6.374
  444SOL    HW2 2232   4.365   0.771   6.348
  445SOL     OW 2233   2.313   6.063   3.212
  445SOL    HW1 2234   2.394   6.015   3.178
  445SOL    HW2 2235   2.341   6.132   3.278
  446SOL     OW 2236   3.930   5.669   2.797
  446SOL    HW1 2237   3.960   5.765   2.800
  446SOL    HW2 2238   4.006   5.611   2.769
  447SOL     OW 2239   6.589   3.185   4.866
  447SOL    HW1 2240   6.612   3.266   4.812
  447SOL    HW2 2241   6.597   3.207   4.963
  448SOL     OW 2242   2.615   0.953   2.835
  448SOL    HW1 2243   2.591   0.879   2.898
  448SOL    HW2 2244   2.585   0.929   2.743
  449SOL     OW 2245   2.576   1.835   3.787
  449SOL    HW1 2246   2.497   1.775   3.773
  449SOL    HW2 2247   2.547   1.930   3.781
  450SOL     OW 2248   1.756   4.799   3.606
  450SOL    HW1 2249   1.784   4.711   3.646
  450SOL    HW2 2250   1.772   4.872   3.672
  451SOL     OW 2251   1.740   2.489   4.153
  451SOL    HW1 2252   1.703   2.412   4.206
  451SOL    HW2 2253   1.665   2.535   4.105
  452SOL     OW 2254   4.383   6.982   1.581
  452SOL    HW1 2255   4.412   6.902   1.529
  452SOL    HW2 2256   4.285   6.996   1.567
  453SOL     OW 2257   3.220   6.576   6.200
  453SOL    HW1 2258   3.287   6.571   6.274
  453SOL    HW2 2259   3.169   6.490   6.196
  454SOL     OW 2260   6.718   3.848   6.749
  454SOL    HW1 2261   6.744   3.837   6.654
  454SOL    HW2 2262   6.772   3.922   6.790
  455SOL     OW 2263   6.253   3.050   5.199
  455SOL    HW1 2264   6.275   3.112   5.274
  455SOL    HW2 2265   6.184   2.984   5.229
  456SOL     OW 2266   1.972   0.649   4.066
  456SOL    HW1 2267   2.008   0.715   3.999
  456SOL    HW2 2268   2.017   0.561   4.053
  457SOL     OW 2269   1.563   4.690   4.133
  457SOL    HW1 2270   1.502   4.619   4.168
  457SOL    HW2 2271   1.587   4.669   4.038
  458SOL     OW 2272   3.649   0.612   2.691
  458SOL    HW1 2273   3.744   0.640   2.705
  458SOL    HW2 2274   3.636   0.521   2.731
  459SOL     OW 2275   1.793   0.270   5.188
  459SOL    HW1 2276   1.860   0.323   5.241
  459SOL    HW2 2277   1.725   0.332   5.149
  460SOL     OW 2278   1.132   0.791   5.070
  460SOL    HW1 2279   1.211   0.829   5.118
  460SOL    HW2 2280   1.145   0.693   5.058
  461SOL     OW 2281   6.364   5.136   5.877
  461SOL    HW1 2282   6.332   5.042   5.863
  461SOL    HW2 2283   6.464   5.136   5.889
  462SOL     OW 2284   3.932   3.734   5.258
  462SOL    HW1 2285   3.882   3.736   5.171
  462SOL    HW2 2286   3.886   3.793   5.324
  463SOL     OW 2287   0.136   0.448   3.342
  463SOL    HW1 2288   0.227   0.459   3.302
  463SOL    HW2 2289   0.120   0.522   3.408
  464SOL     OW 2290   2.650   0.496   5.815
  464SOL    HW1 2291   2.700   0.525   5.897
  464SOL    HW2 2292   2.695   0.416   5.775
  465SOL     OW 2293   0.547   2.496   6.801
  465SOL    HW1 2294   0.585   2.568   6.860
  465SOL    HW2 2295   0.563   2.520   6.706
  466SOL     OW 2296   2.765   6.233   4.334
  466SOL    HW1 2297   2.695   6.297   4.303
  466SOL    HW2 2298   2.855   6.269   4.310
  467SOL     OW 2299   1.224   1.774   2.782
  467SOL    HW1 2300   1.257   1.857   2.826
  467SOL    HW2 2301   1.145   1.739   2.832
  468SOL     OW 2302   4.226   5.734   5.650
  468SOL    HW1 2303   4.257   5.740   5.745
  468SOL    HW2 2304   4.189   5.643   5.632
  469SOL     OW 2305   3.169   4.447   5.640
  469SOL    HW1 2306   3.164   4.352   5.671
  469SOL    HW2 2307   3.263   4.479   5.647
  470SOL     OW 2308   4.081   5.689   2.439
  470SOL    HW1 2309   3.984   5.688   2.418
  470SOL    HW2 2310   4.102   5.769   2.495
  471SOL     OW 2311   2.845   2.260   4.305
  471SOL    HW1 2312   2.891   2.249   4.217
  471SOL    HW2 2313   2.785   2.341   4.302
  472SOL     OW 2314   5.789   5.018   6.961
  472SOL    HW1 2315   5.738   4.932   6.966
  472SOL    HW2 2316   5.841   5.021   6.876
  473SOL     OW 2317   0.314   2.205   2.712
  473SOL    HW1 2318   0.222   2.217   2.676
  473SOL    HW2 2319   0.346   2.112   2.693
  474SOL     OW 2320   5.895   5.235   6.040
  474SOL    HW1 2321   5.984   5.226   5.995
  474SOL    HW2 2322   5.847   5.148   6.036
  475SOL     OW 2323   6.111   3.472   6.947
  475SOL    HW1 2324   6.154   3.560   6.927
  475SOL    HW2 2325   6.131   3.446   0.012
  476SOL     OW 2326   6.916   4.014   1.899
  476SOL    HW1 2327   6.895   3.987   1.993
  476SOL    HW2 2328   6.849   3.972   1.837
  477SOL     OW 2329   2.169   5.531   3.772
  477SOL    HW1 2330   2.124   5.463   3.714
  477SOL    HW2 2331   2.107   5.559   3.845
  478SOL     OW 2332   4.062   6.267   3.408
  478SOL    HW1 2333   4.116   6.250   3.490
  478SOL    HW2 2334   4.120   6.256   3.327
  479SOL     OW 2335   3.832   3.244   5.101
  479SOL    HW1 2336   3.924   3.279   5.118
  479SOL    HW2 2337   3.837   3.145   5.083
  480SOL     OW 2338   2.385   0.327   2.033
  480SOL    HW1 2339   2.336   0.396   1.980
  480SOL    HW2 2340   2.474   0.364   2.060
  481SOL     OW 2341   0.820   6.988   1.596
  481SOL    HW1 2342   0.896   6.979   1.661
  481SOL    HW2 2343   0.830   0.043   1.545
  482SOL     OW 2344   4.711   5.031   2.747
  482SOL    HW1 2345   4.773   5.004   2.821
  482SOL    HW2 2346   4.759   5.091   2.683
  483SOL     OW 2347   6.629   2.199   2.261
  483SOL    HW1 2348   6.606   2.266   2.332
  483SOL    HW2 2349   6.669   2.246   2.182
  484SOL     OW 2350   1.529   4.560   4.938
  484SOL    HW1 2351   1.437   4.572   4.976
  484SOL    HW2 2352   1.582   4.501   4.998
  485SOL     OW 2353   5.206   3.973   2.570
  485SOL    HW1 2354   5.141   3.916   2.620
  485SOL    HW2 2355   5.218   4.060   2.617
  486SOL     OW 2356   5.689   1.287   6.725
  486SOL    HW1 2357   5.606   1.235   6.705
  486SOL    HW2 2358   5.726   1.325   6.641
  487SOL     OW 2359   0.687   0.387   3.070
  487SOL    HW1 2360   0.616   0.333   3.114
  487SOL    HW2 2361   0.677   0.381   2.971
  488SOL     OW 2362   1.695   6.783   2.592
  488SOL    HW1 2363   1.778   6.802   2.643
  488SOL    HW2 2364   1.702   6.693   2.548
  489SOL     OW 2365   5.874   5.546   5.147
  489SOL    HW1 2366   5.775   5.545   5.157
  489SOL    HW2 2367   5.904   5.638   5.121
  490SOL     OW 2368   1.553   6.276   4.268
  490SOL    HW1 2369   1.477   6.211   4.259
  490SOL    HW2 2370   1.521   6.367   4.244
  491SOL     OW 2371   0.731   3.637   0.741
  491SOL    HW1 2372   0.792   3.699   0.693
  491SOL    HW2 2373   0.784   3.570   0.792
  492SOL     OW 2374   1.494   1.047   5.354
  492SOL    HW1 2375   1.579   1.094   5.327
  492SOL    HW2 2376   1.417   1.108   5.338
  493SOL     OW 2377   2.626   6.935   5.336
  493SOL    HW1 2378   2.625   6.893   5.427
  493SOL    HW2 2379   2.676   6.877   5.272
  494SOL     OW 2380   1.967   1.453   6.191
  494SOL    HW1 2381   2.041   1.503   6.235
  494SOL    HW2 2382   1.911   1.517   6.137
  495SOL     OW 2383   3.602   6.218   5.104
  495SOL    HW1 2384   3.615   6.275   5.023
  495SOL    HW2 2385   3.687   6.217   5.158
  496SOL     OW 2386   6.476   1.603   2.056
  496SOL    HW1 2387   6.397   1.587   2.115
  496SOL    HW2 2388   6.464   1.691   2.009
  497SOL     OW 2389   3.635   0.964   4.622
  497SOL    HW1 2390   3.548   0.936   4.663
  497SOL    HW2 2391   3.620   0.992   4.527
  498SOL     OW 2392   0.375   4.507   2.129
  498SOL    HW1 2393   0.374   4.438   2.057
  498SOL    HW2 2394   0.287   4.508   2.176
  499SOL     OW 2395   1.973   5.643   5.069
  499SOL    HW1 2396   1.951   5.692   4.985
  499SOL    HW2 2397   1.934   5.691   5.147
  500SOL     OW 2398   5.426   3.315   5.756
  500SOL    HW1 2399   5.395   3.405   5.724
  500SOL    HW2 2400   5.460   3.322   5.849
  501SOL     OW 2401   3.348   0.065   1.551
  501SOL    HW1 2402   3.432   0.109   1.520
  501SOL    HW2 2403   3.318   7.027   1.483
  502SOL     OW 2404   0.892   4.754   6.398
  502SOL    HW1 2405   0.809   4.763   6.454
  502SOL    HW2 2406   0.952   4.685   6.438
  503SOL     OW 2407   1.858   5.074   6.299
  503SOL    HW1 2408   1.793   5.139   6.258
  503SOL    HW2 2409   1.827   4.981   6.281
  504SOL     OW 2410   0.567   5.900   1.833
  504SOL    HW1 2411   0.474   5.892   1.868
  504SOL    HW2 2412   0.592   5.816   1.785
  505SOL     OW 2413   4.052   0.196   5.284
  505SOL    HW1 2414   3.983   0.166   5.349
  505SOL    HW2 2415   4.018   0.276   5.234
  506SOL     OW 2416   2.927   6.041   2.075
  506SOL    HW1 2417   2.848   6.090   2.038
  506SOL    HW2 2418   3.011   6.091   2.052
  507SOL     OW 2419   3.781   0.143   2.385
  507SOL    HW1 2420   3.755   0.220   2.443
  507SOL    HW2 2421   3.817   0.177   2.299
  508SOL     OW 2422   6.686   2.320   2.819
  508SOL    HW1 2423   6.704   2.227   2.789
  508SOL    HW2 2424   6.771   2.373   2.816
  509SOL     OW 2425   4.306   1.062   0.249
  509SOL    HW1 2426   4.405   1.056   0.258
  509SOL    HW2 2427   4.268   0.970   0.238
  510SOL     OW 2428   6.938   5.025   5.758
  510SOL    HW1 2429   6.949   4.954   5.827
  510SOL    HW2 2430   6.902   5.108   5.801
  511SOL     OW 2431   1.087   2.071   6.816
  511SOL    HW1 2432   1.099   2.128   6.897
  511SOL    HW2 2433   1.137   1.985   6.828
  512SOL     OW 2434   6.391   2.852   6.632
  512SOL    HW1 2435   6.317   2.818   6.690
  512SOL    HW2 2436   6.359   2.859   6.537
  513SOL     OW 2437   5.379   6.349   2.563
  513SOL    HW1 2438   5.349   6.327   2.470
  513SOL    HW2 2439   5.301   6.380   2.617
  514SOL     OW 2440   0.371   0.363   4.565
  514SOL    HW1 2441   0.288   0.347   4.512
  514SOL    HW2 2442   0.400   0.277   4.609
  515SOL     OW 2443   2.095   0.280   6.910
  515SOL    HW1 2444   2.014   0.243   6.864
  515SOL    HW2 2445   2.123   0.218   6.984
  516SOL     OW 2446   2.570   4.605   2.130
  516SOL    HW1 2447   2.591   4.632   2.224
  516SOL    HW2 2448   2.654   4.611   2.075
  517SOL     OW 2449   3.298   4.834   2.090
  517SOL    HW1 2450   3.383   4.833   2.037
  517SOL    HW2 2451   3.297   4.757   2.153
  518SOL     OW 2452   2.650   2.228   3.978
  518SOL    HW1 2453   2.724   2.166   4.004
  518SOL    HW2 2454   2.652   2.308   4.038
  519SOL     OW 2455   0.427   6.240   3.108
  519SOL    HW1 2456   0.517   6.253   3.067
  519SOL    HW2 2457   0.367   6.315   3.079
  520SOL     OW 2458   0.763   3.869   6.729
  520SOL    HW1 2459   0.707   3.915   6.660
  520SOL    HW2 2460   0.801   3.785   6.691
  521SOL     OW 2461   4.556   5.839   4.801
  521SOL    HW1 2462   4.600   5.791   4.725
  521SOL    HW2 2463   4.601   5.814   4.886
  522SOL     OW 2464   3.974   3.683   2.201
  522SOL    HW1 2465   4.004   3.604   2.256
  522SOL    HW2 2466   3.897   3.727   2.246
  523SOL     OW 2467   6.771   6.058   2.269
  523SOL    HW1 2468   6.710   6.133   2.242
  523SOL    HW2 2469   6.866   6.086   2.254
  524SOL     OW 2470   1.126   2.952   2.419
  524SOL    HW1 2471   1.178   2.913   2.494
  524SOL    HW2 2472   1.183   2.959   2.337
  525SOL     OW 2473   2.118   4.073   6.361
  525SOL    HW1 2474   2.154   4.006   6.426
  525SOL    HW2 2475   2.112   4.031   6.270
  526SOL     OW 2476   3.146   6.552   3.955
  526SOL    HW1 2477   3.056   6.565   3.995
  526SOL    HW2 2478   3.208   6.511   4.023
  527SOL     OW 2479   0.505   2.079   7.005
  527SOL    HW1 2480   0.454   2.017   6.946
  527SOL    HW2 2481   0.563   2.139   6.950
  528SOL     OW 2482   1.583   2.661   3.996
  528SOL    HW1 2483   1.494   2.661   3.949
  528SOL    HW2 2484   1.638   2.737   3.961
  529SOL     OW 2485   1.643   0.077   5.026
  529SOL    HW1 2486   1.667   0.122   5.112
  529SOL    HW2 2487   1.721   0.023   4.994
  530SOL     OW 2488   3.838   3.065   2.368
  530SOL    HW1 2489   3.933   3.095   2.377
  530SOL    HW2 2490   3.811   3.013   2.449
  531SOL     OW 2491   1.243   1.344   2.606
  531SOL    HW1 2492   1.340   1.350   2.630
  531SOL    HW2 2493   1.189   1.389   2.677
  532SOL     OW 2494   1.542   3.538   0.482
  532SOL    HW1 2495   1.502   3.450   0.456
  532SOL    HW2 2496   1.521   3.557   0.577
  533SOL     OW 2497   4.551   6.720   4.002
  533SOL    HW1 2498   4.497   6.678   4.076
  533SOL    HW2 2499   4.589   6.807   4.034
  534SOL     OW 2500   6.194   6.248   2.322
  534SOL    HW1 2501   6.197   6.314   2.397
  534SOL    HW2 2502   6.287   6.217   2.302
  535SOL     OW 2503   0.072   4.375   2.625
  535SOL    HW1 2504   0.116   4.411   2.707
  535SOL    HW2 2505   0.042   4.451   2.567
  536SOL     OW 2506   6.656   4.939   2.715
  536SOL    HW1 2507   6.648   4.851   2.669
  536SOL    HW2 2508   6.698   5.005   2.653
  537SOL     OW 2509   3.670   6.823   4.593
  537SOL    HW1 2510   3.656   6.738   4.542
  537SOL    HW2 2511   3.747   6.873   4.553
  538SOL     OW 2512   1.140   4.445   4.925
  538SOL    HW1 2513   1.174   4.517   4.864
  538SOL    HW2 2514   1.148   4.356   4.880
  539SOL     OW 2515   1.447   5.264   2.060
  539SOL    HW1 2516   1.464   5.216   2.146
  539SOL    HW2 2517   1.483   5.209   1.984
  540SOL     OW 2518   1.688   0.462   3.913
  540SOL    HW1 2519   1.591   0.480   3.897
  540SOL    HW2 2520   1.701   0.428   4.006
  541SOL     OW 2521   4.486   5.715   4.031
  541SOL    HW1 2522   4.402   5.685   4.076
  541SOL    HW2 2523   4.537   5.774   4.093
  542SOL     OW 2524   4.157   6.617   6.600
  542SOL    HW1 2525   4.065   6.645   6.626
  542SOL    HW2 2526   4.160   6.518   6.587
  543SOL     OW 2527   5.959   3.496   3.232
  543SOL    HW1 2528   5.883   3.443   3.192
  543SOL    HW2 2529   6.029   3.510   3.162
  544SOL     OW 2530   0.583   5.357   0.346
  544SOL    HW1 2531   0.488   5.351   0.378
  544SOL    HW2 2532   0.637   5.286   0.391
  545SOL     OW 2533   3.977   1.144   0.990
  545SOL    HW1 2534   4.019   1.055   1.002
  545SOL    HW2 2535   3.912   1.160   1.065
  546SOL     OW 2536   1.658   3.663   2.200
  546SOL    HW1 2537   1.751   3.643   2.168
  546SOL    HW2 2538   1.593   3.607   2.149
  547SOL     OW 2539   3.351   2.789   0.967
  547SOL    HW1 2540   3.336   2.768   0.871
  547SOL    HW2 2541   3.329   2.708   1.022
  548SOL     OW 2542   3.478   3.438   1.501
  548SOL    HW1 2543   3.473   3.389   1.588
  548SOL    HW2 2544   3.483   3.373   1.426
  549SOL     OW 2545   5.269   2.405   1.518
  549SOL    HW1 2546   5.319   2.490   1.531
  549SOL    HW2 2547   5.329   2.327   1.539
  550SOL     OW 2548   0.994   5.631   3.197
  550SOL    HW1 2549   0.953   5.717   3.226
  550SOL    HW2 2550   0.958   5.606   3.107
  551SOL     OW 2551   6.655   0.189   1.708
  551SOL    HW1 2552   6.617   0.278   1.683
  551SOL    HW2 2553   6.746   0.201   1.749
  552SOL     OW 2554   6.018   4.129   5.797
  552SOL    HW1 2555   6.097   4.084   5.756
  552SOL    HW2 2556   5.984   4.201   5.736
  553SOL     OW 2557   2.838   6.704   3.724
  553SOL    HW1 2558   2.778   6.640   3.677
  553SOL    HW2 2559   2.836   6.792   3.678
  554SOL     OW 2560   5.415   6.896   0.391
  554SOL    HW1 2561   5.417   6.796   0.380
  554SOL    HW2 2562   5.434   6.919   0.487
  555SOL     OW 2563   2.897   5.023   5.143
  555SOL    HW1 2564   2.891   4.975   5.231
  555SOL    HW2 2565   2.963   4.976   5.084
  556SOL     OW 2566   4.865   1.700   4.181
  556SOL    HW1 2567   4.951   1.651   4.161
  556SOL    HW2 2568   4.814   1.649   4.250
  557SOL     OW 2569   6.738   5.072   6.519
  557SOL    HW1 2570   6.760   5.038   6.427
  557SOL    HW2 2571   6.641   5.058   6.537
  558SOL     OW 2572   3.019   3.152   4.040
  558SOL    HW1 2573   3.107   3.181   4.003
  558SOL    HW2 2574   3.028   3.061   4.080
  559SOL     OW 2575   6.969   5.582   5.386
  559SOL    HW1 2576   6.889   5.541   5.428
  559SOL    HW2 2577   0.010   5.512   5.375
  560SOL     OW 2578   6.472   4.050   3.154
  560SOL    HW1 2579   6.448   4.029   3.059
  560SOL    HW2 2580   6.405   4.006   3.215
  561SOL     OW 2581   0.113   2.165   0.444
  561SOL    HW1 2582   0.057   2.131   0.368
  561SOL    HW2 2583   0.076   2.253   0.475
  562SOL     OW 2584   3.802   0.611   5.933
  562SOL    HW1 2585   3.790   0.562   6.019
  562SOL    HW2 2586   3.896   0.597   5.900
  563SOL     OW 2587   2.140   1.499   3.595
  563SOL    HW1 2588   2.076   1.452   3.654
  563SOL    HW2 2589   2.098   1.516   3.506
  564SOL     OW 2590   0.882   3.012   0.346
  564SOL    HW1 2591   0.917   3.002   0.439
  564SOL    HW2 2592   0.794   2.965   0.338
  565SOL     OW 2593   3.256   3.576   4.005
  565SOL    HW1 2594   3.278   3.639   3.931
  565SOL    HW2 2595   3.276   3.619   4.093
  566SOL     OW 2596   1.157   3.575   4.083
  566SOL    HW1 2597   1.128   3.664   4.048
  566SOL    HW2 2598   1.256   3.568   4.075
  567SOL     OW 2599   2.981   2.869   1.578
  567SOL    HW1 2600   3.066   2.889   1.527
  567SOL    HW2 2601   2.990   2.781   1.624
  568SOL     OW 2602   4.438   6.584   0.351
  568SOL    HW1 2603   4.434   6.597   0.450
  568SOL    HW2 2604   4.496   6.504   0.331
  569SOL     OW 2605   0.885   3.199   0.608
  569SOL    HW1 2606   0.875   3.234   0.515
  569SOL    HW2 2607   0.974   3.228   0.645
  570SOL     OW 2608   3.436   0.244   6.731
  570SOL    HW1 2609   3.405   0.291   6.814
  570SOL    HW2 2610   3.377   0.270   6.655
  571SOL     OW 2611   3.047   5.241   4.073
  571SOL    HW1 2612   3.016   5.189   4.152
  571SOL    HW2 2613   2.981   5.231   3.998
  572SOL     OW 2614   2.243   5.203   5.384
  572SOL    HW1 2615   2.162   5.256   5.412
  572SOL    HW2 2616   2.288   5.166   5.465
  573SOL     OW 2617   5.896   1.266   6.140
  573SOL    HW1 2618   5.938   1.247   6.229
  573SOL    HW2 2619   5.884   1.364   6.129
  574SOL     OW 2620   3.772   0.756   4.745
  574SOL    HW1 2621   3.694   0.696   4.764
  574SOL    HW2 2622   3.741   0.838   4.697
  575SOL     OW 2623   4.418   2.931   1.683
  575SOL    HW1 2624   4.474   2.967   1.758
  575SOL    HW2 2625   4.369   3.005   1.638
  576SOL     OW 2626   1.175   3.131   3.428
  576SOL    HW1 2627   1.097   3.068   3.433
  576SOL    HW2 2628   1.204   3.156   3.521
  577SOL     OW 2629   1.733   1.121   2.326
  577SOL    HW1 2630   1.697   1.076   2.244
  577SOL    HW2 2631   1.829   1.094   2.339
  578SOL     OW 2632   0.391   5.253   4.587
  578SOL    HW1 2633   0.440   5.302   4.660
  578SOL    HW2 2634   0.316   5.201   4.628
  579SOL     OW 2635   1.630   4.283   3.087
  579SOL    HW1 2636   1.718   4.310   3.048
  579SOL    HW2 2637   1.636   4.190   3.123
  580SOL     OW 2638   4.410   5.154   5.487
  580SOL    HW1 2639   4.502   5.179   5.455
  580SOL    HW2 2640   4.398   5.055   5.479
  581SOL     OW 2641   2.084   2.913   1.904
  581SOL    HW1 2642   2.180   2.885   1.907
  581SOL    HW2 2643   2.052   2.910   1.809
  582SOL     OW 2644   4.357   5.351   2.451
  582SOL    HW1 2645   4.303   5.289   2.508
  582SOL    HW2 2646   4.390   5.427   2.507
  583SOL     OW 2647   2.518   6.371   5.048
  583SOL    HW1 2648   2.592   6.331   4.994
  583SOL    HW2 2649   2.456   6.420   4.987
  584SOL     OW 2650   3.178   6.664   6.784
  584SOL    HW1 2651   3.190   6.579   6.733
  584SOL    HW2 2652   3.246   6.731   6.752
  585SOL     OW 2653   4.210   0.791   0.152
  585SOL    HW1 2654   4.146   0.788   0.075
  585SOL    HW2 2655   4.303   0.777   0.118
  586SOL     OW 2656   3.421   0.421   0.236
  586SOL    HW1 2657   3.477   0.363   0.295
  586SOL    HW2 2658   3.478   0.460   0.164
  587SOL     OW 2659   4.460   2.487   3.399
  587SOL    HW1 2660   4.400   2.419   3.442
  587SOL    HW2 2661   4.466   2.468   3.301
  588SOL     OW 2662   1.976   4.782   1.614
  588SOL    HW1 2663   2.054   4.818   1.563
  588SOL    HW2 2664   1.996   4.689   1.645
  589SOL     OW 2665   3.551   5.569   2.083
  589SOL    HW1 2666   3.540   5.608   2.174
  589SOL    HW2 2667   3.585   5.639   2.020
  590SOL     OW 2668   5.770   1.485   1.399
  590SOL    HW1 2669   5.691   1.433   1.431
  590SOL    HW2 2670   5.799   1.549   1.470
  591SOL     OW 2671   3.423   6.432   3.584
  591SOL    HW1 2672   3.418   6.532   3.593
  591SOL    HW2 2673   3.518   6.403   3.595
  592SOL     OW 2674   4.437   0.401   2.246
  592SOL    HW1 2675   4.370   0.425   2.317
  592SOL    HW2 2676   4.529   0.404   2.286
  593SOL     OW 2677   4.951   2.611   3.708
  593SOL    HW1 2678   5.046   2.587   3.685
  593SOL    HW2 2679   4.896   2.528   3.713
  594SOL     OW 2680   5.817   0.382   0.894
  594SOL    HW1 2681   5.749   0.355   0.962
  594SOL    HW2 2682   5.888   0.312   0.888
  595SOL     OW 2683   5.439   6.656   3.204
  595SOL    HW1 2684   5.438   6.606   3.118
  595SOL    HW2 2685   5.451   6.754   3.187
  596SOL     OW 2686   0.193   5.054   2.734
  596SOL    HW1 2687   0.112   4.999   2.716
  596SOL    HW2 2688   0.221   5.042   2.830
  597SOL     OW 2689   2.567   0.119   6.768
  597SOL    HW1 2690   2.506   0.070   6.706
  597SOL    HW2 2691   2.514   0.155   6.845
  598SOL     OW 2692   3.851   4.109   4.627
  598SOL    HW1 2693   3.884   4.068   4.542
  598SOL    HW2 2694   3.913   4.086   4.702
  599SOL     OW 2695   2.556   5.719   2.680
  599SOL    HW1 2696   2.563   5.819   2.674
  599SOL    HW2 2697   2.460   5.692   2.671
  600SOL     OW 2698   6.179   2.020   6.517
  600SOL    HW1 2699   6.242   1.977   6.580
  600SOL    HW2 2700   6.230   2.081   6.455
  601SOL     OW 2701   1.469   0.661   3.880
  601SOL    HW1 2702   1.427   0.733   3.824
  601SOL    HW2 2703   1.439   0.672   3.975
  602SOL     OW 2704   2.001   0.284   6.375
  602SOL    HW1 2705   2.075   0.348   6.395
  602SOL    HW2 2706   2.014   0.200   6.427
  603SOL     OW 2707   2.854   2.701   5.330
  603SOL    HW1 2708   2.924   2.768   5.306
  603SOL    HW2 2709   2.794   2.738   5.401
  604SOL     OW 2710   0.740   1.584   1.343
  604SOL    HW1 2711   0.773   1.507   1.289
  604SOL    HW2 2712   0.647   1.565   1.376
  605SOL     OW 2713   6.505   4.795   0.615
  605SOL    HW1 2714   6.519   4.783   0.713
  605SOL    HW2 2715   6.506   4.892   0.592
  606SOL     OW 2716   4.794   6.364   5.315
  606SOL    HW1 2717   4.728   6.360   5.391
  606SOL    HW2 2718   4.878   6.409   5.347
  607SOL     OW 2719   6.426   4.655   5.242
  607SOL    HW1 2720   6.433   4.752   5.219
  607SOL    HW2 2721   6.330   4.630   5.254
  608SOL     OW 2722   4.003   6.252   6.740
  608SOL    HW1 2723   3.950   6.219   6.818
  608SOL    HW2 2724   4.100   6.257   6.766
  609SOL     OW 2725   3.623   2.890   2.264
  609SOL    HW1 2726   3.584   2.871   2.354
  609SOL    HW2 2727   3.710   2.939   2.274
  610SOL     OW 2728   5.696   3.061   0.363
  610SOL    HW1 2729   5.748   3.004   0.300
  610SOL    HW2 2730   5.600   3.063   0.334
  611SOL     OW 2731   4.651   0.028   1.971
  611SOL    HW1 2732   4.620   6.985   1.910
  611SOL    HW2 2733   4.573   0.066   2.019
  612SOL     OW 2734   3.723   5.567   4.120
  612SOL    HW1 2735   3.648   5.505   4.094
  612SOL    HW2 2736   3.810   5.526   4.093
  613SOL     OW 2737   4.251   5.264   5.286
  613SOL    HW1 2738   4.201   5.346   5.315
  613SOL    HW2 2739   4.308   5.232   5.361
  614SOL     OW 2740   4.626   5.084   5.872
  614SOL    HW1 2741   4.663   5.163   5.822
  614SOL    HW2 2742   4.575   5.026   5.808
  615SOL     OW 2743   6.845   1.866   0.789
  615SOL    HW1 2744   6.922   1.818   0.830
  615SOL    HW2 2745   6.794   1.915   0.859
  616SOL     OW 2746   0.185   2.429   2.246
  616SOL    HW1 2747   0.266   2.430   2.304
  616SOL    HW2 2748   0.212   2.436   2.150
  617SOL     OW 2749   0.258   4.637   5.833
  617SOL    HW1 2750   0.333   4.594   5.883
  617SOL    HW2 2751   0.275   4.629   5.735
  618SOL     OW 2752   0.807   2.267   0.801
  618SOL    HW1 2753   0.745   2.236   0.873
  618SOL    HW2 2754   0.779   2.229   0.713
  619SOL     OW 2755   3.496   1.408   0.744
  619SOL    HW1 2756   3.484   1.317   0.705
  619SOL    HW2 2757   3.520   1.399   0.841
  620SOL     OW 2758   4.809   2.146   1.033
  620SOL    HW1 2759   4.835   2.092   1.113
  620SOL    HW2 2760   4.891   2.180   0.988
  621SOL     OW 2761   3.067   6.115   6.790
  621SOL    HW1 2762   2.977   6.075   6.807
  621SOL    HW2 2763   3.064   6.171   6.707
  622SOL     OW 2764   1.135   1.132   6.324
  622SOL    HW1 2765   1.145   1.230   6.342
  622SOL    HW2 2766   1.214   1.082   6.360
  623SOL     OW 2767   1.048   5.465   5.793
  623SOL    HW1 2768   0.983   5.512   5.852
  623SOL    HW2 2769   1.002   5.387   5.749
  624SOL     OW 2770   0.304   2.070   1.033
  624SOL    HW1 2771   0.237   2.111   0.969
  624SOL    HW2 2772   0.351   2.143   1.083
  625SOL     OW 2773   2.669   1.788   1.290
  625SOL    HW1 2774   2.600   1.739   1.237
  625SOL    HW2 2775   2.711   1.725   1.356
  626SOL     OW 2776   2.897   5.491   3.892
  626SOL    HW1 2777   2.971   5.463   3.831
  626SOL    HW2 2778   2.839   5.413   3.913
  627SOL     OW 2779   5.146   6.917   0.319
  627SOL    HW1 2780   5.240   6.932   0.348
  627SOL    HW2 2781   5.128   6.819   0.311
  628SOL     OW 2782   5.855   5.503   5.867
  628SOL    HW1 2783   5.775   5.557   5.841
  628SOL    HW2 2784   5.824   5.421   5.916
  629SOL     OW 2785   6.736   6.717   0.282
  629SOL    HW1 2786   6.740   6.730   0.381
  629SOL    HW2 2787   6.711   6.803   0.237
  630SOL     OW 2788   6.763   1.540   2.223
  630SOL    HW1 2789   6.860   1.556   2.240
  630SOL    HW2 2790   6.752   1.458   2.167
  631SOL     OW 2791   3.326   6.772   5.118
  631SOL    HW1 2792   3.240   6.775   5.069
  631SOL    HW2 2793   3.308   6.755   5.215
  632SOL     OW 2794   2.811   1.850   0.153
  632SOL    HW1 2795   2.895   1.835   0.100
  632SOL    HW2 2796   2.830   1.910   0.230
  633SOL     OW 2797   4.948   4.232   0.236
  633SOL    HW1 2798   4.997   4.198   0.156
  633SOL    HW2 2799   4.921   4.327   0.221
  634SOL     OW 2800   4.785   4.213   1.897
  634SOL    HW1 2801   4.689   4.234   1.913
  634SOL    HW2 2802   4.838   4.236   1.979
  635SOL     OW 2803   4.740   4.994   1.183
  635SOL    HW1 2804   4.721   5.087   1.152
  635SOL    HW2 2805   4.801   4.949   1.118
  636SOL     OW 2806   4.578   6.092   6.922
  636SOL    HW1 2807   4.672   6.058   6.923
  636SOL    HW2 2808   4.521   6.029   6.870
  637SOL     OW 2809   6.510   3.481   1.693
  637SOL    HW1 2810   6.441   3.536   1.646
  637SOL    HW2 2811   6.593   3.475   1.636
  638SOL     OW 2812   5.572   2.387   2.183
  638SOL    HW1 2813   5.494   2.346   2.136
  638SOL    HW2 2814   5.633   2.428   2.116
  639SOL     OW 2815   5.389   4.242   2.624
  639SOL    HW1 2816   5.291   4.263   2.623
  639SOL    HW2 2817   5.433   4.284   2.545
  640SOL     OW 2818   0.756   5.178   4.478
  640SOL    HW1 2819   0.806   5.132   4.404
  640SOL    HW2 2820   0.660   5.148   4.476
  641SOL     OW 2821   6.929   5.863   4.194
  641SOL    HW1 2822   6.902   5.801   4.120
  641SOL    HW2 2823   7.024   5.890   4.182
  642SOL     OW 2824   6.942   4.010   4.319
  642SOL    HW1 2825   7.008   4.042   4.387
  642SOL    HW2 2826   6.946   3.911   4.312
  643SOL     OW 2827   5.551   4.629   5.264
  643SOL    HW1 2828   5.557   4.660   5.359
  643SOL    HW2 2829   5.643   4.617   5.227
  644SOL     OW 2830   1.343   6.640   4.387
  644SOL    HW1 2831   1.268   6.697   4.352
  644SOL    HW2 2832   1.410   6.698   4.433
  645SOL     OW 2833   5.376   2.364   4.440
  645SOL    HW1 2834   5.459   2.310   4.424
  645SOL    HW2 2835   5.310   2.307   4.489
  646SOL     OW 2836   2.302   1.258   3.767
  646SOL    HW1 2837   2.240   1.315   3.821
  646SOL    HW2 2838   2.384   1.238   3.820
  647SOL     OW 2839   5.737   1.994   5.646
  647SOL    HW1 2840   5.784   2.052   5.712
  647SOL    HW2 2841   5.802   1.930   5.605
  648SOL     OW 2842   6.975   4.119   3.274
  648SOL    HW1 2843   0.034   4.126   3.319
  648SOL    HW2 2844   6.913   4.190   3.311
  649SOL     OW 2845   4.061   4.142   0.864
  649SOL    HW1 2846   4.043   4.237   0.888
  649SOL    HW2 2847   3.975   4.093   0.851
  650SOL     OW 2848   5.484   3.976   1.026
  650SOL    HW1 2849   5.548   4.027   0.968
  650SOL    HW2 2850   5.485   3.880   0.999
  651SOL     OW 2851   6.763   6.483   6.413
  651SOL    HW1 2852   6.746   6.567   6.466
  651SOL    HW2 2853   6.807   6.416   6.471
  652SOL     OW 2854   5.745   6.327   3.519
  652SOL    HW1 2855   5.670   6.385   3.487
  652SOL    HW2 2856   5.776   6.359   3.609
  653SOL     OW 2857   3.400   6.053   4.945
  653SOL    HW1 2858   3.452   6.111   5.007
  653SOL    HW2 2859   3.463   6.009   4.880
  654SOL     OW 2860   7.017   3.709   5.802
  654SOL    HW1 2861   6.919   3.709   5.787
  654SOL    HW2 2862   0.022   3.616   5.800
  655SOL     OW 2863   0.761   6.743   2.280
  655SOL    HW1 2864   0.800   6.662   2.324
  655SOL    HW2 2865   0.831   6.814   2.274
  656SOL     OW 2866   1.691   5.334   1.625
  656SOL    HW1 2867   1.700   5.407   1.693
  656SOL    HW2 2868   1.626   5.362   1.554
  657SOL     OW 2869   1.672   1.854   1.610
  657SOL    HW1 2870   1.589   1.800   1.595
  657SOL    HW2 2871   1.675   1.884   1.705
  658SOL     OW 2872   2.868   4.005   6.130
  658SOL    HW1 2873   2.942   4.055   6.175
  658SOL    HW2 2874   2.811   4.069   6.079
  659SOL     OW 2875   2.259   6.352   6.013
  659SOL    HW1 2876   2.275   6.262   5.972
  659SOL    HW2 2877   2.340   6.409   6.002
  660SOL     OW 2878   5.277   4.167   1.873
  660SOL    HW1 2879   5.294   4.160   1.971
  660SOL    HW2 2880   5.184   4.137   1.853
  661SOL     OW 2881   4.392   6.542   3.425
  661SOL    HW1 2882   4.373   6.632   3.463
  661SOL    HW2 2883   4.334   6.525   3.346
  662SOL     OW 2884   4.185   0.942   5.622
  662SOL    HW1 2885   4.189   0.978   5.715
  662SOL    HW2 2886   4.097   0.967   5.580
  663SOL     OW 2887   2.513   4.297   6.283
  663SOL    HW1 2888   2.482   4.203   6.299
  663SOL    HW2 2889   2.506   4.318   6.186
  664SOL     OW 2890   0.137   6.138   5.945
  664SOL    HW1 2891   0.092   6.227   5.950
  664SOL    HW2 2892   0.235   6.148   5.963
  665SOL     OW 2893   4.695   5.281   2.088
  665SOL    HW1 2894   4.688   5.376   2.059
  665SOL    HW2 2895   4.667   5.273   2.183
  666SOL     OW 2896   5.233   1.621   2.028
  666SOL    HW1 2897   5.277   1.533   2.045
  666SOL    HW2 2898   5.289   1.694   2.066
  667SOL     OW 2899   0.808   4.937   2.973
  667SOL    HW1 2900   0.822   5.027   2.932
  667SOL    HW2 2901   0.729   4.893   2.931
  668SOL     OW 2902   4.804   6.162   5.856
  668SOL    HW1 2903   4.797   6.218   5.773
  668SOL    HW2 2904   4.876   6.094   5.843
  669SOL     OW 2905   5.219   0.119   3.023
  669SOL    HW1 2906   5.213   0.179   3.103
  669SOL    HW2 2907   5.192   0.026   3.049
  670SOL     OW 2908   3.070   2.645   1.726
  670SOL    HW1 2909   3.166   2.620   1.740
  670SOL    HW2 2910   3.011   2.574   1.764
  671SOL     OW 2911   3.026   6.475   0.949
  671SOL    HW1 2912   3.091   6.544   0.916
  671SOL    HW2 2913   2.937   6.490   0.906
  672SOL     OW 2914   6.858   5.674   1.730
  672SOL    HW1 2915   6.935   5.612   1.741
  672SOL    HW2 2916   6.777   5.637   1.776
  673SOL     OW 2917   6.644   0.540   1.921
  673SOL    HW1 2918   6.626   0.521   1.824
  673SOL    HW2 2919   6.664   0.454   1.968
  674SOL     OW 2920   0.377   1.314   4.994
  674SOL    HW1 2921   0.411   1.220   4.990
  674SOL    HW2 2922   0.453   1.377   5.012
  675SOL     OW 2923   0.160   1.805   2.133
  675SOL    HW1 2924   0.128   1.854   2.214
  675SOL    HW2 2925   0.257   1.822   2.120
  676SOL     OW 2926   3.180   5.378   3.238
  676SOL    HW1 2927   3.201   5.337   3.150
  676SOL    HW2 2928   3.259   5.429   3.272
  677SOL     OW 2929   5.430   1.570   0.450
  677SOL    HW1 2930   5.438   1.570   0.351
  677SOL    HW2 2931   5.500   1.631   0.489
  678SOL     OW 2932   2.485   6.828   4.739
  678SOL    HW1 2933   2.502   6.793   4.646
  678SOL    HW2 2934   2.566   6.814   4.795
  679SOL     OW 2935   4.616   2.429   3.990
  679SOL    HW1 2936   4.579   2.367   4.060
  679SOL    HW2 2937   4.558   2.424   3.909
  680SOL     OW 2938   5.324   5.362   4.737
  680SOL    HW1 2939   5.392   5.435   4.729
  680SOL    HW2 2940   5.333   5.317   4.826
  681SOL     OW 2941   4.596   5.267   1.643
  681SOL    HW1 2942   4.506   5.251   1.601
  681SOL    HW2 2943   4.647   5.181   1.645
  682SOL     OW 2944   6.648   0.541   1.205
  682SOL    HW1 2945   6.664   0.503   1.115
  682SOL    HW2 2946   6.713   0.616   1.222
  683SOL     OW 2947   5.453   2.846   0.801
  683SOL    HW1 2948   5.363   2.872   0.837
  683SOL    HW2 2949   5.441   2.802   0.712
  684SOL     OW 2950   6.429   1.094   0.423
  684SOL    HW1 2951   6.389   1.185   0.408
  684SOL    HW2 2952   6.503   1.101   0.490
  685SOL     OW 2953   4.116   1.744   3.989
  685SOL    HW1 2954   4.071   1.663   4.025
  685SOL    HW2 2955   4.051   1.797   3.934
  686SOL     OW 2956   5.114   2.843   4.127
  686SOL    HW1 2957   5.020   2.876   4.134
  686SOL    HW2 2958   5.170   2.887   4.197
  687SOL     OW 2959   0.728   2.572   4.232
  687SOL    HW1 2960   0.828   2.570   4.240
  687SOL    HW2 2961   0.689   2.506   4.296
  688SOL     OW 2962   0.435   1.867   6.842
  688SOL    HW1 2963   0.375   1.825   6.910
  688SOL    HW2 2964   0.393   1.861   6.751
  689SOL     OW 2965   1.178   4.925   6.475
  689SOL    HW1 2966   1.112   4.883   6.412
  689SOL    HW2 2967   1.129   4.985   6.538
  690SOL     OW 2968   0.139   2.621   2.989
  690SOL    HW1 2969   0.068   2.676   3.033
  690SOL    HW2 2970   0.205   2.682   2.945
  691SOL     OW 2971   2.833   1.175   0.188
  691SOL    HW1 2972   2.925   1.168   0.150
  691SOL    HW2 2973   2.815   1.270   0.214
  692SOL     OW 2974   3.841   1.059   3.789
  692SOL    HW1 2975   3.744   1.066   3.767
  692SOL    HW2 2976   3.889   1.137   3.750
  693SOL     OW 2977   6.014   0.289   4.130
  693SOL    HW1 2978   5.953   0.338   4.067
  693SOL    HW2 2979   6.106   0.325   4.120
  694SOL     OW 2980   4.398   6.846   4.211
  694SOL    HW1 2981   4.391   6.895   4.298
  694SOL    HW2 2982   4.315   6.794   4.194
  695SOL     OW 2983   4.429   6.736   3.747
  695SOL    HW1 2984   4.458   6.736   3.843
  695SOL    HW2 2985   4.471   6.659   3.700
  696SOL     OW 2986   4.729   5.018   3.537
  696SOL    HW1 2987   4.644   5.054   3.499
  696SOL    HW2 2988   4.739   4.922   3.512
  697SOL     OW 2989   1.359   4.323   3.068
  697SOL    HW1 2990   1.455   4.310   3.093
  697SOL    HW2 2991   1.352   4.388   2.992
  698SOL     OW 2992   5.092   6.019   1.094
  698SOL    HW1 2993   5.053   5.961   1.023
  698SOL    HW2 2994   5.073   6.115   1.072
  699SOL     OW 2995   1.903   3.866   6.758
  699SOL    HW1 2996   1.998   3.835   6.756
  699SOL    HW2 2997   1.865   3.853   6.849
  700SOL     OW 2998   3.161   1.305   2.233
  700SOL    HW1 2999   3.106   1.274   2.156
  700SOL    HW2 3000   3.157   1.405   2.239
  701SOL     OW 3001   6.335   3.858   7.014
  701SOL    HW1 3002   6.335   3.767   0.024
  701SOL    HW2 3003   6.312   3.925   0.055
  702SOL     OW 3004   1.549   6.547   5.099
  702SOL    HW1 3005   1.628   6.586   5.051
  702SOL    HW2 3006   1.579   6.470   5.155
  703SOL     OW 3007   3.579   2.899   6.290
  703SOL    HW1 3008   3.502   2.871   6.233
  703SOL    HW2 3009   3.549   2.907   6.385
  704SOL     OW 3010   1.727   2.812   6.739
  704SOL    HW1 3011   1.709   2.908   6.760
  704SOL    HW2 3012   1.656   2.777   6.677
  705SOL     OW 3013   5.891   4.655   2.907
  705SOL    HW1 3014   5.986   4.680   2.926
  705SOL    HW2 3015   5.834   4.682   2.985
  706SOL     OW 3016   3.962   1.805   4.998
  706SOL    HW1 3017   3.946   1.779   5.093
  706SOL    HW2 3018   3.956   1.724   4.940
  707SOL     OW 3019   4.412   4.957   3.253
  707SOL    HW1 3020   4.345   5.021   3.215
  707SOL    HW2 3021   4.364   4.882   3.297
  708SOL     OW 3022   2.861   0.852   2.644
  708SOL    HW1 3023   2.767   0.819   2.641
  708SOL    HW2 3024   2.873   0.912   2.723
  709SOL     OW 3025   0.658   6.023   0.416
  709SOL    HW1 3026   0.632   5.932   0.447
  709SOL    HW2 3027   0.754   6.021   0.387
  710SOL     OW 3028   3.920   2.459   1.056
  710SOL    HW1 3029   3.937   2.456   1.154
  710SOL    HW2 3030   3.880   2.373   1.026
  711SOL     OW 3031   0.181   3.106   6.011
  711SOL    HW1 3032   0.186   3.165   6.092
  711SOL    HW2 3033   0.232   3.022   6.027
  712SOL     OW 3034   4.353   2.025   1.237
  712SOL    HW1 3035   4.312   1.999   1.325
  712SOL    HW2 3036   4.310   1.972   1.164
  713SOL     OW 3037   3.829   3.459   6.149
  713SOL    HW1 3038   3.761   3.412   6.093
  713SOL    HW2 3039   3.871   3.393   6.213
  714SOL     OW 3040   0.284   4.988   3.480
  714SOL    HW1 3041   0.205   4.928   3.470
  714SOL    HW2 3042   0.336   4.988   3.394
  715SOL     OW 3043   5.102   6.344   6.783
  715SOL    HW1 3044   5.127   6.248   6.778
  715SOL    HW2 3045   5.005   6.355   6.761
  716SOL     OW 3046   0.395   1.052   2.153
  716SOL    HW1 3047   0.494   1.061   2.145
  716SOL    HW2 3048   0.360   0.999   2.075
  717SOL     OW 3049   6.704   4.883   4.085
  717SOL    HW1 3050   6.668   4.828   4.161
  717SOL    HW2 3051   6.717   4.977   4.116
  718SOL     OW 3052   4.817   3.859   5.997
  718SOL    HW1 3053   4.904   3.872   5.949
  718SOL    HW2 3054   4.803   3.762   6.014
  719SOL     OW 3055   6.127   0.081   2.920
  719SOL    HW1 3056   6.180   0.090   3.004
  719SOL    HW2 3057   6.044   0.137   2.927
  720SOL     OW 3058   2.460   0.021   6.100
  720SOL    HW1 3059   2.422   0.036   6.009
  720SOL    HW2 3060   2.425   0.090   6.163
  721SOL     OW 3061   2.412   1.950   2.198
  721SOL    HW1 3062   2.510   1.936   2.190
  721SOL    HW2 3063   2.364   1.864   2.184
  722SOL     OW 3064   2.406   0.838   5.356
  722SOL    HW1 3065   2.345   0.846   5.435
  722SOL    HW2 3066   2.441   0.929   5.331
  723SOL     OW 3067   1.902   4.678   3.167
  723SOL    HW1 3068   1.858   4.595   3.203
  723SOL    HW2 3069   1.865   4.758   3.213
  724SOL     OW 3070   0.618   1.377   3.891
  724SOL    HW1 3071   0.685   1.316   3.931
  724SOL    HW2 3072   0.647   1.403   3.799
  725SOL     OW 3073   1.382   5.467   2.208
  725SOL    HW1 3074   1.316   5.540   2.188
  725SOL    HW2 3075   1.383   5.401   2.133
  726SOL     OW 3076   3.077   4.969   1.586
  726SOL    HW1 3077   2.981   4.978   1.612
  726SOL    HW2 3078   3.119   5.060   1.584
  727SOL     OW 3079   6.273   4.511   5.813
  727SOL    HW1 3080   6.201   4.572   5.780
  727SOL    HW2 3081   6.312   4.461   5.736
  728SOL     OW 3082   6.345   3.007   3.604
  728SOL    HW1 3083   6.272   3.035   3.666
  728SOL    HW2 3084   6.431   3.048   3.633
  729SOL     OW 3085   0.440   1.692   0.992
  729SOL    HW1 3086   0.531   1.694   1.033
  729SOL    HW2 3087   0.377   1.747   1.047
  730SOL     OW 3088   6.719   0.184   4.366
  730SOL    HW1 3089   6.806   0.231   4.350
  730SOL    HW2 3090   6.732   0.085   4.358
  731SOL     OW 3091   4.223   5.522   6.611
  731SOL    HW1 3092   4.151   5.533   6.543
  731SOL    HW2 3093   4.186   5.473   6.691
  732SOL     OW 3094   6.128   2.673   1.585
  732SOL    HW1 3095   6.093   2.583   1.559
  732SOL    HW2 3096   6.063   2.717   1.647
  733SOL     OW 3097   5.782   0.620   4.545
  733SOL    HW1 3098   5.852   0.656   4.483
  733SOL    HW2 3099   5.714   0.568   4.494
  734SOL     OW 3100   5.878   4.778   3.171
  734SOL    HW1 3101   5.925   4.690   3.184
  734SOL    HW2 3102   5.803   4.785   3.236
  735SOL     OW 3103   4.131   1.736   0.455
  735SOL    HW1 3104   4.158   1.642   0.474
  735SOL    HW2 3105   4.158   1.761   0.362
  736SOL     OW 3106   0.771   1.587   3.496
  736SOL    HW1 3107   0.858   1.599   3.544
  736SOL    HW2 3108   0.787   1.545   3.407
  737SOL     OW 3109   4.996   2.005   5.717
  737SOL    HW1 3110   4.983   2.092   5.765
  737SOL    HW2 3111   5.094   1.987   5.709
  738SOL     OW 3112   3.037   3.799   1.553
  738SOL    HW1 3113   3.021   3.804   1.651
  738SOL    HW2 3114   2.950   3.806   1.505
  739SOL     OW 3115   4.908   0.728   4.774
  739SOL    HW1 3116   4.964   0.802   4.810
  739SOL    HW2 3117   4.940   0.640   4.811
  740SOL     OW 3118   5.829   1.245   2.247
  740SOL    HW1 3119   5.882   1.181   2.191
  740SOL    HW2 3120   5.780   1.195   2.318
  741SOL     OW 3121   1.686   0.410   3.221
  741SOL    HW1 3122   1.710   0.507   3.220
  741SOL    HW2 3123   1.629   0.389   3.141
  742SOL     OW 3124   2.227   6.920   2.087
  742SOL    HW1 3125   2.220   6.820   2.082
  742SOL    HW2 3126   2.157   6.956   2.148
  743SOL     OW 3127   0.769   5.290   3.000
  743SOL    HW1 3128   0.710   5.219   3.035
  743SOL    HW2 3129   0.844   5.307   3.064
  744SOL     OW 3130   5.822   0.824   0.996
  744SOL    HW1 3131   5.858   0.735   1.023
  744SOL    HW2 3132   5.749   0.851   1.058
  745SOL     OW 3133   1.597   5.816   5.071
  745SOL    HW1 3134   1.634   5.904   5.043
  745SOL    HW2 3135   1.650   5.781   5.149
  746SOL     OW 3136   6.062   3.751   5.981
  746SOL    HW1 3137   5.989   3.802   6.026
  746SOL    HW2 3138   6.120   3.708   6.050
  747SOL     OW 3139   3.762   5.863   4.944
  747SOL    HW1 3140   3.836   5.813   4.899
  747SOL    HW2 3141   3.694   5.890   4.876
  748SOL     OW 3142   4.174   5.471   2.795
  748SOL    HW1 3143   4.197   5.546   2.857
  748SOL    HW2 3144   4.169   5.386   2.846
  749SOL     OW 3145   6.194   4.191   4.425
  749SOL    HW1 3146   6.240   4.109   4.392
  749SOL    HW2 3147   6.228   4.271   4.375
  750SOL     OW 3148   3.028   1.142   1.108
  750SOL    HW1 3149   3.107   1.112   1.055
  750SOL    HW2 3150   3.059   1.186   1.193
  751SOL     OW 3151   4.557   1.786   0.081
  751SOL    HW1 3152   4.467   1.777   0.037
  751SOL    HW2 3153   4.566   1.878   0.119
  752SOL     OW 3154   2.676   2.870   0.686
  752SOL    HW1 3155   2.674   2.899   0.782
  752SOL    HW2 3156   2.754   2.914   0.640
  753SOL     OW 3157   0.987   3.613   6.260
  753SOL    HW1 3158   0.998   3.535   6.321
  753SOL    HW2 3159   0.958   3.693   6.312
  754SOL     OW 3160   4.612   1.170   6.351
  754SOL    HW1 3161   4.558   1.233   6.407
  754SOL    HW2 3162   4.694   1.143   6.401
  755SOL     OW 3163   1.580   4.642   5.205
  755SOL    HW1 3164   1.628   4.638   5.292
  755SOL    HW2 3165   1.640   4.608   5.132
  756SOL     OW 3166   2.593   5.893   0.244
  756SOL    HW1 3167   2.555   5.970   0.296
  756SOL    HW2 3168   2.522   5.825   0.229
  757SOL     OW 3169   0.150   6.333   4.293
  757SOL    HW1 3170   0.234   6.302   4.337
  757SOL    HW2 3171   0.156   6.315   4.195
  758SOL     OW 3172   4.353   0.333   3.641
  758SOL    HW1 3173   4.317   0.361   3.729
  758SOL    HW2 3174   4.282   0.286   3.589
  759SOL     OW 3175   0.643   3.141   2.000
  759SOL    HW1 3176   0.545   3.163   2.008
  759SOL    HW2 3177   0.656   3.042   2.001
  760SOL     OW 3178   6.259   0.117   3.564
  760SOL    HW1 3179   6.351   0.155   3.569
  760SOL    HW2 3180   6.263   0.018   3.558
  761SOL     OW 3181   5.298   4.021   6.403
  761SOL    HW1 3182   5.220   3.959   6.400
  761SOL    HW2 3183   5.376   3.975   6.445
  762SOL     OW 3184   2.974   0.189   5.412
  762SOL    HW1 3185   3.027   0.200   5.495
  762SOL    HW2 3186   2.986   0.270   5.353
  763SOL     OW 3187   4.001   5.866   6.550
  763SOL    HW1 3188   3.915   5.916   6.552
  763SOL    HW2 3189   4.048   5.883   6.464
  764SOL     OW 3190   5.536   0.873   5.700
  764SOL    HW1 3191   5.444   0.859   5.663
  764SOL    HW2 3192   5.595   0.797   5.671
  765SOL     OW 3193   1.480   5.748   0.931
  765SOL    HW1 3194   1.411   5.692   0.978
  765SOL    HW2 3195   1.495   5.712   0.839
  766SOL     OW 3196   2.804   2.190   5.239
  766SOL    HW1 3197   2.786   2.287   5.226
  766SOL    HW2 3198   2.722   2.138   5.217
  767SOL     OW 3199   6.359   6.313   3.464
  767SOL    HW1 3200   6.457   6.300   3.450
  767SOL    HW2 3201   6.325   6.244   3.528
  768SOL     OW 3202   1.740   5.215   2.997
  768SOL    HW1 3203   1.807   5.204   3.070
  768SOL    HW2 3204   1.681   5.134   2.994
  769SOL     OW 3205   2.371   1.080   5.198
  769SOL    HW1 3206   2.433   1.087   5.120
  769SOL    HW2 3207   2.412   1.124   5.278
  770SOL     OW 3208   1.587   5.500   3.925
  770SOL    HW1 3209   1.670   5.443   3.926
  770SOL    HW2 3210   1.510   5.444   3.895
  771SOL     OW 3211   1.080   4.993   2.853
  771SOL    HW1 3212   1.010   4.950   2.909
  771SOL    HW2 3213   1.170   4.976   2.893
  772SOL     OW 3214   5.727   4.350   0.080
  772SOL    HW1 3215   5.826   4.358   0.068
  772SOL    HW2 3216   5.686   4.317   7.025
  773SOL     OW 3217   0.550   4.222   3.404
  773SOL    HW1 3218   0.623   4.210   3.337
  773SOL    HW2 3219   0.587   4.216   3.496
  774SOL     OW 3220   1.674   1.477   1.551
  774SOL    HW1 3221   1.593   1.432   1.513
  774SOL    HW2 3222   1.743   1.407   1.573
  775SOL     OW 3223   2.087   1.921   4.052
  775SOL    HW1 3224   2.105   1.825   4.073
  775SOL    HW2 3225   2.131   1.979   4.121
  776SOL     OW 3226   0.107   0.379   6.365
  776SOL    HW1 3227   0.037   0.381   6.293
  776SOL    HW2 3228   0.198   0.378   6.324
  777SOL     OW 3229   1.939   4.385   1.077
  777SOL    HW1 3230   1.999   4.413   1.003
  777SOL    HW2 3231   1.857   4.341   1.038
  778SOL     OW 3232   2.267   0.753   1.477
  778SOL    HW1 3233   2.176   0.718   1.453
  778SOL    HW2 3234   2.335   0.683   1.458
  779SOL     OW 3235   6.975   2.210   2.357
  779SOL    HW1 3236   0.008   2.257   2.419
  779SOL    HW2 3237   6.998   2.232   2.262
  780SOL     OW 3238   0.687   2.858   4.376
  780SOL    HW1 3239   0.682   2.791   4.302
  780SOL    HW2 3240   0.631   2.826   4.452
  781SOL     OW 3241   5.723   6.441   0.687
  781SOL    HW1 3242   5.629   6.417   0.714
  781SOL    HW2 3243   5.743   6.401   0.598
  782SOL     OW 3244   1.446   3.536   6.252
  782SOL    HW1 3245   1.528   3.581   6.289
  782SOL    HW2 3246   1.366   3.592   6.271
  783SOL     OW 3247   4.951   4.762   1.826
  783SOL    HW1 3248   5.000   4.691   1.877
  783SOL    HW2 3249   4.884   4.719   1.766
  784SOL     OW 3250   4.091   4.990   1.220
  784SOL    HW1 3251   4.062   4.966   1.313
  784SOL    HW2 3252   4.148   4.917   1.183
  785SOL     OW 3253   0.748   1.944   3.486
  785SOL    HW1 3254   0.809   1.870   3.459
  785SOL    HW2 3255   0.653   1.916   3.475
  786SOL     OW 3256   0.166   0.278   2.720
  786SOL    HW1 3257   0.085   0.317   2.763
  786SOL    HW2 3258   0.246   0.336   2.740
  787SOL     OW 3259   1.433   1.251   6.859
  787SOL    HW1 3260   1.436   1.288   6.953
  787SOL    HW2 3261   1.421   1.152   6.862
  788SOL     OW 3262   4.353   1.682   1.316
  788SOL    HW1 3263   4.399   1.699   1.229
  788SOL    HW2 3264   4.256   1.663   1.300
  789SOL     OW 3265   4.260   4.568   1.860
  789SOL    HW1 3266   4.320   4.488   1.866
  789SOL    HW2 3267   4.240   4.601   1.952
  790SOL     OW 3268   2.803   1.606   3.147
  790SOL    HW1 3269   2.772   1.526   3.197
  790SOL    HW2 3270   2.883   1.645   3.194
  791SOL     OW 3271   1.844   6.434   4.655
  791SOL    HW1 3272   1.914   6.498   4.621
  791SOL    HW2 3273   1.787   6.480   4.723
  792SOL     OW 3274   0.954   0.853   1.927
  792SOL    HW1 3275   1.006   0.858   2.013
  792SOL    HW2 3276   0.857   0.845   1.948
  793SOL     OW 3277   4.726   5.715   4.631
  793SOL    HW1 3278   4.756   5.692   4.538
  793SOL    HW2 3279   4.805   5.713   4.693
  794SOL     OW 3280   2.969   3.811   5.767
  794SOL    HW1 3281   2.869   3.812   5.779
  794SOL    HW2 3282   3.009   3.887   5.819
  795SOL     OW 3283   3.877   0.132   5.474
  795SOL    HW1 3284   3.847   0.225   5.493
  795SOL    HW2 3285   3.894   0.083   5.560
  796SOL     OW 3286   1.133   2.664   0.018
  796SOL    HW1 3287   1.225   2.682   7.012
  796SOL    HW2 3288   1.134   2.672   0.118
  797SOL     OW 3289   4.720   0.558   0.809
  797SOL    HW1 3290   4.736   0.469   0.766
  797SOL    HW2 3291   4.774   0.565   0.893
  798SOL     OW 3292   3.496   6.696   2.163
  798SOL    HW1 3293   3.486   6.788   2.126
  798SOL    HW2 3294   3.474   6.697   2.261
  799SOL     OW 3295   0.412   0.054   6.444
  799SOL    HW1 3296   0.321   0.087   6.470
  799SOL    HW2 3297   0.425   6.991   6.479
  800SOL     OW 3298   6.193   0.890   2.074
  800SOL    HW1 3299   6.230   0.903   1.982
  800SOL    HW2 3300   6.236   0.955   2.137
  801SOL     OW 3301   2.290   4.736   5.148
  801SOL    HW1 3302   2.200   4.722   5.189
  801SOL    HW2 3303   2.301   4.674   5.070
  802SOL     OW 3304   3.018   2.442   0.340
  802SOL    HW1 3305   2.993   2.531   0.380
  802SOL    HW2 3306   3.053   2.456   0.248
  803SOL     OW 3307   1.423   0.387   5.954
  803SOL    HW1 3308   1.341   0.355   6.001
  803SOL    HW2 3309   1.494   0.408   6.021
  804SOL     OW 3310   6.270   6.575   1.106
  804SOL    HW1 3311   6.198   6.522   1.061
  804SOL    HW2 3312   6.243   6.671   1.110
  805SOL     OW 3313   1.925   1.188   4.576
  805SOL    HW1 3314   1.996   1.156   4.512
  805SOL    HW2 3315   1.964   1.198   4.667
  806SOL     OW 3316   5.331   0.512   5.431
  806SOL    HW1 3317   5.263   0.559   5.374
  806SOL    HW2 3318   5.303   0.516   5.527
  807SOL     OW 3319   0.443   0.425   4.998
  807SOL    HW1 3320   0.450   0.504   4.937
  807SOL    HW2 3321   0.347   0.398   5.007
  808SOL     OW 3322   4.364   3.834   0.040
  808SOL    HW1 3323   4.452   3.787   0.050
  808SOL    HW2 3324   4.307   3.785   7.005
  809SOL     OW 3325   0.397   4.912   0.946
  809SOL    HW1 3326   0.481   4.910   0.892
  809SOL    HW2 3327   0.335   4.981   0.909
  810SOL     OW 3328   3.263   4.614   0.278
  810SOL    HW1 3329   3.349   4.659   0.305
  810SOL    HW2 3330   3.272   4.578   0.186
  811SOL     OW 3331   5.057   5.955   4.550
  811SOL    HW1 3332   5.113   5.883   4.592
  811SOL    HW2 3333   4.996   5.994   4.619
  812SOL     OW 3334   0.164   1.284   2.533
  812SOL    HW1 3335   0.261   1.262   2.535
  812SOL    HW2 3336   0.152   1.381   2.511
  813SOL     OW 3337   3.766   7.007   4.395
  813SOL    HW1 3338   3.861   0.006   4.390
  813SOL    HW2 3339   3.730   6.993   4.303
  814SOL     OW 3340   6.457   5.378   2.422
  814SOL    HW1 3341   6.539   5.321   2.426
  814SOL    HW2 3342   6.402   5.352   2.343
  815SOL     OW 3343   6.567   3.101   3.292
  815SOL    HW1 3344   6.518   3.186   3.312
  815SOL    HW2 3345   6.620   3.073   3.373
  816SOL     OW 3346   5.741   5.243   0.493
  816SOL    HW1 3347   5.712   5.150   0.516
  816SOL    HW2 3348   5.699   5.271   0.407
  817SOL     OW 3349   0.925   5.199   1.325
  817SOL    HW1 3350   0.881   5.135   1.388
  817SOL    HW2 3351   1.023   5.202   1.344
  818SOL     OW 3352   6.315   3.461   3.711
  818SOL    HW1 3353   6.372   3.461   3.629
  818SOL    HW2 3354   6.348   3.531   3.774
  819SOL     OW 3355   6.297   3.061   1.359
  819SOL    HW1 3356   6.231   3.130   1.328
  819SOL    HW2 3357   6.390   3.095   1.343
  820SOL     OW 3358   2.739   2.363   4.886
  820SOL    HW1 3359   2.782   2.399   4.969
  820SOL    HW2 3360   2.665   2.423   4.858
  821SOL     OW 3361   6.231   4.684   6.355
  821SOL    HW1 3362   6.186   4.645   6.274
  821SOL    HW2 3363   6.311   4.629   6.378
  822SOL     OW 3364   0.208   2.835   3.161
  822SOL    HW1 3365   0.126   2.837   3.217
  822SOL    HW2 3366   0.253   2.747   3.170
  823SOL     OW 3367   6.404   4.349   5.997
  823SOL    HW1 3368   6.447   4.403   6.069
  823SOL    HW2 3369   6.370   4.411   5.925
  824SOL     OW 3370   4.151   0.721   6.153
  824SOL    HW1 3371   4.224   0.766   6.205
  824SOL    HW2 3372   4.113   0.786   6.087
  825SOL     OW 3373   6.633   5.713   1.203
  825SOL    HW1 3374   6.647   5.730   1.106
  825SOL    HW2 3375   6.665   5.792   1.256
  826SOL     OW 3376   4.159   2.279   5.516
  826SOL    HW1 3377   4.102   2.240   5.588
  826SOL    HW2 3378   4.198   2.366   5.548
  827SOL     OW 3379   2.488   4.440   5.186
  827SOL    HW1 3380   2.412   4.379   5.211
  827SOL    HW2 3381   2.460   4.535   5.200
  828SOL     OW 3382   5.710   6.621   6.646
  828SOL    HW1 3383   5.674   6.615   6.553
  828SOL    HW2 3384   5.698   6.714   6.681
  829SOL     OW 3385   3.987   3.473   1.987
  829SOL    HW1 3386   4.018   3.397   2.043
  829SOL    HW2 3387   3.973   3.554   2.044
  830SOL     OW 3388   5.493   4.801   6.578
  830SOL    HW1 3389   5.590   4.802   6.605
  830SOL    HW2 3390   5.454   4.712   6.600
  831SOL     OW 3391   6.055   7.025   0.607
  831SOL    HW1 3392   6.028   7.011   0.512
  831SOL    HW2 3393   6.065   0.092   0.625
  832SOL     OW 3394   4.124   2.232   3.896
  832SOL    HW1 3395   4.032   2.191   3.895
  832SOL    HW2 3396   4.183   2.181   3.834
  833SOL     OW 3397   2.277   3.863   6.509
  833SOL    HW1 3398   2.222   3.824   6.583
  833SOL    HW2 3399   2.303   3.792   6.445
  834SOL     OW 3400   5.129   3.314   1.152
  834SOL    HW1 3401   5.036   3.287   1.175
  834SOL    HW2 3402   5.135   3.414   1.147
  835SOL     OW 3403   3.036   6.811   5.015
  835SOL    HW1 3404   2.985   6.726   5.000
  835SOL    HW2 3405   2.988   6.866   5.083
  836SOL     OW 3406   4.053   6.819   4.905
  836SOL    HW1 3407   3.997   6.863   4.835
  836SOL    HW2 3408   4.038   6.863   4.993
  837SOL     OW 3409   6.758   0.768   1.294
  837SOL    HW1 3410   6.753   0.832   1.217
  837SOL    HW2 3411   6.839   0.788   1.349
  838SOL     OW 3412   2.519   6.714   4.508
  838SOL    HW1 3413   2.596   6.673   4.458
  838SOL    HW2 3414   2.440   6.722   4.446
  839SOL     OW 3415   2.182   1.542   1.924
  839SOL    HW1 3416   2.266   1.520   1.875
  839SOL    HW2 3417   2.130   1.611   1.873
  840SOL     OW 3418   6.222   5.873   6.933
  840SOL    HW1 3419   6.301   5.920   6.971
  840SOL    HW2 3420   6.218   5.888   6.834
  841SOL     OW 3421   3.502   5.664   6.077
  841SOL    HW1 3422   3.471   5.675   5.982
  841SOL    HW2 3423   3.518   5.567   6.095
  842SOL     OW 3424   3.652   0.441   5.793
  842SOL    HW1 3425   3.721   0.482   5.853
  842SOL    HW2 3426   3.611   0.512   5.735
  843SOL     OW 3427   1.047   1.789   1.602
  843SOL    HW1 3428   1.124   1.821   1.657
  843SOL    HW2 3429   1.077   1.777   1.507
  844SOL     OW 3430   6.609   0.145   0.300
  844SOL    HW1 3431   6.664   0.228   0.295
  844SOL    HW2 3432   6.597   0.119   0.396
  845SOL     OW 3433   5.052   4.179   3.439
  845SOL    HW1 3434   5.093   4.205   3.351
  845SOL    HW2 3435   5.027   4.082   3.437
  846SOL     OW 3436   1.962   0.801   5.876
  846SOL    HW1 3437   1.975   0.887   5.925
  846SOL    HW2 3438   1.909   0.819   5.793
  847SOL     OW 3439   1.169   3.542   1.300
  847SOL    HW1 3440   1.097   3.611   1.294
  847SOL    HW2 3441   1.179   3.496   1.212
  848SOL     OW 3442   6.727   0.107   6.119
  848SOL    HW1 3443   6.639   0.152   6.108
  848SOL    HW2 3444   6.774   0.103   6.031
  849SOL     OW 3445   6.080   4.245   6.469
  849SOL    HW1 3446   6.153   4.289   6.416
  849SOL    HW2 3447   6.044   4.310   6.536
  850SOL     OW 3448   6.051   0.741   4.851
  850SOL    HW1 3449   6.012   0.660   4.807
  850SOL    HW2 3450   6.063   0.724   4.949
  851SOL     OW 3451   6.878   2.798   0.757
  851SOL    HW1 3452   6.916   2.850   0.833
  851SOL    HW2 3453   6.953   2.756   0.705
  852SOL     OW 3454   0.969   4.198   0.599
  852SOL    HW1 3455   1.037   4.257   0.642
  852SOL    HW2 3456   1.009   4.155   0.518
  853SOL     OW 3457   0.891   4.696   0.617
  853SOL    HW1 3458   0.863   4.759   0.689
  853SOL    HW2 3459   0.877   4.602   0.647
  854SOL     OW 3460   4.992   5.655   0.577
  854SOL    HW1 3461   4.946   5.740   0.603
  854SOL    HW2 3462   5.061   5.632   0.646
  855SOL     OW 3463   6.496   6.713   1.194
  855SOL    HW1 3464   6.490   6.705   1.094
  855SOL    HW2 3465   6.407   6.692   1.234
  856SOL     OW 3466   1.593   1.597   6.656
  856SOL    HW1 3467   1.531   1.659   6.609
  856SOL    HW2 3468   1.627   1.529   6.590
  857SOL     OW 3469   6.312   5.111   2.142
  857SOL    HW1 3470   6.268   5.072   2.061
  857SOL    HW2 3471   6.261   5.086   2.224
  858SOL     OW 3472   3.078   4.165   1.122
  858SOL    HW1 3473   3.009   4.235   1.111
  858SOL    HW2 3474   3.035   4.077   1.144
  859SOL     OW 3475   5.746   6.718   5.303
  859SOL    HW1 3476   5.706   6.734   5.213
  859SOL    HW2 3477   5.729   6.623   5.330
  860SOL     OW 3478   6.732   2.763   0.068
  860SOL    HW1 3479   6.767   2.673   0.041
  860SOL    HW2 3480   6.735   2.771   0.168
  861SOL     OW 3481   2.319   4.912   3.809
  861SOL    HW1 3482   2.319   5.011   3.800
  861SOL    HW2 3483   2.275   4.871   3.729
  862SOL     OW 3484   1.746   3.841   3.109
  862SOL    HW1 3485   1.682   3.863   3.036
  862SOL    HW2 3486   1.766   3.743   3.108
  863SOL     OW 3487   5.820   0.956   6.350
  863SOL    HW1 3488   5.748   1.009   6.395
  863SOL    HW2 3489   5.805   0.859   6.365
  864SOL     OW 3490   3.832   5.846   3.855
  864SOL    HW1 3491   3.751   5.905   3.863
  864SOL    HW2 3492   3.874   5.834   3.945
  865SOL     OW 3493   1.712   0.040   6.234
  865SOL    HW1 3494   1.624   0.068   6.196
  865SOL    HW2 3495   1.773   0.013   6.159
  866SOL     OW 3496   2.788   0.867   0.738
  866SOL    HW1 3497   2.753   0.821   0.819
  866SOL    HW2 3498   2.834   0.952   0.765
  867SOL     OW 3499   5.371   3.579   0.295
  867SOL    HW1 3500   5.444   3.590   0.227
  867SOL    HW2 3501   5.377   3.653   0.362
  868SOL     OW 3502   6.554   0.723   1.466
  868SOL    HW1 3503   6.626   0.733   1.397
  868SOL    HW2 3504   6.465   0.740   1.424
  869SOL     OW 3505   0.254   4.498   2.806
  869SOL    HW1 3506   0.320   4.427   2.831
  869SOL    HW2 3507   0.303   4.584   2.790
  870SOL     OW 3508   4.036   3.937   0.596
  870SOL    HW1 3509   4.093   4.006   0.550
  870SOL    HW2 3510   3.965   3.983   0.650
  871SOL     OW 3511   5.276   2.143   3.216
  871SOL    HW1 3512   5.326   2.227   3.201
  871SOL    HW2 3513   5.215   2.154   3.294
  872SOL     OW 3514   5.996   3.323   3.868
  872SOL    HW1 3515   6.033   3.390   3.932
  872SOL    HW2 3516   5.927   3.367   3.810
  873SOL     OW 3517   5.166   5.469   5.231
  873SOL    HW1 3518   5.084   5.424   5.267
  873SOL    HW2 3519   5.162   5.567   5.253
  874SOL     OW 3520   6.474   3.547   6.279
  874SOL    HW1 3521   6.400   3.504   6.330
  874SOL    HW2 3522   6.544   3.580   6.343
  875SOL     OW 3523   5.153   4.947   1.153
  875SOL    HW1 3524   5.175   5.036   1.194
  875SOL    HW2 3525   5.162   4.952   1.054
  876SOL     OW 3526   0.254   4.843   2.483
  876SOL    HW1 3527   0.173   4.888   2.519
  876SOL    HW2 3528   0.316   4.911   2.444
  877SOL     OW 3529   3.577   5.089   5.587
  877SOL    HW1 3530   3.641   5.166   5.580
  877SOL    HW2 3531   3.588   5.029   5.508
  878SOL     OW 3532   4.931   6.757   4.574
  878SOL    HW1 3533   4.906   6.788   4.666
  878SOL    HW2 3534   4.958   6.835   4.518
  879SOL     OW 3535   4.184   1.015   1.718
  879SOL    HW1 3536   4.151   0.954   1.790
  879SOL    HW2 3537   4.160   1.109   1.740
  880SOL     OW 3538   3.062   3.981   4.160
  880SOL    HW1 3539   2.975   3.942   4.189
  880SOL    HW2 3540   3.102   4.033   4.235
  881SOL     OW 3541   5.343   3.928   5.561
  881SOL    HW1 3542   5.389   3.962   5.643
  881SOL    HW2 3543   5.353   3.828   5.556
  882SOL     OW 3544   1.322   2.291   3.706
  882SOL    HW1 3545   1.280   2.309   3.795
  882SOL    HW2 3546   1.259   2.317   3.633
  883SOL     OW 3547   3.428   0.387   0.546
  883SOL    HW1 3548   3.351   0.328   0.571
  883SOL    HW2 3549   3.399   0.483   0.549
  884SOL     OW 3550   0.130   4.144   6.817
  884SOL    HW1 3551   0.090   4.232   6.842
  884SOL    HW2 3552   0.067   4.070   6.840
  885SOL     OW 3553   4.853   0.154   4.989
  885SOL    HW1 3554   4.947   0.121   4.983
  885SOL    HW2 3555   4.811   0.120   5.074
  886SOL     OW 3556   3.649   0.245   0.405
  886SOL    HW1 3557   3.571   0.272   0.462
  886SOL    HW2 3558   3.731   0.294   0.435
  887SOL     OW 3559   3.716   6.235   3.825
  887SOL    HW1 3560   3.681   6.156   3.876
  887SOL    HW2 3561   3.735   6.208   3.730
  888SOL     OW 3562   0.478   6.193   3.399
  888SOL    HW1 3563   0.575   6.200   3.420
  888SOL    HW2 3564   0.465   6.194   3.300
  889SOL     OW 3565   0.007   1.542   6.553
  889SOL    HW1 3566   0.045   1.566   6.643
  889SOL    HW2 3567   6.982   1.619   6.519
  890SOL     OW 3568   2.542   4.853   2.723
  890SOL    HW1 3569   2.553   4.929   2.659
  890SOL    HW2 3570   2.473   4.877   2.791
  891SOL     OW 3571   6.775   3.811   0.874
  891SOL    HW1 3572   6.708   3.856   0.933
  891SOL    HW2 3573   6.779   3.859   0.786
  892SOL     OW 3574   3.467   3.719   5.028
  892SOL    HW1 3575   3.431   3.789   4.967
  892SOL    HW2 3576   3.435   3.737   5.121
  893SOL     OW 3577   2.208   6.786   3.391
  893SOL    HW1 3578   2.155   6.717   3.343
  893SOL    HW2 3579   2.215   6.761   3.488
  894SOL     OW 3580   1.291   2.872   2.661
  894SOL    HW1 3581   1.363   2.804   2.674
  894SOL    HW2 3582   1.298   2.943   2.730
  895SOL     OW 3583   1.246   5.326   4.317
  895SOL    HW1 3584   1.338   5.326   4.278
  895SOL    HW2 3585   1.209   5.419   4.316
  896SOL     OW 3586   5.651   4.962   1.607
  896SOL    HW1 3587   5.700   5.012   1.678
  896SOL    HW2 3588   5.716   4.910   1.551
  897SOL     OW 3589   4.100   1.120   6.477
  897SOL    HW1 3590   4.114   1.023   6.456
  897SOL    HW2 3591   4.136   1.139   6.569
  898SOL     OW 3592   4.129   6.672   2.668
  898SOL    HW1 3593   4.188   6.740   2.624
  898SOL    HW2 3594   4.089   6.711   2.751
  899SOL     OW 3595   0.393   6.144   0.080
  899SOL    HW1 3596   0.478   6.095   0.101
  899SOL    HW2 3597   0.354   6.109   7.025
  900SOL     OW 3598   5.374   7.027   6.881
  900SOL    HW1 3599   5.310   6.977   6.940
  900SOL    HW2 3600   5.407   0.078   6.929
  901SOL     OW 3601   1.388   0.835   3.698
  901SOL    HW1 3602   1.306   0.809   3.649
  901SOL    HW2 3603   1.420   0.924   3.664
  902SOL     OW 3604   1.183   3.131   1.529
  902SOL    HW1 3605   1.196   3.085   1.442
  902SOL    HW2 3606   1.128   3.073   1.590
  903SOL     OW 3607   0.822   3.323   0.024
  903SOL    HW1 3608   0.849   3.246   6.995
  903SOL    HW2 3609   0.881   3.326   0.104
  904SOL     OW 3610   2.062   2.711   2.308
  904SOL    HW1 3611   2.040   2.656   2.389
  904SOL    HW2 3612   2.141   2.769   2.328
  905SOL     OW 3613   4.837   3.849   6.576
  905SOL    HW1 3614   4.805   3.944   6.587
  905SOL    HW2 3615   4.844   3.806   6.666
  906SOL     OW 3616   0.624   1.903   6.576
  906SOL    HW1 3617   0.663   1.897   6.668
  906SOL    HW2 3618   0.539   1.850   6.573
  907SOL     OW 3619   5.137   2.592   0.766
  907SOL    HW1 3620   5.192   2.533   0.706
  907SOL    HW2 3621   5.167   2.581   0.860
  908SOL     OW 3622   2.366   4.430   3.343
  908SOL    HW1 3623   2.411   4.397   3.427
  908SOL    HW2 3624   2.303   4.504   3.366
  909SOL     OW 3625   3.967   6.301   2.137
  909SOL    HW1 3626   3.892   6.242   2.109
  909SOL    HW2 3627   3.957   6.390   2.093
  910SOL     OW 3628   3.242   1.888   1.428
  910SOL    HW1 3629   3.156   1.934   1.409
  910SOL    HW2 3630   3.296   1.943   1.492
  911SOL     OW 3631   1.458   6.457   6.779
  911SOL    HW1 3632   1.396   6.378   6.777
  911SOL    HW2 3633   1.455   6.504   6.691
  912SOL     OW 3634   5.794   0.925   2.990
  912SOL    HW1 3635   5.830   0.870   3.066
  912SOL    HW2 3636   5.779   1.019   3.022
  913SOL     OW 3637   3.427   0.833   4.189
  913SOL    HW1 3638   3.440   0.734   4.187
  913SOL    HW2 3639   3.430   0.870   4.096
  914SOL     OW 3640   2.255   6.874   5.376
  914SOL    HW1 3641   2.293   6.860   5.284
  914SOL    HW2 3642   2.328   6.888   5.441
  915SOL     OW 3643   0.119   3.035   0.388
  915SOL    HW1 3644   0.133   2.937   0.401
  915SOL    HW2 3645   0.053   3.069   0.454
  916SOL     OW 3646   1.809   2.961   2.615
  916SOL    HW1 3647   1.829   2.935   2.710
  916SOL    HW2 3648   1.844   3.053   2.598
  917SOL     OW 3649   0.787   6.627   1.913
  917SOL    HW1 3650   0.880   6.650   1.940
  917SOL    HW2 3651   0.727   6.631   1.993
  918SOL     OW 3652   3.684   0.384   0.697
  918SOL    HW1 3653   3.595   0.359   0.659
  918SOL    HW2 3654   3.677   0.390   0.797
  919SOL     OW 3655   6.844   6.643   3.189
  919SOL    HW1 3656   6.838   6.606   3.281
  919SOL    HW2 3657   6.754   6.676   3.160
  920SOL     OW 3658   2.344   4.377   2.619
  920SOL    HW1 3659   2.408   4.448   2.648
  920SOL    HW2 3660   2.362   4.354   2.523
  921SOL     OW 3661   3.968   5.479   4.062
  921SOL    HW1 3662   3.986   5.443   3.971
  921SOL    HW2 3663   4.009   5.418   4.130
  922SOL     OW 3664   3.170   4.085   4.388
  922SOL    HW1 3665   3.263   4.118   4.367
  922SOL    HW2 3666   3.176   3.993   4.425
  923SOL     OW 3667   2.707   3.897   6.316
  923SOL    HW1 3668   2.751   3.870   6.402
  923SOL    HW2 3669   2.775   3.942   6.257
  924SOL     OW 3670   6.424   3.251   2.013
  924SOL    HW1 3671   6.352   3.187   1.988
  924SOL    HW2 3672   6.452   3.236   2.108
  925SOL     OW 3673   0.080   2.094   6.881
  925SOL    HW1 3674   0.009   2.150   6.839
  925SOL    HW2 3675   0.166   2.106   6.830
  926SOL     OW 3676   6.383   0.558   1.289
  926SOL    HW1 3677   6.478   0.527   1.283
  926SOL    HW2 3678   6.347   0.537   1.380
  927SOL     OW 3679   5.550   4.173   3.130
  927SOL    HW1 3680   5.551   4.272   3.113
  927SOL    HW2 3681   5.555   4.156   3.229
  928SOL     OW 3682   1.615   6.592   0.116
  928SOL    HW1 3683   1.650   6.538   0.040
  928SOL    HW2 3684   1.645   6.553   0.203
  929SOL     OW 3685   0.782   0.535   6.764
  929SOL    HW1 3686   0.690   0.541   6.802
  929SOL    HW2 3687   0.848   0.526   6.838
  930SOL     OW 3688   5.265   6.165   5.618
  930SOL    HW1 3689   5.229   6.178   5.710
  930SOL    HW2 3690   5.365   6.168   5.620
  931SOL     OW 3691   6.199   1.693   5.076
  931SOL    HW1 3692   6.258   1.678   4.996
  931SOL    HW2 3693   6.156   1.783   5.069
  932SOL     OW 3694   3.466   0.271   3.326
  932SOL    HW1 3695   3.495   0.190   3.378
  932SOL    HW2 3696   3.366   0.275   3.323
  933SOL     OW 3697   1.839   6.479   3.509
  933SOL    HW1 3698   1.896   6.441   3.583
  933SOL    HW2 3699   1.747   6.442   3.516
  934SOL     OW 3700   2.552   6.339   0.242
  934SOL    HW1 3701   2.577   6.385   0.157
  934SOL    HW2 3702   2.507   6.404   0.304
  935SOL     OW 3703   5.124   3.804   4.474
  935SOL    HW1 3704   5.171   3.771   4.555
  935SOL    HW2 3705   5.032   3.765   4.470
  936SOL     OW 3706   6.914   0.360   6.182
  936SOL    HW1 3707   6.863   0.440   6.213
  936SOL    HW2 3708   6.854   0.279   6.187
  937SOL     OW 3709   5.404   1.899   6.272
  937SOL    HW1 3710   5.495   1.861   6.291
  937SOL    HW2 3711   5.336   1.826   6.278
  938SOL     OW 3712   5.755   4.804   6.698
  938SOL    HW1 3713   5.777   4.706   6.696
  938SOL    HW2 3714   5.829   4.854   6.743
  939SOL     OW 3715   0.294   0.087   4.431
  939SOL    HW1 3716   0.289   0.162   4.365
  939SOL    HW2 3717   0.240   0.010   4.397
  940SOL     OW 3718   0.383   4.027   1.779
  940SOL    HW1 3719   0.386   3.972   1.862
  940SOL    HW2 3720   0.476   4.050   1.751
  941SOL     OW 3721   6.124   1.926   6.903
  941SOL    HW1 3722   6.147   2.022   6.920
  941SOL    HW2 3723   6.055   1.921   6.831
  942SOL     OW 3724   5.911   6.662   2.801
  942SOL    HW1 3725   6.001   6.701   2.820
  942SOL    HW2 3726   5.895   6.662   2.702
  943SOL     OW 3727   1.396   3.845   3.146
  943SOL    HW1 3728   1.386   3.754   3.186
  943SOL    HW2 3729   1.401   3.837   3.046
  944SOL     OW 3730   0.063   5.180   5.594
  944SOL    HW1 3731   0.091   5.269   5.632
  944SOL    HW2 3732   0.018   5.126   5.665
  945SOL     OW 3733   0.412   3.928   6.173
  945SOL    HW1 3734   0.368   3.877   6.246
  945SOL    HW2 3735   0.467   3.867   6.117
  946SOL     OW 3736   4.861   4.312   5.448
  946SOL    HW1 3737   4.882   4.313   5.546
  946SOL    HW2 3738   4.928   4.368   5.399
  947SOL     OW 3739   3.720   3.010   3.502
  947SOL    HW1 3740   3.757   3.092   3.460
  947SOL    HW2 3741   3.775   2.931   3.475
  948SOL     OW 3742   5.105   0.953   2.796
  948SOL    HW1 3743   5.189   0.996   2.827
  948SOL    HW2 3744   5.078   0.882   2.860
  949SOL     OW 3745   1.961   5.799   0.625
  949SOL    HW1 3746   1.878   5.793   0.682
  949SOL    HW2 3747   1.984   5.709   0.590
  950SOL     OW 3748   5.253   6.002   2.404
  950SOL    HW1 3749   5.295   5.943   2.473
  950SOL    HW2 3750   5.186   6.062   2.447
  951SOL     OW 3751   1.354   0.282   4.010
  951SOL    HW1 3752   1.327   0.272   4.105
  951SOL    HW2 3753   1.286   0.338   3.962
  952SOL     OW 3754   4.307   2.267   3.564
  952SOL    HW1 3755   4.287   2.236   3.471
  952SOL    HW2 3756   4.308   2.188   3.626
  953SOL     OW 3757   5.430   5.652   4.704
  953SOL    HW1 3758   5.426   5.741   4.659
  953SOL    HW2 3759   5.512   5.647   4.761
  954SOL     OW 3760   3.959   5.521   2.035
  954SOL    HW1 3761   4.037   5.569   1.995
  954SOL    HW2 3762   3.909   5.472   1.964
  955SOL     OW 3763   0.419   3.961   1.160
  955SOL    HW1 3764   0.422   3.873   1.207
  955SOL    HW2 3765   0.370   4.027   1.217
  956SOL     OW 3766   6.332   0.634   1.843
  956SOL    HW1 3767   6.288   0.555   1.800
  956SOL    HW2 3768   6.344   0.616   1.941
  957SOL     OW 3769   5.887   2.960   3.126
  957SOL    HW1 3770   5.887   3.016   3.044
  957SOL    HW2 3771   5.807   2.900   3.126
  958SOL     OW 3772   4.234   0.940   1.464
  958SOL    HW1 3773   4.229   0.993   1.549
  958SOL    HW2 3774   4.315   0.882   1.466
  959SOL     OW 3775   3.631   6.127   4.541
  959SOL    HW1 3776   3.602   6.087   4.454
  959SOL    HW2 3777   3.618   6.226   4.539
  960SOL     OW 3778   0.607   0.514   2.452
  960SOL    HW1 3779   0.697   0.514   2.495
  960SOL    HW2 3780   0.591   0.425   2.408
  961SOL     OW 3781   4.260   6.552   3.200
  961SOL    HW1 3782   4.165   6.584   3.203
  961SOL    HW2 3783   4.262   6.455   3.176
  962SOL     OW 3784   0.133   1.402   5.109
  962SOL    HW1 3785   0.124   1.500   5.091
  962SOL    HW2 3786   0.206   1.364   5.052
  963SOL     OW 3787   5.224   1.267   6.192
  963SOL    HW1 3788   5.276   1.352   6.198
  963SOL    HW2 3789   5.148   1.279   6.128
  964SOL     OW 3790   5.600   5.135   0.137
  964SOL    HW1 3791   5.676   5.119   0.075
  964SOL    HW2 3792   5.574   5.049   0.182
  965SOL     OW 3793   5.623   1.688   2.010
  965SOL    HW1 3794   5.628   1.619   1.939
  965SOL    HW2 3795   5.708   1.741   2.012
  966SOL     OW 3796   5.861   2.971   2.106
  966SOL    HW1 3797   5.938   2.909   2.121
  966SOL    HW2 3798   5.886   3.040   2.038
  967SOL     OW 3799   2.735   4.182   1.327
  967SOL    HW1 3800   2.651   4.177   1.382
  967SOL    HW2 3801   2.711   4.203   1.232
  968SOL     OW 3802   4.100   0.687   2.167
  968SOL    HW1 3803   4.138   0.765   2.217
  968SOL    HW2 3804   4.171   0.648   2.108
  969SOL     OW 3805   2.820   4.336   5.666
  969SOL    HW1 3806   2.849   4.423   5.625
  969SOL    HW2 3807   2.875   4.317   5.747
  970SOL     OW 3808   5.523   0.992   6.821
  970SOL    HW1 3809   5.488   0.922   6.884
  970SOL    HW2 3810   5.499   0.967   6.727
  971SOL     OW 3811   0.222   2.805   1.993
  971SOL    HW1 3812   0.299   2.798   2.056
  971SOL    HW2 3813   0.214   2.899   1.961
  972SOL     OW 3814   5.946   1.792   1.336
  972SOL    HW1 3815   5.988   1.735   1.266
  972SOL    HW2 3816   5.947   1.888   1.307
  973SOL     OW 3817   0.706   5.533   6.670
  973SOL    HW1 3818   0.775   5.505   6.603
  973SOL    HW2 3819   0.747   5.533   6.761
  974SOL     OW 3820   5.782   6.585   2.114
  974SOL    HW1 3821   5.728   6.549   2.038
  974SOL    HW2 3822   5.814   6.510   2.171
  975SOL     OW 3823   1.890   0.492   6.956
  975SOL    HW1 3824   1.800   0.511   6.918
  975SOL    HW2 3825   1.958   0.497   6.883
  976SOL     OW 3826   0.066   3.605   1.755
  976SOL    HW1 3827   0.110   3.679   1.806
  976SOL    HW2 3828   7.003   3.591   1.789
  977SOL     OW 3829   0.436   0.323   2.067
  977SOL    HW1 3830   0.358   0.270   2.099
  977SOL    HW2 3831   0.474   0.281   1.984
  978SOL     OW 3832   5.562   2.773   6.302
  978SOL    HW1 3833   5.494   2.714   6.345
  978SOL    HW2 3834   5.539   2.786   6.206
  979SOL     OW 3835   0.717   2.918   0.046
  979SOL    HW1 3836   0.787   2.894   0.113
  979SOL    HW2 3837   0.755   2.982   7.009
  980SOL     OW 3838   5.499   2.292   3.538
  980SOL    HW1 3839   5.518   2.230   3.461
  980SOL    HW2 3840   5.491   2.385   3.504
  981SOL     OW 3841   0.126   1.819   4.819
  981SOL    HW1 3842   0.223   1.840   4.829
  981SOL    HW2 3843   0.072   1.898   4.847
  982SOL     OW 3844   1.078   1.044   4.574
  982SOL    HW1 3845   1.007   0.986   4.613
  982SOL    HW2 3846   1.158   1.044   4.634
  983SOL     OW 3847   6.237   2.635   3.292
  983SOL    HW1 3848   6.294   2.690   3.352
  983SOL    HW2 3849   6.284   2.551   3.268
  984SOL     OW 3850   2.401   2.315   4.369
  984SOL    HW1 3851   2.360   2.384   4.310
  984SOL    HW2 3852   2.348   2.307   4.453
  985SOL     OW 3853   6.600   3.260   5.169
  985SOL    HW1 3854   6.554   3.332   5.222
  985SOL    HW2 3855   6.697   3.258   5.193
  986SOL     OW 3856   4.877   4.898   0.956
  986SOL    HW1 3857   4.869   4.863   0.863
  986SOL    HW2 3858   4.907   4.993   0.953
  987SOL     OW 3859   4.889   6.589   2.522
  987SOL    HW1 3860   4.916   6.493   2.513
  987SOL    HW2 3861   4.871   6.610   2.618
  988SOL     OW 3862   3.100   4.438   1.271
  988SOL    HW1 3863   3.186   4.424   1.321
  988SOL    HW2 3864   3.025   4.392   1.320
  989SOL     OW 3865   6.681   2.353   6.803
  989SOL    HW1 3866   6.626   2.418   6.750
  989SOL    HW2 3867   6.649   2.260   6.785
  990SOL     OW 3868   3.447   1.277   2.210
  990SOL    HW1 3869   3.480   1.354   2.155
  990SOL    HW2 3870   3.371   1.233   2.163
  991SOL     OW 3871   0.934   3.365   4.391
  991SOL    HW1 3872   0.970   3.309   4.466
  991SOL    HW2 3873   0.834   3.361   4.392
  992SOL     OW 3874   0.784   3.326   1.606
  992SOL    HW1 3875   0.876   3.316   1.567
  992SOL    HW2 3876   0.725   3.371   1.540
  993SOL     OW 3877   6.570   4.812   0.889
  993SOL    HW1 3878   6.652   4.870   0.887
  993SOL    HW2 3879   6.509   4.844   0.962
  994SOL     OW 3880   4.102   5.128   2.038
  994SOL    HW1 3881   4.054   5.214   2.021
  994SOL    HW2 3882   4.190   5.148   2.082
  995SOL     OW 3883   3.964   3.090   5.807
  995SOL    HW1 3884   3.897   3.035   5.758
  995SOL    HW2 3885   4.031   3.127   5.742
  996SOL     OW 3886   3.388   5.448   4.747
  996SOL    HW1 3887   3.374   5.372   4.810
  996SOL    HW2 3888   3.349   5.531   4.786
  997SOL     OW 3889   0.841   6.735   3.156
  997SOL    HW1 3890   0.813   6.785   3.074
  997SOL    HW2 3891   0.815   6.788   3.237
  998SOL     OW 3892   5.254   0.533   5.713
  998SOL    HW1 3893   5.259   0.526   5.813
  998SOL    HW2 3894   5.265   0.629   5.686
  999SOL     OW 3895   5.329   4.128   2.141
  999SOL    HW1 3896   5.334   4.206   2.203
  999SOL    HW2 3897   5.295   4.048   2.190
 1000SOL     OW 3898   3.676   1.688   1.687
 1000SOL    HW1 3899   3.637   1.654   1.601
 1000SOL    HW2 3900   3.699   1.785   1.677
 1001SOL     OW 3901   4.692   5.799   1.105
 1001SOL    HW1 3902   4.592   5.786   1.102
 1001SOL    HW2 3903   4.718   5.838   1.193
 1002SOL     OW 3904   5.715   1.800   0.894
 1002SOL    HW1 3905   5.777   1.824   0.820
 1002SOL    HW2 3906   5.752   1.723   0.945
 1003SOL     OW 3907   1.848   6.064   3.098
 1003SOL    HW1 3908   1.904   6.083   3.017
 1003SOL    HW2 3909   1.757   6.102   3.084
 1004SOL     OW 3910   0.429   0.805   1.855
 1004SOL    HW1 3911   0.394   0.851   1.773
 1004SOL    HW2 3912   0.353   0.769   1.908
 1005SOL     OW 3913   1.900   2.627   4.001
 1005SOL    HW1 3914   1.937   2.708   4.047
 1005SOL    HW2 3915   1.828   2.587   4.057
 1006SOL     OW 3916   0.961   4.417   0.394
 1006SOL    HW1 3917   1.053   4.379   0.399
 1006SOL    HW2 3918   0.896   4.352   0.434
 1007SOL     OW 3919   4.568   0.821   5.333
 1007SOL    HW1 3920   4.587   0.798   5.238
 1007SOL    HW2 3921   4.478   0.866   5.339
 1008SOL     OW 3922   0.682   2.357   6.180
 1008SOL    HW1 3923   0.761   2.309   6.141
 1008SOL    HW2 3924   0.609   2.361   6.113
 1009SOL     OW 3925   0.332   5.053   5.229
 1009SOL    HW1 3926   0.322   5.152   5.227
 1009SOL    HW2 3927   0.305   5.018   5.318
 1010SOL     OW 3928   2.631   2.574   0.670
 1010SOL    HW1 3929   2.704   2.626   0.626
 1010SOL    HW2 3930   2.662   2.540   0.759
 1011SOL     OW 3931   1.297   5.615   3.184
 1011SOL    HW1 3932   1.327   5.565   3.103
 1011SOL    HW2 3933   1.197   5.614   3.189
 1012SOL     OW 3934   0.330   6.693   2.286
 1012SOL    HW1 3935   0.290   6.766   2.342
 1012SOL    HW2 3936   0.286   6.693   2.196
 1013SOL     OW 3937   0.937   1.481   6.372
 1013SOL    HW1 3938   1.035   1.468   6.385
 1013SOL    HW2 3939   0.909   1.439   6.285
 1014SOL     OW 3940   0.496   4.302   5.949
 1014SOL    HW1 3941   0.425   4.232   5.942
 1014SOL    HW2 3942   0.500   4.354   5.863
 1015SOL     OW 3943   2.642   6.834   5.832
 1015SOL    HW1 3944   2.725   6.800   5.876
 1015SOL    HW2 3945   2.630   6.788   5.743
 1016SOL     OW 3946   4.267   3.735   0.468
 1016SOL    HW1 3947   4.281   3.722   0.567
 1016SOL    HW2 3948   4.294   3.828   0.443
 1017SOL     OW 3949   4.487   2.206   0.918
 1017SOL    HW1 3950   4.400   2.253   0.933
 1017SOL    HW2 3951   4.545   2.217   0.998
 1018SOL     OW 3952   1.234   4.063   3.812
 1018SOL    HW1 3953   1.134   4.071   3.817
 1018SOL    HW2 3954   1.269   4.039   3.903
 1019SOL     OW 3955   0.247   5.880   1.041
 1019SOL    HW1 3956   0.164   5.888   1.096
 1019SOL    HW2 3957   0.313   5.820   1.087
 1020SOL     OW 3958   6.415   0.871   1.233
 1020SOL    HW1 3959   6.341   0.860   1.299
 1020SOL    HW2 3960   6.404   0.806   1.158
 1021SOL     OW 3961   5.648   6.834   1.817
 1021SOL    HW1 3962   5.552   6.810   1.801
 1021SOL    HW2 3963   5.669   6.919   1.768
 1022SOL     OW 3964   2.958   4.537   5.490
 1022SOL    HW1 3965   2.950   4.498   5.398
 1022SOL    HW2 3966   3.054   4.535   5.518
 1023SOL     OW 3967   0.372   0.452   2.762
 1023SOL    HW1 3968   0.344   0.529   2.705
 1023SOL    HW2 3969   0.350   0.472   2.858
 1024SOL     OW 3970   0.385   2.677   3.915
 1024SOL    HW1 3971   0.339   2.592   3.891
 1024SOL    HW2 3972   0.387   2.687   4.015
 1025SOL     OW 3973   3.710   3.435   1.129
 1025SOL    HW1 3974   3.783   3.371   1.153
 1025SOL    HW2 3975   3.694   3.497   1.206
 1026SOL     OW 3976   2.496   2.837   1.718
 1026SOL    HW1 3977   2.518   2.934   1.706
 1026SOL    HW2 3978   2.578   2.783   1.703
 1027SOL     OW 3979   3.243   0.480   2.217
 1027SOL    HW1 3980   3.232   0.474   2.316
 1027SOL    HW2 3981   3.194   0.405   2.174
 1028SOL     OW 3982   1.801   0.000   2.501
 1028SOL    HW1 3983   1.899   0.016   2.491
 1028SOL    HW2 3984   1.784   6.932   2.513
 1029SOL     OW 3985   1.166   1.557   5.930
 1029SOL    HW1 3986   1.113   1.636   5.897
 1029SOL    HW2 3987   1.186   1.569   6.027
 1030SOL     OW 3988   3.681   3.513   1.923
 1030SOL    HW1 3989   3.772   3.472   1.918
 1030SOL    HW2 3990   3.657   3.532   2.018
 1031SOL     OW 3991   4.715   3.637   1.535
 1031SOL    HW1 3992   4.664   3.700   1.477
 1031SOL    HW2 3993   4.812   3.640   1.511
 1032SOL     OW 3994   0.751   1.077   5.326
 1032SOL    HW1 3995   0.793   1.037   5.245
 1032SOL    HW2 3996   0.817   1.076   5.401
 1033SOL     OW 3997   1.270   5.624   1.052
 1033SOL    HW1 3998   1.180   5.629   1.096
 1033SOL    HW2 3999   1.280   5.536   1.006
 1034SOL     OW 4000   1.640   4.997   4.597
 1034SOL    HW1 4001   1.568   4.929   4.608
 1034SOL    HW2 4002   1.599   5.088   4.588
 1035SOL     OW 4003   0.126   1.521   6.083
 1035SOL    HW1 4004   0.206   1.490   6.030
 1035SOL    HW2 4005   0.047   1.465   6.059
 1036SOL     OW 4006   4.261   0.880   2.279
 1036SOL    HW1 4007   4.353   0.909   2.254
 1036SOL    HW2 4008   4.262   0.843   2.372
 1037SOL     OW 4009   1.762   1.467   2.588
 1037SOL    HW1 4010   1.704   1.521   2.648
 1037SOL    HW2 4011   1.749   1.370   2.606
 1038SOL     OW 4012   1.773   1.102   5.258
 1038SOL    HW1 4013   1.723   1.175   5.211
 1038SOL    HW2 4014   1.782   1.125   5.355
 1039SOL     OW 4015   3.785   3.748   4.477
 1039SOL    HW1 4016   3.833   3.831   4.452
 1039SOL    HW2 4017   3.747   3.705   4.395
 1040SOL     OW 4018   4.889   0.711   2.570
 1040SOL    HW1 4019   4.954   0.786   2.576
 1040SOL    HW2 4020   4.833   0.709   2.652
 1041SOL     OW 4021   0.020   6.311   2.956
 1041SOL    HW1 4022   0.035   6.265   3.043
 1041SOL    HW2 4023   0.018   6.410   2.971
 1042SOL     OW 4024   4.025   5.437   2.559
 1042SOL    HW1 4025   4.064   5.426   2.651
 1042SOL    HW2 4026   4.075   5.509   2.510
 1043SOL     OW 4027   3.493   2.099   3.780
 1043SOL    HW1 4028   3.514   2.048   3.863
 1043SOL    HW2 4029   3.578   2.129   3.736
 1044SOL     OW 4030   5.974   5.040   2.580
 1044SOL    HW1 4031   5.903   5.108   2.563
 1044SOL    HW2 4032   5.954   4.991   2.665
 1045SOL     OW 4033   4.313   0.744   2.527
 1045SOL    HW1 4034   4.244   0.765   2.597
 1045SOL    HW2 4035   4.326   0.645   2.522
 1046SOL     OW 4036   1.924   1.218   0.377
 1046SOL    HW1 4037   1.983   1.143   0.406
 1046SOL    HW2 4038   1.968   1.306   0.399
 1047SOL     OW 4039   2.302   6.995   3.732
 1047SOL    HW1 4040   2.219   7.001   3.675
 1047SOL    HW2 4041   2.276   6.993   3.829
 1048SOL     OW 4042   3.329   6.407   2.958
 1048SOL    HW1 4043   3.373   6.405   3.048
 1048SOL    HW2 4044   3.239   6.363   2.964
 1049SOL     OW 4045   6.396   6.814   3.811
 1049SOL    HW1 4046   6.322   6.840   3.872
 1049SOL    HW2 4047   6.367   6.738   3.753
 1050SOL     OW 4048   3.502   5.025   2.646
 1050SOL    HW1 4049   3.600   5.012   2.626
 1050SOL    HW2 4050   3.454   5.049   2.562
 1051SOL     OW 4051   0.247   5.117   0.817
 1051SOL    HW1 4052   0.207   5.069   0.739
 1051SOL    HW2 4053   0.321   5.177   0.785
 1052SOL     OW 4054   4.324   0.953   5.368
 1052SOL    HW1 4055   4.267   0.914   5.440
 1052SOL    HW2 4056   4.292   1.044   5.344
 1053SOL     OW 4057   6.118   3.870   3.102
 1053SOL    HW1 4058   6.101   3.966   3.080
 1053SOL    HW2 4059   6.203   3.839   3.059
 1054SOL     OW 4060   3.235   3.294   0.848
 1054SOL    HW1 4061   3.184   3.378   0.830
 1054SOL    HW2 4062   3.267   3.295   0.943
 1055SOL     OW 4063   3.984   6.891   5.177
 1055SOL    HW1 4064   3.952   6.840   5.256
 1055SOL    HW2 4065   4.073   6.932   5.197
 1056SOL     OW 4066   2.101   3.575   0.113
 1056SOL    HW1 4067   2.111   3.530   0.202
 1056SOL    HW2 4068   2.141   3.517   0.042
 1057SOL     OW 4069   3.470   3.165   1.411
 1057SOL    HW1 4070   3.407   3.097   1.449
 1057SOL    HW2 4071   3.538   3.118   1.355
 1058SOL     OW 4072   5.639   2.898   3.563
 1058SOL    HW1 4073   5.641   2.924   3.467
 1058SOL    HW2 4074   5.544   2.887   3.593
 1059SOL     OW 4075   2.101   0.816   2.264
 1059SOL    HW1 4076   2.058   0.733   2.298
 1059SOL    HW2 4077   2.122   0.805   2.167
 1060SOL     OW 4078   0.327   4.650   4.049
 1060SOL    HW1 4079   0.271   4.733   4.055
 1060SOL    HW2 4080   0.333   4.607   4.139
 1061SOL     OW 4081   6.582   3.354   6.556
 1061SOL    HW1 4082   6.568   3.289   6.631
 1061SOL    HW2 4083   6.524   3.328   6.478
 1062SOL     OW 4084   5.487   5.170   5.973
 1062SOL    HW1 4085   5.439   5.130   5.895
 1062SOL    HW2 4086   5.497   5.101   6.045
 1063SOL     OW 4087   1.065   5.683   0.635
 1063SOL    HW1 4088   1.077   5.781   0.652
 1063SOL    HW2 4089   0.968   5.662   0.630
 1064SOL     OW 4090   1.463   4.884   3.437
 1064SOL    HW1 4091   1.411   4.886   3.352
 1064SOL    HW2 4092   1.485   4.789   3.460
 1065SOL     OW 4093   4.859   1.013   3.088
 1065SOL    HW1 4094   4.784   0.966   3.134
 1065SOL    HW2 4095   4.884   1.095   3.141
 1066SOL     OW 4096   4.685   6.612   2.792
 1066SOL    HW1 4097   4.757   6.664   2.839
 1066SOL    HW2 4098   4.616   6.584   2.859
 1067SOL     OW 4099   1.080   2.905   0.199
 1067SOL    HW1 4100   1.174   2.921   0.230
 1067SOL    HW2 4101   1.017   2.958   0.256
 1068SOL     OW 4102   6.773   4.863   2.122
 1068SOL    HW1 4103   6.863   4.878   2.081
 1068SOL    HW2 4104   6.755   4.934   2.191
 1069SOL     OW 4105   5.018   5.717   0.313
 1069SOL    HW1 4106   5.018   5.693   0.410
 1069SOL    HW2 4107   5.053   5.810   0.301
 1070SOL     OW 4108   1.022   0.204   1.598
 1070SOL    HW1 4109   1.091   0.170   1.661
 1070SOL    HW2 4110   1.034   0.302   1.584
 1071SOL     OW 4111   1.563   1.051   3.636
 1071SOL    HW1 4112   1.554   1.126   3.701
 1071SOL    HW2 4113   1.651   1.005   3.650
 1072SOL     OW 4114   2.392   1.084   1.234
 1072SOL    HW1 4115   2.304   1.038   1.226
 1072SOL    HW2 4116   2.405   1.147   1.158
 1073SOL     OW 4117   5.074   0.686   3.484
 1073SOL    HW1 4118   5.052   0.686   3.387
 1073SOL    HW2 4119   5.164   0.727   3.498
 1074SOL     OW 4120   2.576   5.310   1.539
 1074SOL    HW1 4121   2.542   5.266   1.622
 1074SOL    HW2 4122   2.676   5.301   1.536
 1075SOL     OW 4123   5.509   0.132   3.089
 1075SOL    HW1 4124   5.438   0.172   3.030
 1075SOL    HW2 4125   5.466   0.088   3.168
 1076SOL     OW 4126   0.924   2.352   5.707
 1076SOL    HW1 4127   1.007   2.388   5.750
 1076SOL    HW2 4128   0.855   2.424   5.702
 1077SOL     OW 4129   6.369   0.155   0.747
 1077SOL    HW1 4130   6.423   0.148   0.663
 1077SOL    HW2 4131   6.384   0.073   0.803
 1078SOL     OW 4132   6.711   0.675   2.373
 1078SOL    HW1 4133   6.638   0.742   2.359
 1078SOL    HW2 4134   6.789   0.698   2.315
 1079SOL     OW 4135   1.579   6.176   2.312
 1079SOL    HW1 4136   1.658   6.221   2.354
 1079SOL    HW2 4137   1.580   6.079   2.335
 1080SOL     OW 4138   2.355   5.336   3.436
 1080SOL    HW1 4139   2.346   5.365   3.340
 1080SOL    HW2 4140   2.268   5.350   3.483
 1081SOL     OW 4141   6.523   5.289   5.204
 1081SOL    HW1 4142   6.615   5.252   5.202
 1081SOL    HW2 4143   6.508   5.337   5.291
 1082SOL     OW 4144   5.554   2.178   5.525
 1082SOL    HW1 4145   5.627   2.112   5.540
 1082SOL    HW2 4146   5.536   2.229   5.609
 1083SOL     OW 4147   4.490   4.184   0.202
 1083SOL    HW1 4148   4.426   4.246   0.156
 1083SOL    HW2 4149   4.438   4.113   0.251
 1084SOL     OW 4150   6.279   6.645   6.317
 1084SOL    HW1 4151   6.332   6.723   6.348
 1084SOL    HW2 4152   6.285   6.571   6.384
 1085SOL     OW 4153   1.272   3.814   4.688
 1085SOL    HW1 4154   1.323   3.796   4.772
 1085SOL    HW2 4155   1.180   3.776   4.697
 1086SOL     OW 4156   0.173   4.296   0.294
 1086SOL    HW1 4157   0.249   4.273   0.234
 1086SOL    HW2 4158   0.093   4.320   0.239
 1087SOL     OW 4159   0.114   2.295   4.933
 1087SOL    HW1 4160   0.077   2.352   5.007
 1087SOL    HW2 4161   0.121   2.350   4.850
 1088SOL     OW 4162   0.270   3.168   2.776
 1088SOL    HW1 4163   0.336   3.162   2.701
 1088SOL    HW2 4164   0.214   3.251   2.765
 1089SOL     OW 4165   6.810   6.146   4.299
 1089SOL    HW1 4166   6.772   6.120   4.388
 1089SOL    HW2 4167   6.861   6.069   4.261
 1090SOL     OW 4168   3.368   1.700   3.368
 1090SOL    HW1 4169   3.417   1.767   3.311
 1090SOL    HW2 4170   3.296   1.747   3.419
 1091SOL     OW 4171   2.699   2.277   4.622
 1091SOL    HW1 4172   2.727   2.208   4.555
 1091SOL    HW2 4173   2.758   2.271   4.702
 1092SOL     OW 4174   0.924   4.661   0.307
 1092SOL    HW1 4175   0.893   4.701   0.393
 1092SOL    HW2 4176   0.940   4.563   0.320
 1093SOL     OW 4177   2.463   0.141   1.628
 1093SOL    HW1 4178   2.461   0.181   1.536
 1093SOL    HW2 4179   2.463   0.215   1.696
 1094SOL     OW 4180   1.215   6.946   3.218
 1094SOL    HW1 4181   1.190   6.880   3.290
 1094SOL    HW2 4182   1.206   0.009   3.254
 1095SOL     OW 4183   0.851   2.738   5.895
 1095SOL    HW1 4184   0.919   2.730   5.967
 1095SOL    HW2 4185   0.842   2.834   5.868
 1096SOL     OW 4186   3.339   4.392   1.445
 1096SOL    HW1 4187   3.436   4.415   1.448
 1096SOL    HW2 4188   3.325   4.300   1.481
 1097SOL     OW 4189   2.747   4.676   4.124
 1097SOL    HW1 4190   2.670   4.623   4.159
 1097SOL    HW2 4191   2.789   4.627   4.047
 1098SOL     OW 4192   4.468   3.314   6.915
 1098SOL    HW1 4193   4.426   3.319   6.824
 1098SOL    HW2 4194   4.431   3.386   6.973
 1099SOL     OW 4195   3.685   0.850   5.894
 1099SOL    HW1 4196   3.719   0.756   5.887
 1099SOL    HW2 4197   3.585   0.849   5.897
 1100SOL     OW 4198   3.969   2.063   4.693
 1100SOL    HW1 4199   3.874   2.061   4.663
 1100SOL    HW2 4200   3.973   2.060   4.793
 1101SOL     OW 4201   5.480   2.784   6.044
 1101SOL    HW1 4202   5.549   2.843   6.003
 1101SOL    HW2 4203   5.389   2.823   6.026
 1102SOL     OW 4204   0.867   0.611   4.971
 1102SOL    HW1 4205   0.809   0.539   4.933
 1102SOL    HW2 4206   0.963   0.589   4.954
 1103SOL     OW 4207   3.917   1.113   0.262
 1103SOL    HW1 4208   3.931   1.018   0.287
 1103SOL    HW2 4209   3.933   1.125   0.164
 1104SOL     OW 4210   2.149   3.390   4.867
 1104SOL    HW1 4211   2.089   3.323   4.910
 1104SOL    HW2 4212   2.103   3.432   4.789
 1105SOL     OW 4213   6.121   3.490   5.098
 1105SOL    HW1 4214   6.161   3.487   5.006
 1105SOL    HW2 4215   6.025   3.464   5.094
 1106SOL     OW 4216   0.313   2.549   0.548
 1106SOL    HW1 4217   0.363   2.507   0.624
 1106SOL    HW2 4218   0.292   2.480   0.479
 1107SOL     OW 4219   1.128   0.371   6.941
 1107SOL    HW1 4220   1.146   0.437   7.013
 1107SOL    HW2 4221   1.125   0.417   6.853
 1108SOL     OW 4222   3.685   6.893   5.751
 1108SOL    HW1 4223   3.696   6.794   5.750
 1108SOL    HW2 4224   3.641   6.921   5.837
 1109SOL     OW 4225   5.778   0.914   3.899
 1109SOL    HW1 4226   5.877   0.926   3.886
 1109SOL    HW2 4227   5.755   0.931   3.995
 1110SOL     OW 4228   4.157   2.189   3.317
 1110SOL    HW1 4229   4.239   2.232   3.280
 1110SOL    HW2 4230   4.163   2.090   3.305
 1111SOL     OW 4231   5.330   5.384   6.523
 1111SOL    HW1 4232   5.362   5.473   6.558
 1111SOL    HW2 4233   5.328   5.387   6.423
 1112SOL     OW 4234   5.672   1.115   2.476
 1112SOL    HW1 4235   5.635   1.050   2.409
 1112SOL    HW2 4236   5.698   1.065   2.559
 1113SOL     OW 4237   5.797   4.540   1.386
 1113SOL    HW1 4238   5.761   4.479   1.315
 1113SOL    HW2 4239   5.882   4.502   1.422
 1114SOL     OW 4240   2.710   1.118   5.909
 1114SOL    HW1 4241   2.806   1.135   5.889
 1114SOL    HW2 4242   2.679   1.036   5.859
 1115SOL     OW 4243   3.568   3.634   5.957
 1115SOL    HW1 4244   3.651   3.614   5.906
 1115SOL    HW2 4245   3.550   3.561   6.022
 1116SOL     OW 4246   4.573   6.444   6.039
 1116SOL    HW1 4247   4.536   6.447   6.132
 1116SOL    HW2 4248   4.565   6.535   5.998
 1117SOL     OW 4249   1.496   2.303   1.835
 1117SOL    HW1 4250   1.530   2.379   1.780
 1117SOL    HW2 4251   1.525   2.315   1.930
 1118SOL     OW 4252   2.336   4.511   0.678
 1118SOL    HW1 4253   2.393   4.586   0.643
 1118SOL    HW2 4254   2.387   4.461   0.748
 1119SOL     OW 4255   4.012   4.580   1.672
 1119SOL    HW1 4256   3.950   4.659   1.672
 1119SOL    HW2 4257   4.076   4.588   1.748
 1120SOL     OW 4258   5.832   5.935   0.765
 1120SOL    HW1 4259   5.841   5.915   0.863
 1120SOL    HW2 4260   5.886   6.017   0.743
 1121SOL     OW 4261   6.896   4.675   4.635
 1121SOL    HW1 4262   6.986   4.694   4.596
 1121SOL    HW2 4263   6.865   4.586   4.604
 1122SOL     OW 4264   5.032   2.515   1.556
 1122SOL    HW1 4265   4.986   2.430   1.533
 1122SOL    HW2 4266   5.131   2.505   1.543
 1123SOL     OW 4267   5.141   2.429   2.855
 1123SOL    HW1 4268   5.101   2.519   2.871
 1123SOL    HW2 4269   5.217   2.437   2.792
 1124SOL     OW 4270   7.010   3.539   5.471
 1124SOL    HW1 4271   6.918   3.576   5.475
 1124SOL    HW2 4272   0.012   3.517   5.563
 1125SOL     OW 4273   2.386   1.608   3.677
 1125SOL    HW1 4274   2.439   1.573   3.600
 1125SOL    HW2 4275   2.290   1.581   3.666
 1126SOL     OW 4276   5.651   5.823   6.300
 1126SOL    HW1 4277   5.622   5.898   6.358
 1126SOL    HW2 4278   5.589   5.745   6.312
 1127SOL     OW 4279   5.451   6.407   4.704
 1127SOL    HW1 4280   5.550   6.403   4.687
 1127SOL    HW2 4281   5.403   6.415   4.616
 1128SOL     OW 4282   6.070   1.586   3.858
 1128SOL    HW1 4283   6.157   1.547   3.887
 1128SOL    HW2 4284   6.026   1.525   3.793
 1129SOL     OW 4285   2.014   0.072   0.682
 1129SOL    HW1 4286   1.958   0.005   0.729
 1129SOL    HW2 4287   2.006   0.161   0.727
 1130SOL     OW 4288   2.326   5.013   0.743
 1130SOL    HW1 4289   2.242   5.053   0.706
 1130SOL    HW2 4290   2.331   5.029   0.841
 1131SOL     OW 4291   1.247   6.603   5.454
 1131SOL    HW1 4292   1.270   6.607   5.551
 1131SOL    HW2 4293   1.179   6.674   5.433
 1132SOL     OW 4294   5.277   0.022   2.784
 1132SOL    HW1 4295   5.361   0.055   2.741
 1132SOL    HW2 4296   5.252   0.083   2.859
 1133SOL     OW 4297   0.988   0.988   0.649
 1133SOL    HW1 4298   0.990   0.901   0.698
 1133SOL    HW2 4299   0.961   0.972   0.554
 1134SOL     OW 4300   4.946   6.748   2.312
 1134SOL    HW1 4301   5.041   6.723   2.297
 1134SOL    HW2 4302   4.904   6.682   2.375
 1135SOL     OW 4303   2.854   6.534   3.954
 1135SOL    HW1 4304   2.765   6.501   3.987
 1135SOL    HW2 4305   2.842   6.581   3.867
 1136SOL     OW 4306   4.402   4.595   3.222
 1136SOL    HW1 4307   4.392   4.496   3.221
 1136SOL    HW2 4308   4.497   4.619   3.247
 1137SOL     OW 4309   1.458   6.797   0.399
 1137SOL    HW1 4310   1.463   6.795   0.299
 1137SOL    HW2 4311   1.363   6.801   0.428
 1138SOL     OW 4312   0.449   0.899   6.342
 1138SOL    HW1 4313   0.440   0.930   6.437
 1138SOL    HW2 4314   0.462   0.979   6.283
 1139SOL     OW 4315   2.754   4.774   2.944
 1139SOL    HW1 4316   2.694   4.822   2.879
 1139SOL    HW2 4317   2.848   4.803   2.930
 1140SOL     OW 4318   2.704   1.460   2.654
 1140SOL    HW1 4319   2.693   1.389   2.724
 1140SOL    HW2 4320   2.776   1.432   2.590
 1141SOL     OW 4321   0.890   5.982   7.020
 1141SOL    HW1 4322   0.832   6.044   0.042
 1141SOL    HW2 4323   0.848   5.962   6.931
 1142SOL     OW 4324   3.405   0.279   3.745
 1142SOL    HW1 4325   3.449   0.205   3.797
 1142SOL    HW2 4326   3.458   0.296   3.661
 1143SOL     OW 4327   2.047   2.527   3.591
 1143SOL    HW1 4328   2.003   2.469   3.523
 1143SOL    HW2 4329   2.052   2.478   3.678
 1144SOL     OW 4330   6.510   4.502   3.844
 1144SOL    HW1 4331   6.564   4.449   3.909
 1144SOL    HW2 4332   6.557   4.588   3.823
 1145SOL     OW 4333   6.390   3.087   1.048
 1145SOL    HW1 4334   6.455   3.110   1.120
 1145SOL    HW2 4335   6.314   3.152   1.049
 1146SOL     OW 4336   0.217   0.702   1.993
 1146SOL    HW1 4337   0.199   0.672   2.087
 1146SOL    HW2 4338   0.229   0.622   1.935
 1147SOL     OW 4339   3.272   5.888   2.073
 1147SOL    HW1 4340   3.318   5.940   2.001
 1147SOL    HW2 4341   3.207   5.948   2.121
 1148SOL     OW 4342   4.633   6.097   0.543
 1148SOL    HW1 4343   4.665   6.110   0.449
 1148SOL    HW2 4344   4.672   6.168   0.602
 1149SOL     OW 4345   5.817   2.554   2.833
 1149SOL    HW1 4346   5.895   2.512   2.879
 1149SOL    HW2 4347   5.814   2.652   2.854
 1150SOL     OW 4348   0.907   4.141   0.149
 1150SOL    HW1 4349   0.987   4.194   0.118
 1150SOL    HW2 4350   0.888   4.069   0.082
 1151SOL     OW 4351   5.813   4.674   5.641
 1151SOL    HW1 4352   5.739   4.739   5.621
 1151SOL    HW2 4353   5.802   4.593   5.584
 1152SOL     OW 4354   4.300   5.828   6.499
 1152SOL    HW1 4355   4.240   5.835   6.420
 1152SOL    HW2 4356   4.265   5.757   6.561
 1153SOL     OW 4357   0.187   6.847   2.483
 1153SOL    HW1 4358   0.163   6.889   2.570
 1153SOL    HW2 4359   0.233   6.914   2.425
 1154SOL     OW 4360   0.147   4.363   1.274
 1154SOL    HW1 4361   0.084   4.384   1.349
 1154SOL    HW2 4362   0.208   4.441   1.259
 1155SOL     OW 4363   2.428   4.951   6.271
 1155SOL    HW1 4364   2.381   4.934   6.358
 1155SOL    HW2 4365   2.510   5.005   6.288
 1156SOL     OW 4366   4.561   1.979   4.935
 1156SOL    HW1 4367   4.479   2.029   4.964
 1156SOL    HW2 4368   4.541   1.928   4.852
 1157SOL     OW 4369   5.311   1.012   6.339
 1157SOL    HW1 4370   5.242   1.071   6.380
 1157SOL    HW2 4371   5.289   0.996   6.243
 1158SOL     OW 4372   6.783   5.201   5.249
 1158SOL    HW1 4373   6.801   5.194   5.151
 1158SOL    HW2 4374   6.798   5.112   5.292
 1159SOL     OW 4375   6.632   0.170   3.963
 1159SOL    HW1 4376   6.670   0.124   3.883
 1159SOL    HW2 4377   6.583   0.102   4.019
 1160SOL     OW 4378   5.055   4.336   1.123
 1160SOL    HW1 4379   5.081   4.355   1.217
 1160SOL    HW2 4380   5.115   4.265   1.085
 1161SOL     OW 4381   6.840   5.247   5.886
 1161SOL    HW1 4382   6.888   5.269   5.971
 1161SOL    HW2 4383   6.851   5.322   5.821
 1162SOL     OW 4384   2.317   1.817   6.404
 1162SOL    HW1 4385   2.390   1.749   6.396
 1162SOL    HW2 4386   2.321   1.861   6.493
 1163SOL     OW 4387   6.250   4.270   1.882
 1163SOL    HW1 4388   6.154   4.299   1.879
 1163SOL    HW2 4389   6.307   4.346   1.914
 1164SOL     OW 4390   5.394   2.851   3.653
 1164SOL    HW1 4391   5.376   2.754   3.666
 1164SOL    HW2 4392   5.369   2.901   3.737
 1165SOL     OW 4393   4.091   5.741   3.761
 1165SOL    HW1 4394   4.182   5.704   3.744
 1165SOL    HW2 4395   4.067   5.806   3.689
 1166SOL     OW 4396   3.025   6.278   0.602
 1166SOL    HW1 4397   2.930   6.308   0.609
 1166SOL    HW2 4398   3.084   6.359   0.590
 1167SOL     OW 4399   3.894   7.014   0.941
 1167SOL    HW1 4400   3.875   0.023   0.851
 1167SOL    HW2 4401   3.809   7.007   0.993
 1168SOL     OW 4402   5.318   2.671   1.630
 1168SOL    HW1 4403   5.331   2.770   1.622
 1168SOL    HW2 4404   5.279   2.649   1.720
 1169SOL     OW 4405   4.421   2.250   5.888
 1169SOL    HW1 4406   4.393   2.180   5.822
 1169SOL    HW2 4407   4.346   2.315   5.901
 1170SOL     OW 4408   5.227   6.687   2.570
 1170SOL    HW1 4409   5.229   6.632   2.653
 1170SOL    HW2 4410   5.139   6.734   2.563
 1171SOL     OW 4411   3.078   6.651   0.006
 1171SOL    HW1 4412   2.981   6.677   0.001
 1171SOL    HW2 4413   3.113   6.639   6.943
 1172SOL     OW 4414   3.729   4.081   0.874
 1172SOL    HW1 4415   3.647   4.067   0.929
 1172SOL    HW2 4416   3.733   4.012   0.801
 1173SOL     OW 4417   3.639   1.099   0.959
 1173SOL    HW1 4418   3.597   1.111   0.869
 1173SOL    HW2 4419   3.697   1.178   0.979
 1174SOL     OW 4420   2.517   4.578   1.434
 1174SOL    HW1 4421   2.575   4.532   1.502
 1174SOL    HW2 4422   2.499   4.515   1.359
 1175SOL     OW 4423   3.911   4.448   6.259
 1175SOL    HW1 4424   3.933   4.353   6.284
 1175SOL    HW2 4425   3.835   4.449   6.195
 1176SOL     OW 4426   5.455   3.436   6.934
 1176SOL    HW1 4427   5.525   3.462   6.868
 1176SOL    HW2 4428   5.497   3.417   7.022
 1177SOL     OW 4429   6.947   3.883   4.847
 1177SOL    HW1 4430   6.939   3.978   4.877
 1177SOL    HW2 4431   6.966   3.824   4.925
 1178SOL     OW 4432   3.482   4.088   1.021
 1178SOL    HW1 4433   3.427   4.008   1.044
 1178SOL    HW2 4434   3.515   4.131   1.104
 1179SOL     OW 4435   2.894   5.780   0.846
 1179SOL    HW1 4436   2.891   5.867   0.896
 1179SOL    HW2 4437   2.808   5.767   0.796
 1180SOL     OW 4438   2.520   5.593   4.122
 1180SOL    HW1 4439   2.527   5.532   4.043
 1180SOL    HW2 4440   2.457   5.554   4.189
 1181SOL     OW 4441   0.059   5.392   4.690
 1181SOL    HW1 4442   0.052   5.298   4.725
 1181SOL    HW2 4443   0.072   5.455   4.767
 1182SOL     OW 4444   4.727   6.159   3.837
 1182SOL    HW1 4445   4.749   6.097   3.913
 1182SOL    HW2 4446   4.803   6.159   3.771
 1183SOL     OW 4447   3.035   4.541   0.787
 1183SOL    HW1 4448   3.077   4.625   0.754
 1183SOL    HW2 4449   3.101   4.466   0.782
 1184SOL     OW 4450   6.962   1.337   5.329
 1184SOL    HW1 4451   6.993   1.360   5.236
 1184SOL    HW2 4452   6.862   1.329   5.330
 1185SOL     OW 4453   1.182   1.054   0.949
 1185SOL    HW1 4454   1.185   1.126   0.879
 1185SOL    HW2 4455   1.089   1.019   0.957
 1186SOL     OW 4456   4.745   6.074   5.474
 1186SOL    HW1 4457   4.672   6.011   5.499
 1186SOL    HW2 4458   4.737   6.100   5.378
 1187SOL     OW 4459   4.751   0.250   5.696
 1187SOL    HW1 4460   4.782   0.160   5.667
 1187SOL    HW2 4461   4.780   0.267   5.790
 1188SOL     OW 4462   3.307   6.235   6.280
 1188SOL    HW1 4463   3.226   6.237   6.222
 1188SOL    HW2 4464   3.383   6.281   6.235
 1189SOL     OW 4465   6.092   1.902   1.689
 1189SOL    HW1 4466   6.182   1.860   1.682
 1189SOL    HW2 4467   6.081   1.969   1.616
 1190SOL     OW 4468   3.397   6.010   3.737
 1190SOL    HW1 4469   3.321   6.072   3.722
 1190SOL    HW2 4470   3.471   6.033   3.674
 1191SOL     OW 4471   4.237   5.323   4.805
 1191SOL    HW1 4472   4.174   5.246   4.794
 1191SOL    HW2 4473   4.237   5.378   4.722
 1192SOL     OW 4474   5.301   4.540   2.836
 1192SOL    HW1 4475   5.317   4.544   2.738
 1192SOL    HW2 4476   5.285   4.444   2.863
 1193SOL     OW 4477   0.061   2.348   5.229
 1193SOL    HW1 4478   6.992   2.333   5.224
 1193SOL    HW2 4479   0.109   2.260   5.226
 1194SOL     OW 4480   6.005   0.110   1.245
 1194SOL    HW1 4481   5.972   0.176   1.312
 1194SOL    HW2 4482   6.092   0.142   1.207
 1195SOL     OW 4483   6.858   4.409   1.243
 1195SOL    HW1 4484   6.878   4.394   1.340
 1195SOL    HW2 4485   6.908   4.342   1.188
 1196SOL     OW 4486   6.520   5.079   3.460
 1196SOL    HW1 4487   6.590   5.121   3.518
 1196SOL    HW2 4488   6.558   5.060   3.369
 1197SOL     OW 4489   4.899   6.871   4.841
 1197SOL    HW1 4490   4.963   6.927   4.894
 1197SOL    HW2 4491   4.834   6.827   4.903
 1198SOL     OW 4492   1.507   3.270   2.993
 1198SOL    HW1 4493   1.592   3.292   2.946
 1198SOL    HW2 4494   1.436   3.335   2.966
 1199SOL     OW 4495   3.413   3.970   1.346
 1199SOL    HW1 4496   3.447   3.890   1.397
 1199SOL    HW2 4497   3.329   4.003   1.388
 1200SOL     OW 4498   3.705   4.141   4.333
 1200SOL    HW1 4499   3.718   4.215   4.400
 1200SOL    HW2 4500   3.675   4.059   4.381
 1201SOL     OW 4501   1.250   1.634   4.111
 1201SOL    HW1 4502   1.283   1.547   4.148
 1201SOL    HW2 4503   1.321   1.673   4.052
 1202SOL     OW 4504   0.475   5.400   5.075
 1202SOL    HW1 4505   0.395   5.399   5.134
 1202SOL    HW2 4506   0.511   5.493   5.069
 1203SOL     OW 4507   0.347   5.739   6.913
 1203SOL    HW1 4508   0.361   5.688   6.829
 1203SOL    HW2 4509   0.266   5.705   6.961
 1204SOL     OW 4510   4.449   1.378   1.465
 1204SOL    HW1 4511   4.508   1.400   1.543
 1204SOL    HW2 4512   4.402   1.461   1.434
 1205SOL     OW 4513   3.802   3.455   0.722
 1205SOL    HW1 4514   3.725   3.396   0.696
 1205SOL    HW2 4515   3.867   3.402   0.776
 1206SOL     OW 4516   2.788   2.460   5.170
 1206SOL    HW1 4517   2.841   2.532   5.215
 1206SOL    HW2 4518   2.691   2.486   5.169
 1207SOL     OW 4519   2.049   6.506   1.378
 1207SOL    HW1 4520   1.990   6.464   1.308
 1207SOL    HW2 4521   2.139   6.462   1.377
 1208SOL     OW 4522   3.728   3.578   1.394
 1208SOL    HW1 4523   3.766   3.663   1.430
 1208SOL    HW2 4524   3.683   3.527   1.468
 1209SOL     OW 4525   4.595   0.452   3.705
 1209SOL    HW1 4526   4.560   0.378   3.648
 1209SOL    HW2 4527   4.563   0.540   3.670
 1210SOL     OW 4528   3.644   6.754   3.365
 1210SOL    HW1 4529   3.553   6.786   3.341
 1210SOL    HW2 4530   3.640   6.704   3.452
 1211SOL     OW 4531   0.814   3.766   2.937
 1211SOL    HW1 4532   0.792   3.701   2.864
 1211SOL    HW2 4533   0.730   3.792   2.985
 1212SOL     OW 4534   5.863   0.701   6.863
 1212SOL    HW1 4535   5.842   0.784   6.812
 1212SOL    HW2 4536   5.873   0.624   6.800
 1213SOL     OW 4537   6.017   2.475   1.047
 1213SOL    HW1 4538   6.075   2.472   0.966
 1213SOL    HW2 4539   6.047   2.548   1.108
 1214SOL     OW 4540   1.066   3.909   0.050
 1214SOL    HW1 4541   1.056   3.877   0.144
 1214SOL    HW2 4542   0.976   3.931   0.013
 1215SOL     OW 4543   1.017   4.581   3.426
 1215SOL    HW1 4544   0.936   4.566   3.370
 1215SOL    HW2 4545   1.051   4.673   3.412
 1216SOL     OW 4546   4.981   0.016   0.869
 1216SOL    HW1 4547   5.053   0.081   0.843
 1216SOL    HW2 4548   4.892   0.055   0.846
 1217SOL     OW 4549   2.383   4.381   1.252
 1217SOL    HW1 4550   2.314   4.309   1.255
 1217SOL    HW2 4551   2.352   4.456   1.195
 1218SOL     OW 4552   1.303   3.567   5.130
 1218SOL    HW1 4553   1.375   3.499   5.144
 1218SOL    HW2 4554   1.238   3.562   5.206
 1219SOL     OW 4555   5.125   6.065   2.008
 1219SOL    HW1 4556   5.186   6.129   1.961
 1219SOL    HW2 4557   5.178   6.011   2.073
 1220SOL     OW 4558   0.829   4.683   3.234
 1220SOL    HW1 4559   0.887   4.756   3.201
 1220SOL    HW2 4560   0.753   4.669   3.170
 1221SOL     OW 4561   4.265   4.320   6.107
 1221SOL    HW1 4562   4.219   4.265   6.177
 1221SOL    HW2 4563   4.197   4.355   6.042
 1222SOL     OW 4564   6.534   0.686   0.271
 1222SOL    HW1 4565   6.466   0.748   0.233
 1222SOL    HW2 4566   6.597   0.657   0.198
 1223SOL     OW 4567   4.381   2.020   0.043
 1223SOL    HW1 4568   4.344   2.112   0.054
 1223SOL    HW2 4569   4.305   1.955   0.032
 1224SOL     OW 4570   3.789   5.398   0.828
 1224SOL    HW1 4571   3.871   5.354   0.863
 1224SOL    HW2 4572   3.736   5.332   0.775
 1225SOL     OW 4573   3.358   3.442   6.391
 1225SOL    HW1 4574   3.388   3.454   6.296
 1225SOL    HW2 4575   3.281   3.503   6.410
 1226SOL     OW 4576   2.085   6.153   2.185
 1226SOL    HW1 4577   2.031   6.136   2.103
 1226SOL    HW2 4578   2.040   6.111   2.264
 1227SOL     OW 4579   6.603   4.835   5.881
 1227SOL    HW1 4580   6.694   4.807   5.850
 1227SOL    HW2 4581   6.610   4.921   5.931
 1228SOL     OW 4582   3.032   2.130   6.079
 1228SOL    HW1 4583   3.079   2.190   6.014
 1228SOL    HW2 4584   3.097   2.099   6.148
 1229SOL     OW 4585   3.647   5.337   5.924
 1229SOL    HW1 4586   3.608   5.384   5.845
 1229SOL    HW2 4587   3.732   5.292   5.897
 1230SOL     OW 4588   4.582   6.583   2.483
 1230SOL    HW1 4589   4.679   6.600   2.465
 1230SOL    HW2 4590   4.530   6.667   2.470
 1231SOL     OW 4591   1.883   2.605   4.715
 1231SOL    HW1 4592   1.808   2.558   4.668
 1231SOL    HW2 4593   1.917   2.679   4.657
 1232SOL     OW 4594   0.446   1.739   5.814
 1232SOL    HW1 4595   0.390   1.739   5.730
 1232SOL    HW2 4596   0.388   1.764   5.892
 1233SOL     OW 4597   0.757   4.835   5.020
 1233SOL    HW1 4598   0.664   4.815   4.989
 1233SOL    HW2 4599   0.754   4.889   5.104
 1234SOL     OW 4600   6.429   3.348   5.837
 1234SOL    HW1 4601   6.381   3.393   5.762
 1234SOL    HW2 4602   6.451   3.415   5.908
 1235SOL     OW 4603   6.793   5.686   2.628
 1235SOL    HW1 4604   6.800   5.770   2.574
 1235SOL    HW2 4605   6.858   5.690   2.704
 1236SOL     OW 4606   4.557   1.561   6.859
 1236SOL    HW1 4607   4.607   1.638   6.821
 1236SOL    HW2 4608   4.577   1.479   6.805
 1237SOL     OW 4609   2.577   4.781   6.080
 1237SOL    HW1 4610   2.614   4.706   6.134
 1237SOL    HW2 4611   2.520   4.839   6.138
 1238SOL     OW 4612   2.155   1.067   0.466
 1238SOL    HW1 4613   2.113   0.985   0.428
 1238SOL    HW2 4614   2.254   1.057   0.467
 1239SOL     OW 4615   0.061   6.975   6.318
 1239SOL    HW1 4616   0.075   0.015   6.388
 1239SOL    HW2 4617   6.993   6.964   6.301
 1240SOL     OW 4618   5.251   6.620   1.397
 1240SOL    HW1 4619   5.227   6.686   1.326
 1240SOL    HW2 4620   5.306   6.546   1.357
 1241SOL     OW 4621   5.241   3.517   4.443
 1241SOL    HW1 4622   5.300   3.524   4.523
 1241SOL    HW2 4623   5.151   3.483   4.470
 1242SOL     OW 4624   0.391   3.731   1.507
 1242SOL    HW1 4625   0.434   3.663   1.567
 1242SOL    HW2 4626   0.388   3.696   1.414
 1243SOL     OW 4627   0.023   6.828   4.727
 1243SOL    HW1 4628   6.965   6.858   4.690
 1243SOL    HW2 4629   0.053   6.892   4.798
 1244SOL     OW 4630   6.316   0.042   4.313
 1244SOL    HW1 4631   6.342   0.137   4.331
 1244SOL    HW2 4632   6.329   7.018   4.396
 1245SOL     OW 4633   5.199   5.160   0.496
 1245SOL    HW1 4634   5.132   5.110   0.551
 1245SOL    HW2 4635   5.153   5.236   0.450
 1246SOL     OW 4636   2.274   6.244   1.621
 1246SOL    HW1 4637   2.354   6.199   1.582
 1246SOL    HW2 4638   2.293   6.342   1.631
 1247SOL     OW 4639   1.824   0.180   6.808
 1247SOL    HW1 4640   1.806   0.162   6.712
 1247SOL    HW2 4641   1.779   0.266   6.834
 1248SOL     OW 4642   2.332   6.900   4.970
 1248SOL    HW1 4643   2.364   6.979   5.022
 1248SOL    HW2 4644   2.393   6.882   4.894
 1249SOL     OW 4645   6.428   1.957   2.798
 1249SOL    HW1 4646   6.476   1.906   2.726
 1249SOL    HW2 4647   6.338   1.985   2.763
 1250SOL     OW 4648   5.862   5.026   4.301
 1250SOL    HW1 4649   5.863   5.092   4.225
 1250SOL    HW2 4650   5.953   5.020   4.341
 1251SOL     OW 4651   3.539   1.021   4.371
 1251SOL    HW1 4652   3.587   1.067   4.296
 1251SOL    HW2 4653   3.465   0.965   4.333
 1252SOL     OW 4654   4.125   3.821   5.605
 1252SOL    HW1 4655   4.093   3.736   5.562
 1252SOL    HW2 4656   4.102   3.819   5.702
 1253SOL     OW 4657   3.010   5.924   2.305
 1253SOL    HW1 4658   2.946   5.912   2.380
 1253SOL    HW2 4659   2.980   6.000   2.247
 1254SOL     OW 4660   1.261   2.154   2.473
 1254SOL    HW1 4661   1.202   2.121   2.546
 1254SOL    HW2 4662   1.276   2.252   2.483
 1255SOL     OW 4663   6.575   2.216   4.923
 1255SOL    HW1 4664   6.527   2.212   4.836
 1255SOL    HW2 4665   6.534   2.288   4.980
 1256SOL     OW 4666   6.620   6.270   3.518
 1256SOL    HW1 4667   6.698   6.251   3.459
 1256SOL    HW2 4668   6.643   6.343   3.582
 1257SOL     OW 4669   0.180   6.389   5.060
 1257SOL    HW1 4670   0.199   6.361   4.966
 1257SOL    HW2 4671   0.081   6.397   5.073
 1258SOL     OW 4672   1.514   5.457   3.379
 1258SOL    HW1 4673   1.456   5.432   3.456
 1258SOL    HW2 4674   1.514   5.556   3.367
 1259SOL     OW 4675   4.303   1.251   4.306
 1259SOL    HW1 4676   4.310   1.165   4.356
 1259SOL    HW2 4677   4.241   1.239   4.229
 1260SOL     OW 4678   1.797   1.565   0.440
 1260SOL    HW1 4679   1.846   1.618   0.371
 1260SOL    HW2 4680   1.863   1.526   0.505
 1261SOL     OW 4681   0.196   5.431   6.464
 1261SOL    HW1 4682   0.154   5.470   6.382
 1261SOL    HW2 4683   0.192   5.331   6.460
 1262SOL     OW 4684   4.951   4.462   1.530
 1262SOL    HW1 4685   4.929   4.446   1.626
 1262SOL    HW2 4686   4.877   4.514   1.487
 1263SOL     OW 4687   0.363   1.997   2.396
 1263SOL    HW1 4688   0.404   1.906   2.406
 1263SOL    HW2 4689   0.265   1.987   2.378
 1264SOL     OW 4690   6.459   4.420   0.169
 1264SOL    HW1 4691   6.511   4.349   0.217
 1264SOL    HW2 4692   6.391   4.459   0.230
 1265SOL     OW 4693   5.825   4.972   4.805
 1265SOL    HW1 4694   5.783   5.062   4.822
 1265SOL    HW2 4695   5.755   4.909   4.772
 1266SOL     OW 4696   0.625   1.253   4.242
 1266SOL    HW1 4697   0.614   1.333   4.301
 1266SOL    HW2 4698   0.693   1.274   4.171
 1267SOL     OW 4699   5.592   1.062   1.323
 1267SOL    HW1 4700   5.666   1.129   1.322
 1267SOL    HW2 4701   5.621   0.979   1.277
 1268SOL     OW 4702   3.065   2.725   6.756
 1268SOL    HW1 4703   3.093   2.810   6.799
 1268SOL    HW2 4704   3.119   2.649   6.794
 1269SOL     OW 4705   6.096   3.734   4.325
 1269SOL    HW1 4706   6.071   3.643   4.291
 1269SOL    HW2 4707   6.039   3.803   4.280
 1270SOL     OW 4708   1.533   3.838   2.877
 1270SOL    HW1 4709   1.577   3.925   2.853
 1270SOL    HW2 4710   1.434   3.847   2.864
 1271SOL     OW 4711   3.855   1.651   2.217
 1271SOL    HW1 4712   3.885   1.706   2.139
 1271SOL    HW2 4713   3.789   1.703   2.271
 1272SOL     OW 4714   5.631   4.263   6.846
 1272SOL    HW1 4715   5.704   4.196   6.858
 1272SOL    HW2 4716   5.544   4.216   6.833
 1273SOL     OW 4717   0.868   3.623   6.650
 1273SOL    HW1 4718   0.809   3.542   6.654
 1273SOL    HW2 4719   0.876   3.653   6.555
 1274SOL     OW 4720   6.506   4.347   1.691
 1274SOL    HW1 4721   6.484   4.391   1.778
 1274SOL    HW2 4722   6.549   4.413   1.630
 1275SOL     OW 4723   4.096   1.502   3.671
 1275SOL    HW1 4724   4.178   1.536   3.717
 1275SOL    HW2 4725   4.040   1.579   3.642
 1276SOL     OW 4726   6.261   5.070   4.951
 1276SOL    HW1 4727   6.218   5.146   4.999
 1276SOL    HW2 4728   6.343   5.102   4.904
 1277SOL     OW 4729   1.724   5.787   6.518
 1277SOL    HW1 4730   1.795   5.796   6.589
 1277SOL    HW2 4731   1.768   5.767   6.430
 1278SOL     OW 4732   1.270   6.900   5.087
 1278SOL    HW1 4733   1.176   6.932   5.078
 1278SOL    HW2 4734   1.272   6.800   5.081
 1279SOL     OW 4735   1.570   5.098   6.946
 1279SOL    HW1 4736   1.635   5.138   7.010
 1279SOL    HW2 4737   1.573   4.999   6.954
 1280SOL     OW 4738   4.520   0.155   4.310
 1280SOL    HW1 4739   4.465   0.142   4.228
 1280SOL    HW2 4740   4.585   0.230   4.296
 1281SOL     OW 4741   2.569   6.056   3.071
 1281SOL    HW1 4742   2.605   6.149   3.061
 1281SOL    HW2 4743   2.644   5.990   3.067
 1282SOL     OW 4744   6.671   2.222   6.472
 1282SOL    HW1 4745   6.701   2.307   6.514
 1282SOL    HW2 4746   6.595   2.183   6.524
 1283SOL     OW 4747   6.439   3.445   4.964
 1283SOL    HW1 4748   6.513   3.437   4.898
 1283SOL    HW2 4749   6.476   3.471   5.053
 1284SOL     OW 4750   4.778   1.581   1.567
 1284SOL    HW1 4751   4.819   1.547   1.483
 1284SOL    HW2 4752   4.832   1.552   1.645
 1285SOL     OW 4753   4.629   1.774   5.683
 1285SOL    HW1 4754   4.686   1.694   5.698
 1285SOL    HW2 4755   4.665   1.851   5.736
 1286SOL     OW 4756   4.273   3.599   0.923
 1286SOL    HW1 4757   4.184   3.618   0.880
 1286SOL    HW2 4758   4.258   3.543   1.005
 1287SOL     OW 4759   5.511   4.293   5.329
 1287SOL    HW1 4760   5.443   4.220   5.332
 1287SOL    HW2 4761   5.509   4.336   5.238
 1288SOL     OW 4762   3.883   3.563   6.397
 1288SOL    HW1 4763   3.833   3.541   6.313
 1288SOL    HW2 4764   3.847   3.647   6.436
 1289SOL     OW 4765   0.599   6.726   1.352
 1289SOL    HW1 4766   0.600   6.767   1.444
 1289SOL    HW2 4767   0.691   6.730   1.314
 1290SOL     OW 4768   1.250   6.649   0.672
 1290SOL    HW1 4769   1.211   6.732   0.712
 1290SOL    HW2 4770   1.202   6.628   0.587
 1291SOL     OW 4771   0.670   4.354   3.782
 1291SOL    HW1 4772   0.746   4.419   3.789
 1291SOL    HW2 4773   0.698   4.277   3.725
 1292SOL     OW 4774   0.765   5.482   2.463
 1292SOL    HW1 4775   0.733   5.576   2.479
 1292SOL    HW2 4776   0.695   5.431   2.412
 1293SOL     OW 4777   2.314   2.353   6.998
 1293SOL    HW1 4778   2.244   2.289   6.965
 1293SOL    HW2 4779   2.365   2.310   0.043
 1294SOL     OW 4780   0.330   3.418   5.793
 1294SOL    HW1 4781   0.368   3.328   5.770
 1294SOL    HW2 4782   0.361   3.444   5.885
 1295SOL     OW 4783   0.127   3.762   1.121
 1295SOL    HW1 4784   0.033   3.729   1.131
 1295SOL    HW2 4785   0.126   3.852   1.077
 1296SOL     OW 4786   3.813   6.281   5.253
 1296SOL    HW1 4787   3.884   6.352   5.260
 1296SOL    HW2 4788   3.725   6.319   5.279
 1297SOL     OW 4789   0.801   6.928   1.306
 1297SOL    HW1 4790   0.895   6.895   1.293
 1297SOL    HW2 4791   0.801   7.003   1.371
 1298SOL     OW 4792   5.152   5.465   3.358
 1298SOL    HW1 4793   5.145   5.386   3.418
 1298SOL    HW2 4794   5.062   5.508   3.348
 1299SOL     OW 4795   2.622   2.511   3.660
 1299SOL    HW1 4796   2.654   2.479   3.749
 1299SOL    HW2 4797   2.559   2.588   3.672
 1300SOL     OW 4798   1.709   2.654   0.250
 1300SOL    HW1 4799   1.744   2.599   0.174
 1300SOL    HW2 4800   1.785   2.700   0.296
 1301SOL     OW 4801   0.480   6.379   1.898
 1301SOL    HW1 4802   0.422   6.457   1.877
 1301SOL    HW2 4803   0.567   6.411   1.936
 1302SOL     OW 4804   4.748   6.746   5.028
 1302SOL    HW1 4805   4.658   6.788   5.040
 1302SOL    HW2 4806   4.740   6.646   5.039
 1303SOL     OW 4807   3.897   1.633   1.393
 1303SOL    HW1 4808   3.849   1.565   1.449
 1303SOL    HW2 4809   3.934   1.705   1.451
 1304SOL     OW 4810   1.489   0.070   0.352
 1304SOL    HW1 4811   1.579   0.031   0.373
 1304SOL    HW2 4812   1.455   0.032   0.266
 1305SOL     OW 4813   5.635   3.680   0.651
 1305SOL    HW1 4814   5.696   3.652   0.577
 1305SOL    HW2 4815   5.620   3.603   0.713
 1306SOL     OW 4816   1.328   6.088   3.979
 1306SOL    HW1 4817   1.358   6.057   4.069
 1306SOL    HW2 4818   1.320   6.188   3.979
 1307SOL     OW 4819   2.350   4.389   4.133
 1307SOL    HW1 4820   2.317   4.381   4.227
 1307SOL    HW2 4821   2.285   4.347   4.070
 1308SOL     OW 4822   6.282   0.217   5.951
 1308SOL    HW1 4823   6.289   0.157   6.030
 1308SOL    HW2 4824   6.325   0.172   5.872
 1309SOL     OW 4825   5.806   4.999   5.685
 1309SOL    HW1 4826   5.897   4.979   5.721
 1309SOL    HW2 4827   5.738   4.949   5.738
 1310SOL     OW 4828   0.137   3.599   3.419
 1310SOL    HW1 4829   0.230   3.571   3.443
 1310SOL    HW2 4830   0.105   3.667   3.485
 1311SOL     OW 4831   6.484   5.738   6.068
 1311SOL    HW1 4832   6.547   5.696   6.133
 1311SOL    HW2 4833   6.533   5.761   5.984
 1312SOL     OW 4834   1.391   6.739   0.137
 1312SOL    HW1 4835   1.470   6.677   0.146
 1312SOL    HW2 4836   1.307   6.685   0.130
 1313SOL     OW 4837   0.116   4.584   3.045
 1313SOL    HW1 4838   0.143   4.556   2.953
 1313SOL    HW2 4839   0.122   4.683   3.053
 1314SOL     OW 4840   4.111   1.589   4.601
 1314SOL    HW1 4841   4.190   1.566   4.544
 1314SOL    HW2 4842   4.053   1.654   4.552
 1315SOL     OW 4843   0.010   2.156   3.008
 1315SOL    HW1 4844   0.101   2.167   3.047
 1315SOL    HW2 4845   0.001   2.066   2.967
 1316SOL     OW 4846   3.241   0.083   5.768
 1316SOL    HW1 4847   3.190   0.111   5.849
 1316SOL    HW2 4848   3.337   0.113   5.777
 1317SOL     OW 4849   2.618   4.079   5.938
 1317SOL    HW1 4850   2.612   4.179   5.929
 1317SOL    HW2 4851   2.527   4.039   5.931
 1318SOL     OW 4852   0.904   2.552   0.853
 1318SOL    HW1 4853   0.954   2.556   0.939
 1318SOL    HW2 4854   0.879   2.457   0.834
 1319SOL     OW 4855   7.006   6.052   1.335
 1319SOL    HW1 4856   7.019   6.076   1.431
 1319SOL    HW2 4857   7.027   6.131   1.278
 1320SOL     OW 4858   3.788   4.337   6.632
 1320SOL    HW1 4859   3.772   4.432   6.606
 1320SOL    HW2 4860   3.864   4.301   6.579
 1321SOL     OW 4861   5.294   2.842   6.709
 1321SOL    HW1 4862   5.243   2.884   6.784
 1321SOL    HW2 4863   5.387   2.880   6.707
 1322SOL     OW 4864   3.843   1.874   4.061
 1322SOL    HW1 4865   3.817   1.843   4.152
 1322SOL    HW2 4866   3.866   1.794   4.004
 1323SOL     OW 4867   3.768   6.698   6.218
 1323SOL    HW1 4868   3.709   6.639   6.274
 1323SOL    HW2 4869   3.862   6.664   6.221
 1324SOL     OW 4870   0.592   3.419   6.946
 1324SOL    HW1 4871   0.671   3.395   7.002
 1324SOL    HW2 4872   0.556   3.337   6.901
 1325SOL     OW 4873   3.190   6.196   4.852
 1325SOL    HW1 4874   3.102   6.165   4.887
 1325SOL    HW2 4875   3.264   6.157   4.907
 1326SOL     OW 4876   5.195   3.524   5.108
 1326SOL    HW1 4877   5.133   3.536   5.185
 1326SOL    HW2 4878   5.280   3.481   5.139
 1327SOL     OW 4879   0.975   6.185   1.329
 1327SOL    HW1 4880   1.042   6.259   1.331
 1327SOL    HW2 4881   0.930   6.183   1.240
 1328SOL     OW 4882   2.804   3.054   0.516
 1328SOL    HW1 4883   2.758   2.992   0.452
 1328SOL    HW2 4884   2.902   3.057   0.494
 1329SOL     OW 4885   0.883   2.101   2.401
 1329SOL    HW1 4886   0.931   2.057   2.325
 1329SOL    HW2 4887   0.907   2.198   2.404
 1330SOL     OW 4888   1.589   1.001   1.322
 1330SOL    HW1 4889   1.663   0.989   1.388
 1330SOL    HW2 4890   1.625   1.049   1.241
 1331SOL     OW 4891   4.764   2.898   2.887
 1331SOL    HW1 4892   4.725   2.810   2.912
 1331SOL    HW2 4893   4.790   2.898   2.791
 1332SOL     OW 4894   2.419   6.950   0.647
 1332SOL    HW1 4895   2.389   6.895   0.724
 1332SOL    HW2 4896   2.458   0.007   0.680
 1333SOL     OW 4897   2.960   3.458   3.396
 1333SOL    HW1 4898   2.927   3.492   3.485
 1333SOL    HW2 4899   2.924   3.516   3.323
 1334SOL     OW 4900   6.581   1.689   3.642
 1334SOL    HW1 4901   6.510   1.626   3.673
 1334SOL    HW2 4902   6.601   1.754   3.715
 1335SOL     OW 4903   2.698   1.972   2.161
 1335SOL    HW1 4904   2.735   2.056   2.201
 1335SOL    HW2 4905   2.682   1.985   2.064
 1336SOL     OW 4906   2.310   1.783   5.323
 1336SOL    HW1 4907   2.244   1.797   5.249
 1336SOL    HW2 4908   2.393   1.741   5.286
 1337SOL     OW 4909   1.035   1.759   3.190
 1337SOL    HW1 4910   1.118   1.721   3.232
 1337SOL    HW2 4911   1.048   1.856   3.173
 1338SOL     OW 4912   6.984   2.866   4.616
 1338SOL    HW1 4913   7.021   2.945   4.665
 1338SOL    HW2 4914   6.934   2.897   4.536
 1339SOL     OW 4915   6.554   1.797   6.931
 1339SOL    HW1 4916   6.619   1.808   6.856
 1339SOL    HW2 4917   6.600   1.813   7.018
 1340SOL     OW 4918   5.248   1.829   2.633
 1340SOL    HW1 4919   5.187   1.803   2.708
 1340SOL    HW2 4920   5.196   1.830   2.547
 1341SOL     OW 4921   4.196   6.833   6.802
 1341SOL    HW1 4922   4.222   6.740   6.777
 1341SOL    HW2 4923   4.131   6.831   6.878
 1342SOL     OW 4924   3.401   6.030   6.420
 1342SOL    HW1 4925   3.384   6.109   6.361
 1342SOL    HW2 4926   3.320   6.012   6.476
 1343SOL     OW 4927   4.953   5.346   3.062
 1343SOL    HW1 4928   4.869   5.332   3.010
 1343SOL    HW2 4929   4.952   5.288   3.143
 1344SOL     OW 4930   0.176   6.129   4.528
 1344SOL    HW1 4931   0.262   6.090   4.560
 1344SOL    HW2 4932   0.107   6.057   4.521
 1345SOL     OW 4933   0.869   6.019   2.717
 1345SOL    HW1 4934   0.877   6.044   2.620
 1345SOL    HW2 4935   0.911   6.091   2.773
 1346SOL     OW 4936   1.744   6.245   4.495
 1346SOL    HW1 4937   1.748   6.318   4.564
 1346SOL    HW2 4938   1.712   6.284   4.408
 1347SOL     OW 4939   6.881   0.068   5.911
 1347SOL    HW1 4940   6.952   0.102   5.850
 1347SOL    HW2 4941   6.893   6.999   5.923
 1348SOL     OW 4942   6.158   6.690   4.372
 1348SOL    HW1 4943   6.099   6.771   4.371
 1348SOL    HW2 4944   6.177   6.662   4.278
 1349SOL     OW 4945   5.212   3.217   5.326
 1349SOL    HW1 4946   5.250   3.125   5.333
 1349SOL    HW2 4947   5.275   3.275   5.275
 1350SOL     OW 4948   5.208   5.057   5.455
 1350SOL    HW1 4949   5.114   5.078   5.427
 1350SOL    HW2 4950   5.244   5.133   5.509
 1351SOL     OW 4951   6.279   1.554   3.053
 1351SOL    HW1 4952   6.292   1.640   3.102
 1351SOL    HW2 4953   6.300   1.567   2.956
 1352SOL     OW 4954   6.513   5.662   4.009
 1352SOL    HW1 4955   6.547   5.572   4.037
 1352SOL    HW2 4956   6.457   5.701   4.082
 1353SOL     OW 4957   0.918   2.578   0.449
 1353SOL    HW1 4958   0.831   2.622   0.470
 1353SOL    HW2 4959   0.907   2.521   0.367
 1354SOL     OW 4960   0.229   4.531   1.684
 1354SOL    HW1 4961   0.306   4.529   1.621
 1354SOL    HW2 4962   0.206   4.438   1.712
 1355SOL     OW 4963   5.752   3.397   4.304
 1355SOL    HW1 4964   5.706   3.308   4.305
 1355SOL    HW2 4965   5.687   3.468   4.332
 1356SOL     OW 4966   3.058   3.337   1.888
 1356SOL    HW1 4967   2.978   3.307   1.941
 1356SOL    HW2 4968   3.101   3.415   1.934
 1357SOL     OW 4969   0.180   4.522   6.502
 1357SOL    HW1 4970   0.251   4.452   6.508
 1357SOL    HW2 4971   0.090   4.478   6.503
 1358SOL     OW 4972   5.046   6.593   6.430
 1358SOL    HW1 4973   5.133   6.554   6.461
 1358SOL    HW2 4974   4.979   6.591   6.504
 1359SOL     OW 4975   5.451   4.910   2.953
 1359SOL    HW1 4976   5.460   5.008   2.935
 1359SOL    HW2 4977   5.523   4.860   2.907
 1360SOL     OW 4978   2.512   4.063   0.412
 1360SOL    HW1 4979   2.435   4.077   0.473
 1360SOL    HW2 4980   2.506   3.971   0.371
 1361SOL     OW 4981   6.423   4.932   5.156
 1361SOL    HW1 4982   6.441   5.016   5.207
 1361SOL    HW2 4983   6.380   4.955   5.069
 1362SOL     OW 4984   3.834   4.018   3.709
 1362SOL    HW1 4985   3.807   3.940   3.765
 1362SOL    HW2 4986   3.912   4.064   3.750
 1363SOL     OW 4987   6.820   5.183   3.879
 1363SOL    HW1 4988   6.797   5.151   3.971
 1363SOL    HW2 4989   6.906   5.235   3.884
 1364SOL     OW 4990   5.411   4.368   1.169
 1364SOL    HW1 4991   5.402   4.460   1.206
 1364SOL    HW2 4992   5.507   4.348   1.150
 1365SOL     OW 4993   0.543   4.323   6.413
 1365SOL    HW1 4994   0.543   4.413   6.455
 1365SOL    HW2 4995   0.580   4.256   6.477
 1366SOL     OW 4996   1.619   5.700   0.298
 1366SOL    HW1 4997   1.543   5.674   0.238
 1366SOL    HW2 4998   1.649   5.793   0.276
 1367SOL     OW 4999   2.455   0.491   3.245
 1367SOL    HW1 5000   2.538   0.530   3.205
 1367SOL    HW2 5001   2.471   0.468   3.341
 1368SOL     OW 5002   5.969   0.601   3.826
 1368SOL    HW1 5003   5.921   0.619   3.740
 1368SOL    HW2 5004   6.068   0.602   3.809
 1369SOL     OW 5005   1.926   6.510   2.242
 1369SOL    HW1 5006   2.002   6.485   2.302
 1369SOL    HW2 5007   1.888   6.428   2.200
 1370SOL     OW 5008   3.478   1.127   0.693
 1370SOL    HW1 5009   3.379   1.130   0.703
 1370SOL    HW2 5010   3.501   1.109   0.597
 1371SOL     OW 5011   5.434   1.474   4.049
 1371SOL    HW1 5012   5.499   1.544   4.023
 1371SOL    HW2 5013   5.344   1.495   4.011
 1372SOL     OW 5014   0.837   3.093   0.914
 1372SOL    HW1 5015   0.826   3.176   0.968
 1372SOL    HW2 5016   0.840   3.116   0.817
 1373SOL     OW 5017   6.088   4.072   6.689
 1373SOL    HW1 5018   6.176   4.037   6.721
 1373SOL    HW2 5019   6.103   4.134   6.612
 1374SOL     OW 5020   4.560   2.558   0.475
 1374SOL    HW1 5021   4.581   2.462   0.495
 1374SOL    HW2 5022   4.462   2.567   0.456
 1375SOL     OW 5023   6.917   4.730   6.219
 1375SOL    HW1 5024   6.869   4.648   6.188
 1375SOL    HW2 5025   7.013   4.707   6.236
 1376SOL     OW 5026   4.910   3.517   3.545
 1376SOL    HW1 5027   4.905   3.461   3.628
 1376SOL    HW2 5028   4.937   3.459   3.468
 1377SOL     OW 5029   6.719   4.069   5.215
 1377SOL    HW1 5030   6.704   4.094   5.119
 1377SOL    HW2 5031   6.786   3.996   5.220
 1378SOL     OW 5032   6.322   1.566   4.848
 1378SOL    HW1 5033   6.369   1.565   4.760
 1378SOL    HW2 5034   6.306   1.473   4.879
 1379SOL     OW 5035   3.500   0.371   2.346
 1379SOL    HW1 5036   3.471   0.276   2.339
 1379SOL    HW2 5037   3.427   0.426   2.387
 1380SOL     OW 5038   0.291   6.998   2.280
 1380SOL    HW1 5039   0.320   0.051   2.330
 1380SOL    HW2 5040   0.371   6.954   2.240
 1381SOL     OW 5041   5.627   2.843   6.824
 1381SOL    HW1 5042   5.622   2.750   6.788
 1381SOL    HW2 5043   5.561   2.854   6.899
 1382SOL     OW 5044   5.235   4.493   0.247
 1382SOL    HW1 5045   5.310   4.448   0.297
 1382SOL    HW2 5046   5.198   4.567   0.303
 1383SOL     OW 5047   0.577   0.716   0.576
 1383SOL    HW1 5048   0.519   0.701   0.656
 1383SOL    HW2 5049   0.605   0.628   0.538
 1384SOL     OW 5050   3.704   1.168   2.649
 1384SOL    HW1 5051   3.734   1.073   2.657
 1384SOL    HW2 5052   3.678   1.187   2.554
 1385SOL     OW 5053   0.531   3.036   2.750
 1385SOL    HW1 5054   0.500   3.007   2.660
 1385SOL    HW2 5055   0.631   3.045   2.750
 1386SOL     OW 5056   2.468   1.678   4.787
 1386SOL    HW1 5057   2.530   1.737   4.838
 1386SOL    HW2 5058   2.380   1.725   4.774
 1387SOL     OW 5059   3.770   0.136   3.637
 1387SOL    HW1 5060   3.748   0.222   3.592
 1387SOL    HW2 5061   3.688   0.078   3.640
 1388SOL     OW 5062   0.192   6.649   4.008
 1388SOL    HW1 5063   0.153   6.625   4.097
 1388SOL    HW2 5064   0.256   6.576   3.979
 1389SOL     OW 5065   0.502   1.119   3.566
 1389SOL    HW1 5066   0.449   1.180   3.507
 1389SOL    HW2 5067   0.593   1.157   3.578
 1390SOL     OW 5068   4.716   1.388   6.675
 1390SOL    HW1 5069   4.749   1.454   6.607
 1390SOL    HW2 5070   4.789   1.323   6.697
 1391SOL     OW 5071   6.386   1.429   5.589
 1391SOL    HW1 5072   6.418   1.524   5.595
 1391SOL    HW2 5073   6.286   1.429   5.590
 1392SOL     OW 5074   5.423   5.100   5.191
 1392SOL    HW1 5075   5.411   5.116   5.289
 1392SOL    HW2 5076   5.516   5.069   5.173
 1393SOL     OW 5077   5.987   3.108   6.485
 1393SOL    HW1 5078   5.968   3.144   6.577
 1393SOL    HW2 5079   5.999   3.009   6.490
 1394SOL     OW 5080   4.020   6.771   3.590
 1394SOL    HW1 5081   4.106   6.762   3.541
 1394SOL    HW2 5082   3.975   6.682   3.595
 1395SOL     OW 5083   0.773   4.169   2.895
 1395SOL    HW1 5084   0.682   4.192   2.863
 1395SOL    HW2 5085   0.822   4.253   2.918
 1396SOL     OW 5086   1.564   0.135   3.914
 1396SOL    HW1 5087   1.509   0.213   3.942
 1396SOL    HW2 5088   1.533   0.104   3.824
 1397SOL     OW 5089   0.438   6.446   5.210
 1397SOL    HW1 5090   0.515   6.478   5.155
 1397SOL    HW2 5091   0.372   6.400   5.151
 1398SOL     OW 5092   1.449   1.399   0.737
 1398SOL    HW1 5093   1.487   1.488   0.711
 1398SOL    HW2 5094   1.451   1.337   0.658
 1399SOL     OW 5095   4.132   0.666   0.603
 1399SOL    HW1 5096   4.034   0.679   0.586
 1399SOL    HW2 5097   4.177   0.755   0.609
 1400SOL     OW 5098   6.620   0.802   4.294
 1400SOL    HW1 5099   6.623   0.724   4.357
 1400SOL    HW2 5100   6.527   0.812   4.258
 1401SOL     OW 5101   5.935   6.875   4.340
 1401SOL    HW1 5102   5.927   6.909   4.433
 1401SOL    HW2 5103   5.971   6.947   4.281
 1402SOL     OW 5104   6.278   4.286   0.002
 1402SOL    HW1 5105   6.277   4.332   6.943
 1402SOL    HW2 5106   6.334   4.338   0.066
 1403SOL     OW 5107   2.183   2.954   0.161
 1403SOL    HW1 5108   2.123   2.904   0.099
 1403SOL    HW2 5109   2.237   3.020   0.109
 1404SOL     OW 5110   4.525   6.981   1.101
 1404SOL    HW1 5111   4.576   6.909   1.148
 1404SOL    HW2 5112   4.465   7.027   1.166
 1405SOL     OW 5113   2.076   3.506   0.730
 1405SOL    HW1 5114   2.059   3.490   0.633
 1405SOL    HW2 5115   2.014   3.577   0.763
 1406SOL     OW 5116   1.734   4.282   1.982
 1406SOL    HW1 5117   1.672   4.204   1.975
 1406SOL    HW2 5118   1.818   4.263   1.932
 1407SOL     OW 5119   1.291   3.318   2.668
 1407SOL    HW1 5120   1.369   3.266   2.634
 1407SOL    HW2 5121   1.323   3.401   2.712
 1408SOL     OW 5122   5.956   6.661   6.866
 1408SOL    HW1 5123   5.941   6.728   6.793
 1408SOL    HW2 5124   5.870   6.644   6.913
 1409SOL     OW 5125   6.998   0.419   5.893
 1409SOL    HW1 5126   0.067   0.415   5.880
 1409SOL    HW2 5127   6.972   0.362   5.971
 1410SOL     OW 5128   2.666   3.323   6.467
 1410SOL    HW1 5129   2.653   3.275   6.380
 1410SOL    HW2 5130   2.728   3.400   6.453
 1411SOL     OW 5131   3.463   6.377   6.769
 1411SOL    HW1 5132   3.424   6.320   6.841
 1411SOL    HW2 5133   3.391   6.401   6.703
 1412SOL     OW 5134   0.681   3.649   1.137
 1412SOL    HW1 5135   0.714   3.714   1.205
 1412SOL    HW2 5136   0.655   3.698   1.054
 1413SOL     OW 5137   1.720   1.600   4.490
 1413SOL    HW1 5138   1.662   1.646   4.557
 1413SOL    HW2 5139   1.802   1.654   4.473
 1414SOL     OW 5140   1.385   2.985   1.661
 1414SOL    HW1 5141   1.322   3.048   1.615
 1414SOL    HW2 5142   1.366   2.892   1.632
 1415SOL     OW 5143   2.700   2.087   4.424
 1415SOL    HW1 5144   2.676   1.999   4.383
 1415SOL    HW2 5145   2.755   2.140   4.360
 1416SOL     OW 5146   4.586   1.201   5.046
 1416SOL    HW1 5147   4.608   1.217   5.142
 1416SOL    HW2 5148   4.627   1.115   5.016
 1417SOL     OW 5149   3.685   3.245   6.038
 1417SOL    HW1 5150   3.700   3.222   5.942
 1417SOL    HW2 5151   3.588   3.239   6.059
 1418SOL     OW 5152   3.390   4.038   0.640
 1418SOL    HW1 5153   3.427   4.120   0.597
 1418SOL    HW2 5154   3.339   4.063   0.722
 1419SOL     OW 5155   1.748   5.089   4.356
 1419SOL    HW1 5156   1.699   5.038   4.427
 1419SOL    HW2 5157   1.800   5.024   4.299
 1420SOL     OW 5158   3.965   4.790   3.102
 1420SOL    HW1 5159   3.977   4.817   3.197
 1420SOL    HW2 5160   4.040   4.729   3.075
 1421SOL     OW 5161   1.208   4.110   4.109
 1421SOL    HW1 5162   1.180   4.114   4.205
 1421SOL    HW2 5163   1.128   4.100   4.051
 1422SOL     OW 5164   2.698   4.876   5.850
 1422SOL    HW1 5165   2.648   4.801   5.893
 1422SOL    HW2 5166   2.648   4.907   5.769
 1423SOL     OW 5167   4.187   2.102   4.547
 1423SOL    HW1 5168   4.161   2.141   4.459
 1423SOL    HW2 5169   4.106   2.091   4.604
 1424SOL     OW 5170   6.390   3.627   6.622
 1424SOL    HW1 5171   6.428   3.549   6.574
 1424SOL    HW2 5172   6.428   3.712   6.584
 1425SOL     OW 5173   2.628   6.185   4.863
 1425SOL    HW1 5174   2.668   6.190   4.771
 1425SOL    HW2 5175   2.656   6.099   4.906
 1426SOL     OW 5176   1.756   1.303   6.328
 1426SOL    HW1 5177   1.821   1.299   6.404
 1426SOL    HW2 5178   1.801   1.345   6.249
 1427SOL     OW 5179   0.631   0.503   3.434
 1427SOL    HW1 5180   0.615   0.525   3.530
 1427SOL    HW2 5181   0.729   0.486   3.421
 1428SOL     OW 5182   0.393   2.282   1.302
 1428SOL    HW1 5183   0.457   2.320   1.236
 1428SOL    HW2 5184   0.307   2.332   1.298
 1429SOL     OW 5185   6.155   1.282   6.625
 1429SOL    HW1 5186   6.094   1.359   6.606
 1429SOL    HW2 5187   6.238   1.316   6.669
 1430SOL     OW 5188   2.255   4.582   4.500
 1430SOL    HW1 5189   2.181   4.607   4.563
 1430SOL    HW2 5190   2.262   4.482   4.496
 1431SOL     OW 5191   2.538   2.646   5.743
 1431SOL    HW1 5192   2.481   2.728   5.753
 1431SOL    HW2 5193   2.491   2.568   5.785
 1432SOL     OW 5194   2.076   1.637   0.589
 1432SOL    HW1 5195   2.040   1.718   0.542
 1432SOL    HW2 5196   2.114   1.665   0.678
 1433SOL     OW 5197   3.981   7.028   3.508
 1433SOL    HW1 5198   3.910   0.032   3.570
 1433SOL    HW2 5199   3.994   6.930   3.523
 1434SOL     OW 5200   6.925   1.795   6.454
 1434SOL    HW1 5201   6.829   1.825   6.448
 1434SOL    HW2 5202   6.947   1.737   6.376
 1435SOL     OW 5203   0.120   0.563   4.204
 1435SOL    HW1 5204   0.119   0.595   4.109
 1435SOL    HW2 5205   0.029   0.576   4.244
 1436SOL     OW 5206   6.281   3.602   0.385
 1436SOL    HW1 5207   6.313   3.562   0.471
 1436SOL    HW2 5208   6.285   3.534   0.312
 1437SOL     OW 5209   3.163   1.198   5.438
 1437SOL    HW1 5210   3.200   1.268   5.499
 1437SOL    HW2 5211   3.070   1.175   5.466
 1438SOL     OW 5212   3.591   1.269   1.693
 1438SOL    HW1 5213   3.507   1.310   1.658
 1438SOL    HW2 5214   3.570   1.185   1.743
 1439SOL     OW 5215   0.775   5.650   0.205
 1439SOL    HW1 5216   0.851   5.711   0.225
 1439SOL    HW2 5217   0.694   5.680   0.255
 1440SOL     OW 5218   3.339   3.566   4.578
 1440SOL    HW1 5219   3.381   3.554   4.488
 1440SOL    HW2 5220   3.404   3.611   4.640
 1441SOL     OW 5221   6.986   3.870   3.157
 1441SOL    HW1 5222   6.890   3.843   3.163
 1441SOL    HW2 5223   7.006   3.937   3.229
 1442SOL     OW 5224   5.440   5.194   0.643
 1442SOL    HW1 5225   5.496   5.125   0.596
 1442SOL    HW2 5226   5.351   5.202   0.598
 1443SOL     OW 5227   0.653   0.518   3.703
 1443SOL    HW1 5228   0.750   0.536   3.723
 1443SOL    HW2 5229   0.598   0.539   3.784
 1444SOL     OW 5230   3.962   5.697   3.078
 1444SOL    HW1 5231   3.923   5.705   2.987
 1444SOL    HW2 5232   3.889   5.691   3.146
 1445SOL     OW 5233   0.385   2.711   1.753
 1445SOL    HW1 5234   0.376   2.616   1.726
 1445SOL    HW2 5235   0.332   2.769   1.691
 1446SOL     OW 5236   5.466   2.821   0.012
 1446SOL    HW1 5237   5.377   2.776   0.025
 1446SOL    HW2 5238   5.530   2.789   0.082
 1447SOL     OW 5239   6.646   0.739   5.127
 1447SOL    HW1 5240   6.589   0.657   5.122
 1447SOL    HW2 5241   6.588   0.820   5.115
 1448SOL     OW 5242   5.969   1.692   0.341
 1448SOL    HW1 5243   6.030   1.760   0.381
 1448SOL    HW2 5244   5.983   1.688   0.242
 1449SOL     OW 5245   5.892   6.864   0.076
 1449SOL    HW1 5246   5.836   6.787   0.047
 1449SOL    HW2 5247   5.970   6.873   0.013
 1450SOL     OW 5248   7.011   2.215   2.100
 1450SOL    HW1 5249   6.962   2.135   2.065
 1450SOL    HW2 5250   0.076   2.190   2.118
 1451SOL     OW 5251   3.148   1.065   3.067
 1451SOL    HW1 5252   3.098   0.980   3.047
 1451SOL    HW2 5253   3.236   1.043   3.109
 1452SOL     OW 5254   4.873   1.699   4.794
 1452SOL    HW1 5255   4.949   1.764   4.787
 1452SOL    HW2 5256   4.861   1.653   4.706
 1453SOL     OW 5257   5.801   3.444   4.606
 1453SOL    HW1 5258   5.893   3.454   4.569
 1453SOL    HW2 5259   5.759   3.535   4.616
 1454SOL     OW 5260   5.892   2.797   2.684
 1454SOL    HW1 5261   5.949   2.779   2.604
 1454SOL    HW2 5262   5.949   2.802   2.765
 1455SOL     OW 5263   0.978   0.615   1.780
 1455SOL    HW1 5264   0.993   0.711   1.801
 1455SOL    HW2 5265   0.932   0.570   1.856
 1456SOL     OW 5266   6.945   6.803   5.316
 1456SOL    HW1 5267   7.023   6.784   5.257
 1456SOL    HW2 5268   6.937   6.731   5.385
 1457SOL     OW 5269   1.299   0.169   2.396
 1457SOL    HW1 5270   1.289   0.092   2.459
 1457SOL    HW2 5271   1.265   0.253   2.439
 1458SOL     OW 5272   5.395   6.750   4.707
 1458SOL    HW1 5273   5.367   6.666   4.660
 1458SOL    HW2 5274   5.334   6.824   4.680
 1459SOL     OW 5275   2.490   4.344   6.877
 1459SOL    HW1 5276   2.534   4.258   6.851
 1459SOL    HW2 5277   2.529   4.418   6.821
 1460SOL     OW 5278   6.724   5.566   5.994
 1460SOL    HW1 5279   6.799   5.517   5.950
 1460SOL    HW2 5280   6.660   5.500   6.034
 1461SOL     OW 5281   6.800   4.810   3.235
 1461SOL    HW1 5282   6.743   4.892   3.237
 1461SOL    HW2 5283   6.837   4.792   3.326
 1462SOL     OW 5284   6.492   2.102   0.093
 1462SOL    HW1 5285   6.552   2.060   0.026
 1462SOL    HW2 5286   6.546   2.153   0.159
 1463SOL     OW 5287   0.366   6.822   5.938
 1463SOL    HW1 5288   0.308   6.856   6.011
 1463SOL    HW2 5289   0.310   6.776   5.870
 1464SOL     OW 5290   0.309   6.768   0.836
 1464SOL    HW1 5291   0.252   6.699   0.791
 1464SOL    HW2 5292   0.329   6.841   0.771
 1465SOL     OW 5293   1.356   1.445   2.980
 1465SOL    HW1 5294   1.329   1.362   3.028
 1465SOL    HW2 5295   1.361   1.522   3.044
 1466SOL     OW 5296   0.291   6.476   3.082
 1466SOL    HW1 5297   0.200   6.516   3.070
 1466SOL    HW2 5298   0.355   6.520   3.018
 1467SOL     OW 5299   1.755   0.228   2.126
 1467SOL    HW1 5300   1.705   0.205   2.210
 1467SOL    HW2 5301   1.724   0.317   2.092
 1468SOL     OW 5302   5.678   5.929   2.979
 1468SOL    HW1 5303   5.750   5.987   2.941
 1468SOL    HW2 5304   5.653   5.962   3.070
 1469SOL     OW 5305   0.772   1.053   3.164
 1469SOL    HW1 5306   0.758   1.018   3.071
 1469SOL    HW2 5307   0.807   1.147   3.158
 1470SOL     OW 5308   0.769   0.605   2.144
 1470SOL    HW1 5309   0.722   0.649   2.068
 1470SOL    HW2 5310   0.775   0.669   2.221
 1471SOL     OW 5311   0.875   0.553   7.025
 1471SOL    HW1 5312   0.942   0.545   0.069
 1471SOL    HW2 5313   0.788   0.584   0.033
 1472SOL     OW 5314   4.376   5.781   4.403
 1472SOL    HW1 5315   4.335   5.785   4.494
 1472SOL    HW2 5316   4.447   5.852   4.396
 1473SOL     OW 5317   6.053   6.227   3.747
 1473SOL    HW1 5318   5.983   6.167   3.710
 1473SOL    HW2 5319   6.139   6.176   3.757
 1474SOL     OW 5320   6.539   6.036   3.622
 1474SOL    HW1 5321   6.570   6.126   3.589
 1474SOL    HW2 5322   6.471   6.049   3.695
 1475SOL     OW 5323   0.383   0.207   1.792
 1475SOL    HW1 5324   0.316   0.135   1.777
 1475SOL    HW2 5325   0.335   0.292   1.816
 1476SOL     OW 5326   1.670   0.809   1.072
 1476SOL    HW1 5327   1.587   0.862   1.057
 1476SOL    HW2 5328   1.710   0.783   0.984
 1477SOL     OW 5329   2.815   0.297   6.693
 1477SOL    HW1 5330   2.758   0.272   6.772
 1477SOL    HW2 5331   2.862   0.383   6.712
 1478SOL     OW 5332   5.781   4.492   0.577
 1478SOL    HW1 5333   5.839   4.551   0.632
 1478SOL    HW2 5334   5.813   4.491   0.483
 1479SOL     OW 5335   1.278   4.623   0.227
 1479SOL    HW1 5336   1.331   4.589   0.149
 1479SOL    HW2 5337   1.340   4.637   0.305
 1480SOL     OW 5338   2.656   1.025   0.446
 1480SOL    HW1 5339   2.615   0.961   0.511
 1480SOL    HW2 5340   2.744   0.989   0.414
 1481SOL     OW 5341   5.871   1.973   4.558
 1481SOL    HW1 5342   5.935   1.936   4.491
 1481SOL    HW2 5343   5.823   2.051   4.519
 1482SOL     OW 5344   5.634   1.498   0.965
 1482SOL    HW1 5345   5.729   1.479   0.938
 1482SOL    HW2 5346   5.578   1.509   0.883
 1483SOL     OW 5347   0.106   3.264   6.275
 1483SOL    HW1 5348   0.079   3.169   6.265
 1483SOL    HW2 5349   0.166   3.274   6.355
 1484SOL     OW 5350   6.850   4.401   3.500
 1484SOL    HW1 5351   6.785   4.370   3.431
 1484SOL    HW2 5352   6.800   4.434   3.580
 1485SOL     OW 5353   4.417   2.468   2.592
 1485SOL    HW1 5354   4.344   2.493   2.528
 1485SOL    HW2 5355   4.497   2.437   2.541
 1486SOL     OW 5356   4.633   2.673   3.296
 1486SOL    HW1 5357   4.549   2.633   3.335
 1486SOL    HW2 5358   4.685   2.718   3.369
 1487SOL     OW 5359   6.552   1.621   6.402
 1487SOL    HW1 5360   6.481   1.561   6.365
 1487SOL    HW2 5361   6.640   1.600   6.359
 1488SOL     OW 5362   6.177   2.207   2.785
 1488SOL    HW1 5363   6.100   2.268   2.803
 1488SOL    HW2 5364   6.238   2.249   2.719
 1489SOL     OW 5365   3.861   4.994   4.473
 1489SOL    HW1 5366   3.895   4.927   4.540
 1489SOL    HW2 5367   3.844   5.081   4.519
 1490SOL     OW 5368   1.448   2.815   1.090
 1490SOL    HW1 5369   1.411   2.722   1.088
 1490SOL    HW2 5370   1.455   2.850   0.997
 1491SOL     OW 5371   0.125   3.610   2.807
 1491SOL    HW1 5372   0.149   3.580   2.900
 1491SOL    HW2 5373   0.070   3.693   2.812
 1492SOL     OW 5374   5.826   1.909   1.753
 1492SOL    HW1 5375   5.917   1.904   1.711
 1492SOL    HW2 5376   5.763   1.847   1.705
 1493SOL     OW 5377   4.943   0.927   5.117
 1493SOL    HW1 5378   5.026   0.886   5.156
 1493SOL    HW2 5379   4.910   0.999   5.177
 1494SOL     OW 5380   4.124   2.651   5.791
 1494SOL    HW1 5381   4.065   2.702   5.729
 1494SOL    HW2 5382   4.156   2.711   5.864
 1495SOL     OW 5383   0.938   3.310   3.682
 1495SOL    HW1 5384   0.925   3.393   3.736
 1495SOL    HW2 5385   0.961   3.334   3.588
 1496SOL     OW 5386   0.682   0.724   1.901
 1496SOL    HW1 5387   0.590   0.746   1.866
 1496SOL    HW2 5388   0.705   0.630   1.876
 1497SOL     OW 5389   0.312   3.901   3.251
 1497SOL    HW1 5390   0.239   3.853   3.203
 1497SOL    HW2 5391   0.399   3.885   3.203
 1498SOL     OW 5392   1.679   5.067   6.678
 1498SOL    HW1 5393   1.633   5.085   6.765
 1498SOL    HW2 5394   1.778   5.074   6.690
 1499SOL     OW 5395   1.131   3.579   5.323
 1499SOL    HW1 5396   1.185   3.652   5.364
 1499SOL    HW2 5397   1.034   3.603   5.328
 1500SOL     OW 5398   5.946   6.976   0.342
 1500SOL    HW1 5399   5.965   6.955   0.246
 1500SOL    HW2 5400   5.851   6.950   0.363
 1501SOL     OW 5401   4.420   0.930   6.086
 1501SOL    HW1 5402   4.365   0.907   6.166
 1501SOL    HW2 5403   4.480   1.007   6.108
 1502SOL     OW 5404   6.374   6.717   0.622
 1502SOL    HW1 5405   6.453   6.661   0.597
 1502SOL    HW2 5406   6.295   6.688   0.568
 1503SOL     OW 5407   2.471   2.862   1.043
 1503SOL    HW1 5408   2.468   2.762   1.048
 1503SOL    HW2 5409   2.465   2.900   1.135
 1504SOL     OW 5410   2.643   0.373   4.874
 1504SOL    HW1 5411   2.720   0.391   4.813
 1504SOL    HW2 5412   2.658   0.419   4.961
 1505SOL     OW 5413   5.066   0.681   6.788
 1505SOL    HW1 5414   5.050   0.667   6.885
 1505SOL    HW2 5415   4.995   0.635   6.734
 1506SOL     OW 5416   1.461   5.260   3.186
 1506SOL    HW1 5417   1.419   5.307   3.109
 1506SOL    HW2 5418   1.469   5.324   3.263
 1507SOL     OW 5419   1.561   1.721   4.660
 1507SOL    HW1 5420   1.490   1.651   4.672
 1507SOL    HW2 5421   1.569   1.775   4.743
 1508SOL     OW 5422   4.678   0.065   0.832
 1508SOL    HW1 5423   4.627   0.111   0.904
 1508SOL    HW2 5424   4.658   6.997   0.834
 1509SOL     OW 5425   4.077   2.974   6.031
 1509SOL    HW1 5426   3.994   2.973   6.087
 1509SOL    HW2 5427   4.070   3.047   5.963
 1510SOL     OW 5428   5.514   1.959   3.904
 1510SOL    HW1 5429   5.478   1.914   3.986
 1510SOL    HW2 5430   5.474   2.050   3.896
 1511SOL     OW 5431   2.148   2.113   6.844
 1511SOL    HW1 5432   2.114   2.020   6.844
 1511SOL    HW2 5433   2.248   2.112   6.839
 1512SOL     OW 5434   6.815   6.363   1.623
 1512SOL    HW1 5435   6.885   6.293   1.631
 1512SOL    HW2 5436   6.856   6.453   1.633
 1513SOL     OW 5437   4.515   0.710   3.618
 1513SOL    HW1 5438   4.474   0.725   3.528
 1513SOL    HW2 5439   4.463   0.759   3.687
 1514SOL     OW 5440   5.276   2.060   4.470
 1514SOL    HW1 5441   5.241   2.036   4.560
 1514SOL    HW2 5442   5.373   2.038   4.464
 1515SOL     OW 5443   6.948   2.811   5.887
 1515SOL    HW1 5444   6.910   2.894   5.845
 1515SOL    HW2 5445   7.020   2.774   5.829
 1516SOL     OW 5446   0.687   0.456   0.831
 1516SOL    HW1 5447   0.737   0.523   0.886
 1516SOL    HW2 5448   0.735   0.442   0.744
 1517SOL     OW 5449   4.938   5.583   3.956
 1517SOL    HW1 5450   4.950   5.578   4.055
 1517SOL    HW2 5451   5.021   5.548   3.910
 1518SOL     OW 5452   0.252   2.983   6.859
 1518SOL    HW1 5453   0.291   2.956   6.771
 1518SOL    HW2 5454   0.157   3.012   6.846
 1519SOL     OW 5455   0.113   4.503   2.256
 1519SOL    HW1 5456   0.120   4.602   2.239
 1519SOL    HW2 5457   0.024   4.470   2.226
 1520SOL     OW 5458   1.726   3.359   2.104
 1520SOL    HW1 5459   1.731   3.404   2.193
 1520SOL    HW2 5460   1.745   3.261   2.115
 1521SOL     OW 5461   2.259   3.410   6.766
 1521SOL    HW1 5462   2.279   3.430   6.670
 1521SOL    HW2 5463   2.161   3.415   6.781
 1522SOL     OW 5464   7.025   1.599   5.451
 1522SOL    HW1 5465   0.021   1.590   5.547
 1522SOL    HW2 5466   6.999   1.510   5.414
 1523SOL     OW 5467   5.206   3.976   6.837
 1523SOL    HW1 5468   5.216   3.877   6.826
 1523SOL    HW2 5469   5.118   4.005   6.798
 1524SOL     OW 5470   0.900   2.212   1.718
 1524SOL    HW1 5471   0.991   2.187   1.749
 1524SOL    HW2 5472   0.905   2.242   1.622
 1525SOL     OW 5473   5.017   2.469   6.017
 1525SOL    HW1 5474   4.959   2.549   6.034
 1525SOL    HW2 5475   5.090   2.494   5.953
 1526SOL     OW 5476   1.013   1.339   0.903
 1526SOL    HW1 5477   1.105   1.377   0.917
 1526SOL    HW2 5478   0.947   1.388   0.959
 1527SOL     OW 5479   3.915   1.250   4.627
 1527SOL    HW1 5480   4.005   1.210   4.647
 1527SOL    HW2 5481   3.849   1.219   4.696
 1528SOL     OW 5482   5.030   5.804   2.918
 1528SOL    HW1 5483   4.954   5.838   2.862
 1528SOL    HW2 5484   5.041   5.706   2.902
 1529SOL     OW 5485   4.228   1.445   5.675
 1529SOL    HW1 5486   4.317   1.404   5.653
 1529SOL    HW2 5487   4.200   1.505   5.600
 1530SOL     OW 5488   3.286   0.622   1.216
 1530SOL    HW1 5489   3.266   0.527   1.237
 1530SOL    HW2 5490   3.287   0.676   1.301
 1531SOL     OW 5491   5.790   1.389   5.068
 1531SOL    HW1 5492   5.774   1.327   4.991
 1531SOL    HW2 5493   5.840   1.470   5.035
 1532SOL     OW 5494   2.533   2.522   4.630
 1532SOL    HW1 5495   2.558   2.432   4.596
 1532SOL    HW2 5496   2.616   2.573   4.652
 1533SOL     OW 5497   0.035   3.639   6.644
 1533SOL    HW1 5498   0.113   3.593   6.601
 1533SOL    HW2 5499   0.009   3.589   6.727
 1534SOL     OW 5500   1.424   4.955   0.215
 1534SOL    HW1 5501   1.362   4.927   0.142
 1534SOL    HW2 5502   1.510   4.987   0.175
 1535SOL     OW 5503   5.873   5.983   4.497
 1535SOL    HW1 5504   5.958   5.988   4.548
 1535SOL    HW2 5505   5.887   6.020   4.405
 1536SOL     OW 5506   3.521   5.215   4.468
 1536SOL    HW1 5507   3.594   5.210   4.536
 1536SOL    HW2 5508   3.557   5.253   4.383
 1537SOL     OW 5509   3.736   5.661   3.223
 1537SOL    HW1 5510   3.750   5.569   3.259
 1537SOL    HW2 5511   3.650   5.663   3.172
 1538SOL     OW 5512   3.333   5.254   5.494
 1538SOL    HW1 5513   3.242   5.242   5.533
 1538SOL    HW2 5514   3.401   5.219   5.559
 1539SOL     OW 5515   4.139   4.387   1.305
 1539SOL    HW1 5516   4.081   4.459   1.268
 1539SOL    HW2 5517   4.105   4.298   1.275
 1540SOL     OW 5518   0.619   6.715   5.151
 1540SOL    HW1 5519   0.691   6.722   5.081
 1540SOL    HW2 5520   0.530   6.730   5.108
 1541SOL     OW 5521   3.954   2.752   0.933
 1541SOL    HW1 5522   4.002   2.806   1.002
 1541SOL    HW2 5523   3.949   2.656   0.964
 1542SOL     OW 5524   6.569   5.986   1.704
 1542SOL    HW1 5525   6.566   6.086   1.707
 1542SOL    HW2 5526   6.540   5.948   1.792
 1543SOL     OW 5527   2.893   3.521   3.646
 1543SOL    HW1 5528   2.936   3.528   3.736
 1543SOL    HW2 5529   2.807   3.572   3.646
 1544SOL     OW 5530   3.173   4.038   2.379
 1544SOL    HW1 5531   3.137   4.085   2.460
 1544SOL    HW2 5532   3.232   3.963   2.409
 1545SOL     OW 5533   5.817   1.122   5.578
 1545SOL    HW1 5534   5.720   1.107   5.559
 1545SOL    HW2 5535   5.845   1.063   5.654
 1546SOL     OW 5536   4.919   6.801   5.937
 1546SOL    HW1 5537   4.853   6.869   5.970
 1546SOL    HW2 5538   4.951   6.747   6.015
 1547SOL     OW 5539   1.734   3.763   2.539
 1547SOL    HW1 5540   1.689   3.716   2.463
 1547SOL    HW2 5541   1.830   3.734   2.543
 1548SOL     OW 5542   4.423   3.829   5.539
 1548SOL    HW1 5543   4.413   3.781   5.452
 1548SOL    HW2 5544   4.333   3.845   5.579
 1549SOL     OW 5545   6.140   1.201   2.263
 1549SOL    HW1 5546   6.068   1.261   2.298
 1549SOL    HW2 5547   6.203   1.254   2.206
 1550SOL     OW 5548   2.840   6.414   5.934
 1550SOL    HW1 5549   2.851   6.507   5.970
 1550SOL    HW2 5550   2.801   6.418   5.842
 1551SOL     OW 5551   1.483   3.155   1.067
 1551SOL    HW1 5552   1.569   3.181   1.023
 1551SOL    HW2 5553   1.501   3.129   1.162
 1552SOL     OW 5554   0.996   6.784   1.533
 1552SOL    HW1 5555   1.024   6.822   1.445
 1552SOL    HW2 5556   0.908   6.824   1.560
 1553SOL     OW 5557   6.374   2.119   6.333
 1553SOL    HW1 5558   6.372   2.029   6.288
 1553SOL    HW2 5559   6.416   2.186   6.271
 1554SOL     OW 5560   3.678   2.098   3.019
 1554SOL    HW1 5561   3.723   2.118   2.932
 1554SOL    HW2 5562   3.742   2.116   3.094
 1555SOL     OW 5563   4.705   2.356   5.806
 1555SOL    HW1 5564   4.688   2.331   5.901
 1555SOL    HW2 5565   4.620   2.393   5.766
 1556SOL     OW 5566   3.813   0.613   0.487
 1556SOL    HW1 5567   3.787   0.650   0.577
 1556SOL    HW2 5568   3.850   0.521   0.498
 1557SOL     OW 5569   2.828   2.579   1.083
 1557SOL    HW1 5570   2.765   2.550   1.010
 1557SOL    HW2 5571   2.843   2.503   1.146
 1558SOL     OW 5572   5.536   2.486   4.736
 1558SOL    HW1 5573   5.625   2.521   4.706
 1558SOL    HW2 5574   5.548   2.393   4.772
 1559SOL     OW 5575   0.437   2.746   1.199
 1559SOL    HW1 5576   0.523   2.701   1.221
 1559SOL    HW2 5577   0.429   2.832   1.250
 1560SOL     OW 5578   3.185   1.462   6.744
 1560SOL    HW1 5579   3.193   1.547   6.692
 1560SOL    HW2 5580   3.241   1.467   6.827
 1561SOL     OW 5581   4.542   5.376   3.426
 1561SOL    HW1 5582   4.450   5.413   3.410
 1561SOL    HW2 5583   4.587   5.359   3.338
 1562SOL     OW 5584   3.600   6.161   2.617
 1562SOL    HW1 5585   3.572   6.160   2.713
 1562SOL    HW2 5586   3.536   6.105   2.563
 1563SOL     OW 5587   2.558   1.726   5.261
 1563SOL    HW1 5588   2.615   1.776   5.327
 1563SOL    HW2 5589   2.617   1.672   5.201
 1564SOL     OW 5590   1.292   1.656   2.075
 1564SOL    HW1 5591   1.279   1.718   2.153
 1564SOL    HW2 5592   1.360   1.586   2.099
 1565SOL     OW 5593   4.577   5.183   4.645
 1565SOL    HW1 5594   4.529   5.271   4.651
 1565SOL    HW2 5595   4.675   5.199   4.638
 1566SOL     OW 5596   6.306   5.022   4.342
 1566SOL    HW1 5597   6.277   5.092   4.276
 1566SOL    HW2 5598   6.359   5.065   4.414
 1567SOL     OW 5599   6.027   5.557   0.174
 1567SOL    HW1 5600   6.006   5.489   0.104
 1567SOL    HW2 5601   5.942   5.588   0.217
 1568SOL     OW 5602   2.492   6.275   3.287
 1568SOL    HW1 5603   2.511   6.368   3.316
 1568SOL    HW2 5604   2.570   6.216   3.309
 1569SOL     OW 5605   3.787   6.932   2.971
 1569SOL    HW1 5606   3.708   6.925   2.910
 1569SOL    HW2 5607   3.756   6.955   3.063
 1570SOL     OW 5608   2.527   6.480   6.537
 1570SOL    HW1 5609   2.604   6.511   6.481
 1570SOL    HW2 5610   2.445   6.474   6.481
 1571SOL     OW 5611   1.144   2.712   3.034
 1571SOL    HW1 5612   1.091   2.734   3.116
 1571SOL    HW2 5613   1.112   2.768   2.957
 1572SOL     OW 5614   1.771   5.208   2.318
 1572SOL    HW1 5615   1.829   5.226   2.238
 1572SOL    HW2 5616   1.792   5.273   2.390
 1573SOL     OW 5617   5.446   4.933   2.629
 1573SOL    HW1 5618   5.498   5.004   2.582
 1573SOL    HW2 5619   5.508   4.861   2.662
 1574SOL     OW 5620   6.415   2.862   2.188
 1574SOL    HW1 5621   6.389   2.930   2.257
 1574SOL    HW2 5622   6.366   2.881   2.103
 1575SOL     OW 5623   2.423   0.582   1.714
 1575SOL    HW1 5624   2.510   0.589   1.763
 1575SOL    HW2 5625   2.438   0.604   1.617
 1576SOL     OW 5626   0.968   6.430   2.995
 1576SOL    HW1 5627   1.000   6.454   3.086
 1576SOL    HW2 5628   0.871   6.405   2.999
 1577SOL     OW 5629   2.227   0.433   6.454
 1577SOL    HW1 5630   2.290   0.492   6.404
 1577SOL    HW2 5631   2.271   0.401   6.538
 1578SOL     OW 5632   4.855   1.195   6.478
 1578SOL    HW1 5633   4.849   1.112   6.534
 1578SOL    HW2 5634   4.950   1.227   6.477
 1579SOL     OW 5635   6.944   2.332   1.351
 1579SOL    HW1 5636   6.937   2.235   1.326
 1579SOL    HW2 5637   0.011   2.356   1.361
 1580SOL     OW 5638   3.111   3.996   3.021
 1580SOL    HW1 5639   3.022   3.954   3.005
 1580SOL    HW2 5640   3.146   3.967   3.110
 1581SOL     OW 5641   6.908   4.438   6.055
 1581SOL    HW1 5642   6.987   4.388   6.090
 1581SOL    HW2 5643   6.935   4.494   5.977
 1582SOL     OW 5644   3.332   5.868   4.715
 1582SOL    HW1 5645   3.309   5.953   4.763
 1582SOL    HW2 5646   3.312   5.790   4.774
 1583SOL     OW 5647   0.747   5.438   4.431
 1583SOL    HW1 5648   0.677   5.428   4.360
 1583SOL    HW2 5649   0.775   5.348   4.463
 1584SOL     OW 5650   1.814   4.855   6.853
 1584SOL    HW1 5651   1.879   4.781   6.871
 1584SOL    HW2 5652   1.864   4.936   6.823
 1585SOL     OW 5653   4.174   1.484   3.046
 1585SOL    HW1 5654   4.263   1.474   3.089
 1585SOL    HW2 5655   4.106   1.429   3.094
 1586SOL     OW 5656   2.811   4.843   3.197
 1586SOL    HW1 5657   2.797   4.794   3.111
 1586SOL    HW2 5658   2.908   4.856   3.213
 1587SOL     OW 5659   1.992   4.867   5.476
 1587SOL    HW1 5660   1.970   4.919   5.393
 1587SOL    HW2 5661   1.953   4.914   5.555
 1588SOL     OW 5662   5.030   0.510   2.386
 1588SOL    HW1 5663   4.958   0.468   2.332
 1588SOL    HW2 5664   4.994   0.589   2.436
 1589SOL     OW 5665   0.074   3.372   2.695
 1589SOL    HW1 5666   7.009   3.341   2.706
 1589SOL    HW2 5667   0.084   3.463   2.735
 1590SOL     OW 5668   4.996   0.941   3.618
 1590SOL    HW1 5669   5.078   0.926   3.563
 1590SOL    HW2 5670   4.988   0.870   3.687
 1591SOL     OW 5671   7.005   6.283   1.176
 1591SOL    HW1 5672   6.942   6.223   1.128
 1591SOL    HW2 5673   0.023   6.342   1.111
 1592SOL     OW 5674   2.004   4.035   0.087
 1592SOL    HW1 5675   2.031   3.950   0.041
 1592SOL    HW2 5676   1.911   4.026   0.121
 1593SOL     OW 5677   0.806   6.993   6.035
 1593SOL    HW1 5678   0.876   0.030   6.009
 1593SOL    HW2 5679   0.723   0.011   6.065
 1594SOL     OW 5680   0.328   5.893   1.950
 1594SOL    HW1 5681   0.338   5.972   2.009
 1594SOL    HW2 5682   0.235   5.891   1.912
 1595SOL     OW 5683   0.712   4.146   0.516
 1595SOL    HW1 5684   0.651   4.213   0.559
 1595SOL    HW2 5685   0.806   4.162   0.547
 1596SOL     OW 5686   6.355   3.036   2.377
 1596SOL    HW1 5687   6.372   3.132   2.355
 1596SOL    HW2 5688   6.350   3.025   2.476
 1597SOL     OW 5689   2.480   5.879   1.297
 1597SOL    HW1 5690   2.502   5.782   1.301
 1597SOL    HW2 5691   2.392   5.892   1.252
 1598SOL     OW 5692   1.207   5.284   6.464
 1598SOL    HW1 5693   1.208   5.371   6.512
 1598SOL    HW2 5694   1.293   5.236   6.479
 1599SOL     OW 5695   5.022   4.913   5.160
 1599SOL    HW1 5696   4.972   4.943   5.079
 1599SOL    HW2 5697   4.998   4.972   5.237
 1600SOL     OW 5698   2.935   1.565   2.336
 1600SOL    HW1 5699   2.881   1.642   2.369
 1600SOL    HW2 5700   2.896   1.479   2.369
 1601SOL     OW 5701   0.349   6.634   4.367
 1601SOL    HW1 5702   0.430   6.607   4.315
 1601SOL    HW2 5703   0.354   6.597   4.460
 1602SOL     OW 5704   4.565   5.464   4.585
 1602SOL    HW1 5705   4.614   5.404   4.521
 1602SOL    HW2 5706   4.622   5.543   4.608
 1603SOL     OW 5707   2.534   5.256   3.682
 1603SOL    HW1 5708   2.584   5.171   3.665
 1603SOL    HW2 5709   2.500   5.293   3.595
 1604SOL     OW 5710   3.773   5.179   1.547
 1604SOL    HW1 5711   3.684   5.179   1.593
 1604SOL    HW2 5712   3.843   5.145   1.609
 1605SOL     OW 5713   6.461   5.669   1.644
 1605SOL    HW1 5714   6.464   5.748   1.583
 1605SOL    HW2 5715   6.377   5.618   1.628
 1606SOL     OW 5716   4.109   5.513   5.359
 1606SOL    HW1 5717   4.040   5.584   5.348
 1606SOL    HW2 5718   4.180   5.524   5.290
 1607SOL     OW 5719   3.947   0.372   0.829
 1607SOL    HW1 5720   3.894   0.442   0.781
 1607SOL    HW2 5721   4.011   0.330   0.764
 1608SOL     OW 5722   6.854   1.207   2.733
 1608SOL    HW1 5723   6.820   1.299   2.752
 1608SOL    HW2 5724   6.817   1.174   2.646
 1609SOL     OW 5725   3.367   0.118   1.005
 1609SOL    HW1 5726   3.363   0.054   1.083
 1609SOL    HW2 5727   3.453   0.106   0.956
 1610SOL     OW 5728   4.981   6.170   0.767
 1610SOL    HW1 5729   5.033   6.210   0.843
 1610SOL    HW2 5730   5.031   6.090   0.732
 1611SOL     OW 5731   1.533   3.277   0.724
 1611SOL    HW1 5732   1.491   3.366   0.741
 1611SOL    HW2 5733   1.614   3.266   0.782
 1612SOL     OW 5734   3.397   6.720   1.756
 1612SOL    HW1 5735   3.389   6.670   1.669
 1612SOL    HW2 5736   3.327   6.688   1.819
 1613SOL     OW 5737   0.638   5.528   1.877
 1613SOL    HW1 5738   0.689   5.593   1.820
 1613SOL    HW2 5739   0.585   5.578   1.945
 1614SOL     OW 5740   5.783   1.880   6.106
 1614SOL    HW1 5741   5.866   1.915   6.061
 1614SOL    HW2 5742   5.711   1.948   6.100
 1615SOL     OW 5743   6.608   5.488   6.462
 1615SOL    HW1 5744   6.524   5.451   6.422
 1615SOL    HW2 5745   6.687   5.455   6.409
 1616SOL     OW 5746   4.329   0.031   3.461
 1616SOL    HW1 5747   4.418   0.076   3.456
 1616SOL    HW2 5748   4.260   0.096   3.491
 1617SOL     OW 5749   4.881   6.388   2.949
 1617SOL    HW1 5750   4.878   6.478   2.994
 1617SOL    HW2 5751   4.788   6.361   2.924
 1618SOL     OW 5752   1.074   6.096   3.111
 1618SOL    HW1 5753   1.160   6.045   3.107
 1618SOL    HW2 5754   1.067   6.143   3.199
 1619SOL     OW 5755   0.242   5.567   0.215
 1619SOL    HW1 5756   0.185   5.638   0.173
 1619SOL    HW2 5757   0.227   5.480   0.170
 1620SOL     OW 5758   3.309   4.730   1.740
 1620SOL    HW1 5759   3.404   4.718   1.771
 1620SOL    HW2 5760   3.254   4.654   1.775
 1621SOL     OW 5761   6.002   0.186   0.903
 1621SOL    HW1 5762   5.969   0.092   0.905
 1621SOL    HW2 5763   6.027   0.211   0.810
 1622SOL     OW 5764   0.575   3.159   5.432
 1622SOL    HW1 5765   0.647   3.114   5.485
 1622SOL    HW2 5766   0.614   3.239   5.386
 1623SOL     OW 5767   0.595   2.504   4.848
 1623SOL    HW1 5768   0.599   2.429   4.781
 1623SOL    HW2 5769   0.503   2.544   4.847
 1624SOL     OW 5770   4.522   1.383   5.920
 1624SOL    HW1 5771   4.528   1.360   5.823
 1624SOL    HW2 5772   4.427   1.403   5.944
 1625SOL     OW 5773   1.375   5.282   6.867
 1625SOL    HW1 5774   1.420   5.203   6.908
 1625SOL    HW2 5775   1.276   5.272   6.877
 1626SOL     OW 5776   3.230   1.642   1.547
 1626SOL    HW1 5777   3.238   1.706   1.471
 1626SOL    HW2 5778   3.135   1.639   1.577
 1627SOL     OW 5779   5.766   3.120   3.626
 1627SOL    HW1 5780   5.748   3.200   3.569
 1627SOL    HW2 5781   5.708   3.044   3.596
 1628SOL     OW 5782   4.653   5.517   0.053
 1628SOL    HW1 5783   4.728   5.578   0.077
 1628SOL    HW2 5784   4.649   5.506   6.983
 1629SOL     OW 5785   2.579   1.228   3.916
 1629SOL    HW1 5786   2.612   1.219   4.010
 1629SOL    HW2 5787   2.657   1.234   3.854
 1630SOL     OW 5788   6.810   4.535   5.378
 1630SOL    HW1 5789   6.801   4.437   5.392
 1630SOL    HW2 5790   6.735   4.583   5.424
 1631SOL     OW 5791   0.418   2.798   0.552
 1631SOL    HW1 5792   0.389   2.704   0.568
 1631SOL    HW2 5793   0.365   2.859   0.611
 1632SOL     OW 5794   4.876   3.187   2.631
 1632SOL    HW1 5795   4.836   3.225   2.547
 1632SOL    HW2 5796   4.840   3.095   2.646
 1633SOL     OW 5797   5.102   4.341   4.785
 1633SOL    HW1 5798   5.077   4.380   4.697
 1633SOL    HW2 5799   5.092   4.242   4.782
 1634SOL     OW 5800   4.653   0.931   4.138
 1634SOL    HW1 5801   4.607   0.999   4.195
 1634SOL    HW2 5802   4.724   0.976   4.083
 1635SOL     OW 5803   0.753   5.159   6.531
 1635SOL    HW1 5804   0.726   5.113   6.616
 1635SOL    HW2 5805   0.697   5.124   6.456
 1636SOL     OW 5806   3.282   5.410   1.875
 1636SOL    HW1 5807   3.224   5.335   1.905
 1636SOL    HW2 5808   3.236   5.497   1.893
 1637SOL     OW 5809   6.861   6.902   3.808
 1637SOL    HW1 5810   6.869   6.829   3.740
 1637SOL    HW2 5811   6.900   6.872   3.895
 1638SOL     OW 5812   0.677   3.085   2.329
 1638SOL    HW1 5813   0.695   3.183   2.327
 1638SOL    HW2 5814   0.763   3.035   2.317
 1639SOL     OW 5815   5.817   5.097   1.855
 1639SOL    HW1 5816   5.741   5.054   1.904
 1639SOL    HW2 5817   5.894   5.110   1.918
 1640SOL     OW 5818   6.253   0.043   6.965
 1640SOL    HW1 5819   6.187   0.107   7.004
 1640SOL    HW2 5820   6.323   0.021   0.003
 1641SOL     OW 5821   6.644   2.446   3.246
 1641SOL    HW1 5822   6.737   2.414   3.267
 1641SOL    HW2 5823   6.627   2.436   3.148
 1642SOL     OW 5824   6.859   3.339   6.672
 1642SOL    HW1 5825   6.774   3.312   6.628
 1642SOL    HW2 5826   6.842   3.419   6.731
 1643SOL     OW 5827   2.500   4.732   3.064
 1643SOL    HW1 5828   2.439   4.759   2.990
 1643SOL    HW2 5829   2.595   4.741   3.034
 1644SOL     OW 5830   5.405   3.488   6.648
 1644SOL    HW1 5831   5.330   3.429   6.677
 1644SOL    HW2 5832   5.491   3.437   6.653
 1645SOL     OW 5833   3.049   6.358   6.153
 1645SOL    HW1 5834   3.020   6.290   6.086
 1645SOL    HW2 5835   2.969   6.388   6.205
 1646SOL     OW 5836   2.456   6.770   0.095
 1646SOL    HW1 5837   2.519   6.725   0.158
 1646SOL    HW2 5838   2.383   6.814   0.146
 1647SOL     OW 5839   6.361   2.285   4.258
 1647SOL    HW1 5840   6.272   2.327   4.275
 1647SOL    HW2 5841   6.381   2.288   4.160
 1648SOL     OW 5842   5.675   6.654   0.538
 1648SOL    HW1 5843   5.702   6.589   0.609
 1648SOL    HW2 5844   5.757   6.694   0.497
 1649SOL     OW 5845   3.710   1.178   4.807
 1649SOL    HW1 5846   3.623   1.228   4.815
 1649SOL    HW2 5847   3.691   1.083   4.782
 1650SOL     OW 5848   1.175   5.635   4.919
 1650SOL    HW1 5849   1.118   5.594   4.848
 1650SOL    HW2 5850   1.221   5.562   4.970
 1651SOL     OW 5851   0.616   2.243   2.651
 1651SOL    HW1 5852   0.652   2.318   2.595
 1651SOL    HW2 5853   0.516   2.243   2.646
 1652SOL     OW 5854   1.385   3.552   2.306
 1652SOL    HW1 5855   1.463   3.613   2.314
 1652SOL    HW2 5856   1.301   3.600   2.333
 1653SOL     OW 5857   0.272   6.382   1.148
 1653SOL    HW1 5858   0.354   6.335   1.183
 1653SOL    HW2 5859   0.292   6.479   1.136
 1654SOL     OW 5860   6.977   3.447   1.130
 1654SOL    HW1 5861   6.940   3.540   1.132
 1654SOL    HW2 5862   7.016   3.428   1.039
 1655SOL     OW 5863   6.916   1.429   3.995
 1655SOL    HW1 5864   6.863   1.378   4.062
 1655SOL    HW2 5865   6.994   1.474   4.040
 1656SOL     OW 5866   1.971   5.729   3.026
 1656SOL    HW1 5867   1.956   5.644   3.076
 1656SOL    HW2 5868   2.045   5.781   3.069
 1657SOL     OW 5869   5.933   0.345   4.409
 1657SOL    HW1 5870   5.913   0.441   4.429
 1657SOL    HW2 5871   5.934   0.332   4.310
 1658SOL     OW 5872   6.344   0.249   1.338
 1658SOL    HW1 5873   6.403   0.319   1.379
 1658SOL    HW2 5874   6.305   0.284   1.253
 1659SOL     OW 5875   3.684   7.005   0.133
 1659SOL    HW1 5876   3.595   7.017   0.089
 1659SOL    HW2 5877   3.710   6.908   0.129
 1660SOL     OW 5878   2.261   6.344   2.678
 1660SOL    HW1 5879   2.353   6.377   2.657
 1660SOL    HW2 5880   2.267   6.263   2.735
 1661SOL     OW 5881   2.007   5.841   1.484
 1661SOL    HW1 5882   1.976   5.869   1.574
 1661SOL    HW2 5883   2.094   5.792   1.492
 1662SOL     OW 5884   0.000   0.999   4.361
 1662SOL    HW1 5885   0.005   1.099   4.358
 1662SOL    HW2 5886   7.004   0.965   4.271
 1663SOL     OW 5887   4.789   5.385   3.552
 1663SOL    HW1 5888   4.698   5.383   3.511
 1663SOL    HW2 5889   4.787   5.339   3.641
 1664SOL     OW 5890   2.022   6.101   5.586
 1664SOL    HW1 5891   1.936   6.088   5.537
 1664SOL    HW2 5892   2.099   6.084   5.524
 1665SOL     OW 5893   6.327   3.616   1.497
 1665SOL    HW1 5894   6.295   3.680   1.566
 1665SOL    HW2 5895   6.285   3.638   1.409
 1666SOL     OW 5896   5.590   0.220   0.326
 1666SOL    HW1 5897   5.657   0.274   0.275
 1666SOL    HW2 5898   5.549   0.151   0.266
 1667SOL     OW 5899   6.826   5.938   1.648
 1667SOL    HW1 5900   6.739   5.982   1.670
 1667SOL    HW2 5901   6.823   5.842   1.673
 1668SOL     OW 5902   5.085   4.874   3.782
 1668SOL    HW1 5903   5.116   4.892   3.875
 1668SOL    HW2 5904   5.033   4.953   3.749
 1669SOL     OW 5905   6.938   4.843   5.955
 1669SOL    HW1 5906   6.925   4.764   5.896
 1669SOL    HW2 5907   6.936   4.815   6.051
 1670SOL     OW 5908   0.334   4.659   5.174
 1670SOL    HW1 5909   0.388   4.574   5.170
 1670SOL    HW2 5910   0.252   4.649   5.118
 1671SOL     OW 5911   5.588   1.073   3.220
 1671SOL    HW1 5912   5.653   1.065   3.296
 1671SOL    HW2 5913   5.602   1.160   3.174
 1672SOL     OW 5914   2.419   3.852   0.250
 1672SOL    HW1 5915   2.428   3.764   0.298
 1672SOL    HW2 5916   2.401   3.834   0.153
 1673SOL     OW 5917   0.949   1.583   4.795
 1673SOL    HW1 5918   0.999   1.640   4.729
 1673SOL    HW2 5919   0.973   1.487   4.781
 1674SOL     OW 5920   0.261   3.400   2.487
 1674SOL    HW1 5921   0.271   3.495   2.517
 1674SOL    HW2 5922   0.194   3.353   2.545
 1675SOL     OW 5923   4.968   0.203   0.062
 1675SOL    HW1 5924   4.929   0.118   0.098
 1675SOL    HW2 5925   5.055   0.222   0.108
 1676SOL     OW 5926   1.979   2.703   2.050
 1676SOL    HW1 5927   2.000   2.788   2.001
 1676SOL    HW2 5928   2.029   2.701   2.136
 1677SOL     OW 5929   4.044   3.772   3.782
 1677SOL    HW1 5930   4.080   3.680   3.797
 1677SOL    HW2 5931   4.013   3.810   3.869
 1678SOL     OW 5932   7.005   5.412   2.084
 1678SOL    HW1 5933   6.950   5.380   2.007
 1678SOL    HW2 5934   0.070   5.424   2.055
 1679SOL     OW 5935   1.357   1.120   4.611
 1679SOL    HW1 5936   1.301   1.159   4.538
 1679SOL    HW2 5937   1.449   1.102   4.576
 1680SOL     OW 5938   6.655   4.228   5.664
 1680SOL    HW1 5939   6.673   4.263   5.755
 1680SOL    HW2 5940   6.655   4.128   5.666
 1681SOL     OW 5941   1.357   6.041   6.089
 1681SOL    HW1 5942   1.418   6.117   6.112
 1681SOL    HW2 5943   1.404   5.955   6.109
 1682SOL     OW 5944   1.829   0.653   5.447
 1682SOL    HW1 5945   1.800   0.711   5.370
 1682SOL    HW2 5946   1.880   0.574   5.412
 1683SOL     OW 5947   6.311   5.570   2.574
 1683SOL    HW1 5948   6.344   5.491   2.522
 1683SOL    HW2 5949   6.217   5.553   2.605
 1684SOL     OW 5950   0.205   5.408   1.951
 1684SOL    HW1 5951   0.285   5.434   2.005
 1684SOL    HW2 5952   0.215   5.314   1.919
 1685SOL     OW 5953   2.059   1.271   5.932
 1685SOL    HW1 5954   2.003   1.285   5.851
 1685SOL    HW2 5955   2.015   1.314   6.011
 1686SOL     OW 5956   3.362   6.130   4.305
 1686SOL    HW1 5957   3.319   6.075   4.375
 1686SOL    HW2 5958   3.303   6.133   4.224
 1687SOL     OW 5959   0.813   2.728   1.929
 1687SOL    HW1 5960   0.848   2.634   1.933
 1687SOL    HW2 5961   0.887   2.792   1.952
 1688SOL     OW 5962   1.652   1.366   3.660
 1688SOL    HW1 5963   1.613   1.456   3.638
 1688SOL    HW2 5964   1.606   1.329   3.740
 1689SOL     OW 5965   6.176   0.630   2.842
 1689SOL    HW1 5966   6.260   0.648   2.790
 1689SOL    HW2 5967   6.114   0.708   2.833
 1690SOL     OW 5968   1.514   3.281   4.674
 1690SOL    HW1 5969   1.539   3.184   4.674
 1690SOL    HW2 5970   1.558   3.327   4.598
 1691SOL     OW 5971   6.014   3.463   4.286
 1691SOL    HW1 5972   5.915   3.450   4.283
 1691SOL    HW2 5973   6.059   3.374   4.285
 1692SOL     OW 5974   5.163   6.299   1.667
 1692SOL    HW1 5975   5.119   6.387   1.687
 1692SOL    HW2 5976   5.216   6.270   1.747
 1693SOL     OW 5977   6.933   2.664   3.536
 1693SOL    HW1 5978   6.923   2.595   3.464
 1693SOL    HW2 5979   6.861   2.653   3.603
 1694SOL     OW 5980   6.597   1.865   3.869
 1694SOL    HW1 5981   6.505   1.856   3.907
 1694SOL    HW2 5982   6.654   1.918   3.932
 1695SOL     OW 5983   2.968   0.550   6.577
 1695SOL    HW1 5984   2.945   0.613   6.503
 1695SOL    HW2 5985   2.981   0.458   6.540
 1696SOL     OW 5986   3.533   6.095   0.776
 1696SOL    HW1 5987   3.579   6.009   0.754
 1696SOL    HW2 5988   3.436   6.077   0.791
 1697SOL     OW 5989   6.589   1.486   0.866
 1697SOL    HW1 5990   6.521   1.450   0.929
 1697SOL    HW2 5991   6.680   1.457   0.895
 1698SOL     OW 5992   4.252   0.380   1.498
 1698SOL    HW1 5993   4.185   0.306   1.489
 1698SOL    HW2 5994   4.339   0.343   1.530
 1699SOL     OW 5995   1.914   1.579   5.933
 1699SOL    HW1 5996   2.010   1.590   5.956
 1699SOL    HW2 5997   1.904   1.558   5.836
 1700SOL     OW 5998   6.448   3.893   2.911
 1700SOL    HW1 5999   6.519   3.908   2.843
 1700SOL    HW2 6000   6.383   3.825   2.878
 1701SOL     OW 6001   5.845   6.134   5.366
 1701SOL    HW1 6002   5.749   6.107   5.359
 1701SOL    HW2 6003   5.903   6.059   5.334
 1702SOL     OW 6004   0.003   1.160   1.231
 1702SOL    HW1 6005   0.076   1.108   1.187
 1702SOL    HW2 6006   6.993   1.224   1.165
 1703SOL     OW 6007   3.789   1.138   6.716
 1703SOL    HW1 6008   3.722   1.086   6.664
 1703SOL    HW2 6009   3.846   1.075   6.769
 1704SOL     OW 6010   1.424   2.711   0.459
 1704SOL    HW1 6011   1.493   2.674   0.522
 1704SOL    HW2 6012   1.346   2.649   0.454
 1705SOL     OW 6013   3.520   2.380   1.613
 1705SOL    HW1 6014   3.594   2.377   1.547
 1705SOL    HW2 6015   3.558   2.395   1.705
 1706SOL     OW 6016   4.162   1.927   2.062
 1706SOL    HW1 6017   4.217   1.928   2.145
 1706SOL    HW2 6018   4.186   2.006   2.005
 1707SOL     OW 6019   4.811   2.566   2.638
 1707SOL    HW1 6020   4.759   2.638   2.592
 1707SOL    HW2 6021   4.828   2.591   2.733
 1708SOL     OW 6022   4.497   5.505   1.710
 1708SOL    HW1 6023   4.473   5.525   1.805
 1708SOL    HW2 6024   4.561   5.429   1.707
 1709SOL     OW 6025   3.247   6.722   2.335
 1709SOL    HW1 6026   3.253   6.818   2.362
 1709SOL    HW2 6027   3.182   6.713   2.260
 1710SOL     OW 6028   4.434   5.069   3.496
 1710SOL    HW1 6029   4.413   5.031   3.406
 1710SOL    HW2 6030   4.396   5.161   3.503
 1711SOL     OW 6031   2.060   5.326   4.642
 1711SOL    HW1 6032   2.153   5.340   4.610
 1711SOL    HW2 6033   1.997   5.381   4.587
 1712SOL     OW 6034   6.979   2.034   4.867
 1712SOL    HW1 6035   6.909   2.052   4.936
 1712SOL    HW2 6036   7.025   2.120   4.843
 1713SOL     OW 6037   4.358   1.355   2.365
 1713SOL    HW1 6038   4.425   1.404   2.309
 1713SOL    HW2 6039   4.348   1.403   2.453
 1714SOL     OW 6040   4.222   1.885   5.829
 1714SOL    HW1 6041   4.205   1.788   5.843
 1714SOL    HW2 6042   4.135   1.932   5.815
 1715SOL     OW 6043   2.190   5.819   3.151
 1715SOL    HW1 6044   2.214   5.912   3.177
 1715SOL    HW2 6045   2.151   5.772   3.230
 1716SOL     OW 6046   4.316   0.221   4.058
 1716SOL    HW1 6047   4.272   0.274   4.130
 1716SOL    HW2 6048   4.309   0.269   3.971
 1717SOL     OW 6049   3.314   5.888   4.447
 1717SOL    HW1 6050   3.327   5.878   4.545
 1717SOL    HW2 6051   3.397   5.859   4.399
 1718SOL     OW 6052   2.495   1.529   2.322
 1718SOL    HW1 6053   2.548   1.560   2.400
 1718SOL    HW2 6054   2.398   1.528   2.345
 1719SOL     OW 6055   2.036   3.480   1.026
 1719SOL    HW1 6056   2.035   3.478   0.926
 1719SOL    HW2 6057   1.948   3.447   1.061
 1720SOL     OW 6058   0.080   2.970   6.320
 1720SOL    HW1 6059   0.098   2.884   6.272
 1720SOL    HW2 6060   0.100   2.959   6.417
 1721SOL     OW 6061   1.643   7.019   1.341
 1721SOL    HW1 6062   1.691   6.935   1.312
 1721SOL    HW2 6063   1.646   7.026   1.441
 1722SOL     OW 6064   4.401   1.401   3.193
 1722SOL    HW1 6065   4.346   1.399   3.276
 1722SOL    HW2 6066   4.494   1.372   3.214
 1723SOL     OW 6067   4.732   2.793   7.000
 1723SOL    HW1 6068   4.668   2.766   0.041
 1723SOL    HW2 6069   4.807   2.727   6.996
 1724SOL     OW 6070   6.882   2.428   1.750
 1724SOL    HW1 6071   6.809   2.483   1.792
 1724SOL    HW2 6072   6.939   2.487   1.692
 1725SOL     OW 6073   1.763   5.190   0.074
 1725SOL    HW1 6074   1.730   5.187   0.168
 1725SOL    HW2 6075   1.818   5.108   0.056
 1726SOL     OW 6076   5.299   3.597   4.704
 1726SOL    HW1 6077   5.395   3.577   4.724
 1726SOL    HW2 6078   5.254   3.631   4.786
 1727SOL     OW 6079   3.811   3.630   3.640
 1727SOL    HW1 6080   3.867   3.689   3.699
 1727SOL    HW2 6081   3.860   3.544   3.623
 1728SOL     OW 6082   5.256   4.794   5.407
 1728SOL    HW1 6083   5.256   4.758   5.314
 1728SOL    HW2 6084   5.243   4.893   5.406
 1729SOL     OW 6085   1.562   3.362   3.232
 1729SOL    HW1 6086   1.472   3.340   3.271
 1729SOL    HW2 6087   1.576   3.311   3.148
 1730SOL     OW 6088   2.815   0.050   5.006
 1730SOL    HW1 6089   2.816   7.011   4.933
 1730SOL    HW2 6090   2.886   0.118   4.987
 1731SOL     OW 6091   6.418   4.595   3.465
 1731SOL    HW1 6092   6.448   4.597   3.369
 1731SOL    HW2 6093   6.318   4.602   3.468
 1732SOL     OW 6094   2.189   4.677   6.556
 1732SOL    HW1 6095   2.092   4.699   6.558
 1732SOL    HW2 6096   2.205   4.598   6.497
 1733SOL     OW 6097   1.966   4.110   2.188
 1733SOL    HW1 6098   1.979   4.202   2.153
 1733SOL    HW2 6099   1.904   4.060   2.128
 1734SOL     OW 6100   5.927   2.725   1.777
 1734SOL    HW1 6101   5.872   2.769   1.849
 1734SOL    HW2 6102   5.924   2.626   1.790
 1735SOL     OW 6103   4.663   5.557   5.995
 1735SOL    HW1 6104   4.589   5.527   5.935
 1735SOL    HW2 6105   4.658   5.656   6.008
 1736SOL     OW 6106   3.860   3.632   0.544
 1736SOL    HW1 6107   3.824   3.583   0.465
 1736SOL    HW2 6108   3.836   3.583   0.628
 1737SOL     OW 6109   5.243   6.930   4.579
 1737SOL    HW1 6110   5.163   6.947   4.520
 1737SOL    HW2 6111   5.269   7.014   4.626
 1738SOL     OW 6112   2.030   2.921   3.872
 1738SOL    HW1 6113   2.102   2.880   3.929
 1738SOL    HW2 6114   2.051   3.017   3.857
 1739SOL     OW 6115   6.451   1.287   4.663
 1739SOL    HW1 6116   6.473   1.381   4.639
 1739SOL    HW2 6117   6.381   1.286   4.733
 1740SOL     OW 6118   6.735   1.828   5.091
 1740SOL    HW1 6119   6.655   1.801   5.037
 1740SOL    HW2 6120   6.765   1.919   5.063
 1741SOL     OW 6121   2.981   1.086   4.692
 1741SOL    HW1 6122   2.898   1.044   4.656
 1741SOL    HW2 6123   2.974   1.185   4.684
 1742SOL     OW 6124   5.449   0.568   6.120
 1742SOL    HW1 6125   5.444   0.587   6.218
 1742SOL    HW2 6126   5.481   0.650   6.071
 1743SOL     OW 6127   0.677   1.009   2.646
 1743SOL    HW1 6128   0.622   0.929   2.621
 1743SOL    HW2 6129   0.681   1.073   2.569
 1744SOL     OW 6130   6.080   3.090   2.755
 1744SOL    HW1 6131   6.109   3.172   2.806
 1744SOL    HW2 6132   6.160   3.039   2.725
 1745SOL     OW 6133   5.923   6.389   2.233
 1745SOL    HW1 6134   5.929   6.363   2.330
 1745SOL    HW2 6135   5.955   6.313   2.177
 1746SOL     OW 6136   1.600   4.313   3.796
 1746SOL    HW1 6137   1.623   4.280   3.704
 1746SOL    HW2 6138   1.501   4.310   3.809
 1747SOL     OW 6139   3.332   1.616   2.696
 1747SOL    HW1 6140   3.380   1.529   2.679
 1747SOL    HW2 6141   3.240   1.611   2.657
 1748SOL     OW 6142   6.616   2.092   4.028
 1748SOL    HW1 6143   6.551   2.157   3.988
 1748SOL    HW2 6144   6.709   2.127   4.018
 1749SOL     OW 6145   2.407   6.950   6.681
 1749SOL    HW1 6146   2.318   6.981   6.714
 1749SOL    HW2 6147   2.456   6.904   6.755
 1750SOL     OW 6148   5.397   0.715   3.360
 1750SOL    HW1 6149   5.401   0.617   3.340
 1750SOL    HW2 6150   5.490   0.749   3.377
 1751SOL     OW 6151   5.193   1.485   4.826
 1751SOL    HW1 6152   5.140   1.451   4.748
 1751SOL    HW2 6153   5.289   1.462   4.813
 1752SOL     OW 6154   5.904   0.299   1.427
 1752SOL    HW1 6155   5.925   0.396   1.420
 1752SOL    HW2 6156   5.816   0.287   1.472
 1753SOL     OW 6157   6.597   0.842   1.977
 1753SOL    HW1 6158   6.553   0.776   2.038
 1753SOL    HW2 6159   6.546   0.848   1.891
 1754SOL     OW 6160   1.635   5.517   6.530
 1754SOL    HW1 6161   1.725   5.473   6.533
 1754SOL    HW2 6162   1.646   5.615   6.549
 1755SOL     OW 6163   0.053   5.968   6.735
 1755SOL    HW1 6164   7.023   5.978   6.655
 1755SOL    HW2 6165   0.052   6.053   6.787
 1756SOL     OW 6166   4.264   6.221   6.202
 1756SOL    HW1 6167   4.248   6.317   6.179
 1756SOL    HW2 6168   4.357   6.210   6.236
 1757SOL     OW 6169   3.668   5.526   5.448
 1757SOL    HW1 6170   3.646   5.443   5.397
 1757SOL    HW2 6171   3.711   5.502   5.535
 1758SOL     OW 6172   1.817   0.546   4.502
 1758SOL    HW1 6173   1.733   0.583   4.542
 1758SOL    HW2 6174   1.867   0.619   4.456
 1759SOL     OW 6175   1.831   6.562   5.540
 1759SOL    HW1 6176   1.761   6.592   5.604
 1759SOL    HW2 6177   1.888   6.491   5.582
 1760SOL     OW 6178   6.025   0.870   3.842
 1760SOL    HW1 6179   6.116   0.908   3.863
 1760SOL    HW2 6180   6.015   0.781   3.885
 1761SOL     OW 6181   6.560   0.486   1.667
 1761SOL    HW1 6182   6.573   0.440   1.578
 1761SOL    HW2 6183   6.489   0.555   1.659
 1762SOL     OW 6184   6.945   1.608   4.299
 1762SOL    HW1 6185   7.022   1.575   4.245
 1762SOL    HW2 6186   6.974   1.621   4.394
 1763SOL     OW 6187   1.222   4.609   4.721
 1763SOL    HW1 6188   1.313   4.604   4.679
 1763SOL    HW2 6189   1.208   4.701   4.759
 1764SOL     OW 6190   0.955   3.684   2.273
 1764SOL    HW1 6191   0.939   3.635   2.187
 1764SOL    HW2 6192   0.963   3.618   2.348
 1765SOL     OW 6193   3.571   1.672   1.135
 1765SOL    HW1 6194   3.497   1.732   1.104
 1765SOL    HW2 6195   3.656   1.724   1.140
 1766SOL     OW 6196   5.228   4.414   3.966
 1766SOL    HW1 6197   5.221   4.340   4.032
 1766SOL    HW2 6198   5.216   4.502   4.013
 1767SOL     OW 6199   1.057   4.832   3.373
 1767SOL    HW1 6200   0.977   4.871   3.418
 1767SOL    HW2 6201   1.112   4.905   3.334
 1768SOL     OW 6202   3.754   0.837   6.817
 1768SOL    HW1 6203   3.737   0.742   6.841
 1768SOL    HW2 6204   3.691   0.865   6.744
 1769SOL     OW 6205   5.596   1.162   0.009
 1769SOL    HW1 6206   5.567   1.120   6.953
 1769SOL    HW2 6207   5.604   1.261   7.026
 1770SOL     OW 6208   0.471   4.394   5.124
 1770SOL    HW1 6209   0.438   4.323   5.185
 1770SOL    HW2 6210   0.566   4.377   5.099
 1771SOL     OW 6211   1.596   4.924   0.586
 1771SOL    HW1 6212   1.507   4.939   0.631
 1771SOL    HW2 6213   1.606   4.990   0.512
 1772SOL     OW 6214   3.584   5.343   3.952
 1772SOL    HW1 6215   3.491   5.381   3.947
 1772SOL    HW2 6216   3.609   5.307   3.862
 1773SOL     OW 6217   1.558   2.258   5.645
 1773SOL    HW1 6218   1.484   2.323   5.631
 1773SOL    HW2 6219   1.584   2.217   5.557
 1774SOL     OW 6220   5.445   6.392   2.185
 1774SOL    HW1 6221   5.422   6.439   2.099
 1774SOL    HW2 6222   5.472   6.298   2.165
 1775SOL     OW 6223   2.326   5.848   6.673
 1775SOL    HW1 6224   2.365   5.824   6.762
 1775SOL    HW2 6225   2.353   5.780   6.605
 1776SOL     OW 6226   5.066   0.762   6.031
 1776SOL    HW1 6227   5.123   0.697   5.981
 1776SOL    HW2 6228   5.028   0.829   5.967
 1777SOL     OW 6229   3.470   6.858   6.445
 1777SOL    HW1 6230   3.453   6.865   6.347
 1777SOL    HW2 6231   3.558   6.901   6.466
 1778SOL     OW 6232   4.901   1.442   4.614
 1778SOL    HW1 6233   4.989   1.396   4.600
 1778SOL    HW2 6234   4.856   1.404   4.695
 1779SOL     OW 6235   4.824   7.027   5.579
 1779SOL    HW1 6236   4.901   6.968   5.601
 1779SOL    HW2 6237   4.743   6.972   5.560
 1780SOL     OW 6238   1.488   3.972   5.157
 1780SOL    HW1 6239   1.539   4.049   5.193
 1780SOL    HW2 6240   1.439   3.926   5.231
 1781SOL     OW 6241   5.066   0.002   5.239
 1781SOL    HW1 6242   4.995   0.072   5.248
 1781SOL    HW2 6243   5.152   0.037   5.274
 1782SOL     OW 6244   2.508   1.413   2.932
 1782SOL    HW1 6245   2.453   1.422   2.848
 1782SOL    HW2 6246   2.458   1.453   3.009
 1783SOL     OW 6247   2.532   3.540   6.191
 1783SOL    HW1 6248   2.622   3.526   6.150
 1783SOL    HW2 6249   2.461   3.512   6.127
 1784SOL     OW 6250   2.448   1.479   1.829
 1784SOL    HW1 6251   2.509   1.506   1.904
 1784SOL    HW2 6252   2.480   1.394   1.788
 1785SOL     OW 6253   0.076   6.642   4.275
 1785SOL    HW1 6254   0.149   6.632   4.344
 1785SOL    HW2 6255   0.014   6.564   4.281
 1786SOL     OW 6256   2.167   5.223   0.684
 1786SOL    HW1 6257   2.223   5.297   0.646
 1786SOL    HW2 6258   2.100   5.262   0.747
 1787SOL     OW 6259   2.027   1.917   5.632
 1787SOL    HW1 6260   2.018   1.903   5.731
 1787SOL    HW2 6261   2.064   1.834   5.590
 1788SOL     OW 6262   4.788   3.978   6.950
 1788SOL    HW1 6263   4.736   4.007   6.870
 1788SOL    HW2 6264   4.796   4.054   7.014
 1789SOL     OW 6265   6.293   2.666   1.806
 1789SOL    HW1 6266   6.255   2.576   1.830
 1789SOL    HW2 6267   6.269   2.689   1.712
 1790SOL     OW 6268   2.963   1.069   4.155
 1790SOL    HW1 6269   2.957   0.970   4.167
 1790SOL    HW2 6270   3.055   1.093   4.125
 1791SOL     OW 6271   6.648   1.238   3.229
 1791SOL    HW1 6272   6.698   1.227   3.315
 1791SOL    HW2 6273   6.710   1.274   3.159
 1792SOL     OW 6274   0.298   2.240   4.555
 1792SOL    HW1 6275   0.279   2.174   4.483
 1792SOL    HW2 6276   0.213   2.286   4.581
 1793SOL     OW 6277   6.154   1.523   4.288
 1793SOL    HW1 6278   6.244   1.511   4.246
 1793SOL    HW2 6279   6.144   1.461   4.365
 1794SOL     OW 6280   5.740   0.176   5.990
 1794SOL    HW1 6281   5.837   0.190   5.969
 1794SOL    HW2 6282   5.695   0.265   5.998
 1795SOL     OW 6283   6.000   5.263   1.367
 1795SOL    HW1 6284   5.940   5.326   1.318
 1795SOL    HW2 6285   5.982   5.269   1.465
 1796SOL     OW 6286   1.778   1.073   5.516
 1796SOL    HW1 6287   1.753   0.984   5.555
 1796SOL    HW2 6288   1.806   1.134   5.590
 1797SOL     OW 6289   1.187   0.267   5.768
 1797SOL    HW1 6290   1.193   0.362   5.799
 1797SOL    HW2 6291   1.276   0.239   5.730
 1798SOL     OW 6292   3.707   2.906   4.593
 1798SOL    HW1 6293   3.753   2.826   4.631
 1798SOL    HW2 6294   3.774   2.964   4.547
 1799SOL     OW 6295   4.076   2.673   6.562
 1799SOL    HW1 6296   4.151   2.614   6.533
 1799SOL    HW2 6297   4.059   2.743   6.493
 1800SOL     OW 6298   5.240   4.296   3.645
 1800SOL    HW1 6299   5.336   4.321   3.638
 1800SOL    HW2 6300   5.225   4.208   3.600
 1801SOL     OW 6301   0.934   2.287   2.092
 1801SOL    HW1 6302   0.956   2.192   2.116
 1801SOL    HW2 6303   0.994   2.318   2.018
 1802SOL     OW 6304   5.986   5.561   3.292
 1802SOL    HW1 6305   6.036   5.513   3.219
 1802SOL    HW2 6306   5.919   5.499   3.332
 1803SOL     OW 6307   0.211   6.664   2.714
 1803SOL    HW1 6308   0.133   6.650   2.775
 1803SOL    HW2 6309   0.182   6.718   2.635
 1804SOL     OW 6310   3.349   3.103   5.803
 1804SOL    HW1 6311   3.424   3.103   5.736
 1804SOL    HW2 6312   3.384   3.136   5.891
 1805SOL     OW 6313   1.028   5.470   6.282
 1805SOL    HW1 6314   1.055   5.563   6.257
 1805SOL    HW2 6315   1.086   5.404   6.236
 1806SOL     OW 6316   0.237   2.738   2.267
 1806SOL    HW1 6317   0.244   2.657   2.209
 1806SOL    HW2 6318   0.261   2.714   2.361
 1807SOL     OW 6319   6.199   3.685   6.816
 1807SOL    HW1 6320   6.234   3.769   6.858
 1807SOL    HW2 6321   6.251   3.665   6.733
 1808SOL     OW 6322   5.906   3.204   4.754
 1808SOL    HW1 6323   5.868   3.193   4.846
 1808SOL    HW2 6324   5.856   3.276   4.706
 1809SOL     OW 6325   3.213   1.416   5.152
 1809SOL    HW1 6326   3.126   1.418   5.201
 1809SOL    HW2 6327   3.262   1.331   5.174
 1810SOL     OW 6328   0.058   1.111   4.840
 1810SOL    HW1 6329   0.033   1.036   4.902
 1810SOL    HW2 6330   0.018   1.094   4.750
 1811SOL     OW 6331   4.709   4.763   1.672
 1811SOL    HW1 6332   4.730   4.724   1.582
 1811SOL    HW2 6333   4.610   4.773   1.682
 1812SOL     OW 6334   4.221   6.866   6.051
 1812SOL    HW1 6335   4.262   6.958   6.046
 1812SOL    HW2 6336   4.144   6.861   5.988
 1813SOL     OW 6337   4.669   4.271   2.291
 1813SOL    HW1 6338   4.685   4.297   2.195
 1813SOL    HW2 6339   4.571   4.276   2.311
 1814SOL     OW 6340   6.205   6.835   0.268
 1814SOL    HW1 6341   6.244   6.746   0.288
 1814SOL    HW2 6342   6.279   6.900   0.249
 1815SOL     OW 6343   5.559   6.263   2.753
 1815SOL    HW1 6344   5.494   6.293   2.684
 1815SOL    HW2 6345   5.515   6.265   2.843
 1816SOL     OW 6346   3.938   5.593   6.548
 1816SOL    HW1 6347   3.978   5.683   6.563
 1816SOL    HW2 6348   3.844   5.603   6.517
 1817SOL     OW 6349   3.397   1.606   3.019
 1817SOL    HW1 6350   3.406   1.706   3.012
 1817SOL    HW2 6351   3.470   1.562   2.968
 1818SOL     OW 6352   1.923   6.566   0.451
 1818SOL    HW1 6353   1.876   6.544   0.537
 1818SOL    HW2 6354   2.006   6.510   0.443
 1819SOL     OW 6355   1.608   4.880   1.929
 1819SOL    HW1 6356   1.521   4.927   1.915
 1819SOL    HW2 6357   1.633   4.831   1.845
 1820SOL     OW 6358   3.871   0.656   3.289
 1820SOL    HW1 6359   3.777   0.689   3.288
 1820SOL    HW2 6360   3.933   0.730   3.265
 1821SOL     OW 6361   3.681   1.207   1.421
 1821SOL    HW1 6362   3.609   1.276   1.432
 1821SOL    HW2 6363   3.702   1.166   1.510
 1822SOL     OW 6364   1.047   3.215   2.039
 1822SOL    HW1 6365   1.131   3.238   2.089
 1822SOL    HW2 6366   1.041   3.271   1.957
 1823SOL     OW 6367   2.799   6.422   3.314
 1823SOL    HW1 6368   2.814   6.359   3.390
 1823SOL    HW2 6369   2.777   6.513   3.349
 1824SOL     OW 6370   3.549   4.223   0.464
 1824SOL    HW1 6371   3.601   4.267   0.537
 1824SOL    HW2 6372   3.577   4.259   0.376
 1825SOL     OW 6373   0.191   3.271   5.126
 1825SOL    HW1 6374   0.124   3.344   5.144
 1825SOL    HW2 6375   0.227   3.237   5.212
 1826SOL     OW 6376   3.878   1.448   0.565
 1826SOL    HW1 6377   3.852   1.430   0.659
 1826SOL    HW2 6378   3.977   1.442   0.556
 1827SOL     OW 6379   5.157   5.333   0.866
 1827SOL    HW1 6380   5.184   5.399   0.796
 1827SOL    HW2 6381   5.193   5.363   0.955
 1828SOL     OW 6382   1.997   3.445   6.758
 1828SOL    HW1 6383   1.902   3.465   6.732
 1828SOL    HW2 6384   1.997   3.382   6.836
 1829SOL     OW 6385   3.626   0.373   3.535
 1829SOL    HW1 6386   3.628   0.469   3.562
 1829SOL    HW2 6387   3.598   0.366   3.439
 1830SOL     OW 6388   6.011   6.988   4.895
 1830SOL    HW1 6389   6.101   7.019   4.864
 1830SOL    HW2 6390   5.951   6.977   4.816
 1831SOL     OW 6391   4.815   6.042   2.630
 1831SOL    HW1 6392   4.821   5.956   2.682
 1831SOL    HW2 6393   4.848   6.027   2.537
 1832SOL     OW 6394   3.088   3.404   0.151
 1832SOL    HW1 6395   3.098   3.397   0.250
 1832SOL    HW2 6396   3.006   3.457   0.129
 1833SOL     OW 6397   4.921   0.030   1.150
 1833SOL    HW1 6398   4.942   0.037   1.052
 1833SOL    HW2 6399   4.982   6.992   1.192
 1834SOL     OW 6400   2.958   3.050   1.316
 1834SOL    HW1 6401   2.942   2.956   1.286
 1834SOL    HW2 6402   2.915   3.065   1.405
 1835SOL     OW 6403   0.252   5.083   1.462
 1835SOL    HW1 6404   0.285   5.062   1.370
 1835SOL    HW2 6405   0.227   5.180   1.467
 1836SOL     OW 6406   5.508   2.134   1.942
 1836SOL    HW1 6407   5.598   2.148   1.984
 1836SOL    HW2 6408   5.476   2.221   1.903
 1837SOL     OW 6409   2.137   0.475   5.590
 1837SOL    HW1 6410   2.129   0.544   5.662
 1837SOL    HW2 6411   2.218   0.493   5.535
 1838SOL     OW 6412   6.467   0.661   6.214
 1838SOL    HW1 6413   6.483   0.759   6.198
 1838SOL    HW2 6414   6.505   0.635   6.303
 1839SOL     OW 6415   6.377   1.661   6.593
 1839SOL    HW1 6416   6.463   1.640   6.546
 1839SOL    HW2 6417   6.349   1.583   6.649
 1840SOL     OW 6418   3.932   0.367   2.944
 1840SOL    HW1 6419   3.832   0.364   2.937
 1840SOL    HW2 6420   3.959   0.387   3.038
 1841SOL     OW 6421   2.473   0.748   2.352
 1841SOL    HW1 6422   2.471   0.681   2.278
 1841SOL    HW2 6423   2.444   0.837   2.317
 1842SOL     OW 6424   1.759   4.884   0.283
 1842SOL    HW1 6425   1.807   4.971   0.293
 1842SOL    HW2 6426   1.707   4.884   0.197
 1843SOL     OW 6427   4.716   1.143   4.600
 1843SOL    HW1 6428   4.809   1.136   4.637
 1843SOL    HW2 6429   4.658   1.073   4.642
 1844SOL     OW 6430   5.150   2.012   5.174
 1844SOL    HW1 6431   5.186   2.025   5.266
 1844SOL    HW2 6432   5.056   2.045   5.170
 1845SOL     OW 6433   3.168   1.019   3.625
 1845SOL    HW1 6434   3.106   0.955   3.672
 1845SOL    HW2 6435   3.119   1.064   3.550
 1846SOL     OW 6436   5.418   0.911   2.779
 1846SOL    HW1 6437   5.389   0.856   2.857
 1846SOL    HW2 6438   5.426   1.007   2.806
 1847SOL     OW 6439   1.530   0.711   5.116
 1847SOL    HW1 6440   1.461   0.769   5.160
 1847SOL    HW2 6441   1.620   0.731   5.154
 1848SOL     OW 6442   1.874   6.042   4.231
 1848SOL    HW1 6443   1.847   6.113   4.296
 1848SOL    HW2 6444   1.955   6.072   4.180
 1849SOL     OW 6445   4.906   3.114   1.990
 1849SOL    HW1 6446   4.922   3.134   2.087
 1849SOL    HW2 6447   4.834   3.045   1.981
 1850SOL     OW 6448   5.509   1.646   2.327
 1850SOL    HW1 6449   5.594   1.598   2.308
 1850SOL    HW2 6450   5.445   1.584   2.373
 1851SOL     OW 6451   0.897   3.273   6.595
 1851SOL    HW1 6452   0.885   3.206   6.522
 1851SOL    HW2 6453   0.820   3.338   6.594
 1852SOL     OW 6454   6.591   5.086   1.455
 1852SOL    HW1 6455   6.560   5.049   1.542
 1852SOL    HW2 6456   6.514   5.089   1.391
 1853SOL     OW 6457   6.980   2.489   4.159
 1853SOL    HW1 6458   6.935   2.518   4.075
 1853SOL    HW2 6459   0.019   2.419   4.137
 1854SOL     OW 6460   1.389   5.351   3.589
 1854SOL    HW1 6461   1.381   5.251   3.580
 1854SOL    HW2 6462   1.397   5.374   3.686
 1855SOL     OW 6463   5.523   3.245   4.958
 1855SOL    HW1 6464   5.609   3.242   5.008
 1855SOL    HW2 6465   5.474   3.158   4.969
 1856SOL     OW 6466   4.394   3.175   6.415
 1856SOL    HW1 6467   4.483   3.156   6.373
 1856SOL    HW2 6468   4.336   3.221   6.348
 1857SOL     OW 6469   5.670   1.046   0.435
 1857SOL    HW1 6470   5.745   1.018   0.375
 1857SOL    HW2 6471   5.588   0.993   0.414
 1858SOL     OW 6472   5.163   2.627   3.364
 1858SOL    HW1 6473   5.162   2.560   3.290
 1858SOL    HW2 6474   5.162   2.579   3.452
 1859SOL     OW 6475   5.194   1.738   3.960
 1859SOL    HW1 6476   5.248   1.784   4.030
 1859SOL    HW2 6477   5.255   1.695   3.893
 1860SOL     OW 6478   0.551   2.215   5.085
 1860SOL    HW1 6479   0.524   2.310   5.100
 1860SOL    HW2 6480   0.470   2.158   5.075
 1861SOL     OW 6481   5.435   0.331   2.877
 1861SOL    HW1 6482   5.494   0.411   2.874
 1861SOL    HW2 6483   5.345   0.357   2.912
 1862SOL     OW 6484   1.381   7.019   0.125
 1862SOL    HW1 6485   1.386   6.920   0.132
 1862SOL    HW2 6486   1.291   0.016   0.089
 1863SOL     OW 6487   7.012   2.738   1.057
 1863SOL    HW1 6488   6.932   2.700   1.103
 1863SOL    HW2 6489   6.985   2.817   1.003
 1864SOL     OW 6490   2.750   5.551   4.243
 1864SOL    HW1 6491   2.720   5.530   4.336
 1864SOL    HW2 6492   2.671   5.579   4.188
 1865SOL     OW 6493   3.974   0.941   1.405
 1865SOL    HW1 6494   4.071   0.965   1.417
 1865SOL    HW2 6495   3.934   0.999   1.334
 1866SOL     OW 6496   6.238   4.416   4.283
 1866SOL    HW1 6497   6.281   4.445   4.198
 1866SOL    HW2 6498   6.144   4.452   4.287
 1867SOL     OW 6499   2.383   3.024   1.282
 1867SOL    HW1 6500   2.460   3.083   1.259
 1867SOL    HW2 6501   2.303   3.051   1.229
 1868SOL     OW 6502   4.713   3.820   5.286
 1868SOL    HW1 6503   4.713   3.744   5.222
 1868SOL    HW2 6504   4.733   3.905   5.237
 1869SOL     OW 6505   5.352   2.912   3.923
 1869SOL    HW1 6506   5.313   2.956   4.004
 1869SOL    HW2 6507   5.451   2.925   3.922
 1870SOL     OW 6508   0.713   3.188   4.562
 1870SOL    HW1 6509   0.790   3.223   4.615
 1870SOL    HW2 6510   0.640   3.257   4.559
 1871SOL     OW 6511   6.667   6.510   0.116
 1871SOL    HW1 6512   6.706   6.564   0.191
 1871SOL    HW2 6513   6.584   6.555   0.083
 1872SOL     OW 6514   3.318   2.621   0.698
 1872SOL    HW1 6515   3.411   2.631   0.736
 1872SOL    HW2 6516   3.271   2.547   0.745
 1873SOL     OW 6517   6.238   0.916   6.525
 1873SOL    HW1 6518   6.162   0.943   6.583
 1873SOL    HW2 6519   6.238   0.816   6.516
 1874SOL     OW 6520   0.967   0.846   6.808
 1874SOL    HW1 6521   0.891   0.783   6.792
 1874SOL    HW2 6522   0.951   0.931   6.758
 1875SOL     OW 6523   6.665   5.951   0.576
 1875SOL    HW1 6524   6.567   5.931   0.574
 1875SOL    HW2 6525   6.687   6.019   0.506
 1876SOL     OW 6526   5.288   6.427   6.114
 1876SOL    HW1 6527   5.223   6.465   6.180
 1876SOL    HW2 6528   5.335   6.501   6.066
 1877SOL     OW 6529   0.110   1.449   2.777
 1877SOL    HW1 6530   0.165   1.365   2.778
 1877SOL    HW2 6531   0.048   1.447   2.699
 1878SOL     OW 6532   7.001   4.272   3.695
 1878SOL    HW1 6533   0.036   4.338   3.732
 1878SOL    HW2 6534   6.947   4.315   3.622
 1879SOL     OW 6535   2.740   4.980   4.058
 1879SOL    HW1 6536   2.702   5.039   4.130
 1879SOL    HW2 6537   2.764   4.891   4.098
 1880SOL     OW 6538   0.548   2.368   2.891
 1880SOL    HW1 6539   0.507   2.453   2.857
 1880SOL    HW2 6540   0.586   2.317   2.815
 1881SOL     OW 6541   0.819   2.277   3.525
 1881SOL    HW1 6542   0.799   2.370   3.496
 1881SOL    HW2 6543   0.801   2.214   3.450
 1882SOL     OW 6544   1.140   5.987   6.633
 1882SOL    HW1 6545   1.085   5.903   6.627
 1882SOL    HW2 6546   1.185   6.003   6.545
 1883SOL     OW 6547   1.430   3.594   3.242
 1883SOL    HW1 6548   1.374   3.547   3.310
 1883SOL    HW2 6549   1.506   3.536   3.215
 1884SOL     OW 6550   5.313   0.612   1.305
 1884SOL    HW1 6551   5.324   0.643   1.399
 1884SOL    HW2 6552   5.284   0.689   1.248
 1885SOL     OW 6553   6.875   1.932   0.501
 1885SOL    HW1 6554   6.870   1.880   0.586
 1885SOL    HW2 6555   6.832   1.879   0.427
 1886SOL     OW 6556   1.980   1.974   0.095
 1886SOL    HW1 6557   2.076   1.958   0.073
 1886SOL    HW2 6558   1.922   1.936   0.022
 1887SOL     OW 6559   0.144   4.366   6.149
 1887SOL    HW1 6560   0.162   4.463   6.163
 1887SOL    HW2 6561   0.201   4.312   6.211
 1888SOL     OW 6562   2.073   0.988   6.031
 1888SOL    HW1 6563   2.006   1.020   6.098
 1888SOL    HW2 6564   2.151   1.050   6.029
 1889SOL     OW 6565   4.354   4.083   6.921
 1889SOL    HW1 6566   4.443   4.110   6.883
 1889SOL    HW2 6567   4.365   4.001   6.977
 1890SOL     OW 6568   1.477   5.906   6.460
 1890SOL    HW1 6569   1.411   5.840   6.496
 1890SOL    HW2 6570   1.569   5.875   6.481
 1891SOL     OW 6571   5.206   2.521   5.452
 1891SOL    HW1 6572   5.198   2.426   5.483
 1891SOL    HW2 6573   5.195   2.525   5.352
 1892SOL     OW 6574   4.087   6.095   1.325
 1892SOL    HW1 6575   4.041   6.168   1.377
 1892SOL    HW2 6576   4.147   6.136   1.256
 1893SOL     OW 6577   3.429   2.064   4.545
 1893SOL    HW1 6578   3.510   2.122   4.532
 1893SOL    HW2 6579   3.388   2.084   4.634
 1894SOL     OW 6580   4.331   3.549   1.631
 1894SOL    HW1 6581   4.261   3.521   1.566
 1894SOL    HW2 6582   4.337   3.649   1.632
 1895SOL     OW 6583   6.452   0.659   2.743
 1895SOL    HW1 6584   6.531   0.718   2.727
 1895SOL    HW2 6585   6.467   0.571   2.697
 1896SOL     OW 6586   6.604   1.006   3.523
 1896SOL    HW1 6587   6.603   1.104   3.503
 1896SOL    HW2 6588   6.539   0.959   3.464
 1897SOL     OW 6589   6.700   5.227   3.626
 1897SOL    HW1 6590   6.760   5.293   3.581
 1897SOL    HW2 6591   6.739   5.200   3.714
 1898SOL     OW 6592   3.543   6.383   1.408
 1898SOL    HW1 6593   3.588   6.296   1.387
 1898SOL    HW2 6594   3.612   6.452   1.429
 1899SOL     OW 6595   0.752   3.853   2.676
 1899SOL    HW1 6596   0.796   3.925   2.621
 1899SOL    HW2 6597   0.793   3.851   2.767
 1900SOL     OW 6598   0.952   0.139   6.265
 1900SOL    HW1 6599   1.047   0.164   6.283
 1900SOL    HW2 6600   0.891   0.206   6.307
 1901SOL     OW 6601   2.280   1.468   0.456
 1901SOL    HW1 6602   2.205   1.529   0.481
 1901SOL    HW2 6603   2.256   1.416   0.374
 1902SOL     OW 6604   1.626   2.792   4.739
 1902SOL    HW1 6605   1.672   2.856   4.678
 1902SOL    HW2 6606   1.565   2.733   4.687
 1903SOL     OW 6607   0.401   3.592   3.174
 1903SOL    HW1 6608   0.421   3.574   3.078
 1903SOL    HW2 6609   0.302   3.592   3.189
 1904SOL     OW 6610   6.784   6.916   4.673
 1904SOL    HW1 6611   6.830   6.944   4.588
 1904SOL    HW2 6612   6.805   6.982   4.745
 1905SOL     OW 6613   6.954   2.925   3.750
 1905SOL    HW1 6614   7.008   2.954   3.830
 1905SOL    HW2 6615   7.011   2.932   3.668
 1906SOL     OW 6616   2.686   0.184   5.439
 1906SOL    HW1 6617   2.774   0.136   5.438
 1906SOL    HW2 6618   2.615   0.125   5.402
 1907SOL     OW 6619   3.159   0.113   3.710
 1907SOL    HW1 6620   3.239   0.172   3.723
 1907SOL    HW2 6621   3.188   0.027   3.668
 1908SOL     OW 6622   4.501   1.080   5.595
 1908SOL    HW1 6623   4.405   1.052   5.597
 1908SOL    HW2 6624   4.506   1.179   5.580
 1909SOL     OW 6625   2.264   4.299   4.402
 1909SOL    HW1 6626   2.352   4.253   4.395
 1909SOL    HW2 6627   2.191   4.235   4.375
 1910SOL     OW 6628   5.740   3.038   6.305
 1910SOL    HW1 6629   5.690   2.985   6.373
 1910SOL    HW2 6630   5.821   3.079   6.347
 1911SOL     OW 6631   6.434   2.109   5.475
 1911SOL    HW1 6632   6.377   2.029   5.452
 1911SOL    HW2 6633   6.421   2.179   5.405
 1912SOL     OW 6634   3.844   6.005   2.593
 1912SOL    HW1 6635   3.897   6.043   2.517
 1912SOL    HW2 6636   3.756   6.051   2.599
 1913SOL     OW 6637   1.928   6.699   5.119
 1913SOL    HW1 6638   1.868   6.712   5.040
 1913SOL    HW2 6639   2.012   6.654   5.089
 1914SOL     OW 6640   2.403   2.114   6.527
 1914SOL    HW1 6641   2.356   2.075   6.447
 1914SOL    HW2 6642   2.424   2.210   6.510
 1915SOL     OW 6643   3.722   1.425   5.945
 1915SOL    HW1 6644   3.811   1.465   5.969
 1915SOL    HW2 6645   3.649   1.485   5.976
 1916SOL     OW 6646   3.947   5.869   1.188
 1916SOL    HW1 6647   3.991   5.956   1.208
 1916SOL    HW2 6648   3.986   5.830   1.104
 1917SOL     OW 6649   3.548   3.303   4.737
 1917SOL    HW1 6650   3.471   3.347   4.782
 1917SOL    HW2 6651   3.539   3.204   4.743
 1918SOL     OW 6652   5.933   6.936   5.939
 1918SOL    HW1 6653   6.030   6.947   5.957
 1918SOL    HW2 6654   5.920   6.891   5.850
 1919SOL     OW 6655   1.189   6.731   1.740
 1919SOL    HW1 6656   1.103   6.731   1.689
 1919SOL    HW2 6657   1.169   6.719   1.838
 1920SOL     OW 6658   0.263   4.509   3.469
 1920SOL    HW1 6659   0.343   4.502   3.529
 1920SOL    HW2 6660   0.266   4.436   3.401
 1921SOL     OW 6661   0.330   5.126   0.090
 1921SOL    HW1 6662   0.362   5.218   0.065
 1921SOL    HW2 6663   0.351   5.063   0.015
 1922SOL     OW 6664   4.209   3.196   1.002
 1922SOL    HW1 6665   4.293   3.152   0.972
 1922SOL    HW2 6666   4.231   3.283   1.047
 1923SOL     OW 6667   3.021   1.406   0.194
 1923SOL    HW1 6668   3.082   1.329   0.178
 1923SOL    HW2 6669   3.024   1.468   0.116
 1924SOL     OW 6670   5.649   5.103   2.081
 1924SOL    HW1 6671   5.554   5.076   2.061
 1924SOL    HW2 6672   5.651   5.200   2.107
 1925SOL     OW 6673   2.838   3.765   1.780
 1925SOL    HW1 6674   2.786   3.807   1.706
 1925SOL    HW2 6675   2.888   3.836   1.830
 1926SOL     OW 6676   1.477   0.041   4.290
 1926SOL    HW1 6677   1.435   0.131   4.276
 1926SOL    HW2 6678   1.431   7.023   4.364
 1927SOL     OW 6679   3.905   5.199   6.111
 1927SOL    HW1 6680   3.893   5.116   6.166
 1927SOL    HW2 6681   3.997   5.235   6.125
 1928SOL     OW 6682   6.978   3.863   6.288
 1928SOL    HW1 6683   0.044   3.855   6.315
 1928SOL    HW2 6684   6.970   3.857   6.189
 1929SOL     OW 6685   0.641   5.493   1.433
 1929SOL    HW1 6686   0.668   5.429   1.505
 1929SOL    HW2 6687   0.701   5.573   1.435
 1930SOL     OW 6688   5.348   4.578   6.981
 1930SOL    HW1 6689   5.284   4.506   7.007
 1930SOL    HW2 6690   5.367   4.574   6.883
 1931SOL     OW 6691   0.296   3.249   3.361
 1931SOL    HW1 6692   0.308   3.344   3.390
 1931SOL    HW2 6693   0.201   3.234   3.333
 1932SOL     OW 6694   5.476   3.577   2.910
 1932SOL    HW1 6695   5.494   3.525   2.827
 1932SOL    HW2 6696   5.421   3.658   2.888
 1933SOL     OW 6697   2.163   4.828   1.113
 1933SOL    HW1 6698   2.185   4.915   1.068
 1933SOL    HW2 6699   2.244   4.796   1.163
 1934SOL     OW 6700   0.414   0.144   5.798
 1934SOL    HW1 6701   0.404   0.113   5.704
 1934SOL    HW2 6702   0.499   0.195   5.808
 1935SOL     OW 6703   3.097   0.491   5.039
 1935SOL    HW1 6704   3.095   0.515   4.942
 1935SOL    HW2 6705   3.191   0.473   5.067
 1936SOL     OW 6706   5.674   4.605   4.118
 1936SOL    HW1 6707   5.734   4.529   4.143
 1936SOL    HW2 6708   5.630   4.585   4.030
 1937SOL     OW 6709   3.820   6.674   1.886
 1937SOL    HW1 6710   3.784   6.754   1.933
 1937SOL    HW2 6711   3.865   6.614   1.952
 1938SOL     OW 6712   4.813   1.394   2.824
 1938SOL    HW1 6713   4.835   1.298   2.804
 1938SOL    HW2 6714   4.874   1.453   2.771
 1939SOL     OW 6715   0.756   6.938   4.241
 1939SOL    HW1 6716   0.805   6.854   4.264
 1939SOL    HW2 6717   0.658   6.922   4.249
 1940SOL     OW 6718   4.856   5.159   6.022
 1940SOL    HW1 6719   4.884   5.074   6.068
 1940SOL    HW2 6720   4.778   5.139   5.961
 1941SOL     OW 6721   0.116   3.649   3.154
 1941SOL    HW1 6722   0.107   3.614   3.248
 1941SOL    HW2 6723   0.047   3.719   3.138
 1942SOL     OW 6724   6.618   0.055   2.694
 1942SOL    HW1 6725   6.589   0.109   2.773
 1942SOL    HW2 6726   6.558   7.005   2.684
 1943SOL     OW 6727   3.164   6.122   2.457
 1943SOL    HW1 6728   3.111   6.054   2.406
 1943SOL    HW2 6729   3.116   6.210   2.454
 1944SOL     OW 6730   5.104   2.294   6.183
 1944SOL    HW1 6731   5.072   2.360   6.115
 1944SOL    HW2 6732   5.051   2.305   6.267
 1945SOL     OW 6733   3.699   5.549   2.878
 1945SOL    HW1 6734   3.716   5.455   2.907
 1945SOL    HW2 6735   3.785   5.590   2.846
 1946SOL     OW 6736   6.974   0.624   0.096
 1946SOL    HW1 6737   6.977   0.651   0.192
 1946SOL    HW2 6738   0.035   0.635   0.055
 1947SOL     OW 6739   5.293   6.611   3.589
 1947SOL    HW1 6740   5.386   6.647   3.583
 1947SOL    HW2 6741   5.236   6.675   3.641
 1948SOL     OW 6742   6.549   5.579   3.710
 1948SOL    HW1 6743   6.569   5.615   3.619
 1948SOL    HW2 6744   6.500   5.648   3.764
 1949SOL     OW 6745   4.502   4.398   5.777
 1949SOL    HW1 6746   4.489   4.457   5.697
 1949SOL    HW2 6747   4.442   4.319   5.770
 1950SOL     OW 6748   3.939   3.785   1.164
 1950SOL    HW1 6749   3.906   3.879   1.154
 1950SOL    HW2 6750   3.897   3.728   1.093
 1951SOL     OW 6751   6.703   3.436   0.499
 1951SOL    HW1 6752   6.696   3.474   0.407
 1951SOL    HW2 6753   6.799   3.426   0.524
 1952SOL     OW 6754   3.691   2.176   6.735
 1952SOL    HW1 6755   3.612   2.172   6.674
 1952SOL    HW2 6756   3.723   2.271   6.742
 1953SOL     OW 6757   6.212   2.592   6.770
 1953SOL    HW1 6758   6.135   2.620   6.826
 1953SOL    HW2 6759   6.287   2.561   6.828
 1954SOL     OW 6760   5.826   1.312   3.973
 1954SOL    HW1 6761   5.919   1.288   3.947
 1954SOL    HW2 6762   5.829   1.374   4.052
 1955SOL     OW 6763   1.492   6.913   2.011
 1955SOL    HW1 6764   1.521   6.825   2.048
 1955SOL    HW2 6765   1.399   6.906   1.975
 1956SOL     OW 6766   6.128   6.714   2.455
 1956SOL    HW1 6767   6.132   6.793   2.515
 1956SOL    HW2 6768   6.034   6.682   2.447
 1957SOL     OW 6769   6.501   4.861   4.774
 1957SOL    HW1 6770   6.456   4.792   4.831
 1957SOL    HW2 6771   6.561   4.918   4.831
 1958SOL     OW 6772   6.121   2.867   4.312
 1958SOL    HW1 6773   6.025   2.881   4.337
 1958SOL    HW2 6774   6.179   2.878   4.392
 1959SOL     OW 6775   0.165   2.005   6.168
 1959SOL    HW1 6776   0.076   1.988   6.211
 1959SOL    HW2 6777   0.213   1.918   6.155
 1960SOL     OW 6778   6.216   4.770   0.733
 1960SOL    HW1 6779   6.179   4.862   0.721
 1960SOL    HW2 6780   6.303   4.762   0.684
 1961SOL     OW 6781   5.697   4.530   4.607
 1961SOL    HW1 6782   5.720   4.444   4.561
 1961SOL    HW2 6783   5.732   4.607   4.553
 1962SOL     OW 6784   2.731   6.215   2.881
 1962SOL    HW1 6785   2.655   6.254   2.829
 1962SOL    HW2 6786   2.778   6.288   2.931
 1963SOL     OW 6787   0.661   0.903   1.246
 1963SOL    HW1 6788   0.750   0.938   1.218
 1963SOL    HW2 6789   0.645   0.926   1.342
 1964SOL     OW 6790   4.676   2.570   1.665
 1964SOL    HW1 6791   4.698   2.499   1.731
 1964SOL    HW2 6792   4.700   2.660   1.704
 1965SOL     OW 6793   1.120   3.299   3.032
 1965SOL    HW1 6794   1.189   3.340   2.973
 1965SOL    HW2 6795   1.035   3.351   3.026
 1966SOL     OW 6796   6.870   5.484   4.963
 1966SOL    HW1 6797   6.863   5.578   4.998
 1966SOL    HW2 6798   6.816   5.476   4.879
 1967SOL     OW 6799   4.890   2.200   5.413
 1967SOL    HW1 6800   4.898   2.187   5.315
 1967SOL    HW2 6801   4.809   2.151   5.446
 1968SOL     OW 6802   2.763   6.055   0.653
 1968SOL    HW1 6803   2.827   5.979   0.668
 1968SOL    HW2 6804   2.669   6.020   0.652
 1969SOL     OW 6805   0.321   1.388   1.212
 1969SOL    HW1 6806   0.230   1.414   1.245
 1969SOL    HW2 6807   0.313   1.356   1.117
 1970SOL     OW 6808   2.556   0.469   6.735
 1970SOL    HW1 6809   2.475   0.434   6.686
 1970SOL    HW2 6810   2.568   0.418   6.820
 1971SOL     OW 6811   5.802   6.762   6.113
 1971SOL    HW1 6812   5.873   6.811   6.063
 1971SOL    HW2 6813   5.831   6.749   6.208
 1972SOL     OW 6814   6.939   2.731   3.115
 1972SOL    HW1 6815   6.850   2.689   3.101
 1972SOL    HW2 6816   6.948   2.760   3.211
 1973SOL     OW 6817   2.754   3.370   1.180
 1973SOL    HW1 6818   2.772   3.408   1.090
 1973SOL    HW2 6819   2.656   3.361   1.195
 1974SOL     OW 6820   6.271   5.731   4.132
 1974SOL    HW1 6821   6.203   5.662   4.157
 1974SOL    HW2 6822   6.231   5.822   4.143
 1975SOL     OW 6823   2.287   1.334   3.381
 1975SOL    HW1 6824   2.276   1.236   3.366
 1975SOL    HW2 6825   2.253   1.358   3.472
 1976SOL     OW 6826   0.475   5.648   6.524
 1976SOL    HW1 6827   0.420   5.577   6.480
 1976SOL    HW2 6828   0.537   5.606   6.590
 1977SOL     OW 6829   1.606   2.780   3.394
 1977SOL    HW1 6830   1.702   2.753   3.403
 1977SOL    HW2 6831   1.548   2.698   3.400
 1978SOL     OW 6832   0.779   0.555   3.991
 1978SOL    HW1 6833   0.710   0.627   3.979
 1978SOL    HW2 6834   0.737   0.466   3.975
 1979SOL     OW 6835   6.694   4.125   4.896
 1979SOL    HW1 6836   6.702   4.130   4.796
 1979SOL    HW2 6837   6.780   4.153   4.938
 1980SOL     OW 6838   3.142   1.076   6.328
 1980SOL    HW1 6839   3.133   1.161   6.380
 1980SOL    HW2 6840   3.052   1.047   6.295
 1981SOL     OW 6841   6.042   2.039   2.567
 1981SOL    HW1 6842   6.104   2.075   2.636
 1981SOL    HW2 6843   6.064   2.080   2.478
 1982SOL     OW 6844   6.981   4.292   5.630
 1982SOL    HW1 6845   6.956   4.249   5.716
 1982SOL    HW2 6846   6.931   4.250   5.555
 1983SOL     OW 6847   1.037   2.060   2.612
 1983SOL    HW1 6848   0.981   2.069   2.695
 1983SOL    HW2 6849   0.978   2.031   2.536
 1984SOL     OW 6850   5.698   0.827   4.723
 1984SOL    HW1 6851   5.717   0.758   4.653
 1984SOL    HW2 6852   5.782   0.873   4.749
 1985SOL     OW 6853   0.776   0.821   2.318
 1985SOL    HW1 6854   0.727   0.813   2.405
 1985SOL    HW2 6855   0.868   0.859   2.334
 1986SOL     OW 6856   1.374   0.452   0.563
 1986SOL    HW1 6857   1.401   0.356   0.574
 1986SOL    HW2 6858   1.354   0.491   0.653
 1987SOL     OW 6859   1.428   3.316   1.881
 1987SOL    HW1 6860   1.363   3.333   1.807
 1987SOL    HW2 6861   1.480   3.233   1.862
 1988SOL     OW 6862   4.602   4.667   1.078
 1988SOL    HW1 6863   4.600   4.749   1.021
 1988SOL    HW2 6864   4.695   4.654   1.114
 1989SOL     OW 6865   2.581   6.597   5.245
 1989SOL    HW1 6866   2.511   6.660   5.280
 1989SOL    HW2 6867   2.537   6.526   5.189
 1990SOL     OW 6868   3.705   6.844   1.136
 1990SOL    HW1 6869   3.706   6.940   1.165
 1990SOL    HW2 6870   3.663   6.837   1.046
 1991SOL     OW 6871   4.024   4.699   6.243
 1991SOL    HW1 6872   3.972   4.614   6.254
 1991SOL    HW2 6873   4.031   4.722   6.146
 1992SOL     OW 6874   1.196   0.129   6.829
 1992SOL    HW1 6875   1.161   0.040   6.861
 1992SOL    HW2 6876   1.165   0.201   6.891
 1993SOL     OW 6877   4.189   3.743   5.134
 1993SOL    HW1 6878   4.111   3.742   5.196
 1993SOL    HW2 6879   4.159   3.719   5.042
 1994SOL     OW 6880   1.509   1.759   1.042
 1994SOL    HW1 6881   1.578   1.717   0.983
 1994SOL    HW2 6882   1.515   1.859   1.034
 1995SOL     OW 6883   6.295   2.376   1.434
 1995SOL    HW1 6884   6.315   2.379   1.336
 1995SOL    HW2 6885   6.379   2.355   1.485
 1996SOL     OW 6886   3.177   3.709   0.585
 1996SOL    HW1 6887   3.127   3.795   0.595
 1996SOL    HW2 6888   3.275   3.728   0.574
 1997SOL     OW 6889   5.165   0.286   5.624
 1997SOL    HW1 6890   5.067   0.299   5.608
 1997SOL    HW2 6891   5.205   0.371   5.657
 1998SOL     OW 6892   2.817   3.444   6.068
 1998SOL    HW1 6893   2.811   3.540   6.098
 1998SOL    HW2 6894   2.867   3.440   5.981
 1999SOL     OW 6895   2.862   6.891   1.950
 1999SOL    HW1 6896   2.795   6.939   1.893
 1999SOL    HW2 6897   2.834   6.796   1.962
 2000SOL     OW 6898   3.806   1.965   5.472
 2000SOL    HW1 6899   3.712   1.929   5.464
 2000SOL    HW2 6900   3.807   2.041   5.536
 2001SOL     OW 6901   3.458   2.160   1.788
 2001SOL    HW1 6902   3.547   2.176   1.829
 2001SOL    HW2 6903   3.440   2.230   1.719
 2002SOL     OW 6904   1.032   5.761   6.068
 2002SOL    HW1 6905   0.998   5.853   6.051
 2002SOL    HW2 6906   0.965   5.694   6.036
 2003SOL     OW 6907   5.724   0.154   3.522
 2003SOL    HW1 6908   5.735   0.247   3.487
 2003SOL    HW2 6909   5.770   0.090   3.461
 2004SOL     OW 6910   5.226   1.284   5.233
 2004SOL    HW1 6911   5.180   1.295   5.322
 2004SOL    HW2 6912   5.223   1.370   5.183
 2005SOL     OW 6913   1.020   5.335   6.786
 2005SOL    HW1 6914   0.975   5.394   6.719
 2005SOL    HW2 6915   1.087   5.388   6.838
 2006SOL     OW 6916   4.933   4.353   3.986
 2006SOL    HW1 6917   4.894   4.270   4.026
 2006SOL    HW2 6918   4.862   4.424   3.982
 2007SOL     OW 6919   4.252   5.471   0.763
 2007SOL    HW1 6920   4.252   5.454   0.664
 2007SOL    HW2 6921   4.259   5.569   0.780
 2008SOL     OW 6922   1.217   5.865   3.100
 2008SOL    HW1 6923   1.266   5.779   3.116
 2008SOL    HW2 6924   1.139   5.847   3.040
 2009SOL     OW 6925   6.682   6.930   1.266
 2009SOL    HW1 6926   6.681   6.970   1.358
 2009SOL    HW2 6927   6.599   6.875   1.253
 2010SOL     OW 6928   1.447   0.937   0.989
 2010SOL    HW1 6929   1.491   1.025   0.971
 2010SOL    HW2 6930   1.350   0.943   0.967
 2011SOL     OW 6931   0.235   2.120   5.247
 2011SOL    HW1 6932   0.250   2.118   5.149
 2011SOL    HW2 6933   0.305   2.065   5.293
 2012SOL     OW 6934   0.801   3.111   1.754
 2012SOL    HW1 6935   0.739   3.105   1.832
 2012SOL    HW2 6936   0.770   3.182   1.691
 2013SOL     OW 6937   5.666   0.367   3.144
 2013SOL    HW1 6938   5.636   0.271   3.137
 2013SOL    HW2 6939   5.675   0.405   3.052
 2014SOL     OW 6940   1.899   5.553   2.696
 2014SOL    HW1 6941   1.981   5.534   2.750
 2014SOL    HW2 6942   1.840   5.617   2.746
 2015SOL     OW 6943   2.373   1.025   6.614
 2015SOL    HW1 6944   2.405   1.034   6.708
 2015SOL    HW2 6945   2.342   1.114   6.581
 2016SOL     OW 6946   1.217   5.541   5.309
 2016SOL    HW1 6947   1.266   5.509   5.228
 2016SOL    HW2 6948   1.193   5.463   5.367
 2017SOL     OW 6949   2.887   6.661   4.569
 2017SOL    HW1 6950   2.856   6.643   4.662
 2017SOL    HW2 6951   2.840   6.743   4.534
 2018SOL     OW 6952   5.652   6.521   6.151
 2018SOL    HW1 6953   5.687   6.454   6.085
 2018SOL    HW2 6954   5.701   6.607   6.140
 2019SOL     OW 6955   4.400   2.143   2.520
 2019SOL    HW1 6956   4.339   2.147   2.599
 2019SOL    HW2 6957   4.370   2.071   2.458
 2020SOL     OW 6958   1.492   5.629   5.613
 2020SOL    HW1 6959   1.421   5.561   5.631
 2020SOL    HW2 6960   1.491   5.699   5.685
 2021SOL     OW 6961   2.111   6.010   3.813
 2021SOL    HW1 6962   2.012   5.995   3.813
 2021SOL    HW2 6963   2.158   5.923   3.800
 2022SOL     OW 6964   2.151   3.559   2.329
 2022SOL    HW1 6965   2.115   3.489   2.267
 2022SOL    HW2 6966   2.233   3.601   2.289
 2023SOL     OW 6967   6.974   1.283   6.677
 2023SOL    HW1 6968   6.965   1.340   6.595
 2023SOL    HW2 6969   7.026   1.332   6.746
 2024SOL     OW 6970   0.043   0.799   2.598
 2024SOL    HW1 6971   0.035   0.883   2.543
 2024SOL    HW2 6972   6.982   0.760   2.611
 2025SOL     OW 6973   2.006   3.071   2.136
 2025SOL    HW1 6974   2.009   3.005   2.061
 2025SOL    HW2 6975   1.911   3.081   2.167
 2026SOL     OW 6976   1.541   2.450   6.310
 2026SOL    HW1 6977   1.604   2.393   6.257
 2026SOL    HW2 6978   1.451   2.406   6.313
 2027SOL     OW 6979   0.870   1.273   1.360
 2027SOL    HW1 6980   0.799   1.255   1.291
 2027SOL    HW2 6981   0.901   1.186   1.398
 2028SOL     OW 6982   3.142   1.309   6.472
 2028SOL    HW1 6983   3.116   1.379   6.405
 2028SOL    HW2 6984   3.149   1.350   6.563
 2029SOL     OW 6985   6.944   0.246   0.562
 2029SOL    HW1 6986   7.000   0.277   0.639
 2029SOL    HW2 6987   6.979   0.287   0.478
 2030SOL     OW 6988   2.622   0.841   3.721
 2030SOL    HW1 6989   2.629   0.744   3.744
 2030SOL    HW2 6990   2.602   0.851   3.624
 2031SOL     OW 6991   5.080   6.167   2.513
 2031SOL    HW1 6992   5.038   6.083   2.477
 2031SOL    HW2 6993   5.136   6.209   2.442
 2032SOL     OW 6994   3.677   6.629   1.647
 2032SOL    HW1 6995   3.589   6.661   1.684
 2032SOL    HW2 6996   3.751   6.670   1.700
 2033SOL     OW 6997   3.445   4.529   6.838
 2033SOL    HW1 6998   3.351   4.557   6.819
 2033SOL    HW2 6999   3.503   4.551   6.759
 2034SOL     OW 7000   3.417   6.913   4.612
 2034SOL    HW1 7001   3.497   6.857   4.594
 2034SOL    HW2 7002   3.339   6.854   4.635
 2035SOL     OW 7003   0.402   0.651   2.355
 2035SOL    HW1 7004   0.481   0.592   2.372
 2035SOL    HW2 7005   0.432   0.743   2.332
 2036SOL     OW 7006   0.564   5.679   3.114
 2036SOL    HW1 7007   0.591   5.604   3.054
 2036SOL    HW2 7008   0.588   5.766   3.071
 2037SOL     OW 7009   0.265   2.276   6.253
 2037SOL    HW1 7010   0.227   2.367   6.236
 2037SOL    HW2 7011   0.195   2.207   6.234
 2038SOL     OW 7012   1.406   1.769   6.541
 2038SOL    HW1 7013   1.329   1.809   6.493
 2038SOL    HW2 7014   1.475   1.839   6.559
 2039SOL     OW 7015   0.385   4.936   2.123
 2039SOL    HW1 7016   0.412   4.962   2.216
 2039SOL    HW2 7017   0.342   5.014   2.078
 2040SOL     OW 7018   3.041   2.902   5.240
 2040SOL    HW1 7019   2.998   2.991   5.227
 2040SOL    HW2 7020   3.121   2.895   5.181
 2041SOL     OW 7021   6.911   5.749   5.684
 2041SOL    HW1 7022   6.844   5.764   5.611
 2041SOL    HW2 7023   6.887   5.805   5.764
 2042SOL     OW 7024   5.468   5.221   6.688
 2042SOL    HW1 7025   5.423   5.271   6.614
 2042SOL    HW2 7026   5.461   5.274   6.773
 2043SOL     OW 7027   6.340   4.252   2.670
 2043SOL    HW1 7028   6.382   4.181   2.613
 2043SOL    HW2 7029   6.391   4.337   2.661
 2044SOL     OW 7030   4.416   0.145   2.058
 2044SOL    HW1 7031   4.364   0.230   2.050
 2044SOL    HW2 7032   4.426   0.120   2.154
 2045SOL     OW 7033   1.888   4.643   5.104
 2045SOL    HW1 7034   1.856   4.728   5.060
 2045SOL    HW2 7035   1.860   4.565   5.048
 2046SOL     OW 7036   7.030   1.271   4.394
 2046SOL    HW1 7037   6.949   1.310   4.438
 2046SOL    HW2 7038   0.054   1.344   4.352
 2047SOL     OW 7039   4.507   2.258   0.481
 2047SOL    HW1 7040   4.509   2.292   0.575
 2047SOL    HW2 7041   4.434   2.190   0.473
 2048SOL     OW 7042   1.828   5.532   0.672
 2048SOL    HW1 7043   1.880   5.488   0.745
 2048SOL    HW2 7044   1.810   5.466   0.599
 2049SOL     OW 7045   4.482   1.257   6.581
 2049SOL    HW1 7046   4.396   1.260   6.631
 2049SOL    HW2 7047   4.553   1.304   6.633
 2050SOL     OW 7048   6.523   2.108   3.007
 2050SOL    HW1 7049   6.482   2.059   2.930
 2050SOL    HW2 7050   6.623   2.109   2.996
 2051SOL     OW 7051   0.248   5.680   0.819
 2051SOL    HW1 7052   0.207   5.698   0.909
 2051SOL    HW2 7053   0.344   5.708   0.820
 2052SOL     OW 7054   0.295   4.317   0.518
 2052SOL    HW1 7055   0.287   4.225   0.558
 2052SOL    HW2 7056   0.246   4.319   0.431
 2053SOL     OW 7057   6.325   0.711   5.670
 2053SOL    HW1 7058   6.422   0.690   5.676
 2053SOL    HW2 7059   6.312   0.801   5.630
 2054SOL     OW 7060   4.355   2.505   1.386
 2054SOL    HW1 7061   4.415   2.451   1.445
 2054SOL    HW2 7062   4.352   2.599   1.419
 2055SOL     OW 7063   6.210   3.326   2.763
 2055SOL    HW1 7064   6.154   3.331   2.681
 2055SOL    HW2 7065   6.296   3.280   2.742
 2056SOL     OW 7066   2.468   0.815   3.044
 2056SOL    HW1 7067   2.475   0.914   3.040
 2056SOL    HW2 7068   2.422   0.789   3.129
 2057SOL     OW 7069   5.564   2.964   3.321
 2057SOL    HW1 7070   5.533   2.924   3.234
 2057SOL    HW2 7071   5.544   3.062   3.322
 2058SOL     OW 7072   1.285   1.609   3.270
 2058SOL    HW1 7073   1.284   1.628   3.368
 2058SOL    HW2 7074   1.379   1.616   3.235
 2059SOL     OW 7075   2.718   6.273   6.880
 2059SOL    HW1 7076   2.715   6.357   6.825
 2059SOL    HW2 7077   2.627   6.251   6.912
 2060SOL     OW 7078   6.032   4.292   0.318
 2060SOL    HW1 7079   6.128   4.308   0.297
 2060SOL    HW2 7080   5.978   4.371   0.288
 2061SOL     OW 7081   0.983   1.700   2.929
 2061SOL    HW1 7082   1.003   1.718   3.025
 2061SOL    HW2 7083   1.031   1.617   2.900
 2062SOL     OW 7084   6.172   0.741   3.491
 2062SOL    HW1 7085   6.168   0.725   3.392
 2062SOL    HW2 7086   6.255   0.699   3.528
 2063SOL     OW 7087   2.081   0.107   5.915
 2063SOL    HW1 7088   2.091   0.179   5.847
 2063SOL    HW2 7089   2.076   0.018   5.870
 2064SOL     OW 7090   1.198   2.053   6.148
 2064SOL    HW1 7091   1.179   2.148   6.123
 2064SOL    HW2 7092   1.213   1.999   6.066
 2065SOL     OW 7093   6.997   3.440   3.056
 2065SOL    HW1 7094   0.047   3.494   3.081
 2065SOL    HW2 7095   7.008   3.346   3.089
 2066SOL     OW 7096   0.277   5.524   3.345
 2066SOL    HW1 7097   0.264   5.511   3.247
 2066SOL    HW2 7098   0.359   5.579   3.360
 2067SOL     OW 7099   6.855   5.551   0.849
 2067SOL    HW1 7100   6.772   5.507   0.884
 2067SOL    HW2 7101   6.830   5.617   0.778
 2068SOL     OW 7102   1.476   1.854   5.287
 2068SOL    HW1 7103   1.413   1.794   5.337
 2068SOL    HW2 7104   1.437   1.877   5.198
 2069SOL     OW 7105   0.797   3.054   3.259
 2069SOL    HW1 7106   0.878   3.075   3.205
 2069SOL    HW2 7107   0.824   3.024   3.351
 2070SOL     OW 7108   1.189   0.614   2.172
 2070SOL    HW1 7109   1.154   0.699   2.132
 2070SOL    HW2 7110   1.215   0.630   2.267
 2071SOL     OW 7111   6.591   6.129   5.006
 2071SOL    HW1 7112   6.556   6.038   4.982
 2071SOL    HW2 7113   6.536   6.198   4.959
 2072SOL     OW 7114   4.501   6.832   2.336
 2072SOL    HW1 7115   4.578   6.894   2.353
 2072SOL    HW2 7116   4.434   6.877   2.278
 2073SOL     OW 7117   4.029   0.071   4.356
 2073SOL    HW1 7118   4.109   0.063   4.416
 2073SOL    HW2 7119   4.056   0.051   4.261
 2074SOL     OW 7120   1.334   3.340   0.497
 2074SOL    HW1 7121   1.304   3.297   0.412
 2074SOL    HW2 7122   1.255   3.352   0.558
 2075SOL     OW 7123   5.551   2.827   1.420
 2075SOL    HW1 7124   5.474   2.883   1.450
 2075SOL    HW2 7125   5.610   2.879   1.359
 2076SOL     OW 7126   4.769   0.267   6.642
 2076SOL    HW1 7127   4.682   0.257   6.690
 2076SOL    HW2 7128   4.767   0.212   6.558
 2077SOL     OW 7129   5.460   1.984   2.736
 2077SOL    HW1 7130   5.432   2.075   2.766
 2077SOL    HW2 7131   5.382   1.936   2.697
 2078SOL     OW 7132   1.761   6.268   6.420
 2078SOL    HW1 7133   1.765   6.193   6.486
 2078SOL    HW2 7134   1.667   6.304   6.416
 2079SOL     OW 7135   6.097   1.704   3.321
 2079SOL    HW1 7136   6.187   1.749   3.319
 2079SOL    HW2 7137   6.050   1.721   3.234
 2080SOL     OW 7138   1.356   0.556   4.380
 2080SOL    HW1 7139   1.267   0.582   4.416
 2080SOL    HW2 7140   1.428   0.596   4.437
 2081SOL     OW 7141   2.160   5.656   4.547
 2081SOL    HW1 7142   2.094   5.582   4.535
 2081SOL    HW2 7143   2.202   5.649   4.637
 2082SOL     OW 7144   6.969   7.014   3.409
 2082SOL    HW1 7145   0.018   0.045   3.419
 2082SOL    HW2 7146   6.899   0.029   3.354
 2083SOL     OW 7147   5.343   4.969   6.119
 2083SOL    HW1 7148   5.244   4.955   6.113
 2083SOL    HW2 7149   5.371   4.972   6.215
 2084SOL     OW 7150   0.335   4.071   4.076
 2084SOL    HW1 7151   0.272   3.994   4.085
 2084SOL    HW2 7152   0.428   4.039   4.095
 2085SOL     OW 7153   4.800   0.942   6.598
 2085SOL    HW1 7154   4.812   0.949   6.697
 2085SOL    HW2 7155   4.703   0.937   6.577
 2086SOL     OW 7156   3.559   6.985   6.000
 2086SOL    HW1 7157   3.523   0.030   5.945
 2086SOL    HW2 7158   3.646   7.013   6.042
 2087SOL     OW 7159   5.328   6.919   1.078
 2087SOL    HW1 7160   5.326   7.019   1.074
 2087SOL    HW2 7161   5.238   6.885   1.107
 2088SOL     OW 7162   2.655   6.009   1.112
 2088SOL    HW1 7163   2.576   5.963   1.154
 2088SOL    HW2 7164   2.626   6.055   1.028
 2089SOL     OW 7165   5.577   2.409   6.520
 2089SOL    HW1 7166   5.623   2.377   6.437
 2089SOL    HW2 7167   5.556   2.506   6.511
 2090SOL     OW 7168   3.431   3.311   5.490
 2090SOL    HW1 7169   3.336   3.337   5.507
 2090SOL    HW2 7170   3.489   3.393   5.497
 2091SOL     OW 7171   6.921   5.440   0.436
 2091SOL    HW1 7172   6.832   5.483   0.450
 2091SOL    HW2 7173   6.958   5.410   0.524
 2092SOL     OW 7174   4.816   4.353   7.004
 2092SOL    HW1 7175   4.866   4.413   6.942
 2092SOL    HW2 7176   4.782   4.405   0.053
 2093SOL     OW 7177   2.714   2.372   1.582
 2093SOL    HW1 7178   2.785   2.306   1.558
 2093SOL    HW2 7179   2.750   2.465   1.574
 2094SOL     OW 7180   5.902   1.243   1.023
 2094SOL    HW1 7181   5.939   1.162   1.068
 2094SOL    HW2 7182   5.927   1.242   0.926
 2095SOL     OW 7183   5.487   0.541   4.751
 2095SOL    HW1 7184   5.555   0.608   4.719
 2095SOL    HW2 7185   5.532   0.455   4.771
 2096SOL     OW 7186   4.837   4.024   2.952
 2096SOL    HW1 7187   4.912   3.961   2.930
 2096SOL    HW2 7188   4.809   4.072   2.869
 2097SOL     OW 7189   2.321   2.965   6.633
 2097SOL    HW1 7190   2.333   3.033   6.705
 2097SOL    HW2 7191   2.391   2.894   6.643
 2098SOL     OW 7192   4.097   5.999   3.060
 2098SOL    HW1 7193   4.062   6.026   3.149
 2098SOL    HW2 7194   4.086   5.900   3.048
 2099SOL     OW 7195   2.638   3.137   5.384
 2099SOL    HW1 7196   2.663   3.234   5.374
 2099SOL    HW2 7197   2.570   3.113   5.314
 2100SOL     OW 7198   4.702   3.222   6.041
 2100SOL    HW1 7199   4.795   3.192   6.018
 2100SOL    HW2 7200   4.645   3.222   5.959
 2101SOL     OW 7201   1.752   6.260   2.487
 2101SOL    HW1 7202   1.842   6.243   2.525
 2101SOL    HW2 7203   1.686   6.196   2.527
 2102SOL     OW 7204   6.123   4.970   2.003
 2102SOL    HW1 7205   6.158   4.877   1.998
 2102SOL    HW2 7206   6.043   4.972   2.064
 2103SOL     OW 7207   3.623   3.911   5.977
 2103SOL    HW1 7208   3.713   3.928   5.937
 2103SOL    HW2 7209   3.605   3.813   5.980
 2104SOL     OW 7210   1.780   2.930   0.644
 2104SOL    HW1 7211   1.686   2.963   0.641
 2104SOL    HW2 7212   1.813   2.931   0.739
 2105SOL     OW 7213   5.286   5.973   4.845
 2105SOL    HW1 7214   5.231   6.056   4.837
 2105SOL    HW2 7215   5.266   5.928   4.932
 2106SOL     OW 7216   4.742   4.346   0.545
 2106SOL    HW1 7217   4.775   4.278   0.610
 2106SOL    HW2 7218   4.781   4.328   0.455
 2107SOL     OW 7219   5.448   2.565   5.576
 2107SOL    HW1 7220   5.457   2.476   5.620
 2107SOL    HW2 7221   5.368   2.565   5.516
 2108SOL     OW 7222   6.739   6.160   5.259
 2108SOL    HW1 7223   6.698   6.129   5.173
 2108SOL    HW2 7224   6.673   6.150   5.333
 2109SOL     OW 7225   4.057   6.386   2.855
 2109SOL    HW1 7226   4.014   6.437   2.781
 2109SOL    HW2 7227   3.987   6.342   2.910
 2110SOL     OW 7228   2.898   2.030   6.358
 2110SOL    HW1 7229   2.989   2.027   6.316
 2110SOL    HW2 7230   2.872   2.124   6.377
 2111SOL     OW 7231   1.310   2.937   0.298
 2111SOL    HW1 7232   1.288   2.946   0.395
 2111SOL    HW2 7233   1.365   2.855   0.283
 2112SOL     OW 7234   5.201   2.783   0.458
 2112SOL    HW1 7235   5.181   2.849   0.531
 2112SOL    HW2 7236   5.122   2.778   0.396
 2113SOL     OW 7237   0.758   1.600   5.225
 2113SOL    HW1 7238   0.791   1.505   5.224
 2113SOL    HW2 7239   0.734   1.627   5.131
 2114SOL     OW 7240   1.188   2.726   0.868
 2114SOL    HW1 7241   1.147   2.701   0.780
 2114SOL    HW2 7242   1.281   2.757   0.854
 2115SOL     OW 7243   2.107   3.318   2.498
 2115SOL    HW1 7244   2.148   3.406   2.473
 2115SOL    HW2 7245   2.154   3.245   2.448
 2116SOL     OW 7246   6.859   4.750   2.801
 2116SOL    HW1 7247   6.787   4.819   2.798
 2116SOL    HW2 7248   6.825   4.667   2.844
 2117SOL     OW 7249   6.265   4.721   1.899
 2117SOL    HW1 7250   6.231   4.660   1.971
 2117SOL    HW2 7251   6.353   4.759   1.926
 2118SOL     OW 7252   6.086   3.398   1.411
 2118SOL    HW1 7253   6.042   3.314   1.379
 2118SOL    HW2 7254   6.140   3.378   1.493
 2119SOL     OW 7255   2.376   5.826   0.923
 2119SOL    HW1 7256   2.309   5.862   0.859
 2119SOL    HW2 7257   2.349   5.850   1.016
 2120SOL     OW 7258   0.245   5.060   3.898
 2120SOL    HW1 7259   0.156   5.065   3.852
 2120SOL    HW2 7260   0.314   5.032   3.832
 2121SOL     OW 7261   0.933   3.906   5.854
 2121SOL    HW1 7262   0.855   3.942   5.905
 2121SOL    HW2 7263   0.988   3.982   5.819
 2122SOL     OW 7264   5.724   4.377   5.802
 2122SOL    HW1 7265   5.822   4.358   5.794
 2122SOL    HW2 7266   5.687   4.398   5.711
 2123SOL     OW 7267   6.452   5.776   2.070
 2123SOL    HW1 7268   6.441   5.767   2.169
 2123SOL    HW2 7269   6.381   5.838   2.034
 2124SOL     OW 7270   2.941   1.562   1.530
 2124SOL    HW1 7271   2.987   1.600   1.450
 2124SOL    HW2 7272   2.842   1.559   1.512
 2125SOL     OW 7273   1.766   0.588   1.503
 2125SOL    HW1 7274   1.672   0.607   1.532
 2125SOL    HW2 7275   1.769   0.503   1.450
 2126SOL     OW 7276   3.653   0.938   6.577
 2126SOL    HW1 7277   3.696   0.869   6.518
 2126SOL    HW2 7278   3.569   0.970   6.534
 2127SOL     OW 7279   6.703   3.319   4.194
 2127SOL    HW1 7280   6.642   3.259   4.246
 2127SOL    HW2 7281   6.798   3.295   4.213
 2128SOL     OW 7282   6.818   3.459   3.262
 2128SOL    HW1 7283   6.881   3.471   3.185
 2128SOL    HW2 7284   6.735   3.413   3.229
 2129SOL     OW 7285   4.382   3.437   5.536
 2129SOL    HW1 7286   4.460   3.433   5.599
 2129SOL    HW2 7287   4.399   3.508   5.468
 2130SOL     OW 7288   3.543   1.043   1.929
 2130SOL    HW1 7289   3.633   1.038   1.972
 2130SOL    HW2 7290   3.530   0.964   1.869
 2131SOL     OW 7291   6.193   0.440   0.010
 2131SOL    HW1 7292   6.160   0.348   0.035
 2131SOL    HW2 7293   6.276   0.461   0.061
 2132SOL     OW 7294   3.559   1.557   1.418
 2132SOL    HW1 7295   3.460   1.564   1.430
 2132SOL    HW2 7296   3.586   1.599   1.331
 2133SOL     OW 7297   2.885   3.589   0.122
 2133SOL    HW1 7298   2.810   3.627   0.069
 2133SOL    HW2 7299   2.968   3.643   0.107
 2134SOL     OW 7300   0.092   2.545   6.874
 2134SOL    HW1 7301   0.122   2.577   6.784
 2134SOL    HW2 7302   0.136   2.600   6.945
 2135SOL     OW 7303   0.284   3.797   4.206
 2135SOL    HW1 7304   0.304   3.760   4.115
 2135SOL    HW2 7305   0.187   3.787   4.225
 2136SOL     OW 7306   1.480   4.282   2.648
 2136SOL    HW1 7307   1.390   4.309   2.684
 2136SOL    HW2 7308   1.472   4.194   2.601
 2137SOL     OW 7309   2.485   5.815   5.576
 2137SOL    HW1 7310   2.461   5.745   5.510
 2137SOL    HW2 7311   2.453   5.788   5.667
 2138SOL     OW 7312   6.820   6.365   2.813
 2138SOL    HW1 7313   6.737   6.390   2.862
 2138SOL    HW2 7314   6.890   6.336   2.879
 2139SOL     OW 7315   4.711   0.877   3.484
 2139SOL    HW1 7316   4.800   0.897   3.524
 2139SOL    HW2 7317   4.655   0.829   3.551
 2140SOL     OW 7318   3.508   0.106   3.934
 2140SOL    HW1 7319   3.442   0.084   4.006
 2140SOL    HW2 7320   3.601   0.100   3.971
 2141SOL     OW 7321   6.646   3.121   1.726
 2141SOL    HW1 7322   6.729   3.124   1.671
 2141SOL    HW2 7323   6.657   3.181   1.805
 2142SOL     OW 7324   1.538   1.562   3.482
 2142SOL    HW1 7325   1.602   1.582   3.408
 2142SOL    HW2 7326   1.480   1.642   3.499
 2143SOL     OW 7327   3.290   4.672   1.404
 2143SOL    HW1 7328   3.284   4.673   1.304
 2143SOL    HW2 7329   3.322   4.582   1.434
 2144SOL     OW 7330   1.142   5.573   4.380
 2144SOL    HW1 7331   1.054   5.614   4.403
 2144SOL    HW2 7332   1.198   5.568   4.463
 2145SOL     OW 7333   3.982   6.445   4.104
 2145SOL    HW1 7334   3.940   6.497   4.030
 2145SOL    HW2 7335   3.915   6.428   4.176
 2146SOL     OW 7336   2.472   3.347   0.944
 2146SOL    HW1 7337   2.419   3.417   0.993
 2146SOL    HW2 7338   2.465   3.260   0.992
 2147SOL     OW 7339   6.312   1.751   5.640
 2147SOL    HW1 7340   6.299   1.780   5.546
 2147SOL    HW2 7341   6.410   1.742   5.659
 2148SOL     OW 7342   5.817   3.336   5.949
 2148SOL    HW1 7343   5.886   3.323   6.021
 2148SOL    HW2 7344   5.727   3.342   5.991
 2149SOL     OW 7345   3.043   1.871   1.040
 2149SOL    HW1 7346   3.108   1.918   0.980
 2149SOL    HW2 7347   3.067   1.775   1.047
 2150SOL     OW 7348   2.432   2.635   2.277
 2150SOL    HW1 7349   2.503   2.565   2.283
 2150SOL    HW2 7350   2.449   2.693   2.197
 2151SOL     OW 7351   1.979   6.866   6.185
 2151SOL    HW1 7352   2.056   6.910   6.232
 2151SOL    HW2 7353   1.942   6.929   6.116
 2152SOL     OW 7354   3.301   5.349   2.233
 2152SOL    HW1 7355   3.332   5.336   2.327
 2152SOL    HW2 7356   3.373   5.322   2.170
 2153SOL     OW 7357   5.032   1.541   2.695
 2153SOL    HW1 7358   4.978   1.602   2.637
 2153SOL    HW2 7359   5.059   1.589   2.778
 2154SOL     OW 7360   5.253   0.853   4.558
 2154SOL    HW1 7361   5.244   0.909   4.641
 2154SOL    HW2 7362   5.166   0.851   4.509
 2155SOL     OW 7363   3.584   6.576   1.166
 2155SOL    HW1 7364   3.605   6.672   1.182
 2155SOL    HW2 7365   3.619   6.521   1.242
 2156SOL     OW 7366   0.627   1.956   5.104
 2156SOL    HW1 7367   0.664   1.899   5.031
 2156SOL    HW2 7368   0.656   2.051   5.090
 2157SOL     OW 7369   5.593   6.918   2.965
 2157SOL    HW1 7370   5.649   6.843   3.001
 2157SOL    HW2 7371   5.574   6.983   3.039
 2158SOL     OW 7372   3.682   5.761   1.165
 2158SOL    HW1 7373   3.667   5.708   1.082
 2158SOL    HW2 7374   3.780   5.778   1.175
 2159SOL     OW 7375   1.288   0.312   5.117
 2159SOL    HW1 7376   1.290   0.228   5.063
 2159SOL    HW2 7377   1.362   0.372   5.088
 2160SOL     OW 7378   4.976   4.121   6.746
 2160SOL    HW1 7379   4.892   4.131   6.694
 2160SOL    HW2 7380   5.047   4.179   6.706
 2161SOL     OW 7381   5.761   4.662   2.498
 2161SOL    HW1 7382   5.781   4.566   2.518
 2161SOL    HW2 7383   5.703   4.667   2.416
 2162SOL     OW 7384   3.441   0.953   2.204
 2162SOL    HW1 7385   3.464   1.034   2.151
 2162SOL    HW2 7386   3.343   0.952   2.222
 2163SOL     OW 7387   1.736   4.266   0.005
 2163SOL    HW1 7388   1.812   4.303   6.980
 2163SOL    HW2 7389   1.768   4.249   0.098
 2164SOL     OW 7390   1.991   1.899   6.343
 2164SOL    HW1 7391   2.084   1.923   6.367
 2164SOL    HW2 7392   1.987   1.803   6.314
 2165SOL     OW 7393   0.001   2.496   3.326
 2165SOL    HW1 7394   6.965   2.420   3.326
 2165SOL    HW2 7395   0.071   2.479   3.256
 2166SOL     OW 7396   1.442   2.579   4.728
 2166SOL    HW1 7397   1.357   2.527   4.725
 2166SOL    HW2 7398   1.501   2.544   4.800
 2167SOL     OW 7399   1.596   2.112   3.256
 2167SOL    HW1 7400   1.631   2.028   3.216
 2167SOL    HW2 7401   1.656   2.142   3.329
 2168SOL     OW 7402   0.768   1.947   3.759
 2168SOL    HW1 7403   0.683   1.984   3.795
 2168SOL    HW2 7404   0.768   1.954   3.659
 2169SOL     OW 7405   5.810   2.200   6.701
 2169SOL    HW1 7406   5.906   2.189   6.725
 2169SOL    HW2 7407   5.801   2.221   6.603
 2170SOL     OW 7408   6.925   4.219   4.995
 2170SOL    HW1 7409   7.021   4.194   4.988
 2170SOL    HW2 7410   6.918   4.316   5.017
 2171SOL     OW 7411   0.022   5.110   1.214
 2171SOL    HW1 7412   7.019   5.200   1.185
 2171SOL    HW2 7413   6.981   5.065   1.269
 2172SOL     OW 7414   2.147   1.474   6.595
 2172SOL    HW1 7415   2.119   1.554   6.648
 2172SOL    HW2 7416   2.076   1.403   6.601
 2173SOL     OW 7417   4.281   0.341   5.386
 2173SOL    HW1 7418   4.221   0.261   5.377
 2173SOL    HW2 7419   4.375   0.310   5.403
 2174SOL     OW 7420   6.679   5.954   4.620
 2174SOL    HW1 7421   6.702   6.007   4.702
 2174SOL    HW2 7422   6.580   5.938   4.619
 2175SOL     OW 7423   1.899   2.420   4.387
 2175SOL    HW1 7424   1.827   2.412   4.457
 2175SOL    HW2 7425   1.884   2.502   4.333
 2176SOL     OW 7426   5.654   2.186   0.158
 2176SOL    HW1 7427   5.655   2.195   0.059
 2176SOL    HW2 7428   5.643   2.090   0.183
 2177SOL     OW 7429   0.132   1.774   3.579
 2177SOL    HW1 7430   0.042   1.814   3.560
 2177SOL    HW2 7431   0.156   1.711   3.505
 2178SOL     OW 7432   1.809   1.940   1.982
 2178SOL    HW1 7433   1.741   1.880   1.940
 2178SOL    HW2 7434   1.847   2.002   1.912
 2179SOL     OW 7435   1.964   5.036   5.694
 2179SOL    HW1 7436   2.055   5.046   5.735
 2179SOL    HW2 7437   1.932   5.125   5.660
 2180SOL     OW 7438   1.826   2.529   1.900
 2180SOL    HW1 7439   1.891   2.580   1.955
 2180SOL    HW2 7440   1.751   2.497   1.958
 2181SOL     OW 7441   4.705   4.806   4.539
 2181SOL    HW1 7442   4.701   4.793   4.440
 2181SOL    HW2 7443   4.769   4.878   4.561
 2182SOL     OW 7444   1.757   3.926   3.361
 2182SOL    HW1 7445   1.696   4.004   3.346
 2182SOL    HW2 7446   1.784   3.887   3.273
 2183SOL     OW 7447   1.907   4.634   6.445
 2183SOL    HW1 7448   1.838   4.666   6.510
 2183SOL    HW2 7449   1.894   4.536   6.429
 2184SOL     OW 7450   4.250   0.712   5.735
 2184SOL    HW1 7451   4.220   0.804   5.707
 2184SOL    HW2 7452   4.339   0.692   5.695
 2185SOL     OW 7453   0.608   0.254   1.004
 2185SOL    HW1 7454   0.622   0.320   0.930
 2185SOL    HW2 7455   0.541   0.185   0.975
 2186SOL     OW 7456   6.990   5.356   0.677
 2186SOL    HW1 7457   6.962   5.262   0.697
 2186SOL    HW2 7458   6.956   5.416   0.749
 2187SOL     OW 7459   6.620   5.945   2.763
 2187SOL    HW1 7460   6.575   5.938   2.673
 2187SOL    HW2 7461   6.659   5.857   2.788
 2188SOL     OW 7462   0.113   5.552   4.910
 2188SOL    HW1 7463   0.045   5.495   4.957
 2188SOL    HW2 7464   0.135   5.631   4.967
 2189SOL     OW 7465   2.256   0.186   1.153
 2189SOL    HW1 7466   2.310   0.229   1.081
 2189SOL    HW2 7467   2.174   0.146   1.112
 2190SOL     OW 7468   0.397   3.258   2.058
 2190SOL    HW1 7469   0.355   3.168   2.052
 2190SOL    HW2 7470   0.384   3.306   1.971
 2191SOL     OW 7471   2.554   1.656   6.373
 2191SOL    HW1 7472   2.621   1.582   6.375
 2191SOL    HW2 7473   2.580   1.725   6.441
 2192SOL     OW 7474   5.063   1.142   2.302
 2192SOL    HW1 7475   5.123   1.221   2.288
 2192SOL    HW2 7476   4.971   1.165   2.272
 2193SOL     OW 7477   5.552   6.511   6.841
 2193SOL    HW1 7478   5.615   6.552   6.775
 2193SOL    HW2 7479   5.461   6.503   6.800
 2194SOL     OW 7480   2.165   4.596   6.068
 2194SOL    HW1 7481   2.166   4.502   6.035
 2194SOL    HW2 7482   2.178   4.659   5.991
 2195SOL     OW 7483   0.037   0.110   5.113
 2195SOL    HW1 7484   7.007   0.043   5.069
 2195SOL    HW2 7485   0.002   0.202   5.096
 2196SOL     OW 7486   4.291   0.243   4.817
 2196SOL    HW1 7487   4.227   0.310   4.855
 2196SOL    HW2 7488   4.359   0.290   4.760
 2197SOL     OW 7489   2.905   3.143   0.072
 2197SOL    HW1 7490   2.854   3.214   0.023
 2197SOL    HW2 7491   2.976   3.186   0.128
 2198SOL     OW 7492   5.532   0.076   0.875
 2198SOL    HW1 7493   5.612   0.120   0.835
 2198SOL    HW2 7494   5.560   7.025   0.927
 2199SOL     OW 7495   5.374   6.958   3.248
 2199SOL    HW1 7496   5.278   6.932   3.237
 2199SOL    HW2 7497   5.384   7.010   3.333
 2200SOL     OW 7498   2.339   1.824   4.215
 2200SOL    HW1 7499   2.362   1.806   4.311
 2200SOL    HW2 7500   2.313   1.920   4.205
 2201SOL     OW 7501   6.419   2.821   3.427
 2201SOL    HW1 7502   6.447   2.885   3.354
 2201SOL    HW2 7503   6.380   2.873   3.503
 2202SOL     OW 7504   3.324   5.817   2.327
 2202SOL    HW1 7505   3.282   5.834   2.238
 2202SOL    HW2 7506   3.265   5.758   2.382
 2203SOL     OW 7507   2.080   2.736   0.836
 2203SOL    HW1 7508   2.144   2.813   0.831
 2203SOL    HW2 7509   1.994   2.768   0.876
 2204SOL     OW 7510   4.765   1.666   1.253
 2204SOL    HW1 7511   4.819   1.590   1.290
 2204SOL    HW2 7512   4.729   1.722   1.328
 2205SOL     OW 7513   0.394   6.635   6.368
 2205SOL    HW1 7514   0.298   6.647   6.342
 2205SOL    HW2 7515   0.452   6.661   6.291
 2206SOL     OW 7516   3.533   5.398   6.168
 2206SOL    HW1 7517   3.597   5.398   6.245
 2206SOL    HW2 7518   3.579   5.364   6.086
 2207SOL     OW 7519   2.761   5.374   6.611
 2207SOL    HW1 7520   2.851   5.412   6.632
 2207SOL    HW2 7521   2.760   5.343   6.516
 2208SOL     OW 7522   1.435   5.528   2.968
 2208SOL    HW1 7523   1.409   5.581   2.886
 2208SOL    HW2 7524   1.534   5.528   2.977
 2209SOL     OW 7525   1.419   0.198   5.659
 2209SOL    HW1 7526   1.419   0.175   5.562
 2209SOL    HW2 7527   1.432   0.115   5.713
 2210SOL     OW 7528   0.098   4.718   4.441
 2210SOL    HW1 7529   0.102   4.817   4.450
 2210SOL    HW2 7530   0.026   4.693   4.375
 2211SOL     OW 7531   6.599   0.192   0.576
 2211SOL    HW1 7532   6.695   0.210   0.598
 2211SOL    HW2 7533   6.549   0.279   0.573
 2212SOL     OW 7534   2.361   5.758   0.584
 2212SOL    HW1 7535   2.286   5.694   0.571
 2212SOL    HW2 7536   2.436   5.735   0.522
 2213SOL     OW 7537   3.103   1.542   4.923
 2213SOL    HW1 7538   3.135   1.526   5.017
 2213SOL    HW2 7539   3.070   1.637   4.916
 2214SOL     OW 7540   3.421   3.844   5.269
 2214SOL    HW1 7541   3.487   3.917   5.283
 2214SOL    HW2 7542   3.331   3.884   5.249
 2215SOL     OW 7543   6.129   1.491   0.003
 2215SOL    HW1 7544   6.063   1.463   6.964
 2215SOL    HW2 7545   6.124   1.430   0.082
 2216SOL     OW 7546   1.393   1.015   6.324
 2216SOL    HW1 7547   1.443   0.968   6.251
 2216SOL    HW2 7548   1.441   1.099   6.349
 2217SOL     OW 7549   3.839   6.695   2.260
 2217SOL    HW1 7550   3.850   6.747   2.345
 2217SOL    HW2 7551   3.786   6.749   2.195
 2218SOL     OW 7552   6.537   5.210   6.822
 2218SOL    HW1 7553   6.602   5.149   6.867
 2218SOL    HW2 7554   6.477   5.157   6.762
 2219SOL     OW 7555   5.413   1.558   0.769
 2219SOL    HW1 7556   5.365   1.646   0.772
 2219SOL    HW2 7557   5.419   1.526   0.675
 2220SOL     OW 7558   2.093   0.014   5.043
 2220SOL    HW1 7559   2.079   7.028   5.141
 2220SOL    HW2 7560   2.160   6.980   5.008
 2221SOL     OW 7561   6.064   1.429   5.502
 2221SOL    HW1 7562   5.970   1.412   5.472
 2221SOL    HW2 7563   6.110   1.487   5.435
 2222SOL     OW 7564   5.361   0.651   0.526
 2222SOL    HW1 7565   5.264   0.660   0.545
 2222SOL    HW2 7566   5.378   0.563   0.481
 2223SOL     OW 7567   5.696   1.265   5.283
 2223SOL    HW1 7568   5.747   1.310   5.211
 2223SOL    HW2 7569   5.735   1.289   5.372
 2224SOL     OW 7570   7.020   3.159   1.143
 2224SOL    HW1 7571   7.003   3.256   1.121
 2224SOL    HW2 7572   0.079   3.151   1.189
 2225SOL     OW 7573   6.525   0.229   3.592
 2225SOL    HW1 7574   6.577   0.163   3.646
 2225SOL    HW2 7575   6.578   0.255   3.511
 2226SOL     OW 7576   3.834   5.080   1.009
 2226SOL    HW1 7577   3.926   5.115   0.989
 2226SOL    HW2 7578   3.777   5.088   0.927
 2227SOL     OW 7579   5.680   3.169   6.920
 2227SOL    HW1 7580   5.702   3.149   7.016
 2227SOL    HW2 7581   5.581   3.175   6.910
 2228SOL     OW 7582   4.169   5.219   1.119
 2228SOL    HW1 7583   4.119   5.144   1.162
 2228SOL    HW2 7584   4.245   5.183   1.066
 2229SOL     OW 7585   4.376   2.574   5.408
 2229SOL    HW1 7586   4.280   2.594   5.387
 2229SOL    HW2 7587   4.383   2.547   5.504
 2230SOL     OW 7588   5.908   6.698   0.388
 2230SOL    HW1 7589   5.955   6.783   0.364
 2230SOL    HW2 7590   5.944   6.624   0.332
 2231SOL     OW 7591   0.637   0.912   1.509
 2231SOL    HW1 7592   0.621   0.825   1.556
 2231SOL    HW2 7593   0.652   0.984   1.576
 2232SOL     OW 7594   1.197   2.434   4.674
 2232SOL    HW1 7595   1.186   2.360   4.607
 2232SOL    HW2 7596   1.114   2.489   4.676
 2233SOL     OW 7597   1.859   3.026   0.028
 2233SOL    HW1 7598   1.913   2.943   0.016
 2233SOL    HW2 7599   1.769   3.003   0.064
 2234SOL     OW 7600   4.338   1.507   1.819
 2234SOL    HW1 7601   4.292   1.509   1.908
 2234SOL    HW2 7602   4.312   1.425   1.769
 2235SOL     OW 7603   3.129   6.955   1.421
 2235SOL    HW1 7604   3.056   6.895   1.454
 2235SOL    HW2 7605   3.090   0.015   1.399
 2236SOL     OW 7606   2.460   4.214   6.574
 2236SOL    HW1 7607   2.454   4.308   6.541
 2236SOL    HW2 7608   2.428   4.152   6.502
 2237SOL     OW 7609   6.034   4.644   3.812
 2237SOL    HW1 7610   5.954   4.656   3.752
 2237SOL    HW2 7611   6.017   4.692   3.898
 2238SOL     OW 7612   4.664   4.597   1.885
 2238SOL    HW1 7613   4.683   4.649   1.801
 2238SOL    HW2 7614   4.651   4.501   1.863
 2239SOL     OW 7615   3.723   4.914   4.233
 2239SOL    HW1 7616   3.628   4.931   4.258
 2239SOL    HW2 7617   3.777   4.895   4.315
 2240SOL     OW 7618   3.984   5.974   3.626
 2240SOL    HW1 7619   3.933   6.036   3.568
 2240SOL    HW2 7620   3.972   6.000   3.722
 2241SOL     OW 7621   0.525   5.648   3.394
 2241SOL    HW1 7622   0.531   5.724   3.459
 2241SOL    HW2 7623   0.532   5.682   3.301
 2242SOL     OW 7624   5.664   3.305   2.597
 2242SOL    HW1 7625   5.632   3.248   2.521
 2242SOL    HW2 7626   5.585   3.335   2.651
 2243SOL     OW 7627   1.504   6.694   6.112
 2243SOL    HW1 7628   1.468   6.744   6.191
 2243SOL    HW2 7629   1.435   6.629   6.080
 2244SOL     OW 7630   1.838   6.219   1.488
 2244SOL    HW1 7631   1.775   6.296   1.484
 2244SOL    HW2 7632   1.912   6.240   1.552
 2245SOL     OW 7633   0.685   1.773   1.138
 2245SOL    HW1 7634   0.694   1.721   1.222
 2245SOL    HW2 7635   0.775   1.807   1.109
 2246SOL     OW 7636   1.359   0.850   4.651
 2246SOL    HW1 7637   1.363   0.949   4.644
 2246SOL    HW2 7638   1.273   0.823   4.694
 2247SOL     OW 7639   3.444   3.037   3.528
 2247SOL    HW1 7640   3.533   3.020   3.486
 2247SOL    HW2 7641   3.456   3.054   3.626
 2248SOL     OW 7642   6.470   3.763   5.339
 2248SOL    HW1 7643   6.458   3.755   5.240
 2248SOL    HW2 7644   6.412   3.837   5.374
 2249SOL     OW 7645   5.668   6.638   3.602
 2249SOL    HW1 7646   5.619   6.720   3.630
 2249SOL    HW2 7647   5.761   6.663   3.573
 2250SOL     OW 7648   3.574   3.531   5.547
 2250SOL    HW1 7649   3.541   3.609   5.599
 2250SOL    HW2 7650   3.600   3.561   5.455
 2251SOL     OW 7651   4.920   0.211   6.350
 2251SOL    HW1 7652   4.985   0.258   6.290
 2251SOL    HW2 7653   4.951   0.118   6.367
 2252SOL     OW 7654   4.642   2.412   2.451
 2252SOL    HW1 7655   4.643   2.313   2.443
 2252SOL    HW2 7656   4.725   2.442   2.498
 2253SOL     OW 7657   0.487   3.909   6.864
 2253SOL    HW1 7658   0.583   3.894   6.838
 2253SOL    HW2 7659   0.473   3.878   6.958
 2254SOL     OW 7660   3.616   2.877   5.017
 2254SOL    HW1 7661   3.603   2.922   5.105
 2254SOL    HW2 7662   3.604   2.779   5.027
 2255SOL     OW 7663   4.361   3.331   5.956
 2255SOL    HW1 7664   4.377   3.367   6.048
 2255SOL    HW2 7665   4.280   3.374   5.917
 2256SOL     OW 7666   4.800   5.857   2.100
 2256SOL    HW1 7667   4.840   5.837   2.011
 2256SOL    HW2 7668   4.749   5.778   2.133
 2257SOL     OW 7669   0.127   2.712   4.197
 2257SOL    HW1 7670   0.219   2.673   4.192
 2257SOL    HW2 7671   0.064   2.656   4.145
 2258SOL     OW 7672   1.534   5.234   4.562
 2258SOL    HW1 7673   1.515   5.268   4.654
 2258SOL    HW2 7674   1.490   5.294   4.495
 2259SOL     OW 7675   5.241   3.640   6.300
 2259SOL    HW1 7676   5.189   3.709   6.350
 2259SOL    HW2 7677   5.204   3.549   6.321
 2260SOL     OW 7678   6.985   4.368   1.516
 2260SOL    HW1 7679   6.989   4.458   1.560
 2260SOL    HW2 7680   0.002   4.301   1.574
 2261SOL     OW 7681   5.944   5.448   6.957
 2261SOL    HW1 7682   6.012   5.375   6.945
 2261SOL    HW2 7683   5.866   5.430   6.897
 2262SOL     OW 7684   6.026   1.051   3.382
 2262SOL    HW1 7685   6.038   0.953   3.365
 2262SOL    HW2 7686   5.929   1.074   3.377
 2263SOL     OW 7687   3.098   6.234   6.547
 2263SOL    HW1 7688   2.999   6.240   6.533
 2263SOL    HW2 7689   3.142   6.209   6.461
 2264SOL     OW 7690   2.586   4.636   0.319
 2264SOL    HW1 7691   2.626   4.679   0.238
 2264SOL    HW2 7692   2.596   4.537   0.313
 2265SOL     OW 7693   1.154   0.725   4.183
 2265SOL    HW1 7694   1.244   0.687   4.161
 2265SOL    HW2 7695   1.163   0.823   4.201
 2266SOL     OW 7696   5.076   1.676   0.128
 2266SOL    HW1 7697   5.086   1.622   0.212
 2266SOL    HW2 7698   5.010   1.749   0.143
 2267SOL     OW 7699   4.883   2.322   4.949
 2267SOL    HW1 7700   4.808   2.317   4.884
 2267SOL    HW2 7701   4.970   2.327   4.900
 2268SOL     OW 7702   6.308   4.098   0.218
 2268SOL    HW1 7703   6.285   4.156   0.140
 2268SOL    HW2 7704   6.373   4.146   0.278
 2269SOL     OW 7705   6.496   4.885   5.642
 2269SOL    HW1 7706   6.557   4.882   5.722
 2269SOL    HW2 7707   6.403   4.861   5.671
 2270SOL     OW 7708   3.100   2.848   6.086
 2270SOL    HW1 7709   3.080   2.943   6.109
 2270SOL    HW2 7710   3.021   2.791   6.109
 2271SOL     OW 7711   5.259   4.004   0.396
 2271SOL    HW1 7712   5.294   3.933   0.458
 2271SOL    HW2 7713   5.280   4.094   0.433
 2272SOL     OW 7714   6.371   2.989   6.347
 2272SOL    HW1 7715   6.274   2.987   6.322
 2272SOL    HW2 7716   6.427   2.992   6.264
 2273SOL     OW 7717   1.555   1.862   2.196
 2273SOL    HW1 7718   1.463   1.854   2.234
 2273SOL    HW2 7719   1.623   1.836   2.264
 2274SOL     OW 7720   0.170   2.578   6.617
 2274SOL    HW1 7721   0.205   2.506   6.557
 2274SOL    HW2 7722   0.089   2.620   6.576
 2275SOL     OW 7723   6.989   0.173   4.033
 2275SOL    HW1 7724   6.907   0.135   3.991
 2275SOL    HW2 7725   6.964   0.222   4.116
 2276SOL     OW 7726   2.102   5.616   0.821
 2276SOL    HW1 7727   2.026   5.576   0.872
 2276SOL    HW2 7728   2.089   5.714   0.812
 2277SOL     OW 7729   3.720   3.649   4.214
 2277SOL    HW1 7730   3.674   3.567   4.181
 2277SOL    HW2 7731   3.662   3.729   4.196
 2278SOL     OW 7732   6.408   4.587   4.413
 2278SOL    HW1 7733   6.350   4.668   4.401
 2278SOL    HW2 7734   6.388   4.521   4.341
 2279SOL     OW 7735   5.798   6.948   5.626
 2279SOL    HW1 7736   5.744   6.953   5.541
 2279SOL    HW2 7737   5.737   6.961   5.704
 2280SOL     OW 7738   6.866   6.949   4.427
 2280SOL    HW1 7739   6.960   6.978   4.407
 2280SOL    HW2 7740   6.845   6.865   4.377
 2281SOL     OW 7741   3.329   1.480   2.422
 2281SOL    HW1 7742   3.393   1.438   2.486
 2281SOL    HW2 7743   3.358   1.462   2.328
 2282SOL     OW 7744   5.594   0.073   4.954
 2282SOL    HW1 7745   5.513   0.088   5.010
 2282SOL    HW2 7746   5.674   0.066   5.014
 2283SOL     OW 7747   0.616   5.111   1.316
 2283SOL    HW1 7748   0.640   5.185   1.253
 2283SOL    HW2 7749   0.697   5.055   1.334
 2284SOL     OW 7750   1.057   2.642   6.751
 2284SOL    HW1 7751   1.111   2.718   6.714
 2284SOL    HW2 7752   1.067   2.639   6.850
 2285SOL     OW 7753   2.070   2.291   1.189
 2285SOL    HW1 7754   2.104   2.357   1.255
 2285SOL    HW2 7755   1.986   2.326   1.147
 2286SOL     OW 7756   6.827   0.181   3.747
 2286SOL    HW1 7757   6.816   0.084   3.725
 2286SOL    HW2 7758   6.920   0.210   3.725
 2287SOL     OW 7759   2.113   0.751   3.144
 2287SOL    HW1 7760   2.068   0.791   3.063
 2287SOL    HW2 7761   2.160   0.667   3.118
 2288SOL     OW 7762   6.138   4.799   4.347
 2288SOL    HW1 7763   6.106   4.801   4.442
 2288SOL    HW2 7764   6.210   4.867   4.335
 2289SOL     OW 7765   0.955   4.959   2.010
 2289SOL    HW1 7766   0.863   4.926   2.031
 2289SOL    HW2 7767   1.002   4.983   2.095
 2290SOL     OW 7768   0.708   3.881   0.503
 2290SOL    HW1 7769   0.786   3.841   0.551
 2290SOL    HW2 7770   0.707   3.980   0.518
 2291SOL     OW 7771   2.853   2.567   5.744
 2291SOL    HW1 7772   2.753   2.572   5.744
 2291SOL    HW2 7773   2.891   2.659   5.753
 2292SOL     OW 7774   6.770   2.104   5.065
 2292SOL    HW1 7775   6.701   2.141   5.002
 2292SOL    HW2 7776   6.800   2.177   5.127
 2293SOL     OW 7777   4.488   6.255   1.722
 2293SOL    HW1 7778   4.586   6.243   1.731
 2293SOL    HW2 7779   4.464   6.270   1.625
 2294SOL     OW 7780   3.337   0.402   6.952
 2294SOL    HW1 7781   3.396   0.461   7.007
 2294SOL    HW2 7782   3.248   0.391   6.997
 2295SOL     OW 7783   0.810   2.106   2.799
 2295SOL    HW1 7784   0.804   2.011   2.768
 2295SOL    HW2 7785   0.748   2.163   2.745
 2296SOL     OW 7786   4.566   5.026   0.916
 2296SOL    HW1 7787   4.491   5.086   0.887
 2296SOL    HW2 7788   4.636   5.080   0.963
 2297SOL     OW 7789   3.968   4.629   5.730
 2297SOL    HW1 7790   3.914   4.658   5.651
 2297SOL    HW2 7791   4.042   4.570   5.699
 2298SOL     OW 7792   3.904   2.771   1.592
 2298SOL    HW1 7793   3.955   2.846   1.550
 2298SOL    HW2 7794   3.906   2.691   1.532
 2299SOL     OW 7795   4.113   5.831   5.251
 2299SOL    HW1 7796   4.048   5.851   5.178
 2299SOL    HW2 7797   4.100   5.895   5.326
 2300SOL     OW 7798   2.552   5.597   1.741
 2300SOL    HW1 7799   2.462   5.562   1.765
 2300SOL    HW2 7800   2.606   5.526   1.696
 2301SOL     OW 7801   3.301   2.938   3.055
 2301SOL    HW1 7802   3.240   3.015   3.074
 2301SOL    HW2 7803   3.247   2.860   3.022
 2302SOL     OW 7804   3.853   0.102   0.699
 2302SOL    HW1 7805   3.842   0.198   0.724
 2302SOL    HW2 7806   3.807   0.085   0.612
 2303SOL     OW 7807   2.753   2.991   6.377
 2303SOL    HW1 7808   2.817   2.985   6.453
 2303SOL    HW2 7809   2.661   2.965   6.409
 2304SOL     OW 7810   4.729   0.064   3.845
 2304SOL    HW1 7811   4.660   0.067   3.918
 2304SOL    HW2 7812   4.760   0.157   3.826
 2305SOL     OW 7813   2.426   6.643   3.158
 2305SOL    HW1 7814   2.455   6.555   3.121
 2305SOL    HW2 7815   2.399   6.704   3.083
 2306SOL     OW 7816   3.120   5.126   2.648
 2306SOL    HW1 7817   3.150   5.096   2.738
 2306SOL    HW2 7818   3.118   5.047   2.586
 2307SOL     OW 7819   6.587   3.763   2.512
 2307SOL    HW1 7820   6.627   3.730   2.426
 2307SOL    HW2 7821   6.647   3.737   2.588
 2308SOL     OW 7822   0.939   5.366   1.089
 2308SOL    HW1 7823   0.895   5.312   1.018
 2308SOL    HW2 7824   0.921   5.325   1.178
 2309SOL     OW 7825   1.431   0.731   6.576
 2309SOL    HW1 7826   1.342   0.767   6.601
 2309SOL    HW2 7827   1.424   0.683   6.488
 2310SOL     OW 7828   5.261   6.447   1.133
 2310SOL    HW1 7829   5.238   6.378   1.201
 2310SOL    HW2 7830   5.359   6.443   1.113
 2311SOL     OW 7831   2.355   6.042   2.152
 2311SOL    HW1 7832   2.395   6.018   2.241
 2311SOL    HW2 7833   2.264   6.080   2.166
 2312SOL     OW 7834   3.699   6.736   3.790
 2312SOL    HW1 7835   3.696   6.719   3.889
 2312SOL    HW2 7836   3.709   6.649   3.742
 2313SOL     OW 7837   5.459   5.693   1.518
 2313SOL    HW1 7838   5.442   5.686   1.616
 2313SOL    HW2 7839   5.393   5.636   1.469
 2314SOL     OW 7840   5.887   0.123   4.539
 2314SOL    HW1 7841   5.968   0.091   4.588
 2314SOL    HW2 7842   5.910   0.204   4.486
 2315SOL     OW 7843   4.946   3.242   5.333
 2315SOL    HW1 7844   5.043   3.246   5.309
 2315SOL    HW2 7845   4.930   3.165   5.395
 2316SOL     OW 7846   3.673   0.706   4.462
 2316SOL    HW1 7847   3.681   0.804   4.445
 2316SOL    HW2 7848   3.634   0.691   4.553
 2317SOL     OW 7849   0.362   6.019   3.587
 2317SOL    HW1 7850   0.372   6.069   3.500
 2317SOL    HW2 7851   0.390   6.078   3.663
 2318SOL     OW 7852   1.928   2.977   4.757
 2318SOL    HW1 7853   2.026   2.975   4.779
 2318SOL    HW2 7854   1.875   2.956   4.840
 2319SOL     OW 7855   2.122   4.928   4.422
 2319SOL    HW1 7856   2.174   4.866   4.363
 2319SOL    HW2 7857   2.165   4.931   4.513
 2320SOL     OW 7858   0.672   2.941   4.824
 2320SOL    HW1 7859   0.578   2.958   4.794
 2320SOL    HW2 7860   0.711   2.866   4.770
 2321SOL     OW 7861   2.319   6.561   0.001
 2321SOL    HW1 7862   2.379   6.488   0.035
 2321SOL    HW2 7863   2.363   6.649   0.015
 2322SOL     OW 7864   2.134   2.337   3.799
 2322SOL    HW1 7865   2.175   2.307   3.713
 2322SOL    HW2 7866   2.046   2.292   3.811
 2323SOL     OW 7867   3.154   5.159   1.959
 2323SOL    HW1 7868   3.242   5.123   1.988
 2323SOL    HW2 7869   3.095   5.084   1.928
 2324SOL     OW 7870   6.688   6.522   0.876
 2324SOL    HW1 7871   6.601   6.570   0.888
 2324SOL    HW2 7872   6.730   6.505   0.965
 2325SOL     OW 7873   0.602   4.732   1.211
 2325SOL    HW1 7874   0.592   4.807   1.276
 2325SOL    HW2 7875   0.521   4.674   1.213
 2326SOL     OW 7876   4.147   5.289   6.158
 2326SOL    HW1 7877   4.161   5.206   6.212
 2326SOL    HW2 7878   4.204   5.286   6.076
 2327SOL     OW 7879   6.963   2.349   3.667
 2327SOL    HW1 7880   6.874   2.396   3.674
 2327SOL    HW2 7881   6.956   2.274   3.602
 2328SOL     OW 7882   2.610   1.743   3.023
 2328SOL    HW1 7883   2.689   1.694   3.059
 2328SOL    HW2 7884   2.617   1.840   3.044
 2329SOL     OW 7885   2.041   4.320   4.809
 2329SOL    HW1 7886   2.087   4.261   4.742
 2329SOL    HW2 7887   2.085   4.310   4.898
 2330SOL     OW 7888   0.870   3.881   1.237
 2330SOL    HW1 7889   0.872   3.925   1.146
 2330SOL    HW2 7890   0.940   3.922   1.295
 2331SOL     OW 7891   4.152   5.382   6.825
 2331SOL    HW1 7892   4.073   5.329   6.857
 2331SOL    HW2 7893   4.232   5.359   6.880
 2332SOL     OW 7894   4.798   1.904   5.054
 2332SOL    HW1 7895   4.725   1.944   4.999
 2332SOL    HW2 7896   4.882   1.897   5.000
 2333SOL     OW 7897   0.541   4.851   2.881
 2333SOL    HW1 7898   0.489   4.794   2.817
 2333SOL    HW2 7899   0.514   4.947   2.870
 2334SOL     OW 7900   1.886   0.532   0.187
 2334SOL    HW1 7901   1.854   0.444   0.222
 2334SOL    HW2 7902   1.900   0.525   0.088
 2335SOL     OW 7903   6.580   0.476   2.934
 2335SOL    HW1 7904   6.652   0.407   2.921
 2335SOL    HW2 7905   6.582   0.542   2.859
 2336SOL     OW 7906   4.625   2.417   4.869
 2336SOL    HW1 7907   4.581   2.436   4.782
 2336SOL    HW2 7908   4.646   2.503   4.916
 2337SOL     OW 7909   4.721   1.355   1.977
 2337SOL    HW1 7910   4.672   1.405   1.906
 2337SOL    HW2 7911   4.816   1.339   1.948
 2338SOL     OW 7912   1.634   2.185   5.361
 2338SOL    HW1 7913   1.697   2.263   5.366
 2338SOL    HW2 7914   1.686   2.101   5.344
 2339SOL     OW 7915   3.656   3.906   4.803
 2339SOL    HW1 7916   3.738   3.929   4.856
 2339SOL    HW2 7917   3.658   3.954   4.716
 2340SOL     OW 7918   5.548   4.563   0.145
 2340SOL    HW1 7919   5.464   4.587   0.097
 2340SOL    HW2 7920   5.587   4.480   0.106
 2341SOL     OW 7921   4.487   4.959   1.286
 2341SOL    HW1 7922   4.586   4.968   1.273
 2341SOL    HW2 7923   4.441   4.965   1.197
 2342SOL     OW 7924   0.396   6.888   5.570
 2342SOL    HW1 7925   0.455   6.849   5.641
 2342SOL    HW2 7926   0.405   6.987   5.569
 2343SOL     OW 7927   2.640   5.586   2.446
 2343SOL    HW1 7928   2.617   5.631   2.532
 2343SOL    HW2 7929   2.645   5.655   2.373
 2344SOL     OW 7930   1.946   6.851   0.453
 2344SOL    HW1 7931   2.030   6.876   0.501
 2344SOL    HW2 7932   1.941   6.751   0.444
 2345SOL     OW 7933   3.032   4.920   4.665
 2345SOL    HW1 7934   2.965   4.893   4.595
 2345SOL    HW2 7935   2.995   4.997   4.717
 2346SOL     OW 7936   4.615   2.877   5.113
 2346SOL    HW1 7937   4.672   2.938   5.058
 2346SOL    HW2 7938   4.598   2.918   5.202
 2347SOL     OW 7939   2.598   3.340   1.753
 2347SOL    HW1 7940   2.684   3.387   1.733
 2347SOL    HW2 7941   2.537   3.402   1.803
 2348SOL     OW 7942   3.458   6.717   3.644
 2348SOL    HW1 7943   3.490   6.730   3.737
 2348SOL    HW2 7944   3.379   6.776   3.627
 2349SOL     OW 7945   1.145   4.630   6.240
 2349SOL    HW1 7946   1.238   4.639   6.204
 2349SOL    HW2 7947   1.082   4.686   6.186
 2350SOL     OW 7948   4.524   6.453   6.307
 2350SOL    HW1 7949   4.603   6.511   6.331
 2350SOL    HW2 7950   4.442   6.489   6.352
 2351SOL     OW 7951   3.080   4.910   3.307
 2351SOL    HW1 7952   3.066   4.869   3.398
 2351SOL    HW2 7953   3.178   4.918   3.289
 2352SOL     OW 7954   0.396   4.896   1.655
 2352SOL    HW1 7955   0.353   4.923   1.740
 2352SOL    HW2 7956   0.404   4.975   1.595
 2353SOL     OW 7957   3.318   4.453   5.311
 2353SOL    HW1 7958   3.234   4.403   5.288
 2353SOL    HW2 7959   3.308   4.549   5.284
 2354SOL     OW 7960   2.307   1.139   5.969
 2354SOL    HW1 7961   2.349   1.102   5.886
 2354SOL    HW2 7962   2.247   1.216   5.945
 2355SOL     OW 7963   1.730   5.991   0.277
 2355SOL    HW1 7964   1.757   5.929   0.203
 2355SOL    HW2 7965   1.801   5.992   0.347
 2356SOL     OW 7966   1.760   4.003   0.193
 2356SOL    HW1 7967   1.661   3.998   0.211
 2356SOL    HW2 7968   1.807   3.935   0.249
 2357SOL     OW 7969   4.482   6.119   3.974
 2357SOL    HW1 7970   4.406   6.075   3.926
 2357SOL    HW2 7971   4.565   6.113   3.918
 2358SOL     OW 7972   3.911   5.121   5.297
 2358SOL    HW1 7973   3.997   5.100   5.250
 2358SOL    HW2 7974   3.847   5.045   5.286
 2359SOL     OW 7975   0.207   0.660   6.239
 2359SOL    HW1 7976   0.279   0.696   6.299
 2359SOL    HW2 7977   0.118   0.677   6.282
 2360SOL     OW 7978   5.730   5.153   6.640
 2360SOL    HW1 7979   5.747   5.064   6.596
 2360SOL    HW2 7980   5.635   5.157   6.669
 2361SOL     OW 7981   2.420   1.292   4.888
 2361SOL    HW1 7982   2.479   1.359   4.842
 2361SOL    HW2 7983   2.447   1.283   4.984
 2362SOL     OW 7984   2.322   0.559   5.345
 2362SOL    HW1 7985   2.369   0.471   5.360
 2362SOL    HW2 7986   2.387   0.633   5.361
 2363SOL     OW 7987   4.331   2.249   5.307
 2363SOL    HW1 7988   4.371   2.158   5.304
 2363SOL    HW2 7989   4.255   2.250   5.373
 2364SOL     OW 7990   0.698   1.904   2.470
 2364SOL    HW1 7991   0.718   1.995   2.433
 2364SOL    HW2 7992   0.783   1.854   2.484
 2365SOL     OW 7993   5.998   2.817   6.539
 2365SOL    HW1 7994   5.916   2.761   6.526
 2365SOL    HW2 7995   6.063   2.798   6.466
 2366SOL     OW 7996   1.618   4.489   6.258
 2366SOL    HW1 7997   1.605   4.510   6.161
 2366SOL    HW2 7998   1.641   4.392   6.268
 2367SOL     OW 7999   3.233   4.354   0.733
 2367SOL    HW1 8000   3.265   4.347   0.639
 2367SOL    HW2 8001   3.242   4.265   0.778
 2368SOL     OW 8002   5.021   6.977   2.729
 2368SOL    HW1 8003   5.008   6.896   2.785
 2368SOL    HW2 8004   5.116   7.007   2.735
 2369SOL     OW 8005   1.290   2.858   5.664
 2369SOL    HW1 8006   1.195   2.828   5.658
 2369SOL    HW2 8007   1.322   2.888   5.574
 2370SOL     OW 8008   4.724   4.144   6.552
 2370SOL    HW1 8009   4.793   4.193   6.499
 2370SOL    HW2 8010   4.639   4.195   6.552
 2371SOL     OW 8011   0.540   6.539   2.153
 2371SOL    HW1 8012   0.484   6.606   2.203
 2371SOL    HW2 8013   0.489   6.454   2.143
 2372SOL     OW 8014   6.526   2.122   1.207
 2372SOL    HW1 8015   6.595   2.137   1.278
 2372SOL    HW2 8016   6.567   2.073   1.131
 2373SOL     OW 8017   0.250   0.444   0.173
 2373SOL    HW1 8018   0.291   0.362   0.133
 2373SOL    HW2 8019   0.220   0.506   0.100
 2374SOL     OW 8020   6.282   0.971   3.862
 2374SOL    HW1 8021   6.372   0.994   3.898
 2374SOL    HW2 8022   6.285   0.972   3.762
 2375SOL     OW 8023   2.369   0.193   4.069
 2375SOL    HW1 8024   2.375   0.236   4.159
 2375SOL    HW2 8025   2.330   0.101   4.078
 2376SOL     OW 8026   6.307   2.671   4.718
 2376SOL    HW1 8027   6.372   2.674   4.794
 2376SOL    HW2 8028   6.329   2.742   4.652
 2377SOL     OW 8029   3.364   4.135   2.979
 2377SOL    HW1 8030   3.272   4.095   2.985
 2377SOL    HW2 8031   3.400   4.123   2.887
 2378SOL     OW 8032   4.950   2.803   0.314
 2378SOL    HW1 8033   4.871   2.743   0.327
 2378SOL    HW2 8034   4.928   2.873   0.246
 2379SOL     OW 8035   5.951   2.473   6.390
 2379SOL    HW1 8036   5.894   2.542   6.433
 2379SOL    HW2 8037   6.044   2.477   6.427
 2380SOL     OW 8038   0.344   0.120   6.057
 2380SOL    HW1 8039   0.369   0.142   5.963
 2380SOL    HW2 8040   0.254   0.076   6.058
 2381SOL     OW 8041   2.156   3.667   4.378
 2381SOL    HW1 8042   2.224   3.651   4.449
 2381SOL    HW2 8043   2.183   3.745   4.322
 2382SOL     OW 8044   2.213   4.731   3.583
 2382SOL    HW1 8045   2.147   4.677   3.530
 2382SOL    HW2 8046   2.304   4.692   3.573
 2383SOL     OW 8047   5.911   6.559   0.840
 2383SOL    HW1 8048   5.946   6.628   0.777
 2383SOL    HW2 8049   5.841   6.504   0.794
 2384SOL     OW 8050   6.568   6.337   1.978
 2384SOL    HW1 8051   6.651   6.359   2.029
 2384SOL    HW2 8052   6.519   6.422   1.957
 2385SOL     OW 8053   6.805   6.556   1.114
 2385SOL    HW1 8054   6.902   6.529   1.118
 2385SOL    HW2 8055   6.769   6.564   1.207
 2386SOL     OW 8056   5.036   5.871   4.293
 2386SOL    HW1 8057   5.057   5.892   4.388
 2386SOL    HW2 8058   4.968   5.935   4.259
 2387SOL     OW 8059   1.014   1.532   3.980
 2387SOL    HW1 8060   0.965   1.616   3.955
 2387SOL    HW2 8061   1.107   1.556   4.010
 2388SOL     OW 8062   1.769   1.889   3.238
 2388SOL    HW1 8063   1.864   1.884   3.271
 2388SOL    HW2 8064   1.759   1.834   3.156
 2389SOL     OW 8065   5.466   3.264   3.288
 2389SOL    HW1 8066   5.378   3.237   3.328
 2389SOL    HW2 8067   5.457   3.269   3.189
 2390SOL     OW 8068   3.719   3.549   3.238
 2390SOL    HW1 8069   3.641   3.542   3.300
 2390SOL    HW2 8070   3.776   3.626   3.265
 2391SOL     OW 8071   5.187   5.231   5.683
 2391SOL    HW1 8072   5.214   5.139   5.713
 2391SOL    HW2 8073   5.109   5.263   5.737
 2392SOL     OW 8074   3.404   0.218   5.343
 2392SOL    HW1 8075   3.406   0.146   5.413
 2392SOL    HW2 8076   3.496   0.233   5.308
 2393SOL     OW 8077   4.346   4.753   6.054
 2393SOL    HW1 8078   4.336   4.776   6.151
 2393SOL    HW2 8079   4.256   4.751   6.012
 2394SOL     OW 8080   1.978   3.525   4.713
 2394SOL    HW1 8081   1.944   3.615   4.743
 2394SOL    HW2 8082   1.908   3.456   4.729
 2395SOL     OW 8083   6.204   2.501   6.515
 2395SOL    HW1 8084   6.285   2.541   6.472
 2395SOL    HW2 8085   6.190   2.544   6.605
 2396SOL     OW 8086   3.944   5.350   1.407
 2396SOL    HW1 8087   3.908   5.443   1.416
 2396SOL    HW2 8088   3.873   5.284   1.431
 2397SOL     OW 8089   0.401   4.178   6.891
 2397SOL    HW1 8090   0.412   4.079   6.881
 2397SOL    HW2 8091   0.303   4.200   6.896
 2398SOL     OW 8092   3.051   3.847   6.387
 2398SOL    HW1 8093   3.106   3.853   6.471
 2398SOL    HW2 8094   3.064   3.930   6.333
 2399SOL     OW 8095   4.801   1.157   2.226
 2399SOL    HW1 8096   4.747   1.185   2.306
 2399SOL    HW2 8097   4.765   1.201   2.144
 2400SOL     OW 8098   3.735   5.349   0.481
 2400SOL    HW1 8099   3.708   5.438   0.518
 2400SOL    HW2 8100   3.714   5.277   0.547
 2401SOL     OW 8101   4.457   6.872   6.344
 2401SOL    HW1 8102   4.431   6.828   6.430
 2401SOL    HW2 8103   4.375   6.886   6.288
 2402SOL     OW 8104   0.727   1.066   4.428
 2402SOL    HW1 8105   0.669   1.134   4.382
 2402SOL    HW2 8106   0.748   0.991   4.364
 2403SOL     OW 8107   2.372   2.469   0.643
 2403SOL    HW1 8108   2.445   2.534   0.661
 2403SOL    HW2 8109   2.320   2.452   0.727
 2404SOL     OW 8110   5.449   0.385   1.225
 2404SOL    HW1 8111   5.432   0.481   1.245
 2404SOL    HW2 8112   5.364   0.333   1.236
 2405SOL     OW 8113   3.620   3.437   2.980
 2405SOL    HW1 8114   3.668   3.354   2.952
 2405SOL    HW2 8115   3.655   3.468   3.069
 2406SOL     OW 8116   2.211   0.479   3.133
 2406SOL    HW1 8117   2.163   0.396   3.161
 2406SOL    HW2 8118   2.300   0.483   3.179
 2407SOL     OW 8119   5.659   2.706   3.053
 2407SOL    HW1 8120   5.629   2.669   2.966
 2407SOL    HW2 8121   5.717   2.639   3.100
 2408SOL     OW 8122   4.131   4.791   3.658
 2408SOL    HW1 8123   4.155   4.802   3.754
 2408SOL    HW2 8124   4.059   4.856   3.633
 2409SOL     OW 8125   1.257   3.355   1.666
 2409SOL    HW1 8126   1.237   3.270   1.617
 2409SOL    HW2 8127   1.307   3.418   1.606
 2410SOL     OW 8128   4.791   2.617   6.591
 2410SOL    HW1 8129   4.767   2.656   6.501
 2410SOL    HW2 8130   4.889   2.630   6.607
 2411SOL     OW 8131   4.683   5.256   5.677
 2411SOL    HW1 8132   4.738   5.338   5.693
 2411SOL    HW2 8133   4.658   5.251   5.580
 2412SOL     OW 8134   4.040   4.790   0.789
 2412SOL    HW1 8135   4.044   4.692   0.766
 2412SOL    HW2 8136   4.128   4.819   0.826
 2413SOL     OW 8137   6.441   2.201   0.542
 2413SOL    HW1 8138   6.539   2.215   0.541
 2413SOL    HW2 8139   6.419   2.110   0.507
 2414SOL     OW 8140   5.035   3.968   2.126
 2414SOL    HW1 8141   4.960   3.916   2.167
 2414SOL    HW2 8142   5.122   3.940   2.167
 2415SOL     OW 8143   0.706   0.093   2.311
 2415SOL    HW1 8144   0.651   0.018   2.274
 2415SOL    HW2 8145   0.798   0.089   2.274
 2416SOL     OW 8146   3.356   2.156   4.807
 2416SOL    HW1 8147   3.423   2.123   4.873
 2416SOL    HW2 8148   3.280   2.199   4.855
 2417SOL     OW 8149   4.111   3.206   5.583
 2417SOL    HW1 8150   4.083   3.130   5.524
 2417SOL    HW2 8151   4.147   3.280   5.526
 2418SOL     OW 8152   3.556   4.160   3.942
 2418SOL    HW1 8153   3.472   4.197   3.982
 2418SOL    HW2 8154   3.542   4.144   3.844
 2419SOL     OW 8155   1.051   6.131   4.115
 2419SOL    HW1 8156   0.982   6.081   4.063
 2419SOL    HW2 8157   1.141   6.116   4.074
 2420SOL     OW 8158   3.882   1.990   1.205
 2420SOL    HW1 8159   3.893   1.916   1.138
 2420SOL    HW2 8160   3.791   1.986   1.245
 2421SOL     OW 8161   2.506   1.285   5.391
 2421SOL    HW1 8162   2.560   1.234   5.458
 2421SOL    HW2 8163   2.567   1.324   5.322
 2422SOL     OW 8164   6.136   7.011   1.860
 2422SOL    HW1 8165   6.216   7.021   1.801
 2422SOL    HW2 8166   6.053   7.017   1.805
 2423SOL     OW 8167   1.557   6.481   3.529
 2423SOL    HW1 8168   1.578   6.568   3.573
 2423SOL    HW2 8169   1.589   6.406   3.586
 2424SOL     OW 8170   6.209   6.166   5.933
 2424SOL    HW1 8171   6.243   6.125   6.017
 2424SOL    HW2 8172   6.160   6.251   5.954
 2425SOL     OW 8173   6.616   0.405   4.132
 2425SOL    HW1 8174   6.655   0.392   4.224
 2425SOL    HW2 8175   6.602   0.316   4.089
 2426SOL     OW 8176   1.260   5.427   5.066
 2426SOL    HW1 8177   1.352   5.388   5.067
 2426SOL    HW2 8178   1.194   5.357   5.040
 2427SOL     OW 8179   5.439   5.627   6.299
 2427SOL    HW1 8180   5.497   5.559   6.253
 2427SOL    HW2 8181   5.344   5.613   6.272
 2428SOL     OW 8182   6.675   0.338   3.372
 2428SOL    HW1 8183   6.750   0.339   3.438
 2428SOL    HW2 8184   6.650   0.432   3.347
 2429SOL     OW 8185   6.070   5.504   4.235
 2429SOL    HW1 8186   5.986   5.484   4.286
 2429SOL    HW2 8187   6.142   5.440   4.262
 2430SOL     OW 8188   6.228   1.448   0.838
 2430SOL    HW1 8189   6.298   1.464   0.907
 2430SOL    HW2 8190   6.222   1.350   0.819
 2431SOL     OW 8191   3.853   0.262   2.165
 2431SOL    HW1 8192   3.936   0.317   2.165
 2431SOL    HW2 8193   3.773   0.322   2.164
 2432SOL     OW 8194   3.399   6.898   2.983
 2432SOL    HW1 8195   3.475   6.945   2.939
 2432SOL    HW2 8196   3.349   6.844   2.916
 2433SOL     OW 8197   3.279   6.936   1.164
 2433SOL    HW1 8198   3.301   6.838   1.171
 2433SOL    HW2 8199   3.230   6.965   1.246
 2434SOL     OW 8200   4.574   1.073   4.351
 2434SOL    HW1 8201   4.482   1.039   4.369
 2434SOL    HW2 8202   4.613   1.111   4.435
 2435SOL     OW 8203   4.285   5.102   5.845
 2435SOL    HW1 8204   4.191   5.074   5.825
 2435SOL    HW2 8205   4.284   5.169   5.919
 2436SOL     OW 8206   1.952   6.588   1.626
 2436SOL    HW1 8207   1.998   6.548   1.547
 2436SOL    HW2 8208   1.865   6.628   1.598
 2437SOL     OW 8209   3.889   6.138   0.749
 2437SOL    HW1 8210   3.797   6.110   0.777
 2437SOL    HW2 8211   3.950   6.059   0.752
 2438SOL     OW 8212   3.670   1.853   5.938
 2438SOL    HW1 8213   3.686   1.785   5.867
 2438SOL    HW2 8214   3.661   1.943   5.896
 2439SOL     OW 8215   0.807   3.967   6.992
 2439SOL    HW1 8216   0.799   3.874   6.956
 2439SOL    HW2 8217   0.752   4.029   6.937
 2440SOL     OW 8218   5.133   6.215   5.128
 2440SOL    HW1 8219   5.169   6.259   5.046
 2440SOL    HW2 8220   5.141   6.277   5.206
 2441SOL     OW 8221   6.746   0.277   6.926
 2441SOL    HW1 8222   6.749   0.323   7.015
 2441SOL    HW2 8223   6.667   0.310   6.875
 2442SOL     OW 8224   6.690   5.170   4.658
 2442SOL    HW1 8225   6.790   5.164   4.649
 2442SOL    HW2 8226   6.659   5.260   4.628
 2443SOL     OW 8227   3.667   6.672   5.234
 2443SOL    HW1 8228   3.696   6.660   5.139
 2443SOL    HW2 8229   3.747   6.689   5.292
 2444SOL     OW 8230   3.303   4.731   5.859
 2444SOL    HW1 8231   3.346   4.816   5.828
 2444SOL    HW2 8232   3.372   4.658   5.861
 2445SOL     OW 8233   0.479   0.514   1.655
 2445SOL    HW1 8234   0.569   0.558   1.647
 2445SOL    HW2 8235   0.462   0.459   1.573
 2446SOL     OW 8236   0.380   3.904   3.829
 2446SOL    HW1 8237   0.282   3.923   3.842
 2446SOL    HW2 8238   0.432   3.954   3.898
 2447SOL     OW 8239   2.936   1.851   0.559
 2447SOL    HW1 8240   2.892   1.886   0.476
 2447SOL    HW2 8241   2.983   1.766   0.539
 2448SOL     OW 8242   0.577   0.650   5.499
 2448SOL    HW1 8243   0.501   0.700   5.539
 2448SOL    HW2 8244   0.663   0.695   5.522
 2449SOL     OW 8245   0.103   4.781   1.519
 2449SOL    HW1 8246   0.156   4.865   1.527
 2449SOL    HW2 8247   0.164   4.702   1.521
 2450SOL     OW 8248   2.697   4.867   4.814
 2450SOL    HW1 8249   2.700   4.940   4.883
 2450SOL    HW2 8250   2.636   4.795   4.845
 2451SOL     OW 8251   0.638   0.199   3.495
 2451SOL    HW1 8252   0.610   0.295   3.483
 2451SOL    HW2 8253   0.557   0.141   3.493
 2452SOL     OW 8254   2.273   2.528   2.929
 2452SOL    HW1 8255   2.240   2.611   2.974
 2452SOL    HW2 8256   2.373   2.528   2.928
 2453SOL     OW 8257   6.311   3.703   1.221
 2453SOL    HW1 8258   6.343   3.766   1.150
 2453SOL    HW2 8259   6.222   3.734   1.255
 2454SOL     OW 8260   3.516   1.124   0.408
 2454SOL    HW1 8261   3.613   1.133   0.433
 2454SOL    HW2 8262   3.509   1.097   0.312
 2455SOL     OW 8263   5.528   6.828   0.659
 2455SOL    HW1 8264   5.467   6.789   0.729
 2455SOL    HW2 8265   5.580   6.754   0.615
 2456SOL     OW 8266   6.129   0.236   0.644
 2456SOL    HW1 8267   6.221   0.199   0.659
 2456SOL    HW2 8268   6.129   0.333   0.666
 2457SOL     OW 8269   6.959   6.242   0.314
 2457SOL    HW1 8270   7.000   6.155   0.343
 2457SOL    HW2 8271   0.001   6.310   0.301
 2458SOL     OW 8272   2.970   5.735   3.957
 2458SOL    HW1 8273   2.931   5.652   3.917
 2458SOL    HW2 8274   2.972   5.727   4.057
 2459SOL     OW 8275   2.599   6.751   0.513
 2459SOL    HW1 8276   2.667   6.750   0.587
 2459SOL    HW2 8277   2.537   6.829   0.525
 2460SOL     OW 8278   2.021   0.475   1.177
 2460SOL    HW1 8279   2.021   0.556   1.236
 2460SOL    HW2 8280   2.057   0.397   1.228
 2461SOL     OW 8281   5.018   0.670   2.870
 2461SOL    HW1 8282   5.061   0.645   2.783
 2461SOL    HW2 8283   4.922   0.695   2.853
 2462SOL     OW 8284   2.352   5.698   0.258
 2462SOL    HW1 8285   2.312   5.693   0.166
 2462SOL    HW2 8286   2.284   5.671   0.326
 2463SOL     OW 8287   5.965   2.395   4.222
 2463SOL    HW1 8288   6.003   2.302   4.219
 2463SOL    HW2 8289   6.037   2.460   4.246
 2464SOL     OW 8290   1.497   4.331   1.700
 2464SOL    HW1 8291   1.586   4.339   1.654
 2464SOL    HW2 8292   1.504   4.370   1.792
 2465SOL     OW 8293   6.621   5.813   0.925
 2465SOL    HW1 8294   6.586   5.752   0.855
 2465SOL    HW2 8295   6.546   5.866   0.965
 2466SOL     OW 8296   3.126   1.124   1.627
 2466SOL    HW1 8297   3.058   1.051   1.641
 2466SOL    HW2 8298   3.205   1.107   1.686
 2467SOL     OW 8299   5.529   1.833   5.726
 2467SOL    HW1 8300   5.601   1.889   5.687
 2467SOL    HW2 8301   5.454   1.825   5.660
 2468SOL     OW 8302   6.234   6.357   1.989
 2468SOL    HW1 8303   6.137   6.347   1.969
 2468SOL    HW2 8304   6.267   6.275   2.035
 2469SOL     OW 8305   3.549   4.950   5.167
 2469SOL    HW1 8306   3.466   5.004   5.185
 2469SOL    HW2 8307   3.585   4.973   5.076
 2470SOL     OW 8308   2.918   4.545   6.410
 2470SOL    HW1 8309   2.990   4.612   6.426
 2470SOL    HW2 8310   2.829   4.591   6.410
 2471SOL     OW 8311   2.002   6.124   1.925
 2471SOL    HW1 8312   1.979   6.181   1.847
 2471SOL    HW2 8313   1.983   6.028   1.902
 2472SOL     OW 8314   5.738   1.343   4.452
 2472SOL    HW1 8315   5.754   1.430   4.498
 2472SOL    HW2 8316   5.810   1.326   4.384
 2473SOL     OW 8317   1.697   4.156   5.297
 2473SOL    HW1 8318   1.711   4.058   5.283
 2473SOL    HW2 8319   1.777   4.195   5.343
 2474SOL     OW 8320   0.506   5.651   0.303
 2474SOL    HW1 8321   0.518   5.556   0.332
 2474SOL    HW2 8322   0.411   5.665   0.274
 2475SOL     OW 8323   4.462   1.415   1.056
 2475SOL    HW1 8324   4.550   1.368   1.046
 2475SOL    HW2 8325   4.394   1.351   1.092
 2476SOL     OW 8326   0.579   2.684   3.306
 2476SOL    HW1 8327   0.527   2.762   3.340
 2476SOL    HW2 8328   0.521   2.629   3.246
 2477SOL     OW 8329   6.331   0.327   2.127
 2477SOL    HW1 8330   6.314   0.297   2.220
 2477SOL    HW2 8331   6.398   0.267   2.084
 2478SOL     OW 8332   5.529   6.729   2.172
 2478SOL    HW1 8333   5.619   6.686   2.175
 2478SOL    HW2 8334   5.504   6.760   2.264
 2479SOL     OW 8335   0.789   3.617   1.640
 2479SOL    HW1 8336   0.789   3.661   1.730
 2479SOL    HW2 8337   0.698   3.581   1.621
 2480SOL     OW 8338   6.023   3.738   0.905
 2480SOL    HW1 8339   6.000   3.786   0.821
 2480SOL    HW2 8340   6.053   3.645   0.884
 2481SOL     OW 8341   3.292   6.798   0.616
 2481SOL    HW1 8342   3.315   6.809   0.712
 2481SOL    HW2 8343   3.282   6.701   0.594
 2482SOL     OW 8344   4.872   3.040   5.495
 2482SOL    HW1 8345   4.865   3.107   5.569
 2482SOL    HW2 8346   4.854   2.948   5.532
 2483SOL     OW 8347   2.584   1.644   0.138
 2483SOL    HW1 8348   2.565   1.706   0.214
 2483SOL    HW2 8349   2.682   1.643   0.121
 2484SOL     OW 8350   2.007   0.934   0.280
 2484SOL    HW1 8351   2.048   0.960   0.193
 2484SOL    HW2 8352   1.937   0.865   0.265
 2485SOL     OW 8353   4.444   5.121   1.986
 2485SOL    HW1 8354   4.428   5.179   1.906
 2485SOL    HW2 8355   4.429   5.174   2.069
 2486SOL     OW 8356   2.948   6.012   3.078
 2486SOL    HW1 8357   2.871   5.948   3.089
 2486SOL    HW2 8358   2.981   6.009   2.984
 2487SOL     OW 8359   3.870   5.534   6.864
 2487SOL    HW1 8360   3.919   5.489   6.939
 2487SOL    HW2 8361   3.805   5.600   6.901
 2488SOL     OW 8362   2.096   4.154   1.886
 2488SOL    HW1 8363   2.133   4.066   1.916
 2488SOL    HW2 8364   2.107   4.221   1.959
 2489SOL     OW 8365   2.448   4.792   4.033
 2489SOL    HW1 8366   2.526   4.840   4.072
 2489SOL    HW2 8367   2.425   4.831   3.944
 2490SOL     OW 8368   6.244   5.384   0.887
 2490SOL    HW1 8369   6.295   5.337   0.960
 2490SOL    HW2 8370   6.243   5.482   0.905
 2491SOL     OW 8371   2.314   5.475   3.147
 2491SOL    HW1 8372   2.228   5.512   3.180
 2491SOL    HW2 8373   2.377   5.550   3.126
 2492SOL     OW 8374   3.865   3.086   6.520
 2492SOL    HW1 8375   3.783   3.034   6.543
 2492SOL    HW2 8376   3.922   3.097   6.602
 2493SOL     OW 8377   5.951   0.151   3.229
 2493SOL    HW1 8378   6.046   0.143   3.200
 2493SOL    HW2 8379   5.921   0.064   3.269
 2494SOL     OW 8380   5.156   3.357   2.330
 2494SOL    HW1 8381   5.164   3.270   2.379
 2494SOL    HW2 8382   5.069   3.360   2.282
 2495SOL     OW 8383   4.955   0.350   5.348
 2495SOL    HW1 8384   4.907   0.403   5.419
 2495SOL    HW2 8385   4.986   0.411   5.275
 2496SOL     OW 8386   0.600   5.396   0.055
 2496SOL    HW1 8387   0.630   5.467   7.021
 2496SOL    HW2 8388   0.603   5.431   0.148
 2497SOL     OW 8389   0.201   1.851   6.961
 2497SOL    HW1 8390   0.127   1.916   6.946
 2497SOL    HW2 8391   0.198   1.819   0.026
 2498SOL     OW 8392   2.587   2.239   3.589
 2498SOL    HW1 8393   2.577   2.335   3.613
 2498SOL    HW2 8394   2.529   2.218   3.510
 2499SOL     OW 8395   5.703   1.119   4.627
 2499SOL    HW1 8396   5.646   1.048   4.587
 2499SOL    HW2 8397   5.741   1.176   4.554
 2500SOL     OW 8398   4.733   3.607   5.478
 2500SOL    HW1 8399   4.708   3.688   5.426
 2500SOL    HW2 8400   4.686   3.527   5.440
 2501SOL     OW 8401   6.251   4.982   6.853
 2501SOL    HW1 8402   6.308   5.019   6.927
 2501SOL    HW2 8403   6.308   4.929   6.790
 2502SOL     OW 8404   2.828   6.334   3.588
 2502SOL    HW1 8405   2.739   6.372   3.612
 2502SOL    HW2 8406   2.859   6.273   3.661
 2503SOL     OW 8407   3.708   5.720   5.804
 2503SOL    HW1 8408   3.768   5.769   5.741
 2503SOL    HW2 8409   3.709   5.766   5.893
 2504SOL     OW 8410   2.441   5.399   4.982
 2504SOL    HW1 8411   2.365   5.463   4.976
 2504SOL    HW2 8412   2.413   5.310   4.946
 2505SOL     OW 8413   3.070   6.145   4.620
 2505SOL    HW1 8414   3.056   6.046   4.616
 2505SOL    HW2 8415   3.107   6.169   4.710
 2506SOL     OW 8416   0.397   3.474   6.048
 2506SOL    HW1 8417   0.448   3.390   6.068
 2506SOL    HW2 8418   0.308   3.472   6.094
 2507SOL     OW 8419   6.049   5.193   6.912
 2507SOL    HW1 8420   6.101   5.129   6.857
 2507SOL    HW2 8421   6.046   5.162   7.007
 2508SOL     OW 8422   2.801   1.666   1.778
 2508SOL    HW1 8423   2.803   1.660   1.878
 2508SOL    HW2 8424   2.890   1.699   1.745
 2509SOL     OW 8425   5.631   2.306   2.449
 2509SOL    HW1 8426   5.607   2.342   2.359
 2509SOL    HW2 8427   5.647   2.207   2.443
 2510SOL     OW 8428   2.797   4.343   0.714
 2510SOL    HW1 8429   2.761   4.281   0.644
 2510SOL    HW2 8430   2.813   4.433   0.673
 2511SOL     OW 8431   1.355   1.534   4.769
 2511SOL    HW1 8432   1.329   1.528   4.673
 2511SOL    HW2 8433   1.401   1.449   4.797
 2512SOL     OW 8434   5.738   4.234   4.891
 2512SOL    HW1 8435   5.757   4.257   4.796
 2512SOL    HW2 8436   5.817   4.257   4.947
 2513SOL     OW 8437   1.215   2.340   6.071
 2513SOL    HW1 8438   1.205   2.439   6.070
 2513SOL    HW2 8439   1.219   2.306   5.977
 2514SOL     OW 8440   0.355   2.930   3.809
 2514SOL    HW1 8441   0.332   2.928   3.712
 2514SOL    HW2 8442   0.358   2.837   3.845
 2515SOL     OW 8443   1.215   6.307   1.219
 2515SOL    HW1 8444   1.262   6.219   1.220
 2515SOL    HW2 8445   1.164   6.317   1.134
 2516SOL     OW 8446   6.138   5.404   3.070
 2516SOL    HW1 8447   6.157   5.354   3.154
 2516SOL    HW2 8448   6.216   5.399   3.008
 2517SOL     OW 8449   2.288   5.707   6.409
 2517SOL    HW1 8450   2.316   5.801   6.390
 2517SOL    HW2 8451   2.190   5.697   6.391
 2518SOL     OW 8452   2.109   3.290   6.987
 2518SOL    HW1 8453   2.023   3.254   7.024
 2518SOL    HW2 8454   2.180   3.220   6.993
 2519SOL     OW 8455   4.739   4.735   4.281
 2519SOL    HW1 8456   4.801   4.659   4.262
 2519SOL    HW2 8457   4.772   4.817   4.236
 2520SOL     OW 8458   1.495   2.503   1.021
 2520SOL    HW1 8459   1.458   2.420   1.063
 2520SOL    HW2 8460   1.587   2.520   1.057
 2521SOL     OW 8461   1.019   6.965   5.679
 2521SOL    HW1 8462   1.055   6.883   5.723
 2521SOL    HW2 8463   1.084   6.998   5.611
 2522SOL     OW 8464   0.844   3.135   4.880
 2522SOL    HW1 8465   0.835   3.221   4.830
 2522SOL    HW2 8466   0.762   3.080   4.867
 2523SOL     OW 8467   6.621   2.936   0.653
 2523SOL    HW1 8468   6.663   2.851   0.685
 2523SOL    HW2 8469   6.622   3.004   0.727
 2524SOL     OW 8470   0.264   6.259   4.846
 2524SOL    HW1 8471   0.189   6.204   4.808
 2524SOL    HW2 8472   0.351   6.227   4.809
 2525SOL     OW 8473   1.760   3.458   4.047
 2525SOL    HW1 8474   1.774   3.432   4.143
 2525SOL    HW2 8475   1.755   3.376   3.990
 2526SOL     OW 8476   0.341   3.266   5.366
 2526SOL    HW1 8477   0.435   3.264   5.402
 2526SOL    HW2 8478   0.302   3.357   5.382
 2527SOL     OW 8479   6.231   0.126   5.293
 2527SOL    HW1 8480   6.234   0.035   5.251
 2527SOL    HW2 8481   6.179   0.121   5.379
 2528SOL     OW 8482   5.845   4.820   1.344
 2528SOL    HW1 8483   5.827   4.722   1.355
 2528SOL    HW2 8484   5.804   4.852   1.259
 2529SOL     OW 8485   5.623   4.827   5.856
 2529SOL    HW1 8486   5.548   4.875   5.810
 2529SOL    HW2 8487   5.586   4.761   5.921
 2530SOL     OW 8488   1.286   6.443   4.560
 2530SOL    HW1 8489   1.325   6.497   4.485
 2530SOL    HW2 8490   1.206   6.489   4.597
 2531SOL     OW 8491   5.712   6.676   4.678
 2531SOL    HW1 8492   5.627   6.668   4.627
 2531SOL    HW2 8493   5.743   6.584   4.705
 2532SOL     OW 8494   0.782   5.665   0.634
 2532SOL    HW1 8495   0.727   5.744   0.605
 2532SOL    HW2 8496   0.727   5.606   0.693
 2533SOL     OW 8497   5.675   6.687   5.028
 2533SOL    HW1 8498   5.765   6.726   5.010
 2533SOL    HW2 8499   5.682   6.587   5.035
 2534SOL     OW 8500   2.359   0.762   3.280
 2534SOL    HW1 8501   2.366   0.666   3.308
 2534SOL    HW2 8502   2.278   0.803   3.322
 2535SOL     OW 8503   2.113   1.621   6.359
 2535SOL    HW1 8504   2.131   1.554   6.432
 2535SOL    HW2 8505   2.170   1.702   6.374
 2536SOL     OW 8506   0.470   1.621   3.462
 2536SOL    HW1 8507   0.487   1.715   3.432
 2536SOL    HW2 8508   0.557   1.572   3.466
 2537SOL     OW 8509   4.827   6.312   0.583
 2537SOL    HW1 8510   4.897   6.285   0.649
 2537SOL    HW2 8511   4.778   6.392   0.617
 2538SOL     OW 8512   1.653   4.306   5.028
 2538SOL    HW1 8513   1.676   4.209   5.023
 2538SOL    HW2 8514   1.723   4.359   4.980
 2539SOL     OW 8515   4.135   6.791   5.530
 2539SOL    HW1 8516   4.176   6.727   5.595
 2539SOL    HW2 8517   4.157   6.885   5.557
 2540SOL     OW 8518   5.238   1.347   1.299
 2540SOL    HW1 8519   5.235   1.260   1.248
 2540SOL    HW2 8520   5.326   1.391   1.284
 2541SOL     OW 8521   1.374   0.593   5.660
 2541SOL    HW1 8522   1.312   0.617   5.585
 2541SOL    HW2 8523   1.383   0.671   5.722
 2542SOL     OW 8524   3.872   2.070   4.369
 2542SOL    HW1 8525   3.952   2.129   4.357
 2542SOL    HW2 8526   3.799   2.100   4.308
 2543SOL     OW 8527   1.998   0.839   2.912
 2543SOL    HW1 8528   1.906   0.865   2.880
 2543SOL    HW2 8529   2.021   0.749   2.875
 2544SOL     OW 8530   0.729   4.883   2.114
 2544SOL    HW1 8531   0.701   4.876   2.210
 2544SOL    HW2 8532   0.677   4.817   2.059
 2545SOL     OW 8533   1.473   1.235   1.478
 2545SOL    HW1 8534   1.426   1.247   1.565
 2545SOL    HW2 8535   1.515   1.145   1.474
 2546SOL     OW 8536   6.848   3.290   0.796
 2546SOL    HW1 8537   6.931   3.306   0.849
 2546SOL    HW2 8538   6.779   3.358   0.821
 2547SOL     OW 8539   5.726   5.596   0.734
 2547SOL    HW1 8540   5.643   5.544   0.715
 2547SOL    HW2 8541   5.707   5.694   0.728
 2548SOL     OW 8542   2.397   0.499   4.559
 2548SOL    HW1 8543   2.389   0.399   4.558
 2548SOL    HW2 8544   2.391   0.532   4.653
 2549SOL     OW 8545   2.241   2.416   1.731
 2549SOL    HW1 8546   2.312   2.427   1.662
 2549SOL    HW2 8547   2.264   2.340   1.791
 2550SOL     OW 8548   5.373   0.829   6.979
 2550SOL    HW1 8549   5.372   0.880   0.035
 2550SOL    HW2 8550   5.351   0.733   6.997
 2551SOL     OW 8551   3.583   5.422   6.746
 2551SOL    HW1 8552   3.532   5.502   6.777
 2551SOL    HW2 8553   3.678   5.428   6.778
 2552SOL     OW 8554   2.222   5.365   6.813
 2552SOL    HW1 8555   2.286   5.384   6.888
 2552SOL    HW2 8556   2.256   5.407   6.729
 2553SOL     OW 8557   3.379   2.809   6.124
 2553SOL    HW1 8558   3.281   2.791   6.112
 2553SOL    HW2 8559   3.420   2.828   6.035
 2554SOL     OW 8560   1.598   5.768   6.809
 2554SOL    HW1 8561   1.690   5.795   6.783
 2554SOL    HW2 8562   1.602   5.695   6.877
 2555SOL     OW 8563   6.070   6.273   6.701
 2555SOL    HW1 8564   6.052   6.184   6.661
 2555SOL    HW2 8565   5.986   6.327   6.703
 2556SOL     OW 8566   4.369   0.075   1.300
 2556SOL    HW1 8567   4.284   0.033   1.332
 2556SOL    HW2 8568   4.420   0.113   1.377
 2557SOL     OW 8569   2.663   0.325   6.997
 2557SOL    HW1 8570   2.593   0.333   0.038
 2557SOL    HW2 8571   2.741   0.382   7.019
 2558SOL     OW 8572   4.558   4.071   5.571
 2558SOL    HW1 8573   4.494   4.113   5.635
 2558SOL    HW2 8574   4.518   3.988   5.533
 2559SOL     OW 8575   6.794   3.465   3.826
 2559SOL    HW1 8576   6.817   3.372   3.855
 2559SOL    HW2 8577   6.788   3.468   3.726
 2560SOL     OW 8578   5.215   3.588   3.563
 2560SOL    HW1 8579   5.261   3.550   3.643
 2560SOL    HW2 8580   5.116   3.589   3.578
 2561SOL     OW 8581   3.713   1.509   3.130
 2561SOL    HW1 8582   3.675   1.476   3.044
 2561SOL    HW2 8583   3.642   1.511   3.201
 2562SOL     OW 8584   2.898   5.762   3.460
 2562SOL    HW1 8585   2.928   5.700   3.388
 2562SOL    HW2 8586   2.836   5.714   3.522
 2563SOL     OW 8587   3.092   1.531   6.278
 2563SOL    HW1 8588   3.116   1.617   6.322
 2563SOL    HW2 8589   3.176   1.482   6.252
 2564SOL     OW 8590   2.102   6.688   0.055
 2564SOL    HW1 8591   2.197   6.661   0.036
 2564SOL    HW2 8592   2.041   6.614   0.029
 2565SOL     OW 8593   0.354   0.832   7.011
 2565SOL    HW1 8594   0.449   0.832   0.014
 2565SOL    HW2 8595   0.341   0.907   6.946
 2566SOL     OW 8596   2.304   6.504   1.672
 2566SOL    HW1 8597   2.321   6.581   1.610
 2566SOL    HW2 8598   2.280   6.540   1.763
 2567SOL     OW 8599   1.755   1.164   1.121
 2567SOL    HW1 8600   1.712   1.255   1.123
 2567SOL    HW2 8601   1.718   1.112   1.043
 2568SOL     OW 8602   2.807   6.728   0.716
 2568SOL    HW1 8603   2.796   6.634   0.748
 2568SOL    HW2 8604   2.873   6.776   0.773
 2569SOL     OW 8605   2.763   2.003   1.891
 2569SOL    HW1 8606   2.806   1.914   1.880
 2569SOL    HW2 8607   2.823   2.063   1.944
 2570SOL     OW 8608   4.513   6.182   6.275
 2570SOL    HW1 8609   4.526   6.280   6.290
 2570SOL    HW2 8610   4.590   6.146   6.222
 2571SOL     OW 8611   3.938   3.113   4.553
 2571SOL    HW1 8612   3.869   3.185   4.563
 2571SOL    HW2 8613   3.975   3.089   4.643
 2572SOL     OW 8614   2.126   6.258   1.114
 2572SOL    HW1 8615   2.195   6.214   1.057
 2572SOL    HW2 8616   2.075   6.189   1.165
 2573SOL     OW 8617   6.649   1.756   2.906
 2573SOL    HW1 8618   6.635   1.695   2.984
 2573SOL    HW2 8619   6.565   1.762   2.853
 2574SOL     OW 8620   6.381   3.438   0.866
 2574SOL    HW1 8621   6.448   3.422   0.938
 2574SOL    HW2 8622   6.345   3.531   0.874
 2575SOL     OW 8623   5.188   3.279   1.575
 2575SOL    HW1 8624   5.206   3.262   1.672
 2575SOL    HW2 8625   5.091   3.266   1.557
 2576SOL     OW 8626   3.796   0.006   3.918
 2576SOL    HW1 8627   3.790   7.015   3.820
 2576SOL    HW2 8628   3.839   0.096   3.930
 2577SOL     OW 8629   5.032   0.375   3.592
 2577SOL    HW1 8630   5.060   0.470   3.579
 2577SOL    HW2 8631   4.959   0.353   3.528
 2578SOL     OW 8632   4.592   2.729   5.461
 2578SOL    HW1 8633   4.686   2.717   5.428
 2578SOL    HW2 8634   4.532   2.665   5.414
 2579SOL     OW 8635   1.267   1.675   5.274
 2579SOL    HW1 8636   1.170   1.694   5.264
 2579SOL    HW2 8637   1.292   1.597   5.216
 2580SOL     OW 8638   2.008   2.481   6.169
 2580SOL    HW1 8639   1.964   2.392   6.173
 2580SOL    HW2 8640   1.938   2.553   6.160
 2581SOL     OW 8641   5.786   4.726   1.781
 2581SOL    HW1 8642   5.704   4.707   1.727
 2581SOL    HW2 8643   5.786   4.670   1.864
 2582SOL     OW 8644   2.062   4.905   2.967
 2582SOL    HW1 8645   2.116   4.831   3.007
 2582SOL    HW2 8646   2.068   4.985   3.026
 2583SOL     OW 8647   1.460   0.812   0.730
 2583SOL    HW1 8648   1.497   0.855   0.813
 2583SOL    HW2 8649   1.534   0.795   0.665
 2584SOL     OW 8650   4.368   6.000   0.987
 2584SOL    HW1 8651   4.467   5.983   0.981
 2584SOL    HW2 8652   4.340   6.060   0.912
 2585SOL     OW 8653   3.048   0.545   0.555
 2585SOL    HW1 8654   3.108   0.569   0.631
 2585SOL    HW2 8655   2.964   0.600   0.560
 2586SOL     OW 8656   5.487   1.639   4.390
 2586SOL    HW1 8657   5.534   1.609   4.306
 2586SOL    HW2 8658   5.483   1.562   4.454
 2587SOL     OW 8659   6.780   0.529   4.816
 2587SOL    HW1 8660   6.694   0.579   4.830
 2587SOL    HW2 8661   6.798   0.522   4.718
 2588SOL     OW 8662   4.370   0.083   0.365
 2588SOL    HW1 8663   4.384   0.132   0.451
 2588SOL    HW2 8664   4.350   7.017   0.385
 2589SOL     OW 8665   0.764   6.855   5.368
 2589SOL    HW1 8666   0.757   6.955   5.376
 2589SOL    HW2 8667   0.702   6.822   5.298
 2590SOL     OW 8668   3.926   6.982   2.715
 2590SOL    HW1 8669   4.006   0.011   2.723
 2590SOL    HW2 8670   3.891   6.961   2.806
 2591SOL     OW 8671   5.257   5.851   2.656
 2591SOL    HW1 8672   5.197   5.776   2.626
 2591SOL    HW2 8673   5.291   5.832   2.748
 2592SOL     OW 8674   2.586   6.352   1.611
 2592SOL    HW1 8675   2.553   6.432   1.561
 2592SOL    HW2 8676   2.548   6.353   1.704
 2593SOL     OW 8677   3.636   6.464   2.060
 2593SOL    HW1 8678   3.656   6.436   2.155
 2593SOL    HW2 8679   3.587   6.551   2.061
 2594SOL     OW 8680   0.263   6.563   6.043
 2594SOL    HW1 8681   0.204   6.601   6.115
 2594SOL    HW2 8682   0.253   6.618   5.960
 2595SOL     OW 8683   6.953   2.143   5.653
 2595SOL    HW1 8684   0.001   2.123   5.593
 2595SOL    HW2 8685   6.985   2.147   5.748
 2596SOL     OW 8686   3.849   2.040   1.943
 2596SOL    HW1 8687   3.764   2.091   1.943
 2596SOL    HW2 8688   3.917   2.087   2.000
 2597SOL     OW 8689   1.852   3.705   0.784
 2597SOL    HW1 8690   1.896   3.791   0.758
 2597SOL    HW2 8691   1.821   3.657   0.703
 2598SOL     OW 8692   5.798   2.458   4.439
 2598SOL    HW1 8693   5.852   2.431   4.360
 2598SOL    HW2 8694   5.739   2.382   4.467
 2599SOL     OW 8695   3.702   5.754   6.967
 2599SOL    HW1 8696   3.688   5.851   6.948
 2599SOL    HW2 8697   3.623   5.702   6.933
 2600SOL     OW 8698   4.873   3.738   4.476
 2600SOL    HW1 8699   4.865   3.698   4.384
 2600SOL    HW2 8700   4.849   3.669   4.544
 2601SOL     OW 8701   3.891   2.158   6.477
 2601SOL    HW1 8702   3.844   2.246   6.471
 2601SOL    HW2 8703   3.987   2.170   6.448
 2602SOL     OW 8704   0.022   4.867   3.723
 2602SOL    HW1 8705   0.115   4.831   3.736
 2602SOL    HW2 8706   7.007   4.876   3.812
 2603SOL     OW 8707   2.888   2.097   1.593
 2603SOL    HW1 8708   2.791   2.079   1.604
 2603SOL    HW2 8709   2.927   2.127   1.680
 2604SOL     OW 8710   4.868   1.170   1.409
 2604SOL    HW1 8711   4.817   1.089   1.439
 2604SOL    HW2 8712   4.957   1.172   1.455
 2605SOL     OW 8713   4.034   5.102   3.474
 2605SOL    HW1 8714   4.018   5.201   3.469
 2605SOL    HW2 8715   4.094   5.082   3.551
 2606SOL     OW 8716   6.544   4.607   0.421
 2606SOL    HW1 8717   6.530   4.670   0.497
 2606SOL    HW2 8718   6.457   4.568   0.392
 2607SOL     OW 8719   0.169   1.850   5.869
 2607SOL    HW1 8720   0.073   1.824   5.857
 2607SOL    HW2 8721   0.204   1.811   5.954
 2608SOL     OW 8722   4.357   6.096   2.694
 2608SOL    HW1 8723   4.334   6.126   2.786
 2608SOL    HW2 8724   4.345   6.171   2.629
 2609SOL     OW 8725   0.693   2.572   1.247
 2609SOL    HW1 8726   0.738   2.660   1.237
 2609SOL    HW2 8727   0.678   2.553   1.344
 2610SOL     OW 8728   6.656   5.417   3.902
 2610SOL    HW1 8729   6.715   5.341   3.873
 2610SOL    HW2 8730   6.634   5.473   3.823
 2611SOL     OW 8731   6.175   6.833   1.096
 2611SOL    HW1 8732   6.105   6.881   1.044
 2611SOL    HW2 8733   6.248   6.897   1.121
 2612SOL     OW 8734   6.325   6.726   5.498
 2612SOL    HW1 8735   6.255   6.760   5.436
 2612SOL    HW2 8736   6.350   6.633   5.471
 2613SOL     OW 8737   2.724   6.141   1.749
 2613SOL    HW1 8738   2.675   6.212   1.697
 2613SOL    HW2 8739   2.675   6.055   1.743
 2614SOL     OW 8740   6.410   6.521   5.865
 2614SOL    HW1 8741   6.390   6.432   5.825
 2614SOL    HW2 8742   6.329   6.557   5.911
 2615SOL     OW 8743   5.692   4.641   3.302
 2615SOL    HW1 8744   5.746   4.584   3.364
 2615SOL    HW2 8745   5.606   4.666   3.347
 2616SOL     OW 8746   3.657   3.747   3.885
 2616SOL    HW1 8747   3.633   3.776   3.792
 2616SOL    HW2 8748   3.680   3.650   3.885
 2617SOL     OW 8749   3.112   6.559   1.693
 2617SOL    HW1 8750   3.079   6.649   1.721
 2617SOL    HW2 8751   3.157   6.567   1.604
 2618SOL     OW 8752   0.426   6.607   3.703
 2618SOL    HW1 8753   0.395   6.520   3.665
 2618SOL    HW2 8754   0.347   6.664   3.727
 2619SOL     OW 8755   3.744   1.258   3.439
 2619SOL    HW1 8756   3.775   1.279   3.532
 2619SOL    HW2 8757   3.823   1.253   3.378
 2620SOL     OW 8758   0.853   5.961   3.583
 2620SOL    HW1 8759   0.870   5.902   3.505
 2620SOL    HW2 8760   0.918   5.940   3.656
 2621SOL     OW 8761   1.785   5.897   3.320
 2621SOL    HW1 8762   1.721   5.869   3.248
 2621SOL    HW2 8763   1.865   5.939   3.278
 2622SOL     OW 8764   2.212   2.130   6.331
 2622SOL    HW1 8765   2.246   2.206   6.277
 2622SOL    HW2 8766   2.156   2.165   6.406
 2623SOL     OW 8767   3.288   1.857   4.956
 2623SOL    HW1 8768   3.316   1.928   5.020
 2623SOL    HW2 8769   3.305   1.767   4.996
 2624SOL     OW 8770   6.595   3.497   4.002
 2624SOL    HW1 8771   6.661   3.508   3.928
 2624SOL    HW2 8772   6.636   3.444   4.076
 2625SOL     OW 8773   2.500   2.802   5.318
 2625SOL    HW1 8774   2.479   2.886   5.267
 2625SOL    HW2 8775   2.587   2.814   5.366
 2626SOL     OW 8776   0.486   6.887   4.364
 2626SOL    HW1 8777   0.438   6.800   4.377
 2626SOL    HW2 8778   0.420   6.962   4.368
 2627SOL     OW 8779   0.479   0.941   4.242
 2627SOL    HW1 8780   0.440   0.849   4.252
 2627SOL    HW2 8781   0.537   0.943   4.160
 2628SOL     OW 8782   3.300   5.670   6.319
 2628SOL    HW1 8783   3.379   5.704   6.267
 2628SOL    HW2 8784   3.266   5.586   6.276
 2629SOL     OW 8785   3.458   3.875   2.357
 2629SOL    HW1 8786   3.436   3.802   2.421
 2629SOL    HW2 8787   3.489   3.956   2.407
 2630SOL     OW 8788   3.642   1.807   3.051
 2630SOL    HW1 8789   3.662   1.717   3.011
 2630SOL    HW2 8790   3.712   1.872   3.025
 2631SOL     OW 8791   4.886   0.122   4.233
 2631SOL    HW1 8792   4.824   0.048   4.260
 2631SOL    HW2 8793   4.924   0.102   4.143
 2632SOL     OW 8794   2.505   1.687   5.944
 2632SOL    HW1 8795   2.601   1.695   5.971
 2632SOL    HW2 8796   2.452   1.757   5.991
 2633SOL     OW 8797   6.301   2.359   6.000
 2633SOL    HW1 8798   6.367   2.330   6.068
 2633SOL    HW2 8799   6.265   2.449   6.022
 2634SOL     OW 8800   2.102   3.805   3.124
 2634SOL    HW1 8801   2.157   3.877   3.168
 2634SOL    HW2 8802   2.082   3.733   3.191
 2635SOL     OW 8803   5.985   5.671   4.550
 2635SOL    HW1 8804   5.948   5.601   4.488
 2635SOL    HW2 8805   5.910   5.729   4.583
 2636SOL     OW 8806   4.850   0.573   6.062
 2636SOL    HW1 8807   4.917   0.646   6.045
 2636SOL    HW2 8808   4.759   0.613   6.073
 2637SOL     OW 8809   6.082   1.180   3.787
 2637SOL    HW1 8810   6.034   1.102   3.746
 2637SOL    HW2 8811   6.095   1.163   3.884
 2638SOL     OW 8812   0.001   6.566   3.004
 2638SOL    HW1 8813   7.026   6.623   2.922
 2638SOL    HW2 8814   6.963   6.597   3.070
 2639SOL     OW 8815   0.222   0.153   2.069
 2639SOL    HW1 8816   0.217   0.073   2.128
 2639SOL    HW2 8817   0.130   0.192   2.057
 2640SOL     OW 8818   6.944   6.099   5.768
 2640SOL    HW1 8819   6.983   6.089   5.677
 2640SOL    HW2 8820   7.017   6.117   5.834
 2641SOL     OW 8821   5.203   2.830   1.908
 2641SOL    HW1 8822   5.133   2.883   1.860
 2641SOL    HW2 8823   5.193   2.733   1.886
 2642SOL     OW 8824   5.505   7.000   4.370
 2642SOL    HW1 8825   5.435   6.929   4.384
 2642SOL    HW2 8826   5.595   6.958   4.365
 2643SOL     OW 8827   1.219   5.032   3.290
 2643SOL    HW1 8828   1.269   5.083   3.219
 2643SOL    HW2 8829   1.226   5.081   3.377
 2644SOL     OW 8830   0.001   4.556   5.578
 2644SOL    HW1 8831   7.018   4.464   5.614
 2644SOL    HW2 8832   6.960   4.578   5.512
 2645SOL     OW 8833   4.778   6.460   4.565
 2645SOL    HW1 8834   4.688   6.420   4.551
 2645SOL    HW2 8835   4.772   6.560   4.556
 2646SOL     OW 8836   5.840   6.754   6.372
 2646SOL    HW1 8837   5.895   6.685   6.420
 2646SOL    HW2 8838   5.813   6.826   6.436
 2647SOL     OW 8839   5.213   0.863   0.917
 2647SOL    HW1 8840   5.250   0.770   0.912
 2647SOL    HW2 8841   5.287   0.930   0.908
 2648SOL     OW 8842   6.867   0.474   3.942
 2648SOL    HW1 8843   6.833   0.395   3.993
 2648SOL    HW2 8844   6.822   0.557   3.976
 2649SOL     OW 8845   4.692   2.017   6.411
 2649SOL    HW1 8846   4.702   2.092   6.477
 2649SOL    HW2 8847   4.747   1.939   6.440
 2650SOL     OW 8848   0.791   3.916   3.833
 2650SOL    HW1 8849   0.709   3.902   3.888
 2650SOL    HW2 8850   0.816   3.830   3.789
 2651SOL     OW 8851   1.197   1.437   0.470
 2651SOL    HW1 8852   1.111   1.463   0.515
 2651SOL    HW2 8853   1.248   1.374   0.529
 2652SOL     OW 8854   3.019   3.826   3.631
 2652SOL    HW1 8855   2.993   3.729   3.630
 2652SOL    HW2 8856   3.014   3.860   3.725
 2653SOL     OW 8857   5.082   0.015   4.967
 2653SOL    HW1 8858   5.155   0.047   4.906
 2653SOL    HW2 8859   5.123   7.011   5.052
 2654SOL     OW 8860   4.935   3.777   0.730
 2654SOL    HW1 8861   4.952   3.858   0.787
 2654SOL    HW2 8862   4.838   3.772   0.707
 2655SOL     OW 8863   4.881   4.520   4.196
 2655SOL    HW1 8864   4.946   4.467   4.142
 2655SOL    HW2 8865   4.823   4.458   4.249
 2656SOL     OW 8866   4.332   5.055   4.378
 2656SOL    HW1 8867   4.273   4.983   4.343
 2656SOL    HW2 8868   4.337   5.048   4.478
 2657SOL     OW 8869   2.528   4.582   6.347
 2657SOL    HW1 8870   2.428   4.585   6.349
 2657SOL    HW2 8871   2.559   4.487   6.349
 2658SOL     OW 8872   5.423   3.847   0.570
 2658SOL    HW1 8873   5.494   3.780   0.595
 2658SOL    HW2 8874   5.356   3.852   0.644
 2659SOL     OW 8875   6.583   2.339   4.514
 2659SOL    HW1 8876   6.543   2.302   4.430
 2659SOL    HW2 8877   6.575   2.439   4.514
 2660SOL     OW 8878   0.461   1.519   1.395
 2660SOL    HW1 8879   0.417   1.462   1.326
 2660SOL    HW2 8880   0.407   1.518   1.478
 2661SOL     OW 8881   2.520   6.191   2.450
 2661SOL    HW1 8882   2.548   6.131   2.374
 2661SOL    HW2 8883   2.552   6.284   2.432
 2662SOL     OW 8884   4.500   0.063   5.280
 2662SOL    HW1 8885   4.485   0.028   5.373
 2662SOL    HW2 8886   4.579   0.124   5.280
 2663SOL     OW 8887   2.887   4.360   1.432
 2663SOL    HW1 8888   2.856   4.402   1.517
 2663SOL    HW2 8889   2.825   4.285   1.407
 2664SOL     OW 8890   4.076   3.793   4.234
 2664SOL    HW1 8891   4.169   3.779   4.201
 2664SOL    HW2 8892   4.012   3.785   4.157
 2665SOL     OW 8893   2.758   1.811   4.817
 2665SOL    HW1 8894   2.811   1.807   4.732
 2665SOL    HW2 8895   2.741   1.907   4.841
 2666SOL     OW 8896   4.358   3.803   1.626
 2666SOL    HW1 8897   4.399   3.890   1.652
 2666SOL    HW2 8898   4.279   3.819   1.567
 2667SOL     OW 8899   1.903   5.808   4.364
 2667SOL    HW1 8900   1.868   5.886   4.312
 2667SOL    HW2 8901   1.945   5.841   4.448
 2668SOL     OW 8902   6.816   3.118   3.172
 2668SOL    HW1 8903   6.732   3.102   3.224
 2668SOL    HW2 8904   6.806   3.078   3.081
 2669SOL     OW 8905   3.019   4.749   5.240
 2669SOL    HW1 8906   3.015   4.793   5.150
 2669SOL    HW2 8907   2.999   4.651   5.230
 2670SOL     OW 8908   5.977   1.501   6.573
 2670SOL    HW1 8909   5.956   1.541   6.662
 2670SOL    HW2 8910   5.893   1.483   6.523
 2671SOL     OW 8911   3.187   5.310   0.494
 2671SOL    HW1 8912   3.152   5.403   0.497
 2671SOL    HW2 8913   3.201   5.276   0.587
 2672SOL     OW 8914   0.213   5.558   6.736
 2672SOL    HW1 8915   0.217   5.495   6.658
 2672SOL    HW2 8916   0.119   5.590   6.747
 2673SOL     OW 8917   6.036   2.078   4.002
 2673SOL    HW1 8918   6.026   1.980   3.984
 2673SOL    HW2 8919   6.095   2.119   3.933
 2674SOL     OW 8920   2.058   4.051   4.623
 2674SOL    HW1 8921   1.963   4.042   4.651
 2674SOL    HW2 8922   2.117   4.002   4.687
 2675SOL     OW 8923   0.388   4.868   4.731
 2675SOL    HW1 8924   0.397   4.968   4.732
 2675SOL    HW2 8925   0.475   4.828   4.702
 2676SOL     OW 8926   4.174   0.953   2.918
 2676SOL    HW1 8927   4.128   0.967   2.831
 2676SOL    HW2 8928   4.183   0.855   2.937
 2677SOL     OW 8929   3.056   5.085   0.427
 2677SOL    HW1 8930   3.073   5.092   0.328
 2677SOL    HW2 8931   3.114   5.150   0.475
 2678SOL     OW 8932   6.880   3.704   1.127
 2678SOL    HW1 8933   6.831   3.742   1.206
 2678SOL    HW2 8934   6.842   3.743   1.043
 2679SOL     OW 8935   4.394   5.273   0.914
 2679SOL    HW1 8936   4.342   5.324   0.846
 2679SOL    HW2 8937   4.454   5.336   0.964
 2680SOL     OW 8938   1.762   1.648   0.930
 2680SOL    HW1 8939   1.751   1.625   0.833
 2680SOL    HW2 8940   1.829   1.722   0.939
 2681SOL     OW 8941   1.514   2.161   4.465
 2681SOL    HW1 8942   1.543   2.197   4.376
 2681SOL    HW2 8943   1.422   2.194   4.486
 2682SOL     OW 8944   5.532   3.644   2.411
 2682SOL    HW1 8945   5.519   3.654   2.510
 2682SOL    HW2 8946   5.630   3.640   2.391
 2683SOL     OW 8947   1.435   3.557   0.174
 2683SOL    HW1 8948   1.375   3.533   0.097
 2683SOL    HW2 8949   1.515   3.498   0.174
 2684SOL     OW 8950   4.225   5.718   2.946
 2684SOL    HW1 8951   4.144   5.695   3.000
 2684SOL    HW2 8952   4.298   5.750   3.008
 2685SOL     OW 8953   0.128   6.954   6.047
 2685SOL    HW1 8954   0.111   6.958   6.146
 2685SOL    HW2 8955   0.066   6.887   6.006
 2686SOL     OW 8956   1.733   1.862   5.564
 2686SOL    HW1 8957   1.718   1.901   5.473
 2686SOL    HW2 8958   1.814   1.903   5.605
 2687SOL     OW 8959   4.204   4.678   3.057
 2687SOL    HW1 8960   4.280   4.657   3.118
 2687SOL    HW2 8961   4.212   4.625   2.973
 2688SOL     OW 8962   4.706   5.699   6.589
 2688SOL    HW1 8963   4.650   5.761   6.535
 2688SOL    HW2 8964   4.803   5.713   6.566
 2689SOL     OW 8965   2.350   1.747   3.077
 2689SOL    HW1 8966   2.301   1.821   3.031
 2689SOL    HW2 8967   2.441   1.738   3.037
 2690SOL     OW 8968   3.293   4.076   4.032
 2690SOL    HW1 8969   3.199   4.063   4.063
 2690SOL    HW2 8970   3.294   4.087   3.933
 2691SOL     OW 8971   1.216   5.700   2.284
 2691SOL    HW1 8972   1.122   5.716   2.313
 2691SOL    HW2 8973   1.276   5.698   2.364
 2692SOL     OW 8974   4.694   5.255   4.056
 2692SOL    HW1 8975   4.718   5.304   4.140
 2692SOL    HW2 8976   4.601   5.219   4.063
 2693SOL     OW 8977   1.709   4.029   2.782
 2693SOL    HW1 8978   1.785   4.010   2.720
 2693SOL    HW2 8979   1.671   4.119   2.762
 2694SOL     OW 8980   3.887   0.884   2.639
 2694SOL    HW1 8981   3.946   0.804   2.628
 2694SOL    HW2 8982   3.942   0.965   2.657
 2695SOL     OW 8983   5.617   1.374   2.627
 2695SOL    HW1 8984   5.679   1.434   2.575
 2695SOL    HW2 8985   5.625   1.281   2.592
 2696SOL     OW 8986   3.661   3.219   5.321
 2696SOL    HW1 8987   3.716   3.255   5.246
 2696SOL    HW2 8988   3.598   3.290   5.353
 2697SOL     OW 8989   4.350   1.672   3.392
 2697SOL    HW1 8990   4.444   1.674   3.358
 2697SOL    HW2 8991   4.314   1.579   3.385
 2698SOL     OW 8992   1.735   5.192   1.003
 2698SOL    HW1 8993   1.677   5.272   0.986
 2698SOL    HW2 8994   1.755   5.186   1.101
 2699SOL     OW 8995   3.301   5.569   0.324
 2699SOL    HW1 8996   3.372   5.511   0.364
 2699SOL    HW2 8997   3.218   5.562   0.378
 2700SOL     OW 8998   2.029   3.515   1.427
 2700SOL    HW1 8999   2.110   3.481   1.474
 2700SOL    HW2 9000   2.053   3.595   1.372
 2701SOL     OW 9001   3.724   6.980   6.550
 2701SOL    HW1 9002   3.726   0.050   6.560
 2701SOL    HW2 9003   3.706   6.938   6.639
 2702SOL     OW 9004   0.410   2.188   3.512
 2702SOL    HW1 9005   0.480   2.221   3.576
 2702SOL    HW2 9006   0.328   2.244   3.520
 2703SOL     OW 9007   2.093   0.811   2.576
 2703SOL    HW1 9008   2.080   0.758   2.660
 2703SOL    HW2 9009   2.150   0.759   2.512
 2704SOL     OW 9010   0.679   5.199   1.048
 2704SOL    HW1 9011   0.595   5.155   1.018
 2704SOL    HW2 9012   0.691   5.285   0.999
 2705SOL     OW 9013   1.495   5.495   4.377
 2705SOL    HW1 9014   1.456   5.530   4.462
 2705SOL    HW2 9015   1.449   5.538   4.299
 2706SOL     OW 9016   0.428   0.879   1.103
 2706SOL    HW1 9017   0.398   0.784   1.093
 2706SOL    HW2 9018   0.505   0.883   1.166
 2707SOL     OW 9019   2.000   0.350   5.368
 2707SOL    HW1 9020   2.069   0.286   5.334
 2707SOL    HW2 9021   2.040   0.408   5.439
 2708SOL     OW 9022   1.620   2.103   1.450
 2708SOL    HW1 9023   1.545   2.038   1.434
 2708SOL    HW2 9024   1.690   2.060   1.507
 2709SOL     OW 9025   5.362   6.739   0.845
 2709SOL    HW1 9026   5.408   6.797   0.912
 2709SOL    HW2 9027   5.263   6.756   0.848
 2710SOL     OW 9028   6.766   2.690   2.734
 2710SOL    HW1 9029   6.766   2.621   2.661
 2710SOL    HW2 9030   6.861   2.712   2.759
 2711SOL     OW 9031   3.024   1.093   3.426
 2711SOL    HW1 9032   2.973   1.019   3.384
 2711SOL    HW2 9033   3.063   1.151   3.355
 2712SOL     OW 9034   3.157   5.447   1.371
 2712SOL    HW1 9035   3.190   5.353   1.372
 2712SOL    HW2 9036   3.199   5.498   1.445
 2713SOL     OW 9037   1.558   1.926   4.857
 2713SOL    HW1 9038   1.651   1.949   4.883
 2713SOL    HW2 9039   1.495   1.954   4.930
 2714SOL     OW 9040   4.808   2.079   6.784
 2714SOL    HW1 9041   4.828   2.105   6.689
 2714SOL    HW2 9042   4.728   2.131   6.816
 2715SOL     OW 9043   5.644   0.366   0.075
 2715SOL    HW1 9044   5.560   0.417   0.094
 2715SOL    HW2 9045   5.636   0.322   7.015
 2716SOL     OW 9046   5.715   5.415   2.062
 2716SOL    HW1 9047   5.774   5.412   2.143
 2716SOL    HW2 9048   5.765   5.456   1.986
 2717SOL     OW 9049   0.830   5.006   1.518
 2717SOL    HW1 9050   0.888   5.042   1.591
 2717SOL    HW2 9051   0.853   4.910   1.501
 2718SOL     OW 9052   2.146   3.919   4.860
 2718SOL    HW1 9053   2.151   3.830   4.904
 2718SOL    HW2 9054   2.212   3.981   4.902
 2719SOL     OW 9055   5.454   4.850   1.789
 2719SOL    HW1 9056   5.506   4.891   1.714
 2719SOL    HW2 9057   5.359   4.839   1.761
 2720SOL     OW 9058   2.115   6.153   3.544
 2720SOL    HW1 9059   2.129   6.059   3.576
 2720SOL    HW2 9060   2.032   6.190   3.586
 2721SOL     OW 9061   3.428   0.296   4.277
 2721SOL    HW1 9062   3.506   0.255   4.324
 2721SOL    HW2 9063   3.344   0.279   4.330
 2722SOL     OW 9064   6.358   5.351   2.941
 2722SOL    HW1 9065   6.409   5.331   2.857
 2722SOL    HW2 9066   6.401   5.428   2.989
 2723SOL     OW 9067   1.468   6.934   5.671
 2723SOL    HW1 9068   1.513   6.907   5.757
 2723SOL    HW2 9069   1.506   6.880   5.596
 2724SOL     OW 9070   2.930   6.170   5.971
 2724SOL    HW1 9071   2.968   6.131   5.887
 2724SOL    HW2 9072   2.876   6.251   5.949
 2725SOL     OW 9073   6.249   4.979   3.217
 2725SOL    HW1 9074   6.222   4.934   3.303
 2725SOL    HW2 9075   6.176   5.041   3.188
 2726SOL     OW 9076   6.593   4.419   1.122
 2726SOL    HW1 9077   6.674   4.411   1.179
 2726SOL    HW2 9078   6.521   4.358   1.157
 2727SOL     OW 9079   0.388   4.717   2.698
 2727SOL    HW1 9080   0.320   4.742   2.629
 2727SOL    HW2 9081   0.474   4.692   2.653
 2728SOL     OW 9082   3.678   0.246   5.244
 2728SOL    HW1 9083   3.736   0.287   5.314
 2728SOL    HW2 9084   3.728   0.174   5.197
 2729SOL     OW 9085   6.169   6.057   1.745
 2729SOL    HW1 9086   6.240   6.037   1.678
 2729SOL    HW2 9087   6.124   6.143   1.722
 2730SOL     OW 9088   1.823   5.963   1.357
 2730SOL    HW1 9089   1.889   5.911   1.411
 2730SOL    HW2 9090   1.810   6.053   1.398
 2731SOL     OW 9091   3.963   3.950   2.114
 2731SOL    HW1 9092   3.937   3.859   2.082
 2731SOL    HW2 9093   4.037   3.942   2.181
 2732SOL     OW 9094   6.123   2.933   1.514
 2732SOL    HW1 9095   6.143   2.838   1.538
 2732SOL    HW2 9096   6.191   2.966   1.449
 2733SOL     OW 9097   0.406   0.119   5.538
 2733SOL    HW1 9098   0.342   0.088   5.468
 2733SOL    HW2 9099   0.447   0.206   5.510
 2734SOL     OW 9100   2.246   5.128   2.363
 2734SOL    HW1 9101   2.192   5.063   2.309
 2734SOL    HW2 9102   2.291   5.080   2.438
 2735SOL     OW 9103   0.593   3.811   3.141
 2735SOL    HW1 9104   0.644   3.780   3.221
 2735SOL    HW2 9105   0.519   3.746   3.121
 2736SOL     OW 9106   5.224   0.470   4.286
 2736SOL    HW1 9107   5.271   0.383   4.302
 2736SOL    HW2 9108   5.256   0.538   4.352
 2737SOL     OW 9109   3.165   3.066   5.434
 2737SOL    HW1 9110   3.247   3.028   5.476
 2737SOL    HW2 9111   3.130   3.003   5.364
 2738SOL     OW 9112   5.312   5.397   4.437
 2738SOL    HW1 9113   5.388   5.403   4.502
 2738SOL    HW2 9114   5.275   5.304   4.437
 2739SOL     OW 9115   5.988   5.027   0.152
 2739SOL    HW1 9116   5.904   5.039   0.099
 2739SOL    HW2 9117   6.050   4.967   0.103
 2740SOL     OW 9118   6.100   2.997   2.265
 2740SOL    HW1 9119   6.186   3.024   2.309
 2740SOL    HW2 9120   6.115   2.915   2.210
 2741SOL     OW 9121   6.950   1.286   6.074
 2741SOL    HW1 9122   6.865   1.235   6.063
 2741SOL    HW2 9123   6.991   1.264   6.163
 2742SOL     OW 9124   1.838   5.417   6.956
 2742SOL    HW1 9125   1.835   5.396   6.859
 2742SOL    HW2 9126   1.831   5.332   7.008
 2743SOL     OW 9127   6.414   5.364   2.112
 2743SOL    HW1 9128   6.383   5.273   2.139
 2743SOL    HW2 9129   6.338   5.429   2.121
 2744SOL     OW 9130   4.200   2.181   6.724
 2744SOL    HW1 9131   4.204   2.138   6.634
 2744SOL    HW2 9132   4.131   2.134   6.779
 2745SOL     OW 9133   1.157   6.923   6.956
 2745SOL    HW1 9134   1.060   6.903   6.944
 2745SOL    HW2 9135   1.211   6.842   6.932
 2746SOL     OW 9136   1.880   1.806   4.388
 2746SOL    HW1 9137   1.863   1.895   4.430
 2746SOL    HW2 9138   1.976   1.781   4.401
 2747SOL     OW 9139   5.605   3.543   5.622
 2747SOL    HW1 9140   5.687   3.586   5.662
 2747SOL    HW2 9141   5.524   3.574   5.672
 2748SOL     OW 9142   3.651   1.419   1.045
 2748SOL    HW1 9143   3.619   1.511   1.068
 2748SOL    HW2 9144   3.726   1.426   0.980
 2749SOL     OW 9145   6.237   4.439   3.780
 2749SOL    HW1 9146   6.152   4.491   3.789
 2749SOL    HW2 9147   6.302   4.471   3.848
 2750SOL     OW 9148   0.150   5.097   2.029
 2750SOL    HW1 9149   0.213   5.097   1.951
 2750SOL    HW2 9150   0.084   5.023   2.018
 2751SOL     OW 9151   1.557   6.694   0.626
 2751SOL    HW1 9152   1.468   6.667   0.663
 2751SOL    HW2 9153   1.543   6.750   0.544
 2752SOL     OW 9154   5.293   5.327   5.013
 2752SOL    HW1 9155   5.284   5.403   5.078
 2752SOL    HW2 9156   5.327   5.246   5.061
 2753SOL     OW 9157   1.743   0.259   6.487
 2753SOL    HW1 9158   1.769   0.339   6.541
 2753SOL    HW2 9159   1.806   0.249   6.410
 2754SOL     OW 9160   6.690   1.091   4.356
 2754SOL    HW1 9161   6.683   1.079   4.455
 2754SOL    HW2 9162   6.659   1.008   4.310
 2755SOL     OW 9163   3.369   6.856   3.266
 2755SOL    HW1 9164   3.305   6.787   3.299
 2755SOL    HW2 9165   3.361   6.867   3.167
 2756SOL     OW 9166   6.560   3.857   4.605
 2756SOL    HW1 9167   6.470   3.819   4.625
 2756SOL    HW2 9168   6.581   3.845   4.508
 2757SOL     OW 9169   2.594   1.080   6.853
 2757SOL    HW1 9170   2.644   1.043   6.775
 2757SOL    HW2 9171   2.643   1.057   6.938
 2758SOL     OW 9172   5.268   6.458   3.834
 2758SOL    HW1 9173   5.201   6.429   3.902
 2758SOL    HW2 9174   5.222   6.483   3.749
 2759SOL     OW 9175   3.844   5.614   5.254
 2759SOL    HW1 9176   3.859   5.554   5.176
 2759SOL    HW2 9177   3.796   5.564   5.326
 2760SOL     OW 9178   6.752   5.160   2.605
 2760SOL    HW1 9179   6.782   5.237   2.662
 2760SOL    HW2 9180   6.823   5.138   2.538
 2761SOL     OW 9181   1.682   4.440   3.560
 2761SOL    HW1 9182   1.760   4.487   3.603
 2761SOL    HW2 9183   1.601   4.497   3.567
 2762SOL     OW 9184   1.626   1.991   0.130
 2762SOL    HW1 9185   1.632   1.941   0.044
 2762SOL    HW2 9186   1.676   2.078   0.122
 2763SOL     OW 9187   5.114   2.260   5.564
 2763SOL    HW1 9188   5.069   2.247   5.653
 2763SOL    HW2 9189   5.046   2.271   5.493
 2764SOL     OW 9190   0.256   5.716   2.521
 2764SOL    HW1 9191   0.156   5.721   2.520
 2764SOL    HW2 9192   0.292   5.785   2.585
 2765SOL     OW 9193   6.979   7.021   0.649
 2765SOL    HW1 9194   6.889   6.993   0.683
 2765SOL    HW2 9195   6.975   0.085   0.617
 2766SOL     OW 9196   3.550   1.071   6.176
 2766SOL    HW1 9197   3.579   1.151   6.227
 2766SOL    HW2 9198   3.509   1.004   6.239
 2767SOL     OW 9199   6.294   5.902   6.352
 2767SOL    HW1 9200   6.243   5.974   6.398
 2767SOL    HW2 9201   6.285   5.816   6.403
 2768SOL     OW 9202   4.358   1.195   6.961
 2768SOL    HW1 9203   4.316   1.193   0.022
 2768SOL    HW2 9204   4.457   1.204   6.970
 2769SOL     OW 9205   2.295   4.929   6.515
 2769SOL    HW1 9206   2.210   4.982   6.519
 2769SOL    HW2 9207   2.277   4.835   6.541
 2770SOL     OW 9208   4.214   6.026   6.018
 2770SOL    HW1 9209   4.243   6.100   6.077
 2770SOL    HW2 9210   4.114   6.019   6.020
 2771SOL     OW 9211   5.938   0.478   4.768
 2771SOL    HW1 9212   5.890   0.495   4.681
 2771SOL    HW2 9213   5.873   0.485   4.844
 2772SOL     OW 9214   2.832   1.687   2.097
 2772SOL    HW1 9215   2.858   1.631   2.176
 2772SOL    HW2 9216   2.901   1.758   2.083
 2773SOL     OW 9217   6.872   3.229   3.914
 2773SOL    HW1 9218   6.957   3.216   3.862
 2773SOL    HW2 9219   6.811   3.151   3.899
 2774SOL     OW 9220   5.150   3.052   2.474
 2774SOL    HW1 9221   5.221   3.074   2.408
 2774SOL    HW2 9222   5.117   2.959   2.459
 2775SOL     OW 9223   6.313   3.988   3.738
 2775SOL    HW1 9224   6.301   3.921   3.811
 2775SOL    HW2 9225   6.309   4.081   3.777
 2776SOL     OW 9226   5.553   4.417   5.581
 2776SOL    HW1 9227   5.564   4.373   5.492
 2776SOL    HW2 9228   5.547   4.516   5.569
 2777SOL     OW 9229   2.196   1.449   6.922
 2777SOL    HW1 9230   2.248   1.399   6.853
 2777SOL    HW2 9231   2.251   1.459   7.005
 2778SOL     OW 9232   2.006   6.022   6.565
 2778SOL    HW1 9233   2.041   5.938   6.606
 2778SOL    HW2 9234   1.918   6.045   6.606
 2779SOL     OW 9235   5.386   6.800   1.909
 2779SOL    HW1 9236   5.291   6.813   1.934
 2779SOL    HW2 9237   5.441   6.788   1.992
 2780SOL     OW 9238   6.537   0.325   6.127
 2780SOL    HW1 9239   6.442   0.351   6.139
 2780SOL    HW2 9240   6.584   0.395   6.073
 2781SOL     OW 9241   5.897   0.391   3.314
 2781SOL    HW1 9242   5.811   0.413   3.268
 2781SOL    HW2 9243   5.927   0.300   3.286
 2782SOL     OW 9244   4.402   1.382   5.241
 2782SOL    HW1 9245   4.497   1.401   5.264
 2782SOL    HW2 9246   4.382   1.418   5.150
 2783SOL     OW 9247   6.681   3.795   1.349
 2783SOL    HW1 9248   6.698   3.893   1.361
 2783SOL    HW2 9249   6.598   3.782   1.295
 2784SOL     OW 9250   3.249   1.538   1.863
 2784SOL    HW1 9251   3.292   1.627   1.873
 2784SOL    HW2 9252   3.215   1.506   1.951
 2785SOL     OW 9253   5.422   1.929   0.635
 2785SOL    HW1 9254   5.328   1.953   0.612
 2785SOL    HW2 9255   5.430   1.915   0.734
 2786SOL     OW 9256   6.439   6.156   1.255
 2786SOL    HW1 9257   6.419   6.159   1.353
 2786SOL    HW2 9258   6.433   6.249   1.217
 2787SOL     OW 9259   6.683   5.819   5.540
 2787SOL    HW1 9260   6.731   5.906   5.537
 2787SOL    HW2 9261   6.640   5.801   5.451
 2788SOL     OW 9262   2.841   6.191   6.450
 2788SOL    HW1 9263   2.866   6.131   6.373
 2788SOL    HW2 9264   2.755   6.160   6.490
 2789SOL     OW 9265   2.009   1.805   3.505
 2789SOL    HW1 9266   1.990   1.902   3.489
 2789SOL    HW2 9267   2.106   1.793   3.525
 2790SOL     OW 9268   3.098   5.322   0.978
 2790SOL    HW1 9269   3.060   5.281   1.061
 2790SOL    HW2 9270   3.197   5.335   0.990
 2791SOL     OW 9271   0.283   4.459   2.457
 2791SOL    HW1 9272   0.223   4.473   2.378
 2791SOL    HW2 9273   0.231   4.417   2.531
 2792SOL     OW 9274   2.714   1.423   4.462
 2792SOL    HW1 9275   2.681   1.468   4.379
 2792SOL    HW2 9276   2.812   1.403   4.454
 2793SOL     OW 9277   5.402   3.730   2.189
 2793SOL    HW1 9278   5.357   3.646   2.158
 2793SOL    HW2 9279   5.458   3.711   2.270
 2794SOL     OW 9280   6.629   2.030   6.080
 2794SOL    HW1 9281   6.632   2.024   5.980
 2794SOL    HW2 9282   6.556   1.971   6.115
 2795SOL     OW 9283   0.321   4.591   1.235
 2795SOL    HW1 9284   0.332   4.553   1.143
 2795SOL    HW2 9285   0.244   4.655   1.235
 2796SOL     OW 9286   0.793   5.503   4.088
 2796SOL    HW1 9287   0.712   5.512   4.030
 2796SOL    HW2 9288   0.833   5.412   4.076
 2797SOL     OW 9289   5.522   5.456   5.682
 2797SOL    HW1 9290   5.469   5.430   5.762
 2797SOL    HW2 9291   5.585   5.382   5.658
 2798SOL     OW 9292   6.227   5.985   2.408
 2798SOL    HW1 9293   6.249   5.992   2.505
 2798SOL    HW2 9294   6.200   6.074   2.373
 2799SOL     OW 9295   5.014   5.911   5.500
 2799SOL    HW1 9296   5.038   6.005   5.521
 2799SOL    HW2 9297   4.935   5.910   5.438
 2800SOL     OW 9298   6.109   0.844   6.085
 2800SOL    HW1 9299   6.091   0.853   6.183
 2800SOL    HW2 9300   6.074   0.756   6.053
 2801SOL     OW 9301   1.264   5.754   5.885
 2801SOL    HW1 9302   1.211   5.754   5.970
 2801SOL    HW2 9303   1.202   5.755   5.807
 2802SOL     OW 9304   6.706   6.479   5.750
 2802SOL    HW1 9305   6.613   6.495   5.784
 2802SOL    HW2 9306   6.711   6.389   5.708
 2803SOL     OW 9307   3.452   4.591   6.115
 2803SOL    HW1 9308   3.426   4.685   6.138
 2803SOL    HW2 9309   3.370   4.539   6.091
 2804SOL     OW 9310   0.262   3.942   4.740
 2804SOL    HW1 9311   0.203   3.892   4.677
 2804SOL    HW2 9312   0.340   3.980   4.690
 2805SOL     OW 9313   6.050   4.164   2.440
 2805SOL    HW1 9314   6.136   4.113   2.446
 2805SOL    HW2 9315   5.974   4.102   2.458
 2806SOL     OW 9316   1.704   4.535   6.764
 2806SOL    HW1 9317   1.748   4.500   6.847
 2806SOL    HW2 9318   1.685   4.460   6.702
 2807SOL     OW 9319   4.016   0.864   3.157
 2807SOL    HW1 9320   4.036   0.962   3.167
 2807SOL    HW2 9321   4.074   0.826   3.085
 2808SOL     OW 9322   6.204   6.130   0.896
 2808SOL    HW1 9323   6.138   6.205   0.882
 2808SOL    HW2 9324   6.296   6.168   0.902
 2809SOL     OW 9325   5.791   2.425   1.367
 2809SOL    HW1 9326   5.868   2.444   1.429
 2809SOL    HW2 9327   5.749   2.338   1.393
 2810SOL     OW 9328   2.432   5.470   2.833
 2810SOL    HW1 9329   2.452   5.439   2.740
 2810SOL    HW2 9330   2.510   5.448   2.893
 2811SOL     OW 9331   0.945   1.532   2.429
 2811SOL    HW1 9332   1.037   1.498   2.414
 2811SOL    HW2 9333   0.889   1.460   2.470
 2812SOL     OW 9334   6.282   3.167   0.795
 2812SOL    HW1 9335   6.352   3.131   0.857
 2812SOL    HW2 9336   6.269   3.264   0.812
 2813SOL     OW 9337   0.584   1.560   0.440
 2813SOL    HW1 9338   0.490   1.594   0.429
 2813SOL    HW2 9339   0.640   1.591   0.363
 2814SOL     OW 9340   3.034   4.062   5.540
 2814SOL    HW1 9341   3.081   4.041   5.626
 2814SOL    HW2 9342   2.945   4.104   5.561
 2815SOL     OW 9343   0.111   5.620   5.873
 2815SOL    HW1 9344   0.086   5.573   5.789
 2815SOL    HW2 9345   0.029   5.650   5.921
 2816SOL     OW 9346   6.928   5.639   4.367
 2816SOL    HW1 9347   6.882   5.646   4.456
 2816SOL    HW2 9348   6.935   5.730   4.327
 2817SOL     OW 9349   3.669   1.478   2.408
 2817SOL    HW1 9350   3.635   1.529   2.329
 2817SOL    HW2 9351   3.730   1.406   2.376
 2818SOL     OW 9352   6.519   1.109   2.062
 2818SOL    HW1 9353   6.578   1.034   2.033
 2818SOL    HW2 9354   6.558   1.153   2.143
 2819SOL     OW 9355   1.498   0.244   1.009
 2819SOL    HW1 9356   1.402   0.216   1.012
 2819SOL    HW2 9357   1.507   0.338   1.040
 2820SOL     OW 9358   0.694   2.280   2.232
 2820SOL    HW1 9359   0.656   2.188   2.227
 2820SOL    HW2 9360   0.789   2.278   2.201
 2821SOL     OW 9361   2.838   5.302   5.990
 2821SOL    HW1 9362   2.825   5.308   6.089
 2821SOL    HW2 9363   2.899   5.375   5.960
 2822SOL     OW 9364   4.510   2.796   0.288
 2822SOL    HW1 9365   4.530   2.876   0.346
 2822SOL    HW2 9366   4.435   2.743   0.329
 2823SOL     OW 9367   5.765   0.896   6.675
 2823SOL    HW1 9368   5.686   0.945   6.713
 2823SOL    HW2 9369   5.843   0.959   6.670
 2824SOL     OW 9370   1.721   3.322   5.655
 2824SOL    HW1 9371   1.624   3.299   5.645
 2824SOL    HW2 9372   1.734   3.419   5.635
 2825SOL     OW 9373   5.838   0.532   6.654
 2825SOL    HW1 9374   5.776   0.456   6.634
 2825SOL    HW2 9375   5.833   0.599   6.579
 2826SOL     OW 9376   2.530   2.825   6.437
 2826SOL    HW1 9377   2.534   2.760   6.513
 2826SOL    HW2 9378   2.436   2.835   6.406
 2827SOL     OW 9379   0.453   0.998   6.600
 2827SOL    HW1 9380   0.496   0.916   6.637
 2827SOL    HW2 9381   0.440   1.064   6.674
 2828SOL     OW 9382   1.573   3.694   1.449
 2828SOL    HW1 9383   1.625   3.665   1.530
 2828SOL    HW2 9384   1.486   3.734   1.479
 2829SOL     OW 9385   3.177   3.176   3.127
 2829SOL    HW1 9386   3.080   3.186   3.106
 2829SOL    HW2 9387   3.188   3.155   3.224
 2830SOL     OW 9388   3.537   4.117   5.345
 2830SOL    HW1 9389   3.439   4.101   5.357
 2830SOL    HW2 9390   3.550   4.193   5.281
 2831SOL     OW 9391   0.283   2.295   2.962
 2831SOL    HW1 9392   0.378   2.319   2.981
 2831SOL    HW2 9393   0.274   2.267   2.867
 2832SOL     OW 9394   1.019   3.339   1.463
 2832SOL    HW1 9395   1.090   3.271   1.481
 2832SOL    HW2 9396   1.061   3.419   1.419
 2833SOL     OW 9397   2.565   1.653   2.082
 2833SOL    HW1 9398   2.554   1.582   2.152
 2833SOL    HW2 9399   2.661   1.679   2.075
 2834SOL     OW 9400   4.961   6.485   4.752
 2834SOL    HW1 9401   5.000   6.575   4.732
 2834SOL    HW2 9402   4.897   6.460   4.679
 2835SOL     OW 9403   1.090   6.371   0.671
 2835SOL    HW1 9404   1.096   6.430   0.591
 2835SOL    HW2 9405   1.016   6.402   0.730
 2836SOL     OW 9406   2.443   6.413   3.012
 2836SOL    HW1 9407   2.448   6.316   3.032
 2836SOL    HW2 9408   2.502   6.435   2.935
 2837SOL     OW 9409   5.548   4.390   2.457
 2837SOL    HW1 9410   5.637   4.364   2.495
 2837SOL    HW2 9411   5.560   4.464   2.390
 2838SOL     OW 9412   4.965   4.070   0.454
 2838SOL    HW1 9413   5.057   4.033   0.466
 2838SOL    HW2 9414   4.956   4.108   0.362
 2839SOL     OW 9415   7.017   2.516   2.406
 2839SOL    HW1 9416   7.007   2.606   2.449
 2839SOL    HW2 9417   0.068   2.516   2.347
 2840SOL     OW 9418   1.549   5.765   2.705
 2840SOL    HW1 9419   1.620   5.749   2.774
 2840SOL    HW2 9420   1.459   5.755   2.748
 2841SOL     OW 9421   6.730   2.215   0.182
 2841SOL    HW1 9422   6.715   2.304   0.139
 2841SOL    HW2 9423   6.820   2.212   0.224
 2842SOL     OW 9424   1.723   6.061   4.941
 2842SOL    HW1 9425   1.670   6.097   5.018
 2842SOL    HW2 9426   1.672   6.075   4.856
 2843SOL     OW 9427   2.602   2.021   3.034
 2843SOL    HW1 9428   2.621   2.112   3.071
 2843SOL    HW2 9429   2.577   2.030   2.937
 2844SOL     OW 9430   5.249   4.538   1.486
 2844SOL    HW1 9431   5.153   4.513   1.498
 2844SOL    HW2 9432   5.301   4.509   1.566
 2845SOL     OW 9433   5.267   2.706   2.879
 2845SOL    HW1 9434   5.248   2.633   2.944
 2845SOL    HW2 9435   5.185   2.762   2.867
 2846SOL     OW 9436   3.478   1.097   0.144
 2846SOL    HW1 9437   3.444   1.019   0.091
 2846SOL    HW2 9438   3.556   1.137   0.096
 2847SOL     OW 9439   4.833   4.047   2.424
 2847SOL    HW1 9440   4.795   4.127   2.377
 2847SOL    HW2 9441   4.853   3.976   2.356
 2848SOL     OW 9442   1.755   2.600   5.447
 2848SOL    HW1 9443   1.770   2.697   5.430
 2848SOL    HW2 9444   1.675   2.568   5.396
 2849SOL     OW 9445   3.870   1.176   1.244
 2849SOL    HW1 9446   3.799   1.198   1.310
 2849SOL    HW2 9447   3.947   1.240   1.255
 2850SOL     OW 9448   2.048   6.978   3.608
 2850SOL    HW1 9449   2.005   6.910   3.548
 2850SOL    HW2 9450   2.027   0.040   3.574
 2851SOL     OW 9451   4.362   3.582   6.559
 2851SOL    HW1 9452   4.434   3.651   6.569
 2851SOL    HW2 9453   4.291   3.617   6.497
 2852SOL     OW 9454   6.546   4.613   6.751
 2852SOL    HW1 9455   6.600   4.646   6.828
 2852SOL    HW2 9456   6.513   4.520   6.770
 2853SOL     OW 9457   0.600   3.500   0.526
 2853SOL    HW1 9458   0.502   3.480   0.538
 2853SOL    HW2 9459   0.635   3.544   0.609
 2854SOL     OW 9460   3.452   0.768   6.196
 2854SOL    HW1 9461   3.462   0.760   6.097
 2854SOL    HW2 9462   3.391   0.844   6.218
 2855SOL     OW 9463   0.980   2.638   4.385
 2855SOL    HW1 9464   0.995   2.737   4.382
 2855SOL    HW2 9465   1.062   2.591   4.353
 2856SOL     OW 9466   1.527   2.524   3.320
 2856SOL    HW1 9467   1.527   2.459   3.396
 2856SOL    HW2 9468   1.440   2.518   3.272
 2857SOL     OW 9469   0.312   3.212   0.877
 2857SOL    HW1 9470   0.379   3.259   0.818
 2857SOL    HW2 9471   0.358   3.174   0.956
 2858SOL     OW 9472   5.200   6.347   2.336
 2858SOL    HW1 9473   5.272   6.388   2.281
 2858SOL    HW2 9474   5.112   6.359   2.291
 2859SOL     OW 9475   5.349   5.826   0.407
 2859SOL    HW1 9476   5.436   5.837   0.360
 2859SOL    HW2 9477   5.319   5.730   0.400
 2860SOL     OW 9478   2.019   6.704   1.858
 2860SOL    HW1 9479   2.006   6.803   1.851
 2860SOL    HW2 9480   1.975   6.660   1.780
 2861SOL     OW 9481   3.126   5.449   5.376
 2861SOL    HW1 9482   3.100   5.488   5.464
 2861SOL    HW2 9483   3.177   5.517   5.323
 2862SOL     OW 9484   4.502   2.463   2.221
 2862SOL    HW1 9485   4.559   2.517   2.161
 2862SOL    HW2 9486   4.556   2.431   2.299
 2863SOL     OW 9487   5.240   1.643   6.744
 2863SOL    HW1 9488   5.320   1.588   6.722
 2863SOL    HW2 9489   5.262   1.706   6.818
 2864SOL     OW 9490   4.878   3.220   1.252
 2864SOL    HW1 9491   4.915   3.140   1.299
 2864SOL    HW2 9492   4.779   3.226   1.269
 2865SOL     OW 9493   3.996   6.783   4.130
 2865SOL    HW1 9494   4.065   6.847   4.096
 2865SOL    HW2 9495   3.969   6.721   4.056
 2866SOL     OW 9496   6.040   4.040   0.445
 2866SOL    HW1 9497   6.033   4.129   0.400
 2866SOL    HW2 9498   6.025   3.967   0.378
 2867SOL     OW 9499   6.483   6.181   2.522
 2867SOL    HW1 9500   6.502   6.084   2.506
 2867SOL    HW2 9501   6.534   6.237   2.457
 2868SOL     OW 9502   0.873   1.044   5.082
 2868SOL    HW1 9503   0.832   0.966   5.035
 2868SOL    HW2 9504   0.969   1.051   5.057
 2869SOL     OW 9505   6.241   0.584   3.799
 2869SOL    HW1 9506   6.282   0.675   3.801
 2869SOL    HW2 9507   6.258   0.543   3.709
 2870SOL     OW 9508   0.698   1.827   6.863
 2870SOL    HW1 9509   0.743   1.905   6.905
 2870SOL    HW2 9510   0.601   1.847   6.850
 2871SOL     OW 9511   5.985   0.723   0.086
 2871SOL    HW1 9512   6.073   0.769   0.078
 2871SOL    HW2 9513   5.951   0.701   7.024
 2872SOL     OW 9514   2.791   1.632   0.914
 2872SOL    HW1 9515   2.821   1.614   1.008
 2872SOL    HW2 9516   2.710   1.578   0.893
 2873SOL     OW 9517   6.760   5.944   1.347
 2873SOL    HW1 9518   6.852   5.980   1.337
 2873SOL    HW2 9519   6.740   5.927   1.443
 2874SOL     OW 9520   4.546   6.842   2.748
 2874SOL    HW1 9521   4.603   6.759   2.745
 2874SOL    HW2 9522   4.605   6.922   2.752
 2875SOL     OW 9523   3.593   6.913   2.785
 2875SOL    HW1 9524   3.504   6.933   2.743
 2875SOL    HW2 9525   3.626   6.825   2.752
 2876SOL     OW 9526   1.552   6.338   2.054
 2876SOL    HW1 9527   1.476   6.319   2.117
 2876SOL    HW2 9528   1.637   6.301   2.092
 2877SOL     OW 9529   2.449   0.789   0.066
 2877SOL    HW1 9530   2.399   0.798   7.009
 2877SOL    HW2 9531   2.524   0.855   0.068
 2878SOL     OW 9532   3.173   3.837   4.495
 2878SOL    HW1 9533   3.247   3.772   4.516
 2878SOL    HW2 9534   3.088   3.787   4.479
 2879SOL     OW 9535   4.353   5.333   5.968
 2879SOL    HW1 9536   4.384   5.409   5.912
 2879SOL    HW2 9537   4.410   5.326   6.050
 2880SOL     OW 9538   0.526   2.021   3.858
 2880SOL    HW1 9539   0.438   2.050   3.822
 2880SOL    HW2 9540   0.515   1.933   3.906
 2881SOL     OW 9541   3.470   5.900   0.295
 2881SOL    HW1 9542   3.452   5.898   0.197
 2881SOL    HW2 9543   3.566   5.925   0.311
 2882SOL     OW 9544   5.939   6.243   1.128
 2882SOL    HW1 9545   6.015   6.218   1.188
 2882SOL    HW2 9546   5.862   6.181   1.144
 2883SOL     OW 9547   5.917   6.706   3.564
 2883SOL    HW1 9548   5.958   6.760   3.491
 2883SOL    HW2 9549   5.969   6.621   3.575
 2884SOL     OW 9550   6.705   5.778   2.156
 2884SOL    HW1 9551   6.640   5.767   2.081
 2884SOL    HW2 9552   6.707   5.874   2.184
 2885SOL     OW 9553   1.191   2.046   4.298
 2885SOL    HW1 9554   1.162   2.137   4.267
 2885SOL    HW2 9555   1.222   2.052   4.393
 2886SOL     OW 9556   2.604   4.494   6.660
 2886SOL    HW1 9557   2.668   4.560   6.701
 2886SOL    HW2 9558   2.650   4.444   6.586
 2887SOL     OW 9559   6.949   6.407   4.340
 2887SOL    HW1 9560   0.007   6.364   4.320
 2887SOL    HW2 9561   6.876   6.352   4.301
 2888SOL     OW 9562   0.164   5.115   0.366
 2888SOL    HW1 9563   0.227   5.130   0.291
 2888SOL    HW2 9564   0.128   5.202   0.398
 2889SOL     OW 9565   3.019   6.832   3.044
 2889SOL    HW1 9566   3.070   6.771   2.984
 2889SOL    HW2 9567   2.996   6.916   2.996
 2890SOL     OW 9568   1.778   4.978   0.791
 2890SOL    HW1 9569   1.710   4.999   0.721
 2890SOL    HW2 9570   1.779   5.050   0.861
 2891SOL     OW 9571   1.293   3.329   3.268
 2891SOL    HW1 9572   1.262   3.314   3.174
 2891SOL    HW2 9573   1.273   3.247   3.322
 2892SOL     OW 9574   5.761   2.635   1.022
 2892SOL    HW1 9575   5.811   2.722   1.022
 2892SOL    HW2 9576   5.818   2.564   1.064
 2893SOL     OW 9577   1.818   5.584   4.778
 2893SOL    HW1 9578   1.843   5.569   4.682
 2893SOL    HW2 9579   1.875   5.526   4.836
 2894SOL     OW 9580   1.533   3.783   1.802
 2894SOL    HW1 9581   1.497   3.808   1.891
 2894SOL    HW2 9582   1.516   3.856   1.737
 2895SOL     OW 9583   3.953   0.587   6.267
 2895SOL    HW1 9584   3.874   0.648   6.275
 2895SOL    HW2 9585   4.031   0.638   6.230
 2896SOL     OW 9586   5.395   0.124   5.961
 2896SOL    HW1 9587   5.358   0.096   5.873
 2896SOL    HW2 9588   5.477   0.179   5.947
 2897SOL     OW 9589   4.272   4.935   2.922
 2897SOL    HW1 9590   4.308   4.880   2.997
 2897SOL    HW2 9591   4.179   4.965   2.944
 2898SOL     OW 9592   5.162   3.626   4.064
 2898SOL    HW1 9593   5.237   3.668   4.116
 2898SOL    HW2 9594   5.198   3.552   4.008
 2899SOL     OW 9595   6.666   1.674   0.682
 2899SOL    HW1 9596   6.656   1.613   0.760
 2899SOL    HW2 9597   6.732   1.746   0.704
 2900SOL     OW 9598   4.543   4.867   6.616
 2900SOL    HW1 9599   4.526   4.954   6.571
 2900SOL    HW2 9600   4.482   4.858   6.695
 2901SOL     OW 9601   1.906   5.223   3.231
 2901SOL    HW1 9602   1.875   5.141   3.279
 2901SOL    HW2 9603   1.849   5.300   3.256
 2902SOL     OW 9604   0.072   5.267   3.588
 2902SOL    HW1 9605   0.071   5.336   3.515
 2902SOL    HW2 9606   0.035   5.181   3.552
 2903SOL     OW 9607   4.506   6.455   1.157
 2903SOL    HW1 9608   4.483   6.363   1.189
 2903SOL    HW2 9609   4.433   6.518   1.183
 2904SOL     OW 9610   3.542   5.021   4.860
 2904SOL    HW1 9611   3.508   5.114   4.876
 2904SOL    HW2 9612   3.487   4.977   4.789
 2905SOL     OW 9613   1.708   4.158   3.586
 2905SOL    HW1 9614   1.780   4.097   3.553
 2905SOL    HW2 9615   1.703   4.239   3.528
 2906SOL     OW 9616   5.542   6.012   2.635
 2906SOL    HW1 9617   5.534   6.098   2.684
 2906SOL    HW2 9618   5.476   5.946   2.671
 2907SOL     OW 9619   0.502   1.763   3.951
 2907SOL    HW1 9620   0.585   1.743   4.002
 2907SOL    HW2 9621   0.487   1.692   3.882
 2908SOL     OW 9622   5.488   6.600   3.946
 2908SOL    HW1 9623   5.497   6.680   3.886
 2908SOL    HW2 9624   5.419   6.538   3.908
 2909SOL     OW 9625   1.683   6.815   3.324
 2909SOL    HW1 9626   1.619   6.820   3.248
 2909SOL    HW2 9627   1.645   6.862   3.404
 2910SOL     OW 9628   6.948   0.663   3.696
 2910SOL    HW1 9629   6.917   0.635   3.787
 2910SOL    HW2 9630   6.886   0.733   3.660
 2911SOL     OW 9631   1.362   4.693   3.855
 2911SOL    HW1 9632   1.296   4.737   3.916
 2911SOL    HW2 9633   1.409   4.762   3.801
 2912SOL     OW 9634   6.795   6.312   6.624
 2912SOL    HW1 9635   6.750   6.358   6.700
 2912SOL    HW2 9636   6.854   6.239   6.659
 2913SOL     OW 9637   2.889   4.871   2.615
 2913SOL    HW1 9638   2.915   4.865   2.711
 2913SOL    HW2 9639   2.967   4.904   2.561
 2914SOL     OW 9640   5.550   5.560   1.090
 2914SOL    HW1 9641   5.581   5.633   1.152
 2914SOL    HW2 9642   5.629   5.510   1.055
 2915SOL     OW 9643   3.029   1.890   3.973
 2915SOL    HW1 9644   3.047   1.828   4.049
 2915SOL    HW2 9645   3.053   1.845   3.887
 2916SOL     OW 9646   1.822   5.170   0.376
 2916SOL    HW1 9647   1.913   5.129   0.375
 2916SOL    HW2 9648   1.830   5.269   0.386
 2917SOL     OW 9649   3.144   0.524   4.408
 2917SOL    HW1 9650   3.057   0.475   4.422
 2917SOL    HW2 9651   3.153   0.548   4.312
 2918SOL     OW 9652   5.945   3.815   6.587
 2918SOL    HW1 9653   5.959   3.901   6.635
 2918SOL    HW2 9654   5.933   3.741   6.653
 2919SOL     OW 9655   6.381   6.529   3.271
 2919SOL    HW1 9656   6.317   6.496   3.203
 2919SOL    HW2 9657   6.381   6.467   3.350
 2920SOL     OW 9658   3.150   0.251   2.102
 2920SOL    HW1 9659   3.113   0.315   2.035
 2920SOL    HW2 9660   3.076   0.212   2.156
 2921SOL     OW 9661   0.331   0.353   6.197
 2921SOL    HW1 9662   0.328   0.268   6.144
 2921SOL    HW2 9663   0.294   0.428   6.141
 2922SOL     OW 9664   3.724   6.144   1.728
 2922SOL    HW1 9665   3.740   6.062   1.782
 2922SOL    HW2 9666   3.642   6.190   1.761
 2923SOL     OW 9667   6.522   5.157   4.878
 2923SOL    HW1 9668   6.543   5.211   4.959
 2923SOL    HW2 9669   6.599   5.161   4.814
 2924SOL     OW 9670   6.991   1.661   4.582
 2924SOL    HW1 9671   7.005   1.616   4.670
 2924SOL    HW2 9672   6.956   1.754   4.596
 2925SOL     OW 9673   5.626   2.156   6.899
 2925SOL    HW1 9674   5.690   2.165   6.823
 2925SOL    HW2 9675   5.592   2.062   6.903
 2926SOL     OW 9676   6.526   2.286   6.160
 2926SOL    HW1 9677   6.590   2.345   6.211
 2926SOL    HW2 9678   6.576   2.212   6.116
 2927SOL     OW 9679   1.526   3.027   0.615
 2927SOL    HW1 9680   1.535   3.117   0.658
 2927SOL    HW2 9681   1.438   3.022   0.567
 2928SOL     OW 9682   6.849   1.086   6.791
 2928SOL    HW1 9683   6.897   1.164   6.753
 2928SOL    HW2 9684   6.824   1.105   6.886
 2929SOL     OW 9685   1.540   2.467   4.975
 2929SOL    HW1 9686   1.505   2.423   5.057
 2929SOL    HW2 9687   1.632   2.501   4.992
 2930SOL     OW 9688   5.688   6.428   5.091
 2930SOL    HW1 9689   5.755   6.397   5.160
 2930SOL    HW2 9690   5.616   6.359   5.083
 2931SOL     OW 9691   4.414   4.792   6.833
 2931SOL    HW1 9692   4.406   4.733   6.913
 2931SOL    HW2 9693   4.326   4.837   6.816
 2932SOL     OW 9694   0.093   5.617   1.290
 2932SOL    HW1 9695   0.057   5.625   1.196
 2932SOL    HW2 9696   0.043   5.681   1.349
 2933SOL     OW 9697   0.552   6.940   2.176
 2933SOL    HW1 9698   0.593   6.849   2.181
 2933SOL    HW2 9699   0.503   6.950   2.089
 2934SOL     OW 9700   4.888   2.632   1.170
 2934SOL    HW1 9701   4.892   2.711   1.109
 2934SOL    HW2 9702   4.894   2.662   1.265
 2935SOL     OW 9703   0.649   2.622   6.263
 2935SOL    HW1 9704   0.698   2.542   6.226
 2935SOL    HW2 9705   0.715   2.691   6.292
 2936SOL     OW 9706   3.884   6.375   0.871
 2936SOL    HW1 9707   3.883   6.290   0.820
 2936SOL    HW2 9708   3.957   6.373   0.939
 2937SOL     OW 9709   4.946   5.149   0.865
 2937SOL    HW1 9710   4.948   5.115   0.771
 2937SOL    HW2 9711   5.009   5.226   0.875
 2938SOL     OW 9712   6.594   5.399   0.201
 2938SOL    HW1 9713   6.562   5.466   0.267
 2938SOL    HW2 9714   6.517   5.370   0.143
 2939SOL     OW 9715   1.553   0.283   1.520
 2939SOL    HW1 9716   1.460   0.303   1.551
 2939SOL    HW2 9717   1.582   0.353   1.454
 2940SOL     OW 9718   6.416   5.586   4.842
 2940SOL    HW1 9719   6.394   5.645   4.765
 2940SOL    HW2 9720   6.331   5.559   4.888
 2941SOL     OW 9721   2.294   2.467   3.204
 2941SOL    HW1 9722   2.358   2.521   3.260
 2941SOL    HW2 9723   2.323   2.472   3.108
 2942SOL     OW 9724   3.592   2.602   0.336
 2942SOL    HW1 9725   3.544   2.583   0.250
 2942SOL    HW2 9726   3.541   2.670   0.388
 2943SOL     OW 9727   6.035   5.148   3.825
 2943SOL    HW1 9728   6.055   5.054   3.799
 2943SOL    HW2 9729   6.081   5.211   3.763
 2944SOL     OW 9730   2.633   6.111   3.638
 2944SOL    HW1 9731   2.652   6.087   3.734
 2944SOL    HW2 9732   2.615   6.209   3.632
 2945SOL     OW 9733   5.026   2.999   1.771
 2945SOL    HW1 9734   4.995   3.048   1.690
 2945SOL    HW2 9735   4.999   3.050   1.853
 2946SOL     OW 9736   1.994   4.076   5.859
 2946SOL    HW1 9737   2.019   4.076   5.762
 2946SOL    HW2 9738   1.948   4.162   5.881
 2947SOL     OW 9739   0.336   5.432   0.421
 2947SOL    HW1 9740   0.307   5.500   0.354
 2947SOL    HW2 9741   0.273   5.433   0.498
 2948SOL     OW 9742   6.947   4.715   3.467
 2948SOL    HW1 9743   6.947   4.618   3.491
 2948SOL    HW2 9744   6.975   4.769   3.546
 2949SOL     OW 9745   0.097   5.861   6.456
 2949SOL    HW1 9746   0.067   5.789   6.518
 2949SOL    HW2 9747   0.155   5.926   6.506
 2950SOL     OW 9748   5.965   5.883   3.820
 2950SOL    HW1 9749   5.885   5.904   3.877
 2950SOL    HW2 9750   5.994   5.789   3.836
 2951SOL     OW 9751   5.360   1.332   2.184
 2951SOL    HW1 9752   5.429   1.260   2.182
 2951SOL    HW2 9753   5.346   1.367   2.091
 2952SOL     OW 9754   6.911   6.890   5.037
 2952SOL    HW1 9755   6.902   6.874   5.135
 2952SOL    HW2 9756   6.820   6.886   4.994
 2953SOL     OW 9757   0.303   4.121   3.398
 2953SOL    HW1 9758   0.397   4.155   3.407
 2953SOL    HW2 9759   0.303   4.039   3.341
 2954SOL     OW 9760   6.911   4.818   6.571
 2954SOL    HW1 9761   6.956   4.836   6.659
 2954SOL    HW2 9762   6.850   4.893   6.549
 2955SOL     OW 9763   0.885   4.481   0.797
 2955SOL    HW1 9764   0.920   4.529   0.878
 2955SOL    HW2 9765   0.848   4.392   0.824
 2956SOL     OW 9766   0.161   5.431   3.789
 2956SOL    HW1 9767   0.100   5.417   3.867
 2956SOL    HW2 9768   0.139   5.366   3.716
 2957SOL     OW 9769   4.426   4.999   1.536
 2957SOL    HW1 9770   4.435   4.992   1.437
 2957SOL    HW2 9771   4.444   4.909   1.577
 2958SOL     OW 9772   2.235   4.935   3.365
 2958SOL    HW1 9773   2.169   4.900   3.432
 2958SOL    HW2 9774   2.187   4.990   3.297
 2959SOL     OW 9775   5.407   2.806   2.515
 2959SOL    HW1 9776   5.427   2.899   2.546
 2959SOL    HW2 9777   5.488   2.749   2.527
 2960SOL     OW 9778   3.868   0.223   6.526
 2960SOL    HW1 9779   3.967   0.233   6.516
 2960SOL    HW2 9780   3.843   0.235   6.622
 2961SOL     OW 9781   6.365   4.847   3.010
 2961SOL    HW1 9782   6.328   4.866   3.100
 2961SOL    HW2 9783   6.417   4.926   2.978
 2962SOL     OW 9784   4.732   6.332   3.425
 2962SOL    HW1 9785   4.711   6.419   3.379
 2962SOL    HW2 9786   4.783   6.273   3.362
 2963SOL     OW 9787   0.925   0.521   6.543
 2963SOL    HW1 9788   0.862   0.529   6.620
 2963SOL    HW2 9789   0.890   0.456   6.477
 2964SOL     OW 9790   0.103   2.272   6.567
 2964SOL    HW1 9791   0.038   2.331   6.614
 2964SOL    HW2 9792   0.075   2.261   6.471
 2965SOL     OW 9793   0.906   0.453   4.670
 2965SOL    HW1 9794   0.827   0.436   4.728
 2965SOL    HW2 9795   0.966   0.374   4.671
 2966SOL     OW 9796   4.813   5.966   4.041
 2966SOL    HW1 9797   4.852   5.989   4.130
 2966SOL    HW2 9798   4.759   5.882   4.049
 2967SOL     OW 9799   6.463   1.190   5.712
 2967SOL    HW1 9800   6.483   1.224   5.804
 2967SOL    HW2 9801   6.420   1.262   5.658
 2968SOL     OW 9802   1.537   2.382   0.769
 2968SOL    HW1 9803   1.533   2.426   0.858
 2968SOL    HW2 9804   1.448   2.389   0.724
 2969SOL     OW 9805   4.942   3.383   4.816
 2969SOL    HW1 9806   4.900   3.340   4.896
 2969SOL    HW2 9807   5.041   3.377   4.823
 2970SOL     OW 9808   2.716   2.871   5.510
 2970SOL    HW1 9809   2.713   2.881   5.609
 2970SOL    HW2 9810   2.695   2.959   5.467
 2971SOL     OW 9811   5.518   4.146   0.193
 2971SOL    HW1 9812   5.598   4.204   0.174
 2971SOL    HW2 9813   5.538   4.052   0.166
 2972SOL     OW 9814   5.329   4.987   6.704
 2972SOL    HW1 9815   5.362   5.074   6.667
 2972SOL    HW2 9816   5.383   4.912   6.667
 2973SOL     OW 9817   4.787   6.830   2.082
 2973SOL    HW1 9818   4.835   6.834   2.170
 2973SOL    HW2 9819   4.751   6.921   2.060
 2974SOL     OW 9820   6.539   4.046   3.544
 2974SOL    HW1 9821   6.555   4.120   3.480
 2974SOL    HW2 9822   6.479   4.077   3.618
 2975SOL     OW 9823   5.019   4.392   4.537
 2975SOL    HW1 9824   5.098   4.419   4.481
 2975SOL    HW2 9825   4.966   4.322   4.489
 2976SOL     OW 9826   5.105   2.141   2.833
 2976SOL    HW1 9827   5.174   2.122   2.903
 2976SOL    HW2 9828   5.098   2.240   2.819
 2977SOL     OW 9829   0.494   0.845   2.549
 2977SOL    HW1 9830   0.440   0.764   2.573
 2977SOL    HW2 9831   0.435   0.914   2.508
 2978SOL     OW 9832   3.791   4.220   0.250
 2978SOL    HW1 9833   3.850   4.198   0.173
 2978SOL    HW2 9834   3.721   4.285   0.221
 2979SOL     OW 9835   3.179   1.601   4.062
 2979SOL    HW1 9836   3.116   1.531   4.030
 2979SOL    HW2 9837   3.174   1.608   4.161
 2980SOL     OW 9838   2.090   5.413   6.484
 2980SOL    HW1 9839   2.073   5.440   6.389
 2980SOL    HW2 9840   2.176   5.453   6.516
 2981SOL     OW 9841   2.519   1.165   0.195
 2981SOL    HW1 9842   2.553   1.114   0.274
 2981SOL    HW2 9843   2.561   1.128   0.112
 2982SOL     OW 9844   1.992   5.983   2.389
 2982SOL    HW1 9845   2.053   5.905   2.405
 2982SOL    HW2 9846   2.012   6.056   2.454
 2983SOL     OW 9847   0.088   2.167   0.836
 2983SOL    HW1 9848   0.069   2.246   0.895
 2983SOL    HW2 9849   0.004   2.140   0.789
 2984SOL     OW 9850   5.649   4.953   6.294
 2984SOL    HW1 9851   5.689   4.947   6.203
 2984SOL    HW2 9852   5.718   4.928   6.362
 2985SOL     OW 9853   0.604   1.472   4.996
 2985SOL    HW1 9854   0.670   1.406   4.960
 2985SOL    HW2 9855   0.588   1.543   4.927
 2986SOL     OW 9856   3.474   4.147   2.092
 2986SOL    HW1 9857   3.409   4.179   2.160
 2986SOL    HW2 9858   3.562   4.129   2.136
 2987SOL     OW 9859   1.428   1.090   4.156
 2987SOL    HW1 9860   1.524   1.109   4.179
 2987SOL    HW2 9861   1.395   1.015   4.214
 2988SOL     OW 9862   1.723   6.953   1.614
 2988SOL    HW1 9863   1.814   6.912   1.610
 2988SOL    HW2 9864   1.706   6.986   1.707
 2989SOL     OW 9865   5.478   4.033   5.110
 2989SOL    HW1 9866   5.504   4.115   5.059
 2989SOL    HW2 9867   5.429   4.060   5.193
 2990SOL     OW 9868   4.917   2.208   4.659
 2990SOL    HW1 9869   4.833   2.154   4.662
 2990SOL    HW2 9870   4.913   2.273   4.583
 2991SOL     OW 9871   6.181   2.996   6.082
 2991SOL    HW1 9872   6.279   2.977   6.092
 2991SOL    HW2 9873   6.156   3.073   6.141
 2992SOL     OW 9874   1.617   4.809   4.826
 2992SOL    HW1 9875   1.558   4.882   4.860
 2992SOL    HW2 9876   1.580   4.721   4.853
 2993SOL     OW 9877   0.141   4.975   0.609
 2993SOL    HW1 9878   0.153   5.031   0.527
 2993SOL    HW2 9879   0.044   4.974   0.634
 2994SOL     OW 9880   3.759   5.859   0.220
 2994SOL    HW1 9881   3.748   5.827   0.126
 2994SOL    HW2 9882   3.855   5.882   0.237
 2995SOL     OW 9883   4.158   0.233   0.232
 2995SOL    HW1 9884   4.075   0.177   0.223
 2995SOL    HW2 9885   4.217   0.192   0.302
 2996SOL     OW 9886   0.653   2.013   4.767
 2996SOL    HW1 9887   0.672   1.968   4.679
 2996SOL    HW2 9888   0.692   1.958   4.841
 2997SOL     OW 9889   4.714   6.998   3.243
 2997SOL    HW1 9890   4.735   0.057   3.202
 2997SOL    HW2 9891   4.661   6.943   3.178
 2998SOL     OW 9892   3.933   6.693   3.238
 2998SOL    HW1 9893   3.847   6.729   3.273
 2998SOL    HW2 9894   3.999   6.767   3.229
 2999SOL     OW 9895   2.884   5.019   6.023
 2999SOL    HW1 9896   2.908   5.114   6.002
 2999SOL    HW2 9897   2.817   4.986   5.956
 3000SOL     OW 9898   2.673   4.061   6.638
 3000SOL    HW1 9899   2.615   4.109   6.572
 3000SOL    HW2 9900   2.702   3.974   6.599
 3001SOL     OW 9901   6.101   1.900   0.443
 3001SOL    HW1 9902   6.193   1.917   0.409
 3001SOL    HW2 9903   6.105   1.866   0.537
 3002SOL     OW 9904   3.290   1.902   0.343
 3002SOL    HW1 9905   3.232   1.825   0.369
 3002SOL    HW2 9906   3.383   1.887   0.374
 3003SOL     OW 9907   0.809   6.562   1.215
 3003SOL    HW1 9908   0.904   6.553   1.242
 3003SOL    HW2 9909   0.750   6.530   1.289
 3004SOL     OW 9910   1.573   4.749   3.116
 3004SOL    HW1 9911   1.495   4.701   3.157
 3004SOL    HW2 9912   1.642   4.767   3.185
 3005SOL     OW 9913   1.437   3.232   6.551
 3005SOL    HW1 9914   1.527   3.277   6.553
 3005SOL    HW2 9915   1.449   3.137   6.524
 3006SOL     OW 9916   5.497   1.424   4.998
 3006SOL    HW1 9917   5.591   1.452   5.014
 3006SOL    HW2 9918   5.442   1.447   5.079
 3007SOL     OW 9919   5.009   5.256   7.023
 3007SOL    HW1 9920   4.929   5.259   0.052
 3007SOL    HW2 9921   5.033   5.161   7.004
 3008SOL     OW 9922   3.360   2.288   6.351
 3008SOL    HW1 9923   3.304   2.215   6.310
 3008SOL    HW2 9924   3.330   2.377   6.316
 3009SOL     OW 9925   0.008   2.836   2.534
 3009SOL    HW1 9926   6.995   2.830   2.625
 3009SOL    HW2 9927   0.061   2.921   2.528
 3010SOL     OW 9928   2.695   5.544   4.557
 3010SOL    HW1 9929   2.791   5.559   4.579
 3010SOL    HW2 9930   2.656   5.476   4.620
 3011SOL     OW 9931   6.251   0.384   1.796
 3011SOL    HW1 9932   6.152   0.371   1.799
 3011SOL    HW2 9933   6.292   0.355   1.882
 3012SOL     OW 9934   2.431   3.402   0.024
 3012SOL    HW1 9935   2.408   3.425   0.118
 3012SOL    HW2 9936   2.428   3.303   0.012
 3013SOL     OW 9937   6.512   4.695   3.203
 3013SOL    HW1 9938   6.589   4.741   3.246
 3013SOL    HW2 9939   6.488   4.743   3.118
 3014SOL     OW 9940   4.494   1.820   6.660
 3014SOL    HW1 9941   4.588   1.799   6.688
 3014SOL    HW2 9942   4.494   1.851   6.565
 3015SOL     OW 9943   2.255   1.929   0.082
 3015SOL    HW1 9944   2.304   2.004   0.127
 3015SOL    HW2 9945   2.309   1.895   0.006
 3016SOL     OW 9946   3.310   6.648   4.451
 3016SOL    HW1 9947   3.277   6.554   4.439
 3016SOL    HW2 9948   3.305   6.673   4.547
 3017SOL     OW 9949   5.174   4.925   2.680
 3017SOL    HW1 9950   5.178   4.876   2.767
 3017SOL    HW2 9951   5.266   4.934   2.642
 3018SOL     OW 9952   3.683   6.873   6.800
 3018SOL    HW1 9953   3.601   6.917   6.835
 3018SOL    HW2 9954   3.662   6.777   6.779
 3019SOL     OW 9955   0.747   0.048   0.318
 3019SOL    HW1 9956   0.648   0.061   0.313
 3019SOL    HW2 9957   0.767   6.987   0.355
 3020SOL     OW 9958   4.447   3.296   0.545
 3020SOL    HW1 9959   4.355   3.300   0.585
 3020SOL    HW2 9960   4.515   3.310   0.616
 3021SOL     OW 9961   2.697   6.855   4.169
 3021SOL    HW1 9962   2.633   6.929   4.191
 3021SOL    HW2 9963   2.789   6.892   4.158
 3022SOL     OW 9964   4.035   5.363   4.472
 3022SOL    HW1 9965   4.028   5.344   4.374
 3022SOL    HW2 9966   4.131   5.379   4.496
 3023SOL     OW 9967   3.800   6.587   2.784
 3023SOL    HW1 9968   3.869   6.653   2.811
 3023SOL    HW2 9969   3.738   6.629   2.717
 3024SOL     OW 9970   6.172   6.434   5.306
 3024SOL    HW1 9971   6.230   6.405   5.383
 3024SOL    HW2 9972   6.190   6.375   5.227
 3025SOL     OW 9973   3.859   5.956   1.898
 3025SOL    HW1 9974   3.833   6.026   1.964
 3025SOL    HW2 9975   3.900   5.879   1.946
 3026SOL     OW 9976   0.721   1.404   6.627
 3026SOL    HW1 9977   0.711   1.328   6.562
 3026SOL    HW2 9978   0.785   1.471   6.589
 3027SOL     OW 9979   3.913   1.385   2.272
 3027SOL    HW1 9980   3.964   1.470   2.267
 3027SOL    HW2 9981   3.867   1.368   2.184
 3028SOL     OW 9982   1.834   3.850   6.445
 3028SOL    HW1 9983   1.901   3.882   6.512
 3028SOL    HW2 9984   1.742   3.875   6.477
 3029SOL     OW 9985   1.124   2.572   3.743
 3029SOL    HW1 9986   1.123   2.485   3.695
 3029SOL    HW2 9987   1.034   2.591   3.781
 3030SOL     OW 9988   1.209   4.245   0.779
 3030SOL    HW1 9989   1.216   4.331   0.728
 3030SOL    HW2 9990   1.215   4.168   0.716
 3031SOL     OW 9991   1.257   4.485   0.628
 3031SOL    HW1 9992   1.229   4.508   0.534
 3031SOL    HW2 9993   1.346   4.441   0.626
 3032SOL     OW 9994   2.518   5.810   2.051
 3032SOL    HW1 9995   2.437   5.785   1.998
 3032SOL    HW2 9996   2.515   5.908   2.072
 3033SOL     OW 9997   6.367   1.574   2.781
 3033SOL    HW1 9998   6.359   1.644   2.710
 3033SOL    HW2 9999   6.382   1.484   2.738
 3034SOL     OW10000   0.708   6.207   3.609
 3034SOL    HW110001   0.728   6.109   3.607
 3034SOL    HW210002   0.763   6.253   3.539
 3035SOL     OW10003   0.975   3.021   6.149
 3035SOL    HW110004   0.958   3.041   6.053
 3035SOL    HW210005   0.936   2.931   6.172
 3036SOL     OW10006   1.182   2.521   5.340
 3036SOL    HW110007   1.185   2.447   5.406
 3036SOL    HW210008   1.149   2.487   5.252
 3037SOL     OW10009   6.495   5.074   5.400
 3037SOL    HW110010   6.509   5.002   5.469
 3037SOL    HW210011   6.574   5.136   5.399
 3038SOL     OW10012   5.113   4.155   5.931
 3038SOL    HW110013   5.043   4.212   5.974
 3038SOL    HW210014   5.203   4.179   5.969
 3039SOL     OW10015   0.034   3.286   7.019
 3039SOL    HW110016   0.065   3.204   0.038
 3039SOL    HW210017   6.970   3.307   0.015
 3040SOL     OW10018   3.042   4.627   5.832
 3040SOL    HW110019   3.055   4.564   5.755
 3040SOL    HW210020   3.130   4.646   5.875
 3041SOL     OW10021   0.982   4.946   6.222
 3041SOL    HW110022   1.066   4.985   6.259
 3041SOL    HW210023   0.956   4.866   6.276
 3042SOL     OW10024   5.781   6.177   2.613
 3042SOL    HW110025   5.689   6.209   2.634
 3042SOL    HW210026   5.810   6.111   2.683
 3043SOL     OW10027   3.381   3.846   1.081
 3043SOL    HW110028   3.360   3.748   1.084
 3043SOL    HW210029   3.397   3.879   1.175
 3044SOL     OW10030   2.825   4.808   5.466
 3044SOL    HW110031   2.883   4.728   5.449
 3044SOL    HW210032   2.870   4.867   5.533
 3045SOL     OW10033   4.868   6.722   3.117
 3045SOL    HW110034   4.877   6.655   3.190
 3045SOL    HW210035   4.776   6.760   3.118
 3046SOL     OW10036   3.758   6.371   0.468
 3046SOL    HW110037   3.777   6.297   0.532
 3046SOL    HW210038   3.664   6.402   0.480
 3047SOL     OW10039   6.777   6.929   0.790
 3047SOL    HW110040   6.782   6.874   0.873
 3047SOL    HW210041   6.716   7.007   0.805
 3048SOL     OW10042   4.880   2.575   0.628
 3048SOL    HW110043   4.964   2.584   0.681
 3048SOL    HW210044   4.803   2.555   0.689
 3049SOL     OW10045   0.928   0.599   4.250
 3049SOL    HW110046   1.010   0.632   4.204
 3049SOL    HW210047   0.864   0.563   4.183
 3050SOL     OW10048   2.283   2.704   1.615
 3050SOL    HW110049   2.291   2.628   1.679
 3050SOL    HW210050   2.350   2.775   1.639
 3051SOL     OW10051   2.762   6.639   6.422
 3051SOL    HW110052   2.742   6.720   6.367
 3051SOL    HW210053   2.803   6.668   6.509
 3052SOL     OW10054   5.360   5.258   2.273
 3052SOL    HW110055   5.431   5.329   2.274
 3052SOL    HW210056   5.283   5.288   2.329
 3053SOL     OW10057   0.340   3.641   1.229
 3053SOL    HW110058   0.243   3.653   1.206
 3053SOL    HW210059   0.388   3.605   1.149
 3054SOL     OW10060   5.738   0.668   1.987
 3054SOL    HW110061   5.738   0.744   1.921
 3054SOL    HW210062   5.831   0.653   2.020
 3055SOL     OW10063   5.659   0.177   5.486
 3055SOL    HW110064   5.717   0.115   5.433
 3055SOL    HW210065   5.599   0.123   5.545
 3056SOL     OW10066   6.118   1.576   5.751
 3056SOL    HW110067   6.093   1.523   5.670
 3056SOL    HW210068   6.185   1.646   5.726
 3057SOL     OW10069   5.193   6.651   4.506
 3057SOL    HW110070   5.221   6.746   4.518
 3057SOL    HW210071   5.095   6.643   4.523
 3058SOL     OW10072   6.289   4.143   0.932
 3058SOL    HW110073   6.336   4.231   0.929
 3058SOL    HW210074   6.304   4.095   0.846
 3059SOL     OW10075   2.486   1.678   4.399
 3059SOL    HW110076   2.413   1.610   4.387
 3059SOL    HW210077   2.551   1.646   4.468
 3060SOL     OW10078   2.144   5.151   6.969
 3060SOL    HW110079   2.185   5.232   6.927
 3060SOL    HW210080   2.210   5.076   6.969
 3061SOL     OW10081   5.976   5.760   5.816
 3061SOL    HW110082   5.946   5.669   5.844
 3061SOL    HW210083   5.962   5.825   5.891
 3062SOL     OW10084   2.887   5.499   1.297
 3062SOL    HW110085   2.836   5.493   1.211
 3062SOL    HW210086   2.981   5.467   1.282
 3063SOL     OW10087   0.721   4.433   1.213
 3063SOL    HW110088   0.753   4.424   1.307
 3063SOL    HW210089   0.677   4.522   1.202
 3064SOL     OW10090   4.223   3.519   0.287
 3064SOL    HW110091   4.235   3.608   0.330
 3064SOL    HW210092   4.310   3.469   0.289
 3065SOL     OW10093   1.245   1.965   6.455
 3065SOL    HW110094   1.279   2.011   6.373
 3065SOL    HW210095   1.168   2.016   6.493
 3066SOL     OW10096   5.134   5.301   6.060
 3066SOL    HW110097   5.042   5.262   6.065
 3066SOL    HW210098   5.194   5.255   6.126
 3067SOL     OW10099   2.888   1.508   0.666
 3067SOL    HW110100   2.846   1.559   0.741
 3067SOL    HW210101   2.848   1.538   0.580
 3068SOL     OW10102   6.925   0.188   1.778
 3068SOL    HW110103   7.016   0.206   1.740
 3068SOL    HW210104   6.933   0.163   1.874
 3069SOL     OW10105   6.100   6.408   3.342
 3069SOL    HW110106   6.158   6.329   3.321
 3069SOL    HW210107   6.017   6.405   3.286
 3070SOL     OW10108   2.521   0.791   6.624
 3070SOL    HW110109   2.447   0.743   6.670
 3070SOL    HW210110   2.491   0.884   6.600
 3071SOL     OW10111   6.380   5.308   3.859
 3071SOL    HW110112   6.329   5.355   3.787
 3071SOL    HW210113   6.462   5.361   3.881
 3072SOL     OW10114   1.956   6.030   6.889
 3072SOL    HW110115   2.042   6.080   6.903
 3072SOL    HW210116   1.879   6.087   6.916
 3073SOL     OW10117   7.019   4.118   1.670
 3073SOL    HW110118   6.986   4.112   1.765
 3073SOL    HW210119   7.013   4.028   1.627
 3074SOL     OW10120   1.069   4.162   1.012
 3074SOL    HW110121   1.063   4.225   1.089
 3074SOL    HW210122   1.077   4.214   0.927
 3075SOL     OW10123   2.426   5.419   3.894
 3075SOL    HW110124   2.474   5.378   3.815
 3075SOL    HW210125   2.334   5.448   3.865
 3076SOL     OW10126   6.733   1.559   4.801
 3076SOL    HW110127   6.822   1.605   4.805
 3076SOL    HW210128   6.702   1.540   4.893
 3077SOL     OW10129   5.960   3.364   1.986
 3077SOL    HW110130   5.950   3.463   1.990
 3077SOL    HW210131   5.975   3.328   2.079
 3078SOL     OW10132   6.656   3.390   1.898
 3078SOL    HW110133   6.590   3.343   1.956
 3078SOL    HW210134   6.608   3.443   1.829
 3079SOL     OW10135   3.277   2.164   3.648
 3079SOL    HW110136   3.353   2.144   3.709
 3079SOL    HW210137   3.311   2.175   3.554
 3080SOL     OW10138   4.963   4.241   2.118
 3080SOL    HW110139   4.997   4.150   2.096
 3080SOL    HW210140   4.999   4.270   2.207
 3081SOL     OW10141   0.721   4.549   5.929
 3081SOL    HW110142   0.660   4.509   5.861
 3081SOL    HW210143   0.670   4.612   5.987
 3082SOL     OW10144   2.717   5.897   4.031
 3082SOL    HW110145   2.723   5.912   4.130
 3082SOL    HW210146   2.799   5.848   4.000
 3083SOL     OW10147   3.106   6.260   3.020
 3083SOL    HW110148   3.075   6.267   2.925
 3083SOL    HW210149   3.056   6.187   3.067
 3084SOL     OW10150   6.632   3.994   2.705
 3084SOL    HW110151   6.576   3.988   2.623
 3084SOL    HW210152   6.664   4.088   2.717
 3085SOL     OW10153   5.624   4.149   0.846
 3085SOL    HW110154   5.641   4.063   0.798
 3085SOL    HW210155   5.607   4.221   0.778
 3086SOL     OW10156   4.469   0.822   0.057
 3086SOL    HW110157   4.504   0.853   6.999
 3086SOL    HW210158   4.528   0.856   0.130
 3087SOL     OW10159   2.819   6.408   3.036
 3087SOL    HW110160   2.758   6.485   3.021
 3087SOL    HW210161   2.819   6.383   3.133
 3088SOL     OW10162   1.474   3.161   5.690
 3088SOL    HW110163   1.487   3.066   5.718
 3088SOL    HW210164   1.397   3.167   5.627
 3089SOL     OW10165   4.484   2.526   4.686
 3089SOL    HW110166   4.397   2.478   4.684
 3089SOL    HW210167   4.510   2.553   4.593
 3090SOL     OW10168   2.287   1.212   2.371
 3090SOL    HW110169   2.201   1.186   2.416
 3090SOL    HW210170   2.268   1.282   2.302
 3091SOL     OW10171   1.548   1.188   0.910
 3091SOL    HW110172   1.475   1.232   0.858
 3091SOL    HW210173   1.637   1.214   0.872
 3092SOL     OW10174   5.024   6.564   1.082
 3092SOL    HW110175   4.968   6.503   1.139
 3092SOL    HW210176   5.120   6.535   1.087
 3093SOL     OW10177   5.616   6.514   5.598
 3093SOL    HW110178   5.703   6.541   5.641
 3093SOL    HW210179   5.568   6.596   5.566
 3094SOL     OW10180   2.931   0.325   4.404
 3094SOL    HW110181   2.861   0.390   4.374
 3094SOL    HW210182   2.922   0.240   4.353
 3095SOL     OW10183   2.257   3.778   5.978
 3095SOL    HW110184   2.301   3.838   5.911
 3095SOL    HW210185   2.222   3.696   5.932
 3096SOL     OW10186   0.950   4.390   5.292
 3096SOL    HW110187   0.866   4.342   5.317
 3096SOL    HW210188   0.936   4.443   5.209
 3097SOL     OW10189   5.847   2.890   6.974
 3097SOL    HW110190   5.764   2.884   6.919
 3097SOL    HW210191   5.898   2.805   6.966
 3098SOL     OW10192   1.793   3.421   1.849
 3098SOL    HW110193   1.754   3.386   1.934
 3098SOL    HW210194   1.890   3.440   1.862
 3099SOL     OW10195   0.984   6.371   3.958
 3099SOL    HW110196   1.013   6.282   3.992
 3099SOL    HW210197   1.065   6.425   3.934
 3100SOL     OW10198   6.975   6.237   2.482
 3100SOL    HW110199   6.951   6.259   2.388
 3100SOL    HW210200   6.893   6.213   2.533
 3101SOL     OW10201   4.524   6.486   5.700
 3101SOL    HW110202   4.609   6.536   5.718
 3101SOL    HW210203   4.507   6.422   5.775
 3102SOL     OW10204   6.719   6.175   1.105
 3102SOL    HW110205   6.680   6.202   1.193
 3102SOL    HW210206   6.661   6.210   1.031
 3103SOL     OW10207   4.880   0.676   1.386
 3103SOL    HW110208   4.951   0.606   1.386
 3103SOL    HW210209   4.797   0.640   1.343
 3104SOL     OW10210   3.322   0.653   6.424
 3104SOL    HW110211   3.405   0.678   6.375
 3104SOL    HW210212   3.310   0.713   6.503
 3105SOL     OW10213   4.516   3.766   1.385
 3105SOL    HW110214   4.465   3.751   1.470
 3105SOL    HW210215   4.484   3.850   1.342
 3106SOL     OW10216   5.442   6.844   4.981
 3106SOL    HW110217   5.415   6.831   4.886
 3106SOL    HW210218   5.526   6.794   4.999
 3107SOL     OW10219   4.307   1.490   4.409
 3107SOL    HW110220   4.290   1.400   4.369
 3107SOL    HW210221   4.375   1.482   4.482
 3108SOL     OW10222   1.987   5.392   4.897
 3108SOL    HW110223   2.038   5.360   4.817
 3108SOL    HW210224   2.049   5.402   4.974
 3109SOL     OW10225   6.235   0.457   4.493
 3109SOL    HW110226   6.159   0.392   4.488
 3109SOL    HW210227   6.322   0.409   4.482
 3110SOL     OW10228   2.186   4.207   3.301
 3110SOL    HW110229   2.147   4.200   3.209
 3110SOL    HW210230   2.256   4.278   3.302
 3111SOL     OW10231   0.516   4.461   3.255
 3111SOL    HW110232   0.569   4.388   3.300
 3111SOL    HW210233   0.427   4.425   3.227
 3112SOL     OW10234   3.203   3.185   7.012
 3112SOL    HW110235   3.118   3.190   6.960
 3112SOL    HW210236   3.211   3.265   0.041
 3113SOL     OW10237   3.082   6.655   2.842
 3113SOL    HW110238   3.168   6.654   2.790
 3113SOL    HW210239   3.069   6.567   2.887
 3114SOL     OW10240   4.066   1.598   0.160
 3114SOL    HW110241   3.983   1.567   0.206
 3114SOL    HW210242   4.146   1.569   0.213
 3115SOL     OW10243   3.830   4.549   5.314
 3115SOL    HW110244   3.791   4.511   5.230
 3115SOL    HW210245   3.930   4.539   5.313
 3116SOL     OW10246   0.133   1.709   0.157
 3116SOL    HW110247   0.229   1.688   0.176
 3116SOL    HW210248   0.080   1.625   0.159
 3117SOL     OW10249   4.378   2.887   5.524
 3117SOL    HW110250   4.464   2.852   5.487
 3117SOL    HW210251   4.303   2.865   5.461
 3118SOL     OW10252   1.041   6.633   2.020
 3118SOL    HW110253   1.085   6.670   2.101
 3118SOL    HW210254   1.068   6.537   2.008
 3119SOL     OW10255   2.970   2.302   5.808
 3119SOL    HW110256   2.911   2.236   5.761
 3119SOL    HW210257   2.930   2.393   5.802
 3120SOL     OW10258   3.415   1.035   5.939
 3120SOL    HW110259   3.395   1.127   5.905
 3120SOL    HW210260   3.468   1.041   6.023
 3121SOL     OW10261   6.061   2.152   4.266
 3121SOL    HW110262   6.054   2.116   4.173
 3121SOL    HW210263   6.124   2.095   4.320
 3122SOL     OW10264   4.474   4.759   5.350
 3122SOL    HW110265   4.412   4.788   5.423
 3122SOL    HW210266   4.550   4.824   5.343
 3123SOL     OW10267   1.539   1.242   3.005
 3123SOL    HW110268   1.445   1.211   2.992
 3123SOL    HW210269   1.594   1.167   3.042
 3124SOL     OW10270   5.302   6.969   3.638
 3124SOL    HW110271   5.328   7.023   3.558
 3124SOL    HW210272   5.275   0.001   3.712
 3125SOL     OW10273   1.339   2.948   5.417
 3125SOL    HW110274   1.413   3.014   5.408
 3125SOL    HW210275   1.276   2.958   5.340
 3126SOL     OW10276   5.259   4.449   5.574
 3126SOL    HW110277   5.350   4.435   5.613
 3126SOL    HW210278   5.235   4.546   5.581
 3127SOL     OW10279   1.982   2.453   4.924
 3127SOL    HW110280   1.947   2.521   4.860
 3127SOL    HW210281   2.025   2.500   5.001
 3128SOL     OW10282   3.547   0.731   0.423
 3128SOL    HW110283   3.517   0.748   0.329
 3128SOL    HW210284   3.636   0.686   0.422
 3129SOL     OW10285   4.965   3.707   1.051
 3129SOL    HW110286   5.017   3.716   1.136
 3129SOL    HW210287   4.966   3.612   1.021
 3130SOL     OW10288   1.632   4.266   1.298
 3130SOL    HW110289   1.609   4.224   1.210
 3130SOL    HW210290   1.731   4.281   1.303
 3131SOL     OW10291   0.492   3.355   2.343
 3131SOL    HW110292   0.478   3.318   2.251
 3131SOL    HW210293   0.412   3.333   2.400
 3132SOL     OW10294   4.563   5.131   6.531
 3132SOL    HW110295   4.540   5.214   6.479
 3132SOL    HW210296   4.605   5.157   6.618
 3133SOL     OW10297   3.714   0.891   2.912
 3133SOL    HW110298   3.640   0.954   2.934
 3133SOL    HW210299   3.740   0.902   2.816
 3134SOL     OW10300   4.165   5.015   1.741
 3134SOL    HW110301   4.175   5.001   1.840
 3134SOL    HW210302   4.253   4.998   1.697
 3135SOL     OW10303   4.922   6.645   6.162
 3135SOL    HW110304   4.883   6.576   6.102
 3135SOL    HW210305   4.974   6.600   6.235
 3136SOL     OW10306   5.497   0.262   1.781
 3136SOL    HW110307   5.429   0.188   1.777
 3136SOL    HW210308   5.533   0.270   1.874
 3137SOL     OW10309   6.554   6.749   2.926
 3137SOL    HW110310   6.573   6.723   3.021
 3137SOL    HW210311   6.506   6.673   2.881
 3138SOL     OW10312   5.939   5.653   3.533
 3138SOL    HW110313   5.964   5.636   3.437
 3138SOL    HW210314   5.875   5.730   3.537
 3139SOL     OW10315   3.674   4.877   1.430
 3139SOL    HW110316   3.646   4.913   1.519
 3139SOL    HW210317   3.674   4.950   1.362
 3140SOL     OW10318   6.494   6.518   5.423
 3140SOL    HW110319   6.537   6.584   5.362
 3140SOL    HW210320   6.522   6.425   5.396
 3141SOL     OW10321   0.523   6.933   6.796
 3141SOL    HW110322   0.613   6.972   6.816
 3141SOL    HW210323   0.524   6.890   6.706
 3142SOL     OW10324   3.409   0.894   3.532
 3142SOL    HW110325   3.442   0.830   3.602
 3142SOL    HW210326   3.334   0.948   3.569
 3143SOL     OW10327   6.351   1.909   6.692
 3143SOL    HW110328   6.361   1.817   6.654
 3143SOL    HW210329   6.367   1.907   6.791
 3144SOL     OW10330   4.652   3.725   0.636
 3144SOL    HW110331   4.652   3.757   0.541
 3144SOL    HW210332   4.558   3.702   0.663
 3145SOL     OW10333   2.152   6.458   2.418
 3145SOL    HW110334   2.161   6.538   2.478
 3145SOL    HW210335   2.207   6.383   2.456
 3146SOL     OW10336   0.510   1.070   4.862
 3146SOL    HW110337   0.513   1.028   4.772
 3146SOL    HW210338   0.493   0.999   4.931
 3147SOL     OW10339   2.997   5.227   6.832
 3147SOL    HW110340   2.957   5.251   6.920
 3147SOL    HW210341   2.964   5.136   6.805
 3148SOL     OW10342   6.869   0.623   4.232
 3148SOL    HW110343   6.843   0.702   4.176
 3148SOL    HW210344   6.803   0.611   4.306
 3149SOL     OW10345   3.064   1.226   6.848
 3149SOL    HW110346   3.109   1.297   6.793
 3149SOL    HW210347   2.968   1.250   6.863
 3150SOL     OW10348   7.011   6.204   4.916
 3150SOL    HW110349   6.928   6.259   4.917
 3150SOL    HW210350   0.000   6.170   5.008
 3151SOL     OW10351   6.972   1.696   5.915
 3151SOL    HW110352   6.906   1.625   5.891
 3151SOL    HW210353   6.923   1.780   5.939
 3152SOL     OW10354   0.515   3.853   0.098
 3152SOL    HW110355   0.520   3.765   0.145
 3152SOL    HW210356   0.559   3.923   0.153
 3153SOL     OW10357   6.370   5.321   0.096
 3153SOL    HW110358   6.323   5.405   0.071
 3153SOL    HW210359   6.345   5.296   0.190
 3154SOL     OW10360   6.466   1.035   0.972
 3154SOL    HW110361   6.426   0.946   0.994
 3154SOL    HW210362   6.452   1.098   1.049
 3155SOL     OW10363   6.052   4.644   0.205
 3155SOL    HW110364   6.068   4.682   0.114
 3155SOL    HW210365   6.060   4.716   0.274
 3156SOL     OW10366   3.181   4.011   2.098
 3156SOL    HW110367   3.166   4.017   2.197
 3156SOL    HW210368   3.275   4.035   2.077
 3157SOL     OW10369   1.862   1.402   4.957
 3157SOL    HW110370   1.780   1.388   4.901
 3157SOL    HW210371   1.837   1.449   5.042
 3158SOL     OW10372   2.344   1.038   4.785
 3158SOL    HW110373   2.316   1.129   4.815
 3158SOL    HW210374   2.439   1.021   4.812
 3159SOL     OW10375   5.692   0.290   6.601
 3159SOL    HW110376   5.598   0.256   6.599
 3159SOL    HW210377   5.744   0.248   6.527
 3160SOL     OW10378   1.324   6.642   5.766
 3160SOL    HW110379   1.329   6.610   5.860
 3160SOL    HW210380   1.266   6.724   5.762
 3161SOL     OW10381   2.782   2.313   2.848
 3161SOL    HW110382   2.865   2.273   2.886
 3161SOL    HW210383   2.796   2.335   2.752
 3162SOL     OW10384   1.027   5.620   1.147
 3162SOL    HW110385   1.001   5.530   1.112
 3162SOL    HW210386   0.948   5.683   1.140
 3163SOL     OW10387   3.874   4.035   7.023
 3163SOL    HW110388   3.931   4.064   6.946
 3163SOL    HW210389   3.872   3.936   7.028
 3164SOL     OW10390   3.854   5.405   2.329
 3164SOL    HW110391   3.901   5.413   2.417
 3164SOL    HW210392   3.904   5.456   2.259
 3165SOL     OW10393   0.773   5.701   1.678
 3165SOL    HW110394   0.842   5.634   1.704
 3165SOL    HW210395   0.805   5.793   1.702
 3166SOL     OW10396   5.032   1.896   3.821
 3166SOL    HW110397   5.066   1.818   3.875
 3166SOL    HW210398   5.082   1.979   3.848
 3167SOL     OW10399   5.644   4.249   0.541
 3167SOL    HW110400   5.699   4.331   0.526
 3167SOL    HW210401   5.702   4.168   0.533
 3168SOL     OW10402   5.996   3.085   0.034
 3168SOL    HW110403   5.930   3.016   0.005
 3168SOL    HW210404   5.951   3.151   0.094
 3169SOL     OW10405   2.206   3.960   3.687
 3169SOL    HW110406   2.211   3.979   3.785
 3169SOL    HW210407   2.202   3.861   3.672
 3170SOL     OW10408   4.318   5.584   2.288
 3170SOL    HW110409   4.235   5.632   2.317
 3170SOL    HW210410   4.328   5.500   2.341
 3171SOL     OW10411   6.042   2.100   1.528
 3171SOL    HW110412   6.014   2.104   1.432
 3171SOL    HW210413   5.968   2.133   1.586
 3172SOL     OW10414   0.231   5.155   6.459
 3172SOL    HW110415   0.287   5.146   6.377
 3172SOL    HW210416   0.284   5.124   6.538
 3173SOL     OW10417   3.147   2.233   6.545
 3173SOL    HW110418   3.201   2.267   6.468
 3173SOL    HW210419   3.055   2.273   6.541
 3174SOL     OW10420   3.179   3.032   6.691
 3174SOL    HW110421   3.241   2.996   6.622
 3174SOL    HW210422   3.185   3.132   6.694
 3175SOL     OW10423   5.902   1.635   1.603
 3175SOL    HW110424   5.972   1.616   1.672
 3175SOL    HW210425   5.934   1.708   1.542
 3176SOL     OW10426   0.792   3.051   5.541
 3176SOL    HW110427   0.870   3.057   5.480
 3176SOL    HW210428   0.815   3.094   5.629
 3177SOL     OW10429   5.080   4.114   3.879
 3177SOL    HW110430   5.015   4.092   3.951
 3177SOL    HW210431   5.132   4.032   3.855
 3178SOL     OW10432   6.373   2.373   6.925
 3178SOL    HW110433   6.466   2.335   6.931
 3178SOL    HW210434   6.368   2.458   6.976
 3179SOL     OW10435   1.179   1.975   1.895
 3179SOL    HW110436   1.197   2.004   1.989
 3179SOL    HW210437   1.213   2.046   1.832
 3180SOL     OW10438   6.277   6.933   0.860
 3180SOL    HW110439   6.311   6.909   0.769
 3180SOL    HW210440   6.350   6.924   0.927
 3181SOL     OW10441   6.472   2.550   3.941
 3181SOL    HW110442   6.407   2.597   3.882
 3181SOL    HW210443   6.462   2.583   4.035
 3182SOL     OW10444   2.745   0.135   0.509
 3182SOL    HW110445   2.654   0.111   0.475
 3182SOL    HW210446   2.812   0.069   0.476
 3183SOL     OW10447   4.481   4.533   2.654
 3183SOL    HW110448   4.532   4.506   2.736
 3183SOL    HW210449   4.392   4.570   2.681
 3184SOL     OW10450   0.574   1.904   3.194
 3184SOL    HW110451   0.485   1.918   3.236
 3184SOL    HW210452   0.571   1.935   3.098
 3185SOL     OW10453   4.714   6.339   6.980
 3185SOL    HW110454   4.661   6.257   6.959
 3185SOL    HW210455   4.651   6.414   7.002
 3186SOL     OW10456   3.143   2.130   0.074
 3186SOL    HW110457   3.198   2.133   7.021
 3186SOL    HW210458   3.046   2.140   0.050
 3187SOL     OW10459   3.808   5.375   1.838
 3187SOL    HW110460   3.896   5.356   1.795
 3187SOL    HW210461   3.740   5.398   1.768
 3188SOL     OW10462   1.729   7.022   4.479
 3188SOL    HW110463   1.818   6.991   4.445
 3188SOL    HW210464   1.716   0.089   4.456
 3189SOL     OW10465   1.227   1.737   0.982
 3189SOL    HW110466   1.317   1.748   1.024
 3189SOL    HW210467   1.219   1.646   0.942
 3190SOL     OW10468   0.104   5.767   0.102
 3190SOL    HW110469   0.078   5.856   0.140
 3190SOL    HW210470   0.023   5.725   0.061
 3191SOL     OW10471   4.750   5.030   1.678
 3191SOL    HW110472   4.825   5.031   1.612
 3191SOL    HW210473   4.720   4.936   1.692
 3192SOL     OW10474   0.558   2.962   0.906
 3192SOL    HW110475   0.587   3.023   0.832
 3192SOL    HW210476   0.618   2.883   0.910
 3193SOL     OW10477   3.668   1.583   4.978
 3193SOL    HW110478   3.627   1.625   4.897
 3193SOL    HW210479   3.699   1.491   4.955
 3194SOL     OW10480   1.493   2.109   5.860
 3194SOL    HW110481   1.508   2.169   5.781
 3194SOL    HW210482   1.577   2.056   5.878
 3195SOL     OW10483   0.851   1.591   1.814
 3195SOL    HW110484   0.761   1.578   1.772
 3195SOL    HW210485   0.921   1.552   1.755
 3196SOL     OW10486   6.984   0.346   6.741
 3196SOL    HW110487   6.906   0.303   6.696
 3196SOL    HW210488   6.999   0.304   6.830
 3197SOL     OW10489   2.783   6.862   4.855
 3197SOL    HW110490   2.777   6.769   4.818
 3197SOL    HW210491   2.845   6.917   4.799
 3198SOL     OW10492   6.816   3.030   2.836
 3198SOL    HW110493   6.726   3.004   2.871
 3198SOL    HW210494   6.808   3.116   2.787
 3199SOL     OW10495   5.130   4.027   3.063
 3199SOL    HW110496   5.173   3.952   3.013
 3199SOL    HW210497   5.046   3.994   3.107
 3200SOL     OW10498   5.731   3.053   2.324
 3200SOL    HW110499   5.785   3.020   2.247
 3200SOL    HW210500   5.791   3.075   2.400
 3201SOL     OW10501   6.587   4.506   2.984
 3201SOL    HW110502   6.538   4.456   3.055
 3201SOL    HW210503   6.681   4.522   3.014
 3202SOL     OW10504   1.105   4.904   0.657
 3202SOL    HW110505   1.037   4.833   0.638
 3202SOL    HW210506   1.197   4.865   0.651
 3203SOL     OW10507   5.888   1.436   0.798
 3203SOL    HW110508   5.973   1.386   0.813
 3203SOL    HW210509   5.873   1.446   0.699
 3204SOL     OW10510   3.892   0.160   3.296
 3204SOL    HW110511   3.938   0.099   3.361
 3204SOL    HW210512   3.803   0.122   3.272
 3205SOL     OW10513   4.661   3.100   6.328
 3205SOL    HW110514   4.741   3.042   6.343
 3205SOL    HW210515   4.692   3.191   6.300
 3206SOL     OW10516   1.717   4.273   0.987
 3206SOL    HW110517   1.685   4.192   1.036
 3206SOL    HW210518   1.639   4.334   0.969
 3207SOL     OW10519   1.184   1.178   6.665
 3207SOL    HW110520   1.147   1.266   6.636
 3207SOL    HW210521   1.274   1.192   6.705
 3208SOL     OW10522   5.473   6.041   6.411
 3208SOL    HW110523   5.405   5.968   6.413
 3208SOL    HW210524   5.465   6.091   6.325
 3209SOL     OW10525   2.934   5.112   4.285
 3209SOL    HW110526   2.932   5.013   4.280
 3209SOL    HW210527   2.858   5.144   4.342
 3210SOL     OW10528   1.302   4.606   1.176
 3210SOL    HW110529   1.393   4.644   1.190
 3210SOL    HW210530   1.274   4.623   1.081
 3211SOL     OW10531   1.444   3.917   0.735
 3211SOL    HW110532   1.358   3.947   0.777
 3211SOL    HW210533   1.470   3.828   0.773
 3212SOL     OW10534   3.082   6.845   2.569
 3212SOL    HW110535   3.070   6.897   2.485
 3212SOL    HW210536   3.022   6.882   2.640
 3213SOL     OW10537   0.867   0.283   6.974
 3213SOL    HW110538   0.961   0.291   6.940
 3213SOL    HW210539   0.828   0.374   6.987
 3214SOL     OW10540   4.486   5.753   2.169
 3214SOL    HW110541   4.413   5.705   2.217
 3214SOL    HW210542   4.462   5.849   2.158
 3215SOL     OW10543   0.300   4.074   0.632
 3215SOL    HW110544   0.377   4.044   0.577
 3215SOL    HW210545   0.295   4.019   0.716
 3216SOL     OW10546   6.138   5.771   0.674
 3216SOL    HW110547   6.226   5.818   0.673
 3216SOL    HW210548   6.092   5.783   0.586
 3217SOL     OW10549   0.284   5.488   2.391
 3217SOL    HW110550   0.254   5.578   2.422
 3217SOL    HW210551   0.255   5.418   2.456
 3218SOL     OW10552   5.790   2.482   3.232
 3218SOL    HW110553   5.846   2.561   3.258
 3218SOL    HW210554   5.848   2.404   3.214
 3219SOL     OW10555   0.242   1.094   4.157
 3219SOL    HW110556   0.255   1.180   4.206
 3219SOL    HW210557   0.316   1.031   4.179
 3220SOL     OW10558   0.136   5.763   5.587
 3220SOL    HW110559   0.040   5.760   5.614
 3220SOL    HW210560   0.193   5.773   5.668
 3221SOL     OW10561   3.560   6.992   2.349
 3221SOL    HW110562   3.483   7.017   2.407
 3221SOL    HW210563   3.635   0.026   2.364
 3222SOL     OW10564   2.919   1.510   2.914
 3222SOL    HW110565   2.900   1.538   3.009
 3222SOL    HW210566   2.870   1.571   2.852
 3223SOL     OW10567   2.667   6.463   0.030
 3223SOL    HW110568   2.725   6.543   0.040
 3223SOL    HW210569   2.695   6.412   6.979
 3224SOL     OW10570   4.824   3.076   5.011
 3224SOL    HW110571   4.818   3.173   5.032
 3224SOL    HW210572   4.876   3.063   4.927
 3225SOL     OW10573   4.968   2.051   6.104
 3225SOL    HW110574   4.889   2.109   6.088
 3225SOL    HW210575   5.041   2.105   6.148
 3226SOL     OW10576   2.444   0.994   2.223
 3226SOL    HW110577   2.428   1.084   2.263
 3226SOL    HW210578   2.424   0.997   2.125
 3227SOL     OW10579   3.755   3.754   6.546
 3227SOL    HW110580   3.759   3.812   6.628
 3227SOL    HW210581   3.661   3.723   6.532
 3228SOL     OW10582   6.637   3.896   1.092
 3228SOL    HW110583   6.650   3.976   1.151
 3228SOL    HW210584   6.540   3.885   1.071
 3229SOL     OW10585   3.785   1.065   5.630
 3229SOL    HW110586   3.798   1.024   5.720
 3229SOL    HW210587   3.842   1.017   5.563
 3230SOL     OW10588   2.206   5.230   6.118
 3230SOL    HW110589   2.292   5.259   6.077
 3230SOL    HW210590   2.213   5.134   6.145
 3231SOL     OW10591   2.746   0.423   2.246
 3231SOL    HW110592   2.831   0.476   2.238
 3231SOL    HW210593   2.682   0.452   2.174
 3232SOL     OW10594   4.332   6.458   4.702
 3232SOL    HW110595   4.257   6.398   4.730
 3232SOL    HW210596   4.296   6.549   4.683
 3233SOL     OW10597   6.680   2.400   0.725
 3233SOL    HW110598   6.712   2.455   0.802
 3233SOL    HW210599   6.595   2.438   0.690
 3234SOL     OW10600   0.885   2.453   0.176
 3234SOL    HW110601   0.836   2.385   0.121
 3234SOL    HW210602   0.939   2.511   0.115
 3235SOL     OW10603   6.981   6.997   1.593
 3235SOL    HW110604   6.932   6.982   1.507
 3235SOL    HW210605   6.938   0.042   1.643
 3236SOL     OW10606   0.614   4.130   0.253
 3236SOL    HW110607   0.647   4.150   0.346
 3236SOL    HW210608   0.692   4.120   0.192
 3237SOL     OW10609   6.118   1.758   2.030
 3237SOL    HW110610   6.039   1.817   2.043
 3237SOL    HW210611   6.110   1.710   1.942
 3238SOL     OW10612   6.262   5.544   6.759
 3238SOL    HW110613   6.232   5.569   6.851
 3238SOL    HW210614   6.357   5.513   6.763
 3239SOL     OW10615   0.450   1.350   2.593
 3239SOL    HW110616   0.494   1.439   2.602
 3239SOL    HW210617   0.465   1.297   2.677
 3240SOL     OW10618   6.985   6.841   6.571
 3240SOL    HW110619   6.983   6.849   6.472
 3240SOL    HW210620   0.000   6.921   6.611
 3241SOL     OW10621   4.875   1.005   5.944
 3241SOL    HW110622   4.828   0.963   5.867
 3241SOL    HW210623   4.810   1.023   6.018
 3242SOL     OW10624   4.267   4.447   6.351
 3242SOL    HW110625   4.343   4.513   6.356
 3242SOL    HW210626   4.251   4.422   6.256
 3243SOL     OW10627   4.718   5.034   0.597
 3243SOL    HW110628   4.697   5.013   0.502
 3243SOL    HW210629   4.650   5.098   0.633
 3244SOL     OW10630   4.932   6.370   0.133
 3244SOL    HW110631   4.989   6.450   0.113
 3244SOL    HW210632   4.858   6.363   0.066
 3245SOL     OW10633   5.217   2.530   3.627
 3245SOL    HW110634   5.275   2.580   3.691
 3245SOL    HW210635   5.214   2.433   3.652
 3246SOL     OW10636   6.708   6.977   3.034
 3246SOL    HW110637   6.655   6.906   2.988
 3246SOL    HW210638   6.797   6.987   2.990
 3247SOL     OW10639   5.791   4.102   2.131
 3247SOL    HW110640   5.886   4.133   2.122
 3247SOL    HW210641   5.760   4.063   2.044
 3248SOL     OW10642   5.599   2.660   2.260
 3248SOL    HW110643   5.555   2.728   2.201
 3248SOL    HW210644   5.586   2.569   2.222
 3249SOL     OW10645   3.432   4.144   3.263
 3249SOL    HW110646   3.421   4.154   3.165
 3249SOL    HW210647   3.527   4.166   3.289
 3250SOL     OW10648   5.684   6.982   2.492
 3250SOL    HW110649   5.634   6.898   2.474
 3250SOL    HW210650   5.633   0.030   2.456
 3251SOL     OW10651   3.712   0.471   3.863
 3251SOL    HW110652   3.704   0.507   3.956
 3251SOL    HW210653   3.624   0.432   3.836
 3252SOL     OW10654   2.690   1.207   2.769
 3252SOL    HW110655   2.670   1.135   2.835
 3252SOL    HW210656   2.610   1.222   2.711
 3253SOL     OW10657   4.702   3.445   0.948
 3253SOL    HW110658   4.665   3.504   1.019
 3253SOL    HW210659   4.792   3.411   0.976
 3254SOL     OW10660   5.033   6.120   0.016
 3254SOL    HW110661   4.988   6.204   0.047
 3254SOL    HW210662   5.095   6.140   6.971
 3255SOL     OW10663   4.046   6.530   1.326
 3255SOL    HW110664   4.114   6.586   1.372
 3255SOL    HW210665   3.998   6.584   1.258
 3256SOL     OW10666   3.392   1.286   1.113
 3256SOL    HW110667   3.348   1.320   1.196
 3256SOL    HW210668   3.469   1.345   1.090
 3257SOL     OW10669   1.270   2.150   1.442
 3257SOL    HW110670   1.336   2.079   1.419
 3257SOL    HW210671   1.306   2.206   1.516
 3258SOL     OW10672   4.593   5.887   2.454
 3258SOL    HW110673   4.653   5.967   2.466
 3258SOL    HW210674   4.543   5.872   2.539
 3259SOL     OW10675   4.994   4.778   4.851
 3259SOL    HW110676   4.952   4.702   4.802
 3259SOL    HW210677   5.092   4.780   4.831
 3260SOL     OW10678   1.688   2.463   1.227
 3260SOL    HW110679   1.763   2.434   1.167
 3260SOL    HW210680   1.658   2.385   1.282
 3261SOL     OW10681   5.654   0.834   1.220
 3261SOL    HW110682   5.621   0.743   1.193
 3261SOL    HW210683   5.735   0.824   1.278
 3262SOL     OW10684   3.639   2.046   2.487
 3262SOL    HW110685   3.636   1.958   2.535
 3262SOL    HW210686   3.695   2.110   2.540
 3263SOL     OW10687   3.137   1.274   3.265
 3263SOL    HW110688   3.223   1.269   3.214
 3263SOL    HW210689   3.080   1.347   3.228
 3264SOL     OW10690   1.965   5.357   1.173
 3264SOL    HW110691   1.978   5.284   1.241
 3264SOL    HW210692   1.871   5.389   1.176
 3265SOL     OW10693   4.900   6.911   6.258
 3265SOL    HW110694   4.892   6.813   6.236
 3265SOL    HW210695   4.830   6.962   6.208
 3266SOL     OW10696   2.712   4.479   7.009
 3266SOL    HW110697   2.624   4.433   6.994
 3266SOL    HW210698   2.773   4.418   0.029
 3267SOL     OW10699   2.976   6.159   1.666
 3267SOL    HW110700   3.037   6.204   1.731
 3267SOL    HW210701   2.886   6.148   1.707
 3268SOL     OW10702   2.481   4.119   1.440
 3268SOL    HW110703   2.433   4.032   1.455
 3268SOL    HW210704   2.477   4.174   1.523
 3269SOL     OW10705   5.635   5.973   2.360
 3269SOL    HW110706   5.733   5.992   2.354
 3269SOL    HW210707   5.600   6.007   2.447
 3270SOL     OW10708   1.720   4.116   6.810
 3270SOL    HW110709   1.738   4.155   6.900
 3270SOL    HW210710   1.772   4.031   6.800
 3271SOL     OW10711   6.653   2.811   1.318
 3271SOL    HW110712   6.586   2.737   1.312
 3271SOL    HW210713   6.682   2.837   1.226
 3272SOL     OW10714   2.931   4.430   6.164
 3272SOL    HW110715   2.953   4.478   6.249
 3272SOL    HW210716   2.887   4.493   6.100
 3273SOL     OW10717   6.395   5.010   0.054
 3273SOL    HW110718   6.392   5.099   0.099
 3273SOL    HW210719   6.396   4.937   0.122
 3274SOL     OW10720   6.032   0.515   0.420
 3274SOL    HW110721   6.034   0.475   0.328
 3274SOL    HW210722   5.948   0.486   0.467
 3275SOL     OW10723   5.327   0.958   0.182
 3275SOL    HW110724   5.387   0.924   0.255
 3275SOL    HW210725   5.309   1.055   0.197
 3276SOL     OW10726   4.293   6.198   6.814
 3276SOL    HW110727   4.357   6.169   6.743
 3276SOL    HW210728   4.297   6.134   6.891
 3277SOL     OW10729   3.264   1.086   1.000
 3277SOL    HW110730   3.293   1.084   0.904
 3277SOL    HW210731   3.324   1.146   1.052
 3278SOL     OW10732   1.269   1.241   5.361
 3278SOL    HW110733   1.203   1.297   5.412
 3278SOL    HW210734   1.227   1.154   5.337
 3279SOL     OW10735   5.367   6.637   0.259
 3279SOL    HW110736   5.317   6.567   0.308
 3279SOL    HW210737   5.460   6.606   0.241
 3280SOL     OW10738   4.849   4.581   4.687
 3280SOL    HW110739   4.908   4.515   4.640
 3280SOL    HW210740   4.822   4.653   4.623
 3281SOL     OW10741   0.930   4.811   1.240
 3281SOL    HW110742   0.997   4.869   1.286
 3281SOL    HW210743   0.883   4.754   1.307
 3282SOL     OW10744   6.852   5.215   4.991
 3282SOL    HW110745   6.880   5.311   4.992
 3282SOL    HW210746   6.909   5.164   4.927
 3283SOL     OW10747   3.242   1.012   1.289
 3283SOL    HW110748   3.202   1.094   1.330
 3283SOL    HW210749   3.303   1.039   1.215
 3284SOL     OW10750   0.956   6.166   6.302
 3284SOL    HW110751   0.963   6.195   6.207
 3284SOL    HW210752   0.994   6.237   6.362
 3285SOL     OW10753   4.513   2.241   4.189
 3285SOL    HW110754   4.484   2.147   4.205
 3285SOL    HW210755   4.550   2.279   4.274
 3286SOL     OW10756   4.165   3.218   2.006
 3286SOL    HW110757   4.109   3.136   2.010
 3286SOL    HW210758   4.236   3.213   2.076
 3287SOL     OW10759   0.492   0.081   0.280
 3287SOL    HW110760   0.466   0.138   0.358
 3287SOL    HW210761   0.439   7.026   0.282
 3288SOL     OW10762   2.168   6.413   0.201
 3288SOL    HW110763   2.092   6.360   0.163
 3288SOL    HW210764   2.200   6.479   0.134
 3289SOL     OW10765   3.079   1.365   5.937
 3289SOL    HW110766   2.993   1.417   5.931
 3289SOL    HW210767   3.156   1.428   5.936
 3290SOL     OW10768   6.732   4.863   1.198
 3290SOL    HW110769   6.763   4.876   1.292
 3290SOL    HW210770   6.787   4.791   1.155
 3291SOL     OW10771   2.090   0.537   5.975
 3291SOL    HW110772   2.162   0.489   6.025
 3291SOL    HW210773   2.131   0.608   5.918
 3292SOL     OW10774   6.990   0.894   0.539
 3292SOL    HW110775   6.925   0.891   0.615
 3292SOL    HW210776   0.043   0.941   0.569
 3293SOL     OW10777   6.112   4.623   1.687
 3293SOL    HW110778   6.191   4.652   1.741
 3293SOL    HW210779   6.055   4.702   1.665
 3294SOL     OW10780   5.362   3.206   6.315
 3294SOL    HW110781   5.410   3.168   6.394
 3294SOL    HW210782   5.425   3.213   6.238
 3295SOL     OW10783   0.998   2.946   2.070
 3295SOL    HW110784   1.007   3.045   2.056
 3295SOL    HW210785   1.080   2.901   2.035
 3296SOL     OW10786   1.250   0.707   2.648
 3296SOL    HW110787   1.208   0.642   2.710
 3296SOL    HW210788   1.268   0.793   2.697
 3297SOL     OW10789   2.720   1.837   5.445
 3297SOL    HW110790   2.760   1.810   5.533
 3297SOL    HW210791   2.662   1.917   5.459
 3298SOL     OW10792   5.904   2.129   5.819
 3298SOL    HW110793   5.935   2.066   5.891
 3298SOL    HW210794   5.918   2.223   5.849
 3299SOL     OW10795   3.484   6.011   3.030
 3299SOL    HW110796   3.495   5.914   3.051
 3299SOL    HW210797   3.495   6.065   3.113
 3300SOL     OW10798   0.739   0.862   6.151
 3300SOL    HW110799   0.829   0.819   6.158
 3300SOL    HW210800   0.668   0.796   6.173
 3301SOL     OW10801   1.836   3.107   3.335
 3301SOL    HW110802   1.777   3.080   3.259
 3301SOL    HW210803   1.819   3.047   3.413
 3302SOL     OW10804   0.628   4.889   5.311
 3302SOL    HW110805   0.617   4.813   5.375
 3302SOL    HW210806   0.539   4.931   5.294
 3303SOL     OW10807   3.385   3.597   0.399
 3303SOL    HW110808   3.393   3.696   0.404
 3303SOL    HW210809   3.290   3.572   0.378
 3304SOL     OW10810   1.961   5.739   5.623
 3304SOL    HW110811   1.974   5.831   5.586
 3304SOL    HW210812   2.043   5.684   5.607
 3305SOL     OW10813   2.281   1.629   2.535
 3305SOL    HW110814   2.308   1.708   2.591
 3305SOL    HW210815   2.272   1.657   2.440
 3306SOL     OW10816   2.008   5.331   5.443
 3306SOL    HW110817   1.943   5.342   5.368
 3306SOL    HW210818   1.960   5.345   5.530
 3307SOL     OW10819   0.610   6.332   6.291
 3307SOL    HW110820   0.698   6.303   6.251
 3307SOL    HW210821   0.546   6.255   6.289
 3308SOL     OW10822   2.861   5.624   1.699
 3308SOL    HW110823   2.784   5.640   1.637
 3308SOL    HW210824   2.853   5.683   1.779
 3309SOL     OW10825   6.023   5.484   3.722
 3309SOL    HW110826   6.107   5.463   3.671
 3309SOL    HW210827   5.965   5.544   3.666
 3310SOL     OW10828   0.181   4.277   5.302
 3310SOL    HW110829   0.131   4.363   5.293
 3310SOL    HW210830   0.122   4.209   5.346
 3311SOL     OW10831   3.509   4.555   0.594
 3311SOL    HW110832   3.426   4.517   0.554
 3311SOL    HW210833   3.514   4.531   0.691
 3312SOL     OW10834   3.980   4.102   6.019
 3312SOL    HW110835   3.906   4.048   6.058
 3312SOL    HW210836   3.948   4.149   5.937
 3313SOL     OW10837   0.795   6.455   4.162
 3313SOL    HW110838   0.796   6.394   4.241
 3313SOL    HW210839   0.842   6.411   4.085
 3314SOL     OW10840   2.206   1.710   2.241
 3314SOL    HW110841   2.182   1.613   2.235
 3314SOL    HW210842   2.131   1.761   2.282
 3315SOL     OW10843   0.446   4.148   4.744
 3315SOL    HW110844   0.390   4.113   4.819
 3315SOL    HW210845   0.418   4.242   4.723
 3316SOL     OW10846   5.275   0.936   5.265
 3316SOL    HW110847   5.335   1.015   5.255
 3316SOL    HW210848   5.200   0.960   5.327
 3317SOL     OW10849   4.908   2.669   1.965
 3317SOL    HW110850   4.962   2.631   1.891
 3317SOL    HW210851   4.839   2.732   1.928
 3318SOL     OW10852   2.040   1.481   1.217
 3318SOL    HW110853   2.125   1.509   1.261
 3318SOL    HW210854   1.968   1.547   1.239
 3319SOL     OW10855   5.991   1.408   3.689
 3319SOL    HW110856   5.891   1.411   3.696
 3319SOL    HW210857   6.023   1.316   3.714
 3320SOL     OW10858   6.276   1.164   6.076
 3320SOL    HW110859   6.290   1.077   6.029
 3320SOL    HW210860   6.182   1.195   6.060
 3321SOL     OW10861   4.885   1.858   0.367
 3321SOL    HW110862   4.851   1.765   0.378
 3321SOL    HW210863   4.985   1.857   0.367
 3322SOL     OW10864   6.805   2.289   1.021
 3322SOL    HW110865   6.757   2.376   1.010
 3322SOL    HW210866   6.903   2.305   1.023
 3323SOL     OW10867   3.201   2.913   0.007
 3323SOL    HW110868   3.227   3.009   0.005
 3323SOL    HW210869   3.241   2.869   0.088
 3324SOL     OW10870   3.797   4.615   6.585
 3324SOL    HW110871   3.894   4.599   6.566
 3324SOL    HW210872   3.783   4.710   6.611
 3325SOL     OW10873   6.927   4.000   6.956
 3325SOL    HW110874   6.915   3.913   7.002
 3325SOL    HW210875   6.880   4.072   7.008
 3326SOL     OW10876   5.115   1.926   1.643
 3326SOL    HW110877   5.194   1.961   1.694
 3326SOL    HW210878   5.032   1.966   1.680
 3327SOL     OW10879   3.087   5.508   2.249
 3327SOL    HW110880   3.173   5.462   2.228
 3327SOL    HW210881   3.011   5.450   2.221
 3328SOL     OW10882   4.138   2.044   0.707
 3328SOL    HW110883   4.108   1.949   0.697
 3328SOL    HW210884   4.114   2.078   0.798
 3329SOL     OW10885   5.859   0.101   5.085
 3329SOL    HW110886   5.892   0.195   5.078
 3329SOL    HW210887   5.914   0.042   5.025
 3330SOL     OW10888   6.394   4.067   1.792
 3330SOL    HW110889   6.355   4.157   1.807
 3330SOL    HW210890   6.423   4.059   1.696
 3331SOL     OW10891   2.113   2.919   1.639
 3331SOL    HW110892   2.174   2.992   1.608
 3331SOL    HW210893   2.151   2.830   1.616
 3332SOL     OW10894   5.647   5.861   6.927
 3332SOL    HW110895   5.736   5.818   6.908
 3332SOL    HW210896   5.575   5.809   6.880
 3333SOL     OW10897   4.372   5.326   6.980
 3333SOL    HW110898   4.377   5.227   6.992
 3333SOL    HW210899   4.465   5.364   6.983
 3334SOL     OW10900   3.203   4.053   1.472
 3334SOL    HW110901   3.125   4.115   1.470
 3334SOL    HW210902   3.178   3.971   1.523
 3335SOL     OW10903   4.938   5.912   5.818
 3335SOL    HW110904   4.854   5.891   5.769
 3335SOL    HW210905   5.011   5.849   5.789
 3336SOL     OW10906   2.954   5.264   4.884
 3336SOL    HW110907   2.905   5.268   4.971
 3336SOL    HW210908   3.030   5.329   4.885
 3337SOL     OW10909   2.969   3.825   2.257
 3337SOL    HW110910   2.989   3.740   2.209
 3337SOL    HW210911   3.041   3.892   2.237
 3338SOL     OW10912   5.588   2.579   1.505
 3338SOL    HW110913   5.654   2.534   1.445
 3338SOL    HW210914   5.602   2.678   1.502
 3339SOL     OW10915   6.476   6.804   6.651
 3339SOL    HW110916   6.392   6.828   6.701
 3339SOL    HW210917   6.487   6.866   6.572
 3340SOL     OW10918   3.434   0.444   1.911
 3340SOL    HW110919   3.396   0.526   1.868
 3340SOL    HW210920   3.412   0.444   2.009
 3341SOL     OW10921   0.734   6.395   3.803
 3341SOL    HW110922   0.819   6.409   3.854
 3341SOL    HW210923   0.741   6.313   3.747
 3342SOL     OW10924   2.729   6.605   4.269
 3342SOL    HW110925   2.647   6.548   4.257
 3342SOL    HW210926   2.713   6.694   4.226
 3343SOL     OW10927   5.010   3.139   0.687
 3343SOL    HW110928   4.940   3.106   0.749
 3343SOL    HW210929   4.972   3.209   0.627
 3344SOL     OW10930   6.161   3.122   4.730
 3344SOL    HW110931   6.063   3.137   4.741
 3344SOL    HW210932   6.209   3.152   4.812
 3345SOL     OW10933   1.562   3.961   5.628
 3345SOL    HW110934   1.612   3.875   5.623
 3345SOL    HW210935   1.483   3.950   5.689
 3346SOL     OW10936   1.805   0.711   0.840
 3346SOL    HW110937   1.771   0.692   0.748
 3346SOL    HW210938   1.874   0.783   0.836
 3347SOL     OW10939   0.508   4.389   4.018
 3347SOL    HW110940   0.565   4.367   3.939
 3347SOL    HW210941   0.411   4.375   3.995
 3348SOL     OW10942   3.085   3.342   3.657
 3348SOL    HW110943   3.104   3.308   3.565
 3348SOL    HW210944   2.993   3.380   3.660
 3349SOL     OW10945   0.857   5.239   4.036
 3349SOL    HW110946   0.858   5.263   3.939
 3349SOL    HW210947   0.776   5.185   4.057
 3350SOL     OW10948   1.358   2.468   5.620
 3350SOL    HW110949   1.262   2.442   5.612
 3350SOL    HW210950   1.385   2.522   5.540
 3351SOL     OW10951   5.166   0.570   2.665
 3351SOL    HW110952   5.226   0.645   2.637
 3351SOL    HW210953   5.125   0.529   2.583
 3352SOL     OW10954   0.291   2.388   0.335
 3352SOL    HW110955   0.380   2.353   0.306
 3352SOL    HW210956   0.219   2.330   0.299
 3353SOL     OW10957   1.494   6.171   1.848
 3353SOL    HW110958   1.505   6.237   1.923
 3353SOL    HW210959   1.552   6.092   1.864
 3354SOL     OW10960   4.986   2.603   4.633
 3354SOL    HW110961   5.068   2.589   4.687
 3354SOL    HW210962   4.921   2.660   4.684
 3355SOL     OW10963   1.673   1.348   0.311
 3355SOL    HW110964   1.762   1.307   0.330
 3355SOL    HW210965   1.672   1.442   0.343
 3356SOL     OW10966   2.458   3.702   6.382
 3356SOL    HW110967   2.478   3.636   6.310
 3356SOL    HW210968   2.544   3.736   6.421
 3357SOL     OW10969   2.642   4.779   1.857
 3357SOL    HW110970   2.698   4.708   1.898
 3357SOL    HW210971   2.641   4.860   1.916
 3358SOL     OW10972   4.985   0.426   1.131
 3358SOL    HW110973   4.888   0.406   1.117
 3358SOL    HW210974   4.998   0.460   1.224
 3359SOL     OW10975   6.813   0.445   3.602
 3359SOL    HW110976   6.796   0.386   3.680
 3359SOL    HW210977   6.884   0.513   3.625
 3360SOL     OW10978   0.559   0.789   6.754
 3360SOL    HW110979   0.597   0.774   6.845
 3360SOL    HW210980   0.572   0.706   6.698
 3361SOL     OW10981   0.364   4.129   2.646
 3361SOL    HW110982   0.294   4.096   2.583
 3361SOL    HW210983   0.341   4.100   2.739
 3362SOL     OW10984   3.820   1.379   3.926
 3362SOL    HW110985   3.728   1.397   3.962
 3362SOL    HW210986   3.825   1.285   3.892
 3363SOL     OW10987   0.136   7.014   0.050
 3363SOL    HW110988   0.072   6.950   0.092
 3363SOL    HW210989   0.206   6.962   7.029
 3364SOL     OW10990   0.991   4.506   4.574
 3364SOL    HW110991   1.074   4.557   4.593
 3364SOL    HW210992   0.977   4.502   4.475
 3365SOL     OW10993   0.614   2.129   5.419
 3365SOL    HW110994   0.574   2.131   5.327
 3365SOL    HW210995   0.577   2.051   5.470
 3366SOL     OW10996   5.796   0.505   6.087
 3366SOL    HW110997   5.778   0.560   6.006
 3366SOL    HW210998   5.724   0.437   6.098
 3367SOL     OW10999   3.247   2.861   1.422
 3367SOL    HW111000   3.229   2.907   1.335
 3367SOL    HW211001   3.278   2.768   1.404
 3368SOL     OW11002   0.854   5.593   5.955
 3368SOL    HW111003   0.793   5.669   5.934
 3368SOL    HW211004   0.800   5.513   5.982
 3369SOL     OW11005   3.701   2.700   5.750
 3369SOL    HW111006   3.676   2.612   5.790
 3369SOL    HW211007   3.715   2.689   5.651
 3370SOL     OW11008   6.648   6.111   5.976
 3370SOL    HW111009   6.605   6.143   6.060
 3370SOL    HW211010   6.732   6.063   5.998
 3371SOL     OW11011   1.279   3.833   2.556
 3371SOL    HW111012   1.340   3.912   2.559
 3371SOL    HW211013   1.242   3.823   2.463
 3372SOL     OW11014   0.682   1.237   1.155
 3372SOL    HW111015   0.618   1.166   1.126
 3372SOL    HW211016   0.697   1.301   1.080
 3373SOL     OW11017   0.004   1.505   3.050
 3373SOL    HW111018   0.067   1.437   3.087
 3373SOL    HW211019   0.020   1.516   2.952
 3374SOL     OW11020   2.195   5.866   4.888
 3374SOL    HW111021   2.236   5.956   4.899
 3374SOL    HW211022   2.096   5.872   4.903
 3375SOL     OW11023   5.038   4.883   6.320
 3375SOL    HW111024   4.945   4.879   6.356
 3375SOL    HW211025   5.067   4.979   6.314
 3376SOL     OW11026   3.268   3.548   3.592
 3376SOL    HW111027   3.233   3.464   3.633
 3376SOL    HW211028   3.240   3.553   3.496
 3377SOL     OW11029   0.189   6.616   4.816
 3377SOL    HW111030   0.156   6.532   4.771
 3377SOL    HW211031   0.125   6.690   4.797
 3378SOL     OW11032   6.500   0.450   0.554
 3378SOL    HW111033   6.520   0.540   0.595
 3378SOL    HW211034   6.467   0.463   0.461
 3379SOL     OW11035   6.903   5.446   6.508
 3379SOL    HW111036   6.920   5.449   6.409
 3379SOL    HW211037   6.949   5.367   6.547
 3380SOL     OW11038   5.637   7.001   5.866
 3380SOL    HW111039   5.652   6.912   5.909
 3380SOL    HW211040   5.690   0.041   5.913
 3381SOL     OW11041   1.219   3.018   1.275
 3381SOL    HW111042   1.295   3.001   1.211
 3381SOL    HW211043   1.133   3.019   1.224
 3382SOL     OW11044   0.814   0.410   0.609
 3382SOL    HW111045   0.822   0.397   0.510
 3382SOL    HW211046   0.874   0.484   0.638
 3383SOL     OW11047   4.465   5.860   2.690
 3383SOL    HW111048   4.420   5.949   2.698
 3383SOL    HW211049   4.484   5.824   2.781
 3384SOL     OW11050   2.489   3.540   5.379
 3384SOL    HW111051   2.584   3.523   5.404
 3384SOL    HW211052   2.443   3.453   5.359
 3385SOL     OW11053   0.132   3.829   3.552
 3385SOL    HW111054   0.118   3.918   3.596
 3385SOL    HW211055   0.229   3.812   3.539
 3386SOL     OW11056   6.846   3.543   6.237
 3386SOL    HW111057   6.934   3.591   6.235
 3386SOL    HW211058   6.789   3.582   6.309
 3387SOL     OW11059   2.839   1.260   3.821
 3387SOL    HW111060   2.873   1.168   3.840
 3387SOL    HW211061   2.872   1.290   3.732
 3388SOL     OW11062   5.208   3.470   1.928
 3388SOL    HW111063   5.120   3.428   1.903
 3388SOL    HW211064   5.213   3.563   1.892
 3389SOL     OW11065   5.083   5.393   4.630
 3389SOL    HW111066   5.081   5.431   4.537
 3389SOL    HW211067   5.177   5.387   4.661
 3390SOL     OW11068   5.451   4.702   5.568
 3390SOL    HW111069   5.362   4.712   5.525
 3390SOL    HW211070   5.443   4.719   5.666
 3391SOL     OW11071   5.237   2.811   5.068
 3391SOL    HW111072   5.251   2.713   5.082
 3391SOL    HW211073   5.143   2.835   5.093
 3392SOL     OW11074   2.788   6.945   3.633
 3392SOL    HW111075   2.690   6.929   3.628
 3392SOL    HW211076   2.809   7.001   3.713
 3393SOL     OW11077   0.199   6.385   0.037
 3393SOL    HW111078   0.272   6.387   0.106
 3393SOL    HW211079   0.198   6.472   7.017
 3394SOL     OW11080   6.069   2.823   0.773
 3394SOL    HW111081   6.008   2.760   0.725
 3394SOL    HW211082   6.129   2.868   0.708
 3395SOL     OW11083   6.052   3.571   3.629
 3395SOL    HW111084   6.016   3.500   3.568
 3395SOL    HW211085   6.149   3.555   3.644
 3396SOL     OW11086   5.866   2.211   3.425
 3396SOL    HW111087   5.788   2.181   3.369
 3396SOL    HW211088   5.872   2.155   3.507
 3397SOL     OW11089   2.390   1.046   5.710
 3397SOL    HW111090   2.313   0.996   5.669
 3397SOL    HW211091   2.403   1.133   5.662
 3398SOL     OW11092   1.147   6.832   3.878
 3398SOL    HW111093   1.065   6.822   3.935
 3398SOL    HW211094   1.216   6.883   3.930
 3399SOL     OW11095   5.382   4.124   4.580
 3399SOL    HW111096   5.290   4.099   4.612
 3399SOL    HW211097   5.396   4.222   4.594
 3400SOL     OW11098   4.712   2.019   5.766
 3400SOL    HW111099   4.811   2.019   5.756
 3400SOL    HW211100   4.669   2.039   5.678
 3401SOL     OW11101   6.989   3.169   0.601
 3401SOL    HW111102   7.019   3.253   0.555
 3401SOL    HW211103   6.936   3.193   0.683
 3402SOL     OW11104   3.875   6.354   0.149
 3402SOL    HW111105   3.951   6.297   0.177
 3402SOL    HW211106   3.856   6.423   0.219
 3403SOL     OW11107   4.337   6.794   4.983
 3403SOL    HW111108   4.352   6.712   5.038
 3403SOL    HW211109   4.239   6.809   4.972
 3404SOL     OW11110   5.530   1.915   6.988
 3404SOL    HW111111   5.444   1.865   6.998
 3404SOL    HW211112   5.602   1.869   0.010
 3405SOL     OW11113   6.777   4.217   4.400
 3405SOL    HW111114   6.722   4.257   4.326
 3405SOL    HW211115   6.855   4.167   4.361
 3406SOL     OW11116   0.845   4.126   2.639
 3406SOL    HW111117   0.766   4.172   2.599
 3406SOL    HW211118   0.836   4.126   2.739
 3407SOL     OW11119   1.379   5.369   0.330
 3407SOL    HW111120   1.447   5.384   0.257
 3407SOL    HW211121   1.339   5.456   0.356
 3408SOL     OW11122   5.102   3.904   5.219
 3408SOL    HW111123   5.057   3.993   5.217
 3408SOL    HW211124   5.071   3.852   5.298
 3409SOL     OW11125   3.736   5.991   6.556
 3409SOL    HW111126   3.701   6.043   6.633
 3409SOL    HW211127   3.747   6.051   6.476
 3410SOL     OW11128   6.763   5.756   0.081
 3410SOL    HW111129   6.694   5.715   0.022
 3410SOL    HW211130   6.798   5.688   0.146
 3411SOL     OW11131   0.214   2.430   1.597
 3411SOL    HW111132   0.169   2.346   1.627
 3411SOL    HW211133   0.166   2.509   1.635
 3412SOL     OW11134   4.418   2.772   6.596
 3412SOL    HW111135   4.334   2.818   6.625
 3412SOL    HW211136   4.483   2.770   6.672
 3413SOL     OW11137   5.543   0.542   2.148
 3413SOL    HW111138   5.606   0.594   2.090
 3413SOL    HW211139   5.565   0.558   2.244
 3414SOL     OW11140   1.515   0.962   5.613
 3414SOL    HW111141   1.488   1.039   5.670
 3414SOL    HW211142   1.527   0.993   5.519
 3415SOL     OW11143   1.473   4.046   4.672
 3415SOL    HW111144   1.515   4.130   4.707
 3415SOL    HW211145   1.440   3.991   4.749
 3416SOL     OW11146   0.148   5.840   0.632
 3416SOL    HW111147   0.103   5.788   0.560
 3416SOL    HW211148   0.192   5.777   0.696
 3417SOL     OW11149   0.583   5.852   3.569
 3417SOL    HW111150   0.658   5.918   3.555
 3417SOL    HW211151   0.497   5.902   3.581
 3418SOL     OW11152   3.837   0.120   4.755
 3418SOL    HW111153   3.755   0.164   4.794
 3418SOL    HW211154   3.892   0.189   4.707
 3419SOL     OW11155   4.422   5.445   5.013
 3419SOL    HW111156   4.343   5.405   4.966
 3419SOL    HW211157   4.506   5.417   4.966
 3420SOL     OW11158   5.582   3.386   3.832
 3420SOL    HW111159   5.597   3.291   3.803
 3420SOL    HW211160   5.637   3.447   3.775
 3421SOL     OW11161   5.770   0.658   6.346
 3421SOL    HW111162   5.679   0.627   6.371
 3421SOL    HW211163   5.803   0.606   6.267
 3422SOL     OW11164   1.938   6.899   1.440
 3422SOL    HW111165   2.008   6.862   1.379
 3422SOL    HW211166   1.969   6.987   1.476
 3423SOL     OW11167   2.385   6.553   0.871
 3423SOL    HW111168   2.302   6.505   0.843
 3423SOL    HW211169   2.462   6.521   0.815
 3424SOL     OW11170   3.079   0.220   2.536
 3424SOL    HW111171   2.986   0.217   2.501
 3424SOL    HW211172   3.077   0.237   2.634
 3425SOL     OW11173   5.784   4.340   2.569
 3425SOL    HW111174   5.803   4.358   2.666
 3425SOL    HW211175   5.841   4.264   2.538
 3426SOL     OW11176   3.392   2.815   0.197
 3426SOL    HW111177   3.475   2.840   0.147
 3426SOL    HW211178   3.402   2.842   0.293
 3427SOL     OW11179   6.468   6.644   0.010
 3427SOL    HW111180   6.504   6.735   7.018
 3427SOL    HW211181   6.369   6.643   7.025
 3428SOL     OW11182   3.063   5.178   1.212
 3428SOL    HW111183   3.143   5.138   1.256
 3428SOL    HW211184   2.992   5.194   1.281
 3429SOL     OW11185   0.980   1.863   7.022
 3429SOL    HW111186   0.917   1.936   6.997
 3429SOL    HW211187   0.970   1.842   0.089
 3430SOL     OW11188   6.854   6.415   5.318
 3430SOL    HW111189   6.888   6.461   5.236
 3430SOL    HW211190   6.848   6.317   5.301
 3431SOL     OW11191   2.106   6.748   1.279
 3431SOL    HW111192   2.064   6.674   1.331
 3431SOL    HW211193   2.193   6.716   1.240
 3432SOL     OW11194   2.589   2.828   0.123
 3432SOL    HW111195   2.636   2.742   0.144
 3432SOL    HW211196   2.491   2.809   0.112
 3433SOL     OW11197   1.403   6.835   6.641
 3433SOL    HW111198   1.413   6.931   6.667
 3433SOL    HW211199   1.396   6.779   6.724
 3434SOL     OW11200   4.591   2.373   0.733
 3434SOL    HW111201   4.555   2.316   0.807
 3434SOL    HW211202   4.632   2.455   0.773
 3435SOL     OW11203   1.399   1.324   1.161
 3435SOL    HW111204   1.498   1.333   1.151
 3435SOL    HW211205   1.379   1.244   1.218
 3436SOL     OW11206   3.187   6.722   5.965
 3436SOL    HW111207   3.189   6.672   6.052
 3436SOL    HW211208   3.231   6.666   5.894
 3437SOL     OW11209   3.137   0.930   5.985
 3437SOL    HW111210   3.151   0.941   6.083
 3437SOL    HW211211   3.220   0.892   5.943
 3438SOL     OW11212   1.275   2.385   0.687
 3438SOL    HW111213   1.235   2.428   0.606
 3438SOL    HW211214   1.205   2.333   0.736
 3439SOL     OW11215   2.168   6.420   5.264
 3439SOL    HW111216   2.245   6.364   5.293
 3439SOL    HW211217   2.147   6.487   5.336
 3440SOL     OW11218   3.954   3.635   1.669
 3440SOL    HW111219   3.909   3.714   1.711
 3440SOL    HW211220   4.013   3.590   1.736
 3441SOL     OW11221   5.252   0.083   3.874
 3441SOL    HW111222   5.322   0.151   3.890
 3441SOL    HW211223   5.277   7.027   3.919
 3442SOL     OW11224   2.985   4.861   2.871
 3442SOL    HW111225   2.998   4.939   2.932
 3442SOL    HW211226   3.070   4.843   2.821
 3443SOL     OW11227   5.416   6.720   1.580
 3443SOL    HW111228   5.360   6.678   1.508
 3443SOL    HW211229   5.437   6.815   1.554
 3444SOL     OW11230   5.300   5.555   0.407
 3444SOL    HW111231   5.304   5.537   0.309
 3444SOL    HW211232   5.207   5.539   0.441
 3445SOL     OW11233   6.260   5.661   4.631
 3445SOL    HW111234   6.291   5.706   4.547
 3445SOL    HW211235   6.163   5.679   4.645
 3446SOL     OW11236   5.988   0.588   2.415
 3446SOL    HW111237   5.971   0.495   2.445
 3446SOL    HW211238   5.975   0.594   2.316
 3447SOL     OW11239   5.028   5.635   1.109
 3447SOL    HW111240   4.967   5.589   1.045
 3447SOL    HW211241   5.004   5.610   1.203
 3448SOL     OW11242   3.139   0.658   0.795
 3448SOL    HW111243   3.211   0.690   0.857
 3448SOL    HW211244   3.054   0.647   0.846
 3449SOL     OW11245   6.288   6.767   3.422
 3449SOL    HW111246   6.335   6.728   3.502
 3449SOL    HW211247   6.288   6.700   3.348
 3450SOL     OW11248   0.310   2.251   6.733
 3450SOL    HW111249   0.339   2.345   6.749
 3450SOL    HW211250   0.239   2.249   6.662
 3451SOL     OW11251   1.566   6.143   3.080
 3451SOL    HW111252   1.581   6.205   3.157
 3451SOL    HW211253   1.552   6.196   2.997
 3452SOL     OW11254   6.134   1.678   6.453
 3452SOL    HW111255   6.206   1.684   6.523
 3452SOL    HW211256   6.056   1.629   6.491
 3453SOL     OW11257   6.833   5.765   6.295
 3453SOL    HW111258   6.854   5.672   6.265
 3453SOL    HW211259   6.786   5.762   6.384
 3454SOL     OW11260   1.502   1.630   6.923
 3454SOL    HW111261   1.529   1.627   6.827
 3454SOL    HW211262   1.568   1.581   6.979
 3455SOL     OW11263   2.150   2.661   4.355
 3455SOL    HW111264   2.185   2.609   4.277
 3455SOL    HW211265   2.050   2.657   4.355
 3456SOL     OW11266   5.607   5.707   2.306
 3456SOL    HW111267   5.584   5.678   2.399
 3456SOL    HW211268   5.629   5.805   2.306
 3457SOL     OW11269   2.790   5.607   3.664
 3457SOL    HW111270   2.822   5.568   3.750
 3457SOL    HW211271   2.690   5.605   3.661
 3458SOL     OW11272   4.446   0.277   0.565
 3458SOL    HW111273   4.530   0.279   0.620
 3458SOL    HW211274   4.411   0.370   0.554
 3459SOL     OW11275   6.213   4.004   2.746
 3459SOL    HW111276   6.124   4.024   2.788
 3459SOL    HW211277   6.265   4.089   2.737
 3460SOL     OW11278   2.354   3.118   7.026
 3460SOL    HW111279   2.432   3.088   0.051
 3460SOL    HW211280   2.378   3.114   6.929
 3461SOL     OW11281   4.539   6.335   4.566
 3461SOL    HW111282   4.457   6.390   4.583
 3461SOL    HW211283   4.529   6.247   4.611
 3462SOL     OW11284   0.432   3.630   2.246
 3462SOL    HW111285   0.343   3.645   2.202
 3462SOL    HW211286   0.433   3.538   2.286
 3463SOL     OW11287   1.199   3.642   3.585
 3463SOL    HW111288   1.143   3.604   3.510
 3463SOL    HW211289   1.295   3.618   3.571
 3464SOL     OW11290   6.939   3.027   6.878
 3464SOL    HW111291   6.850   3.001   6.841
 3464SOL    HW211292   6.933   3.120   6.916
 3465SOL     OW11293   1.181   2.836   1.864
 3465SOL    HW111294   1.178   2.742   1.829
 3465SOL    HW211295   1.274   2.872   1.852
 3466SOL     OW11296   6.606   4.844   6.985
 3466SOL    HW111297   6.517   4.881   7.011
 3466SOL    HW211298   6.623   4.759   0.005
 3467SOL     OW11299   2.325   2.334   1.096
 3467SOL    HW111300   2.227   2.314   1.089
 3467SOL    HW211301   2.377   2.250   1.079
 3468SOL     OW11302   6.074   0.807   2.504
 3468SOL    HW111303   6.020   0.825   2.586
 3468SOL    HW211304   6.048   0.718   2.465
 3469SOL     OW11305   4.451   0.748   4.069
 3469SOL    HW111306   4.495   0.664   4.035
 3469SOL    HW211307   4.521   0.812   4.099
 3470SOL     OW11308   6.801   2.151   1.703
 3470SOL    HW111309   6.803   2.251   1.709
 3470SOL    HW211310   6.883   2.119   1.657
 3471SOL     OW11311   4.728   4.430   4.867
 3471SOL    HW111312   4.633   4.420   4.837
 3471SOL    HW211313   4.777   4.490   4.803
 3472SOL     OW11314   2.769   1.364   3.283
 3472SOL    HW111315   2.802   1.300   3.215
 3472SOL    HW211316   2.670   1.352   3.295
 3473SOL     OW11317   0.073   2.613   1.705
 3473SOL    HW111318   0.026   2.629   1.791
 3473SOL    HW211319   0.023   2.655   1.630
 3474SOL     OW11320   0.896   4.367   3.080
 3474SOL    HW111321   0.993   4.355   3.098
 3474SOL    HW211322   0.883   4.446   3.020
 3475SOL     OW11323   1.465   4.016   3.679
 3475SOL    HW111324   1.523   4.093   3.651
 3475SOL    HW211325   1.384   4.050   3.726
 3476SOL     OW11326   2.351   1.904   2.809
 3476SOL    HW111327   2.352   1.990   2.756
 3476SOL    HW211328   2.444   1.867   2.814
 3477SOL     OW11329   1.911   4.736   0.869
 3477SOL    HW111330   1.863   4.823   0.858
 3477SOL    HW211331   2.007   4.748   0.841
 3478SOL     OW11332   2.412   5.482   6.190
 3478SOL    HW111333   2.428   5.454   6.096
 3478SOL    HW211334   2.313   5.483   6.208
 3479SOL     OW11335   1.062   0.581   2.832
 3479SOL    HW111336   1.034   0.559   2.925
 3479SOL    HW211337   0.982   0.593   2.774
 3480SOL     OW11338   6.898   5.795   4.624
 3480SOL    HW111339   6.949   5.810   4.709
 3480SOL    HW211340   6.819   5.856   4.622
 3481SOL     OW11341   5.103   0.633   0.612
 3481SOL    HW111342   5.102   0.601   0.707
 3481SOL    HW211343   5.012   0.666   0.587
 3482SOL     OW11344   6.072   1.088   1.816
 3482SOL    HW111345   6.165   1.053   1.828
 3482SOL    HW211346   6.030   1.102   1.906
 3483SOL     OW11347   5.046   2.188   1.759
 3483SOL    HW111348   5.049   2.188   1.659
 3483SOL    HW211349   5.115   2.124   1.793
 3484SOL     OW11350   0.698   2.684   0.603
 3484SOL    HW111351   0.738   2.708   0.691
 3484SOL    HW211352   0.606   2.724   0.596
 3485SOL     OW11353   1.860   2.129   4.376
 3485SOL    HW111354   1.950   2.172   4.384
 3485SOL    HW211355   1.812   2.137   4.463
 3486SOL     OW11356   2.713   0.196   3.547
 3486SOL    HW111357   2.645   0.190   3.620
 3486SOL    HW211358   2.688   0.135   3.472
 3487SOL     OW11359   6.317   1.935   0.283
 3487SOL    HW111360   6.376   2.006   0.246
 3487SOL    HW211361   6.268   1.890   0.209
 3488SOL     OW11362   6.508   0.236   4.734
 3488SOL    HW111363   6.447   0.168   4.775
 3488SOL    HW211364   6.568   0.274   4.804
 3489SOL     OW11365   3.294   0.737   1.838
 3489SOL    HW111366   3.299   0.836   1.821
 3489SOL    HW211367   3.261   0.691   1.755
 3490SOL     OW11368   3.819   4.021   1.107
 3490SOL    HW111369   3.773   4.088   1.166
 3490SOL    HW211370   3.817   4.054   1.013
 3491SOL     OW11371   4.709   2.905   6.075
 3491SOL    HW111372   4.633   2.969   6.076
 3491SOL    HW211373   4.689   2.828   6.136
 3492SOL     OW11374   6.532   4.664   1.272
 3492SOL    HW111375   6.599   4.738   1.264
 3492SOL    HW211376   6.535   4.608   1.189
 3493SOL     OW11377   4.965   4.017   4.831
 3493SOL    HW111378   4.932   4.087   4.895
 3493SOL    HW211379   4.939   3.926   4.865
 3494SOL     OW11380   3.254   1.012   1.895
 3494SOL    HW111381   3.236   1.020   1.993
 3494SOL    HW211382   3.346   1.047   1.875
 3495SOL     OW11383   5.976   4.858   1.613
 3495SOL    HW111384   5.938   4.860   1.521
 3495SOL    HW211385   5.905   4.828   1.678
 3496SOL     OW11386   6.055   5.017   1.145
 3496SOL    HW111387   5.964   4.992   1.179
 3496SOL    HW211388   6.102   5.073   1.213
 3497SOL     OW11389   2.285   0.974   4.163
 3497SOL    HW111390   2.326   0.883   4.155
 3497SOL    HW211391   2.354   1.043   4.141
 3498SOL     OW11392   3.227   2.227   1.006
 3498SOL    HW111393   3.234   2.291   0.930
 3498SOL    HW211394   3.246   2.134   0.974
 3499SOL     OW11395   5.745   4.065   3.943
 3499SOL    HW111396   5.836   4.076   3.984
 3499SOL    HW211397   5.741   3.978   3.894
 3500SOL     OW11398   2.099   3.653   5.021
 3500SOL    HW111399   2.161   3.584   4.983
 3500SOL    HW211400   2.015   3.656   4.967
 3501SOL     OW11401   2.218   6.104   5.412
 3501SOL    HW111402   2.250   6.087   5.319
 3501SOL    HW211403   2.268   6.182   5.450
 3502SOL     OW11404   6.734   2.835   1.692
 3502SOL    HW111405   6.720   2.933   1.708
 3502SOL    HW211406   6.694   2.783   1.768
 3503SOL     OW11407   6.011   6.339   4.806
 3503SOL    HW111408   6.001   6.283   4.888
 3503SOL    HW211409   5.934   6.403   4.799
 3504SOL     OW11410   2.339   1.191   1.989
 3504SOL    HW111411   2.365   1.200   1.893
 3504SOL    HW211412   2.407   1.237   2.047
 3505SOL     OW11413   5.792   4.462   5.443
 3505SOL    HW111414   5.764   4.368   5.463
 3505SOL    HW211415   5.797   4.475   5.344
 3506SOL     OW11416   4.943   5.076   5.398
 3506SOL    HW111417   4.940   4.988   5.446
 3506SOL    HW211418   4.851   5.114   5.392
 3507SOL     OW11419   2.461   0.558   1.441
 3507SOL    HW111420   2.438   0.478   1.496
 3507SOL    HW211421   2.559   0.558   1.420
 3508SOL     OW11422   2.395   1.566   6.175
 3508SOL    HW111423   2.452   1.605   6.248
 3508SOL    HW211424   2.442   1.576   6.088
 3509SOL     OW11425   4.882   0.945   6.884
 3509SOL    HW111426   4.968   0.925   6.835
 3509SOL    HW211427   4.891   0.918   6.979
 3510SOL     OW11428   1.156   1.456   1.925
 3510SOL    HW111429   1.108   1.397   1.990
 3510SOL    HW211430   1.187   1.539   1.972
 3511SOL     OW11431   2.676   5.013   1.077
 3511SOL    HW111432   2.663   4.987   1.172
 3511SOL    HW211433   2.774   5.014   1.056
 3512SOL     OW11434   0.218   4.381   0.903
 3512SOL    HW111435   0.308   4.422   0.910
 3512SOL    HW211436   0.224   4.283   0.922
 3513SOL     OW11437   5.763   2.661   6.456
 3513SOL    HW111438   5.710   2.727   6.403
 3513SOL    HW211439   5.717   2.644   6.543
 3514SOL     OW11440   7.024   1.889   1.900
 3514SOL    HW111441   0.072   1.949   1.887
 3514SOL    HW211442   0.012   1.825   1.975
 3515SOL     OW11443   4.554   5.936   3.451
 3515SOL    HW111444   4.519   5.856   3.500
 3515SOL    HW211445   4.650   5.952   3.476
 3516SOL     OW11446   5.072   6.776   0.866
 3516SOL    HW111447   5.018   6.728   0.936
 3516SOL    HW211448   5.037   6.869   0.855
 3517SOL     OW11449   1.402   2.290   1.168
 3517SOL    HW111450   1.303   2.278   1.162
 3517SOL    HW211451   1.426   2.319   1.261
 3518SOL     OW11452   5.451   2.585   4.285
 3518SOL    HW111453   5.441   2.500   4.337
 3518SOL    HW211454   5.425   2.569   4.190
 3519SOL     OW11455   1.388   0.577   6.303
 3519SOL    HW111456   1.449   0.501   6.283
 3519SOL    HW211457   1.295   0.543   6.317
 3520SOL     OW11458   3.059   5.416   6.600
 3520SOL    HW111459   3.143   5.467   6.582
 3520SOL    HW211460   3.073   5.356   6.679
 3521SOL     OW11461   5.257   2.491   0.086
 3521SOL    HW111462   5.298   2.477   0.176
 3521SOL    HW211463   5.311   2.444   0.016
 3522SOL     OW11464   6.878   4.991   1.413
 3522SOL    HW111465   6.926   4.923   1.468
 3522SOL    HW211466   6.802   5.029   1.465
 3523SOL     OW11467   1.614   4.869   6.323
 3523SOL    HW111468   1.653   4.832   6.407
 3523SOL    HW211469   1.676   4.848   6.246
 3524SOL     OW11470   4.608   1.566   1.798
 3524SOL    HW111471   4.514   1.551   1.828
 3524SOL    HW211472   4.611   1.575   1.699
 3525SOL     OW11473   0.619   4.653   3.048
 3525SOL    HW111474   0.568   4.624   3.129
 3525SOL    HW211475   0.572   4.729   3.004
 3526SOL     OW11476   2.528   6.395   4.235
 3526SOL    HW111477   2.471   6.357   4.309
 3526SOL    HW211478   2.498   6.357   4.148
 3527SOL     OW11479   5.657   3.353   6.363
 3527SOL    HW111480   5.635   3.312   6.275
 3527SOL    HW211481   5.718   3.432   6.349
 3528SOL     OW11482   1.562   6.154   5.187
 3528SOL    HW111483   1.546   6.230   5.250
 3528SOL    HW211484   1.499   6.079   5.207
 3529SOL     OW11485   3.703   0.468   6.157
 3529SOL    HW111486   3.727   0.381   6.200
 3529SOL    HW211487   3.760   0.541   6.196
 3530SOL     OW11488   0.122   4.792   2.257
 3530SOL    HW111489   0.176   4.799   2.340
 3530SOL    HW211490   0.162   4.850   2.186
 3531SOL     OW11491   4.859   2.988   0.144
 3531SOL    HW111492   4.844   3.087   0.144
 3531SOL    HW211493   4.801   2.946   0.074
 3532SOL     OW11494   2.995   0.460   1.929
 3532SOL    HW111495   2.943   0.375   1.936
 3532SOL    HW211496   2.964   0.524   1.999
 3533SOL     OW11497   1.724   1.788   2.782
 3533SOL    HW111498   1.784   1.758   2.856
 3533SOL    HW211499   1.745   1.883   2.759
 3534SOL     OW11500   6.668   1.544   0.112
 3534SOL    HW111501   6.603   1.528   0.038
 3534SOL    HW211502   6.672   1.462   0.170
 3535SOL     OW11503   1.858   5.855   0.888
 3535SOL    HW111504   1.870   5.799   0.970
 3535SOL    HW211505   1.856   5.952   0.915
 3536SOL     OW11506   2.894   2.026   3.124
 3536SOL    HW111507   2.983   1.993   3.093
 3536SOL    HW211508   2.823   1.995   3.060
 3537SOL     OW11509   3.399   6.009   1.849
 3537SOL    HW111510   3.412   5.948   1.770
 3537SOL    HW211511   3.362   6.096   1.818
 3538SOL     OW11512   1.472   0.211   6.450
 3538SOL    HW111513   1.432   0.145   6.514
 3538SOL    HW211514   1.570   0.220   6.469
 3539SOL     OW11515   4.853   3.578   6.024
 3539SOL    HW111516   4.907   3.538   5.951
 3539SOL    HW211517   4.756   3.557   6.009
 3540SOL     OW11518   2.317   1.888   5.579
 3540SOL    HW111519   2.325   1.888   5.479
 3540SOL    HW211520   2.261   1.966   5.607
 3541SOL     OW11521   1.915   2.126   6.216
 3541SOL    HW111522   1.926   2.045   6.273
 3541SOL    HW211523   1.992   2.134   6.153
 3542SOL     OW11524   2.151   5.530   2.828
 3542SOL    HW111525   2.247   5.513   2.852
 3542SOL    HW211526   2.122   5.617   2.867
 3543SOL     OW11527   0.851   2.277   4.743
 3543SOL    HW111528   0.870   2.352   4.680
 3543SOL    HW211529   0.765   2.233   4.718
 3544SOL     OW11530   2.725   4.348   6.447
 3544SOL    HW111531   2.661   4.309   6.380
 3544SOL    HW211532   2.803   4.389   6.399
 3545SOL     OW11533   4.008   4.961   0.507
 3545SOL    HW111534   4.027   4.916   0.595
 3545SOL    HW211535   3.913   4.945   0.482
 3546SOL     OW11536   1.430   4.470   4.191
 3546SOL    HW111537   1.384   4.435   4.273
 3546SOL    HW211538   1.463   4.393   4.136
 3547SOL     OW11539   6.435   5.070   4.585
 3547SOL    HW111540   6.423   4.993   4.648
 3547SOL    HW211541   6.530   5.103   4.590
 3548SOL     OW11542   5.841   1.572   6.150
 3548SOL    HW111543   5.862   1.669   6.161
 3548SOL    HW211544   5.836   1.549   6.053
 3549SOL     OW11545   6.597   5.280   5.674
 3549SOL    HW111546   6.607   5.255   5.771
 3549SOL    HW211547   6.635   5.208   5.617
 3550SOL     OW11548   6.375   3.037   2.664
 3550SOL    HW111549   6.408   2.948   2.697
 3550SOL    HW211550   6.424   3.110   2.713
 3551SOL     OW11551   3.935   0.988   2.339
 3551SOL    HW111552   3.923   0.937   2.424
 3551SOL    HW211553   4.024   1.034   2.340
 3552SOL     OW11554   5.562   6.506   2.418
 3552SOL    HW111555   5.528   6.481   2.327
 3552SOL    HW211556   5.511   6.456   2.488
 3553SOL     OW11557   4.845   4.652   1.162
 3553SOL    HW111558   4.906   4.715   1.116
 3553SOL    HW211559   4.847   4.563   1.116
 3554SOL     OW11560   4.897   1.958   1.203
 3554SOL    HW111561   4.799   1.946   1.218
 3554SOL    HW211562   4.948   1.912   1.276
 3555SOL     OW11563   1.154   4.552   4.098
 3555SOL    HW111564   1.243   4.514   4.122
 3555SOL    HW211565   1.166   4.646   4.065
 3556SOL     OW11566   4.305   1.593   3.849
 3556SOL    HW111567   4.256   1.674   3.880
 3556SOL    HW211568   4.318   1.530   3.925
 3557SOL     OW11569   0.820   0.940   4.648
 3557SOL    HW111570   0.823   0.846   4.616
 3557SOL    HW211571   0.789   1.000   4.574
 3558SOL     OW11572   1.343   6.340   1.681
 3558SOL    HW111573   1.392   6.291   1.753
 3558SOL    HW211574   1.388   6.428   1.665
 3559SOL     OW11575   0.605   5.994   5.553
 3559SOL    HW111576   0.664   6.059   5.506
 3559SOL    HW211577   0.634   5.900   5.533
 3560SOL     OW11578   0.279   5.799   1.613
 3560SOL    HW111579   0.187   5.765   1.596
 3560SOL    HW211580   0.341   5.722   1.629
 3561SOL     OW11581   4.268   4.794   5.032
 3561SOL    HW111582   4.201   4.783   5.105
 3561SOL    HW211583   4.288   4.705   4.991
 3562SOL     OW11584   4.677   1.309   3.235
 3562SOL    HW111585   4.749   1.320   3.304
 3562SOL    HW211586   4.707   1.350   3.149
 3563SOL     OW11587   5.657   1.706   0.095
 3563SOL    HW111588   5.709   1.629   0.131
 3563SOL    HW211589   5.661   1.782   0.160
 3564SOL     OW11590   1.865   4.559   3.723
 3564SOL    HW111591   1.952   4.587   3.764
 3564SOL    HW211592   1.797   4.547   3.795
 3565SOL     OW11593   2.767   5.432   5.100
 3565SOL    HW111594   2.712   5.505   5.140
 3565SOL    HW211595   2.725   5.344   5.120
 3566SOL     OW11596   6.754   3.673   5.989
 3566SOL    HW111597   6.776   3.601   6.056
 3566SOL    HW211598   6.815   3.752   6.005
 3567SOL     OW11599   0.364   3.177   0.390
 3567SOL    HW111600   0.275   3.132   0.394
 3567SOL    HW211601   0.422   3.129   0.324
 3568SOL     OW11602   4.822   5.556   4.380
 3568SOL    HW111603   4.806   5.459   4.394
 3568SOL    HW211604   4.908   5.569   4.331
 3569SOL     OW11605   2.354   1.666   5.712
 3569SOL    HW111606   2.405   1.664   5.798
 3569SOL    HW211607   2.343   1.761   5.683
 3570SOL     OW11608   5.311   0.636   4.960
 3570SOL    HW111609   5.390   0.578   4.941
 3570SOL    HW211610   5.333   0.731   4.935
 3571SOL     OW11611   1.184   6.395   5.281
 3571SOL    HW111612   1.225   6.455   5.350
 3571SOL    HW211613   1.174   6.446   5.195
 3572SOL     OW11614   5.579   2.948   2.789
 3572SOL    HW111615   5.669   2.984   2.816
 3572SOL    HW211616   5.580   2.848   2.794
 3573SOL     OW11617   6.642   4.265   3.312
 3573SOL    HW111618   6.555   4.295   3.273
 3573SOL    HW211619   6.679   4.190   3.257
 3574SOL     OW11620   0.317   2.735   0.954
 3574SOL    HW111621   0.344   2.809   0.893
 3574SOL    HW211622   0.351   2.753   1.046
 3575SOL     OW11623   5.434   5.855   2.867
 3575SOL    HW111624   5.524   5.878   2.903
 3575SOL    HW211625   5.365   5.867   2.938
 3576SOL     OW11626   0.912   2.318   6.718
 3576SOL    HW111627   0.904   2.324   6.818
 3576SOL    HW211628   1.007   2.337   6.692
 3577SOL     OW11629   1.714   2.751   7.003
 3577SOL    HW111630   1.731   2.779   6.908
 3577SOL    HW211631   1.685   2.831   0.026
 3578SOL     OW11632   4.128   1.238   0.791
 3578SOL    HW111633   4.051   1.187   0.830
 3578SOL    HW211634   4.145   1.206   0.698
 3579SOL     OW11635   6.590   2.654   2.973
 3579SOL    HW111636   6.540   2.570   2.992
 3579SOL    HW211637   6.627   2.650   2.880
 3580SOL     OW11638   6.256   2.814   1.040
 3580SOL    HW111639   6.262   2.903   1.086
 3580SOL    HW211640   6.274   2.825   0.943
 3581SOL     OW11641   0.819   5.045   3.256
 3581SOL    HW111642   0.844   5.142   3.247
 3581SOL    HW211643   0.812   5.004   3.165
 3582SOL     OW11644   1.254   3.735   6.324
 3582SOL    HW111645   1.245   3.830   6.355
 3582SOL    HW211646   1.173   3.709   6.271
 3583SOL     OW11647   1.422   4.563   0.007
 3583SOL    HW111648   1.460   4.614   6.960
 3583SOL    HW211649   1.438   4.465   7.023
 3584SOL     OW11650   5.832   4.679   5.949
 3584SOL    HW111651   5.742   4.710   5.920
 3584SOL    HW211652   5.855   4.595   5.900
 3585SOL     OW11653   2.736   2.068   4.885
 3585SOL    HW111654   2.821   2.078   4.937
 3585SOL    HW211655   2.700   2.158   4.863
 3586SOL     OW11656   6.037   1.625   4.657
 3586SOL    HW111657   5.943   1.629   4.623
 3586SOL    HW211658   6.085   1.549   4.612
 3587SOL     OW11659   1.914   5.066   5.996
 3587SOL    HW111660   1.972   5.138   6.035
 3587SOL    HW211661   1.909   5.078   5.897
 3588SOL     OW11662   0.608   3.451   5.072
 3588SOL    HW111663   0.551   3.440   5.153
 3588SOL    HW211664   0.697   3.409   5.087
 3589SOL     OW11665   5.920   0.915   5.743
 3589SOL    HW111666   5.987   0.954   5.807
 3589SOL    HW211667   5.879   0.833   5.784
 3590SOL     OW11668   6.992   3.441   0.492
 3590SOL    HW111669   0.009   3.528   0.507
 3590SOL    HW211670   7.000   3.415   0.396
 3591SOL     OW11671   5.732   3.721   0.215
 3591SOL    HW111672   5.762   3.672   0.296
 3591SOL    HW211673   5.722   3.657   0.138
 3592SOL     OW11674   0.646   6.020   2.404
 3592SOL    HW111675   0.645   5.947   2.336
 3592SOL    HW211676   0.615   6.106   2.362
 3593SOL     OW11677   0.975   4.612   5.604
 3593SOL    HW111678   1.041   4.655   5.667
 3593SOL    HW211679   1.017   4.532   5.562
 3594SOL     OW11680   4.791   6.809   3.486
 3594SOL    HW111681   4.812   6.890   3.431
 3594SOL    HW211682   4.726   6.833   3.558
 3595SOL     OW11683   4.737   6.126   6.489
 3595SOL    HW111684   4.688   6.043   6.462
 3595SOL    HW211685   4.820   6.101   6.540
 3596SOL     OW11686   4.906   3.130   2.339
 3596SOL    HW111687   4.899   3.224   2.306
 3596SOL    HW211688   4.949   3.130   2.430
 3597SOL     OW11689   1.977   2.205   5.606
 3597SOL    HW111690   1.916   2.248   5.539
 3597SOL    HW211691   1.985   2.107   5.584
 3598SOL     OW11692   1.487   6.904   5.938
 3598SOL    HW111693   1.493   6.812   5.978
 3598SOL    HW211694   1.471   6.971   6.010
 3599SOL     OW11695   4.815   1.872   0.005
 3599SOL    HW111696   4.830   1.932   0.084
 3599SOL    HW211697   4.763   1.792   0.034
 3600SOL     OW11698   0.870   2.908   2.307
 3600SOL    HW111699   0.921   2.928   2.223
 3600SOL    HW211700   0.934   2.896   2.383
 3601SOL     OW11701   5.175   2.808   6.040
 3601SOL    HW111702   5.094   2.752   6.055
 3601SOL    HW211703   5.197   2.857   6.124
 3602SOL     OW11704   1.257   4.070   0.567
 3602SOL    HW111705   1.201   4.096   0.488
 3602SOL    HW211706   1.352   4.058   0.538
 3603SOL     OW11707   3.909   1.158   4.217
 3603SOL    HW111708   3.941   1.243   4.259
 3603SOL    HW211709   3.809   1.157   4.217
 3604SOL     OW11710   6.888   6.443   3.635
 3604SOL    HW111711   6.956   6.511   3.661
 3604SOL    HW211712   6.798   6.485   3.631
 3605SOL     OW11713   0.861   4.764   3.893
 3605SOL    HW111714   0.788   4.756   3.960
 3605SOL    HW211715   0.867   4.680   3.840
 3606SOL     OW11716   0.785   6.992   4.517
 3606SOL    HW111717   0.734   6.907   4.523
 3606SOL    HW211718   0.785   7.025   4.422
 3607SOL     OW11719   5.368   5.053   2.054
 3607SOL    HW111720   5.348   5.111   2.133
 3607SOL    HW211721   5.284   5.040   2.000
 3608SOL     OW11722   4.583   2.330   4.438
 3608SOL    HW111723   4.683   2.340   4.435
 3608SOL    HW211724   4.558   2.271   4.515
 3609SOL     OW11725   1.721   0.076   4.146
 3609SOL    HW111726   1.702   0.095   4.050
 3609SOL    HW211727   1.640   0.037   4.190
 3610SOL     OW11728   1.587   0.421   6.191
 3610SOL    HW111729   1.686   0.420   6.180
 3610SOL    HW211730   1.558   0.346   6.250
 3611SOL     OW11731   4.631   5.338   4.336
 3611SOL    HW111732   4.565   5.406   4.304
 3611SOL    HW211733   4.590   5.247   4.332
 3612SOL     OW11734   0.178   0.615   6.989
 3612SOL    HW111735   0.199   0.569   6.903
 3612SOL    HW211736   0.225   0.702   6.993
 3613SOL     OW11737   4.872   4.599   2.073
 3613SOL    HW111738   4.795   4.616   2.011
 3613SOL    HW211739   4.837   4.574   2.163
 3614SOL     OW11740   3.418   3.802   0.798
 3614SOL    HW111741   3.386   3.822   0.890
 3614SOL    HW211742   3.436   3.887   0.750
 3615SOL     OW11743   5.140   3.097   6.167
 3615SOL    HW111744   5.076   3.159   6.122
 3615SOL    HW211745   5.218   3.150   6.203
 3616SOL     OW11746   0.910   1.030   6.409
 3616SOL    HW111747   0.915   0.931   6.396
 3616SOL    HW211748   0.987   1.073   6.362
 3617SOL     OW11749   4.107   0.822   6.525
 3617SOL    HW111750   4.195   0.820   6.573
 3617SOL    HW211751   4.089   0.732   6.486
 3618SOL     OW11752   2.211   3.055   5.315
 3618SOL    HW111753   2.300   3.044   5.272
 3618SOL    HW211754   2.219   3.043   5.414
 3619SOL     OW11755   6.090   2.790   5.489
 3619SOL    HW111756   6.035   2.809   5.407
 3619SOL    HW211757   6.183   2.823   5.474
 3620SOL     OW11758   5.953   5.401   5.611
 3620SOL    HW111759   6.028   5.335   5.607
 3620SOL    HW211760   5.951   5.444   5.701
 3621SOL     OW11761   3.288   3.112   4.789
 3621SOL    HW111762   3.386   3.098   4.799
 3621SOL    HW211763   3.268   3.144   4.696
 3622SOL     OW11764   1.215   1.096   0.201
 3622SOL    HW111765   1.162   1.041   0.136
 3622SOL    HW211766   1.254   1.036   0.271
 3623SOL     OW11767   6.640   6.164   4.096
 3623SOL    HW111768   6.681   6.121   4.015
 3623SOL    HW211769   6.700   6.152   4.175
 3624SOL     OW11770   1.595   0.171   2.381
 3624SOL    HW111771   1.639   0.108   2.444
 3624SOL    HW211772   1.496   0.170   2.397
 3625SOL     OW11773   0.681   3.415   6.278
 3625SOL    HW111774   0.653   3.399   6.183
 3625SOL    HW211775   0.769   3.370   6.295
 3626SOL     OW11776   0.746   2.755   5.532
 3626SOL    HW111777   0.669   2.697   5.506
 3626SOL    HW211778   0.719   2.851   5.524
 3627SOL     OW11779   4.044   2.945   1.468
 3627SOL    HW111780   4.111   2.997   1.520
 3627SOL    HW211781   4.087   2.908   1.386
 3628SOL     OW11782   0.597   1.812   1.855
 3628SOL    HW111783   0.653   1.812   1.938
 3628SOL    HW211784   0.627   1.886   1.795
 3629SOL     OW11785   0.528   0.692   5.236
 3629SOL    HW111786   0.555   0.691   5.333
 3629SOL    HW211787   0.437   0.652   5.227
 3630SOL     OW11788   5.688   2.627   3.912
 3630SOL    HW111789   5.752   2.640   3.987
 3630SOL    HW211790   5.738   2.621   3.826
 3631SOL     OW11791   1.853   0.436   2.714
 3631SOL    HW111792   1.832   0.435   2.616
 3631SOL    HW211793   1.866   0.342   2.746
 3632SOL     OW11794   5.530   5.089   1.163
 3632SOL    HW111795   5.538   4.989   1.159
 3632SOL    HW211796   5.531   5.126   1.071
 3633SOL     OW11797   4.201   2.415   5.926
 3633SOL    HW111798   4.174   2.509   5.907
 3633SOL    HW211799   4.121   2.355   5.917
 3634SOL     OW11800   1.869   5.814   6.297
 3634SOL    HW111801   1.959   5.856   6.310
 3634SOL    HW211802   1.857   5.792   6.200
 3635SOL     OW11803   2.729   0.555   1.352
 3635SOL    HW111804   2.781   0.640   1.361
 3635SOL    HW211805   2.780   0.480   1.393
 3636SOL     OW11806   6.443   5.473   0.498
 3636SOL    HW111807   6.348   5.446   0.511
 3636SOL    HW211808   6.503   5.400   0.529
 3637SOL     OW11809   0.118   2.210   1.783
 3637SOL    HW111810   0.041   2.234   1.842
 3637SOL    HW211811   0.204   2.222   1.833
 3638SOL     OW11812   6.849   4.126   2.986
 3638SOL    HW111813   6.797   4.041   2.977
 3638SOL    HW211814   6.901   4.124   3.071
 3639SOL     OW11815   4.727   4.939   0.343
 3639SOL    HW111816   4.732   4.973   0.249
 3639SOL    HW211817   4.642   4.887   0.355
 3640SOL     OW11818   4.856   1.352   0.096
 3640SOL    HW111819   4.940   1.378   0.143
 3640SOL    HW211820   4.784   1.418   0.116
 3641SOL     OW11821   6.383   3.524   2.106
 3641SOL    HW111822   6.318   3.567   2.044
 3641SOL    HW211823   6.394   3.428   2.081
 3642SOL     OW11824   4.602   2.265   0.193
 3642SOL    HW111825   4.592   2.256   0.292
 3642SOL    HW211826   4.528   2.321   0.157
 3643SOL     OW11827   3.589   5.780   5.452
 3643SOL    HW111828   3.615   5.684   5.458
 3643SOL    HW211829   3.667   5.833   5.418
 3644SOL     OW11830   2.370   1.797   1.914
 3644SOL    HW111831   2.273   1.822   1.922
 3644SOL    HW211832   2.395   1.735   1.987
 3645SOL     OW11833   1.916   3.029   4.226
 3645SOL    HW111834   1.988   3.066   4.168
 3645SOL    HW211835   1.956   2.978   4.302
 3646SOL     OW11836   1.134   4.105   5.807
 3646SOL    HW111837   1.125   4.182   5.744
 3646SOL    HW211838   1.128   4.138   5.901
 3647SOL     OW11839   2.652   5.601   6.971
 3647SOL    HW111840   2.718   5.588   6.897
 3647SOL    HW211841   2.698   5.591   0.030
 3648SOL     OW11842   4.803   5.978   3.501
 3648SOL    HW111843   4.820   6.075   3.484
 3648SOL    HW211844   4.854   5.948   3.582
 3649SOL     OW11845   6.286   3.205   0.317
 3649SOL    HW111846   6.259   3.109   0.330
 3649SOL    HW211847   6.386   3.212   0.320
 3650SOL     OW11848   5.913   5.228   1.645
 3650SOL    HW111849   5.846   5.289   1.604
 3650SOL    HW211850   5.871   5.177   1.720
 3651SOL     OW11851   2.032   0.373   4.533
 3651SOL    HW111852   2.057   0.367   4.630
 3651SOL    HW211853   1.939   0.409   4.524
 3652SOL     OW11854   6.034   6.817   3.336
 3652SOL    HW111855   6.125   6.805   3.375
 3652SOL    HW211856   6.025   6.761   3.254
 3653SOL     OW11857   1.472   1.458   2.714
 3653SOL    HW111858   1.436   1.438   2.806
 3653SOL    HW211859   1.446   1.551   2.688
 3654SOL     OW11860   4.302   4.930   0.691
 3654SOL    HW111861   4.275   4.879   0.610
 3654SOL    HW211862   4.396   4.908   0.716
 3655SOL     OW11863   3.489   0.974   3.963
 3655SOL    HW111864   3.525   0.928   3.882
 3655SOL    HW211865   3.414   1.035   3.936
 3656SOL     OW11866   0.216   5.471   1.597
 3656SOL    HW111867   0.307   5.496   1.630
 3656SOL    HW211868   0.224   5.427   1.507
 3657SOL     OW11869   4.963   5.717   4.800
 3657SOL    HW111870   5.039   5.694   4.740
 3657SOL    HW211871   4.964   5.816   4.819
 3658SOL     OW11872   2.549   5.046   6.532
 3658SOL    HW111873   2.454   5.018   6.545
 3658SOL    HW211874   2.591   5.065   6.621
 3659SOL     OW11875   1.449   2.555   5.862
 3659SOL    HW111876   1.443   2.652   5.843
 3659SOL    HW211877   1.416   2.503   5.783
 3660SOL     OW11878   6.107   6.153   4.594
 3660SOL    HW111879   6.065   6.211   4.664
 3660SOL    HW211880   6.122   6.206   4.511
 3661SOL     OW11881   0.039   0.827   4.961
 3661SOL    HW111882   0.104   0.875   5.020
 3661SOL    HW211883   6.997   0.784   5.017
 3662SOL     OW11884   4.420   0.682   4.645
 3662SOL    HW111885   4.407   0.743   4.723
 3662SOL    HW211886   4.443   0.590   4.677
 3663SOL     OW11887   1.589   2.971   0.063
 3663SOL    HW111888   1.593   3.064   0.026
 3663SOL    HW211889   1.558   2.975   0.158
 3664SOL     OW11890   4.712   2.354   1.822
 3664SOL    HW111891   4.709   2.265   1.777
 3664SOL    HW211892   4.790   2.357   1.884
 3665SOL     OW11893   0.685   6.170   5.111
 3665SOL    HW111894   0.714   6.075   5.115
 3665SOL    HW211895   0.646   6.198   5.198
 3666SOL     OW11896   1.034   3.818   3.301
 3666SOL    HW111897   0.950   3.765   3.309
 3666SOL    HW211898   1.013   3.907   3.261
 3667SOL     OW11899   0.180   1.103   3.338
 3667SOL    HW111900   0.140   1.058   3.419
 3667SOL    HW211901   0.107   1.131   3.276
 3668SOL     OW11902   1.037   0.476   1.555
 3668SOL    HW111903   0.953   0.475   1.501
 3668SOL    HW211904   1.027   0.541   1.631
 3669SOL     OW11905   6.082   1.824   3.568
 3669SOL    HW111906   6.087   1.775   3.481
 3669SOL    HW211907   6.029   1.771   3.634
 3670SOL     OW11908   2.627   5.247   0.073
 3670SOL    HW111909   2.639   5.210   0.165
 3670SOL    HW211910   2.712   5.288   0.042
 3671SOL     OW11911   0.140   2.290   4.083
 3671SOL    HW111912   0.237   2.293   4.105
 3671SOL    HW211913   0.094   2.224   4.142
 3672SOL     OW11914   4.525   2.208   2.928
 3672SOL    HW111915   4.622   2.230   2.936
 3672SOL    HW211916   4.512   2.110   2.943
 3673SOL     OW11917   4.069   5.742   6.785
 3673SOL    HW111918   4.055   5.789   6.698
 3673SOL    HW211919   4.011   5.661   6.788
 3674SOL     OW11920   1.653   6.178   5.843
 3674SOL    HW111921   1.570   6.129   5.871
 3674SOL    HW211922   1.662   6.261   5.897
 3675SOL     OW11923   1.418   2.451   4.087
 3675SOL    HW111924   1.348   2.406   4.030
 3675SOL    HW211925   1.465   2.520   4.033
 3676SOL     OW11926   5.780   3.675   2.287
 3676SOL    HW111927   5.793   3.769   2.318
 3676SOL    HW211928   5.774   3.673   2.187
 3677SOL     OW11929   3.525   0.078   4.429
 3677SOL    HW111930   3.616   0.047   4.402
 3677SOL    HW211931   3.491   0.022   4.505
 3678SOL     OW11932   1.694   0.701   4.163
 3678SOL    HW111933   1.783   0.664   4.138
 3678SOL    HW211934   1.697   0.801   4.157
 3679SOL     OW11935   0.043   0.491   3.089
 3679SOL    HW111936   0.083   0.453   3.173
 3679SOL    HW211937   6.976   0.510   3.103
 3680SOL     OW11938   5.029   2.910   4.838
 3680SOL    HW111939   5.037   2.892   4.936
 3680SOL    HW211940   5.119   2.899   4.794
 3681SOL     OW11941   1.060   1.434   6.697
 3681SOL    HW111942   1.059   1.383   6.782
 3681SOL    HW211943   1.040   1.530   6.715
 3682SOL     OW11944   5.881   2.514   0.227
 3682SOL    HW111945   5.814   2.496   0.299
 3682SOL    HW211946   5.879   2.439   0.160
 3683SOL     OW11947   0.033   0.318   3.811
 3683SOL    HW111948   0.018   0.247   3.879
 3683SOL    HW211949   7.022   0.404   3.843
 3684SOL     OW11950   1.153   5.557   6.914
 3684SOL    HW111951   1.119   5.588   7.003
 3684SOL    HW211952   1.223   5.621   6.882
 3685SOL     OW11953   2.157   5.907   5.931
 3685SOL    HW111954   2.146   5.998   5.890
 3685SOL    HW211955   2.252   5.892   5.955
 3686SOL     OW11956   6.263   5.348   4.330
 3686SOL    HW111957   6.224   5.263   4.294
 3686SOL    HW211958   6.263   5.346   4.430
 3687SOL     OW11959   4.860   6.798   3.943
 3687SOL    HW111960   4.785   6.734   3.928
 3687SOL    HW211961   4.882   6.800   4.041
 3688SOL     OW11962   6.490   3.166   6.957
 3688SOL    HW111963   6.400   3.123   6.959
 3688SOL    HW211964   6.480   3.264   6.972
 3689SOL     OW11965   1.996   0.999   5.386
 3689SOL    HW111966   1.924   1.017   5.453
 3689SOL    HW211967   1.971   1.041   5.298
 3690SOL     OW11968   4.352   6.024   0.580
 3690SOL    HW111969   4.449   6.050   0.579
 3690SOL    HW211970   4.307   6.064   0.660
 3691SOL     OW11971   2.386   1.779   6.948
 3691SOL    HW111972   2.414   1.695   6.995
 3691SOL    HW211973   2.459   1.847   6.956
 3692SOL     OW11974   6.603   5.117   5.984
 3692SOL    HW111975   6.570   5.140   6.076
 3692SOL    HW211976   6.691   5.162   5.968
 3693SOL     OW11977   2.109   1.936   2.921
 3693SOL    HW111978   2.075   1.845   2.944
 3693SOL    HW211979   2.188   1.927   2.860
 3694SOL     OW11980   1.628   6.746   2.232
 3694SOL    HW111981   1.695   6.735   2.158
 3694SOL    HW211982   1.654   6.688   2.310
 3695SOL     OW11983   5.439   1.386   1.661
 3695SOL    HW111984   5.443   1.352   1.567
 3695SOL    HW211985   5.486   1.474   1.667
 3696SOL     OW11986   4.028   6.967   4.667
 3696SOL    HW111987   4.116   7.010   4.686
 3696SOL    HW211988   3.955   7.027   4.699
 3697SOL     OW11989   6.544   6.117   3.006
 3697SOL    HW111990   6.549   6.028   2.962
 3697SOL    HW211991   6.635   6.157   3.011
 3698SOL     OW11992   2.179   0.802   3.524
 3698SOL    HW111993   2.080   0.786   3.519
 3698SOL    HW211994   2.196   0.900   3.537
 3699SOL     OW11995   1.599   1.284   3.418
 3699SOL    HW111996   1.552   1.196   3.411
 3699SOL    HW211997   1.603   1.312   3.514
 3700SOL     OW11998   1.517   5.071   4.975
 3700SOL    HW111999   1.528   5.050   5.072
 3700SOL    HW212000   1.580   5.145   4.950
 3701SOL     OW12001   1.100   6.521   3.240
 3701SOL    HW112002   1.054   6.610   3.232
 3701SOL    HW212003   1.159   6.521   3.321
 3702SOL     OW12004   5.208   6.538   3.298
 3702SOL    HW112005   5.293   6.567   3.254
 3702SOL    HW212006   5.217   6.546   3.397
 3703SOL     OW12007   0.418   0.533   6.590
 3703SOL    HW112008   0.456   0.450   6.549
 3703SOL    HW212009   0.346   0.508   6.654
 3704SOL     OW12010   4.745   2.207   1.378
 3704SOL    HW112011   4.694   2.127   1.345
 3704SOL    HW212012   4.822   2.176   1.434
 3705SOL     OW12013   5.204   4.423   4.330
 3705SOL    HW112014   5.214   4.506   4.276
 3705SOL    HW212015   5.258   4.349   4.289
 3706SOL     OW12016   0.657   4.209   6.814
 3706SOL    HW112017   0.559   4.189   6.826
 3706SOL    HW212018   0.691   4.163   6.732
 3707SOL     OW12019   4.435   6.125   4.247
 3707SOL    HW112020   4.344   6.165   4.253
 3707SOL    HW212021   4.458   6.106   4.151
 3708SOL     OW12022   4.364   6.729   1.204
 3708SOL    HW112023   4.332   6.670   1.129
 3708SOL    HW212024   4.290   6.791   1.231
 3709SOL     OW12025   2.873   0.224   1.883
 3709SOL    HW112026   2.810   0.169   1.939
 3709SOL    HW212027   2.919   0.165   1.816
 3710SOL     OW12028   0.283   5.416   4.251
 3710SOL    HW112029   0.238   5.432   4.339
 3710SOL    HW212030   0.382   5.423   4.263
 3711SOL     OW12031   1.395   5.719   5.365
 3711SOL    HW112032   1.324   5.651   5.348
 3711SOL    HW212033   1.454   5.688   5.440
 3712SOL     OW12034   1.549   6.028   6.975
 3712SOL    HW112035   1.534   5.996   0.038
 3712SOL    HW212036   1.548   5.950   6.912
 3713SOL     OW12037   0.533   0.151   5.152
 3713SOL    HW112038   0.585   0.109   5.227
 3713SOL    HW212039   0.541   0.250   5.157
 3714SOL     OW12040   5.713   5.567   6.619
 3714SOL    HW112041   5.661   5.650   6.639
 3714SOL    HW212042   5.774   5.584   6.543
 3715SOL     OW12043   1.178   4.737   1.964
 3715SOL    HW112044   1.086   4.765   1.936
 3715SOL    HW212045   1.213   4.668   1.900
 3716SOL     OW12046   6.187   5.936   4.760
 3716SOL    HW112047   6.166   6.031   4.737
 3716SOL    HW212048   6.105   5.891   4.796
 3717SOL     OW12049   5.265   1.009   0.636
 3717SOL    HW112050   5.170   0.986   0.614
 3717SOL    HW212051   5.282   1.105   0.611
 3718SOL     OW12052   6.885   6.884   6.922
 3718SOL    HW112053   6.930   6.874   7.010
 3718SOL    HW212054   6.924   6.821   6.856
 3719SOL     OW12055   4.011   3.058   6.754
 3719SOL    HW112056   3.992   2.989   6.823
 3719SOL    HW212057   4.095   3.035   6.705
 3720SOL     OW12058   5.801   3.328   0.884
 3720SOL    HW112059   5.720   3.369   0.841
 3720SOL    HW212060   5.783   3.233   0.906
 3721SOL     OW12061   0.259   4.570   0.627
 3721SOL    HW112062   0.199   4.576   0.707
 3721SOL    HW212063   0.249   4.480   0.585
 3722SOL     OW12064   5.773   6.355   1.531
 3722SOL    HW112065   5.711   6.418   1.577
 3722SOL    HW212066   5.822   6.404   1.458
 3723SOL     OW12067   4.655   4.819   0.750
 3723SOL    HW112068   4.687   4.878   0.676
 3723SOL    HW212069   4.623   4.876   0.826
 3724SOL     OW12070   1.613   4.351   5.943
 3724SOL    HW112071   1.618   4.449   5.927
 3724SOL    HW212072   1.699   4.308   5.916
 3725SOL     OW12073   0.413   5.956   6.440
 3725SOL    HW112074   0.500   5.990   6.473
 3725SOL    HW212075   0.429   5.892   6.364
 3726SOL     OW12076   5.258   3.646   6.004
 3726SOL    HW112077   5.265   3.663   6.102
 3726SOL    HW212078   5.187   3.704   5.965
 3727SOL     OW12079   6.768   2.992   5.505
 3727SOL    HW112080   6.669   2.995   5.488
 3727SOL    HW212081   6.803   2.903   5.476
 3728SOL     OW12082   2.037   3.229   6.352
 3728SOL    HW112083   2.069   3.321   6.326
 3728SOL    HW212084   2.112   3.164   6.341
 3729SOL     OW12085   1.447   1.862   4.251
 3729SOL    HW112086   1.527   1.922   4.255
 3729SOL    HW212087   1.436   1.828   4.157
 3730SOL     OW12088   3.683   6.380   5.662
 3730SOL    HW112089   3.775   6.342   5.672
 3730SOL    HW212090   3.618   6.323   5.711
 3731SOL     OW12091   0.216   1.271   0.270
 3731SOL    HW112092   0.196   1.176   0.243
 3731SOL    HW212093   0.131   1.324   0.270
 3732SOL     OW12094   2.619   2.201   0.385
 3732SOL    HW112095   2.660   2.267   0.322
 3732SOL    HW212096   2.528   2.233   0.412
 3733SOL     OW12097   2.443   1.981   3.244
 3733SOL    HW112098   2.492   1.988   3.157
 3733SOL    HW212099   2.475   1.900   3.294
 3734SOL     OW12100   4.383   0.530   1.774
 3734SOL    HW112101   4.290   0.563   1.787
 3734SOL    HW212102   4.383   0.430   1.771
 3735SOL     OW12103   3.252   0.806   2.825
 3735SOL    HW112104   3.160   0.823   2.862
 3735SOL    HW212105   3.297   0.893   2.807
 3736SOL     OW12106   6.805   1.415   1.006
 3736SOL    HW112107   6.838   1.493   1.060
 3736SOL    HW212108   6.884   1.362   0.974
 3737SOL     OW12109   6.172   1.435   3.367
 3737SOL    HW112110   6.162   1.530   3.396
 3737SOL    HW212111   6.118   1.376   3.428
 3738SOL     OW12112   6.139   0.212   1.538
 3738SOL    HW112113   6.053   0.247   1.500
 3738SOL    HW212114   6.208   0.207   1.465
 3739SOL     OW12115   2.249   4.523   1.555
 3739SOL    HW112116   2.313   4.562   1.488
 3739SOL    HW212117   2.252   4.423   1.550
 3740SOL     OW12118   6.415   5.710   0.389
 3740SOL    HW112119   6.435   5.621   0.430
 3740SOL    HW212120   6.317   5.716   0.370
 3741SOL     OW12121   5.037   2.708   6.638
 3741SOL    HW112122   5.076   2.708   6.730
 3741SOL    HW212123   5.083   2.777   6.582
 3742SOL     OW12124   4.080   6.971   0.389
 3742SOL    HW112125   4.007   0.003   0.361
 3742SOL    HW212126   4.110   6.995   0.482
 3743SOL     OW12127   5.344   3.478   1.465
 3743SOL    HW112128   5.282   3.402   1.485
 3743SOL    HW212129   5.399   3.498   1.547
 3744SOL     OW12130   1.327   5.786   2.050
 3744SOL    HW112131   1.267   5.771   2.128
 3744SOL    HW212132   1.384   5.866   2.066
 3745SOL     OW12133   5.537   3.947   2.973
 3745SOL    HW112134   5.451   3.898   2.960
 3745SOL    HW212135   5.523   4.023   3.037
 3746SOL     OW12136   6.431   0.613   4.015
 3746SOL    HW112137   6.380   0.560   3.947
 3746SOL    HW212138   6.490   0.551   4.067
 3747SOL     OW12139   4.314   6.180   5.387
 3747SOL    HW112140   4.334   6.193   5.290
 3747SOL    HW212141   4.328   6.084   5.412
 3748SOL     OW12142   5.142   0.553   1.794
 3748SOL    HW112143   5.062   0.612   1.787
 3748SOL    HW212144   5.168   0.545   1.891
 3749SOL     OW12145   2.396   4.983   2.923
 3749SOL    HW112146   2.465   4.980   2.995
 3749SOL    HW212147   2.344   5.068   2.931
 3750SOL     OW12148   6.077   4.414   0.830
 3750SOL    HW112149   6.091   4.422   0.929
 3750SOL    HW212150   6.057   4.320   0.806
 3751SOL     OW12151   6.727   3.523   0.849
 3751SOL    HW112152   6.717   3.612   0.895
 3751SOL    HW212153   6.747   3.537   0.752
 3752SOL     OW12154   0.894   7.006   0.672
 3752SOL    HW112155   0.936   0.056   0.717
 3752SOL    HW212156   0.801   6.995   0.704
 3753SOL     OW12157   6.758   1.145   3.954
 3753SOL    HW112158   6.774   1.220   4.019
 3753SOL    HW212159   6.796   1.170   3.865
 3754SOL     OW12160   3.908   6.310   1.402
 3754SOL    HW112161   3.930   6.304   1.500
 3754SOL    HW212162   3.970   6.376   1.359
 3755SOL     OW12163   5.798   5.837   4.078
 3755SOL    HW112164   5.740   5.823   3.997
 3755SOL    HW212165   5.875   5.773   4.075
 3756SOL     OW12166   1.993   6.453   5.939
 3756SOL    HW112167   2.077   6.422   5.983
 3756SOL    HW212168   1.935   6.497   6.007
 3757SOL     OW12169   3.769   6.593   7.000
 3757SOL    HW112170   3.751   6.637   0.059
 3757SOL    HW212171   3.814   6.505   7.016
 3758SOL     OW12172   1.587   1.123   4.448
 3758SOL    HW112173   1.653   1.080   4.510
 3758SOL    HW212174   1.618   1.111   4.354
 3759SOL     OW12175   4.627   4.988   6.262
 3759SOL    HW112176   4.600   4.969   6.167
 3759SOL    HW212177   4.551   5.030   6.310
 3760SOL     OW12178   1.625   2.836   4.433
 3760SOL    HW112179   1.562   2.865   4.362
 3760SOL    HW212180   1.659   2.916   4.482
 3761SOL     OW12181   0.398   0.377   5.404
 3761SOL    HW112182   0.357   0.425   5.326
 3761SOL    HW212183   0.475   0.430   5.440
 3762SOL     OW12184   0.327   5.383   7.021
 3762SOL    HW112185   0.424   5.406   7.025
 3762SOL    HW212186   0.298   5.381   6.925
 3763SOL     OW12187   7.007   4.899   0.008
 3763SOL    HW112188   7.006   4.862   6.945
 3763SOL    HW212189   7.003   4.999   0.004
 3764SOL     OW12190   1.743   0.281   3.458
 3764SOL    HW112191   1.751   0.304   3.361
 3764SOL    HW212192   1.750   0.364   3.513
 3765SOL     OW12193   4.945   1.291   0.965
 3765SOL    HW112194   4.848   1.294   0.993
 3765SOL    HW212195   4.996   1.360   1.015
 3766SOL     OW12196   1.120   1.098   3.950
 3766SOL    HW112197   1.175   1.021   3.919
 3766SOL    HW212198   1.124   1.104   4.050
 3767SOL     OW12199   2.308   5.062   0.256
 3767SOL    HW112200   2.375   5.010   0.308
 3767SOL    HW212201   2.308   5.030   0.161
 3768SOL     OW12202   2.498   6.005   5.381
 3768SOL    HW112203   2.492   5.955   5.468
 3768SOL    HW212204   2.590   5.998   5.344
 3769SOL     OW12205   5.593   5.585   5.071
 3769SOL    HW112206   5.620   5.530   5.150
 3769SOL    HW212207   5.555   5.672   5.102
 3770SOL     OW12208   1.917   7.027   7.005
 3770SOL    HW112209   1.870   6.939   7.004
 3770SOL    HW212210   1.883   0.054   6.931
 3771SOL     OW12211   6.587   2.760   6.877
 3771SOL    HW112212   6.559   2.850   6.846
 3771SOL    HW212213   6.615   2.765   6.973
 3772SOL     OW12214   0.149   0.945   0.200
 3772SOL    HW112215   0.184   0.865   0.249
 3772SOL    HW212216   0.184   0.944   0.106
 3773SOL     OW12217   6.601   3.042   6.523
 3773SOL    HW112218   6.514   3.006   6.487
 3773SOL    HW212219   6.674   3.018   6.459
 3774SOL     OW12220   0.564   5.793   0.073
 3774SOL    HW112221   0.545   5.721   0.140
 3774SOL    HW212222   0.495   5.791   0.001
 3775SOL     OW12223   5.100   4.780   2.119
 3775SOL    HW112224   5.071   4.875   2.131
 3775SOL    HW212225   5.020   4.721   2.111
 3776SOL     OW12226   4.099   1.136   0.489
 3776SOL    HW112227   4.171   1.127   0.420
 3776SOL    HW212228   4.010   1.128   0.444
 3777SOL     OW12229   3.336   4.965   4.670
 3777SOL    HW112230   3.241   4.936   4.678
 3777SOL    HW212231   3.347   5.025   4.591
 3778SOL     OW12232   2.894   5.215   3.182
 3778SOL    HW112233   2.869   5.311   3.170
 3778SOL    HW212234   2.839   5.176   3.256
 3779SOL     OW12235   1.777   4.624   1.123
 3779SOL    HW112236   1.824   4.536   1.130
 3779SOL    HW212237   1.807   4.671   1.040
 3780SOL     OW12238   4.540   5.363   6.182
 3780SOL    HW112239   4.612   5.413   6.134
 3780SOL    HW212240   4.524   5.405   6.271
 3781SOL     OW12241   1.944   6.999   4.306
 3781SOL    HW112242   1.880   0.027   4.255
 3781SOL    HW212243   2.009   0.027   4.355
 3782SOL     OW12244   2.489   1.276   4.372
 3782SOL    HW112245   2.472   1.179   4.389
 3782SOL    HW212246   2.576   1.303   4.413
 3783SOL     OW12247   5.692   6.150   4.689
 3783SOL    HW112248   5.636   6.069   4.704
 3783SOL    HW212249   5.759   6.131   4.618
 3784SOL     OW12250   5.180   2.473   3.142
 3784SOL    HW112251   5.275   2.457   3.166
 3784SOL    HW212252   5.155   2.417   3.063
 3785SOL     OW12253   0.922   1.064   6.683
 3785SOL    HW112254   0.920   1.057   6.583
 3785SOL    HW212255   1.011   1.101   6.712
 3786SOL     OW12256   2.138   6.937   2.816
 3786SOL    HW112257   2.083   7.011   2.854
 3786SOL    HW212258   2.211   6.913   2.880
 3787SOL     OW12259   6.078   6.599   3.098
 3787SOL    HW112260   6.118   6.601   3.006
 3787SOL    HW212261   6.005   6.531   3.102
 3788SOL     OW12262   0.864   3.603   4.281
 3788SOL    HW112263   0.830   3.581   4.189
 3788SOL    HW212264   0.919   3.527   4.315
 3789SOL     OW12265   0.654   3.426   4.404
 3789SOL    HW112266   0.579   3.434   4.469
 3789SOL    HW212267   0.664   3.512   4.354
 3790SOL     OW12268   2.100   4.000   5.559
 3790SOL    HW112269   2.148   3.987   5.473
 3790SOL    HW212270   2.093   3.912   5.607
 3791SOL     OW12271   6.343   0.296   0.211
 3791SOL    HW112272   6.296   0.231   0.271
 3791SOL    HW212273   6.441   0.292   0.227
 3792SOL     OW12274   0.109   0.746   3.993
 3792SOL    HW112275   0.016   0.782   4.005
 3792SOL    HW212276   0.161   0.809   3.936
 3793SOL     OW12277   3.717   0.361   2.536
 3793SOL    HW112278   3.660   0.422   2.482
 3793SOL    HW212279   3.710   0.384   2.633
 3794SOL     OW12280   2.226   4.097   1.199
 3794SOL    HW112281   2.205   4.124   1.105
 3794SOL    HW212282   2.309   4.042   1.200
 3795SOL     OW12283   3.655   6.584   6.746
 3795SOL    HW112284   3.575   6.544   6.703
 3795SOL    HW212285   3.661   6.556   6.841
 3796SOL     OW12286   2.831   1.983   1.179
 3796SOL    HW112287   2.790   1.894   1.202
 3796SOL    HW212288   2.908   1.969   1.117
 3797SOL     OW12289   6.253   4.319   2.926
 3797SOL    HW112290   6.217   4.401   2.881
 3797SOL    HW212291   6.306   4.265   2.861
 3798SOL     OW12292   3.941   5.936   2.843
 3798SOL    HW112293   3.966   6.020   2.891
 3798SOL    HW212294   3.893   5.959   2.758
 3799SOL     OW12295   6.925   2.608   3.906
 3799SOL    HW112296   6.844   2.588   3.852
 3799SOL    HW212297   7.007   2.580   3.855
 3800SOL     OW12298   5.238   3.260   4.651
 3800SOL    HW112299   5.215   3.267   4.748
 3800SOL    HW212300   5.337   3.269   4.640
 3801SOL     OW12301   6.395   6.013   3.217
 3801SOL    HW112302   6.314   6.071   3.224
 3801SOL    HW212303   6.459   6.053   3.151
 3802SOL     OW12304   0.755   2.576   3.495
 3802SOL    HW112305   0.708   2.611   3.414
 3802SOL    HW212306   0.706   2.604   3.577
 3803SOL     OW12307   3.843   2.199   1.021
 3803SOL    HW112308   3.800   2.151   0.945
 3803SOL    HW212309   3.851   2.137   1.099
 3804SOL     OW12310   5.138   2.254   3.429
 3804SOL    HW112311   5.126   2.283   3.524
 3804SOL    HW212312   5.061   2.288   3.374
 3805SOL     OW12313   2.824   3.506   1.764
 3805SOL    HW112314   2.833   3.605   1.767
 3805SOL    HW212315   2.843   3.474   1.671
 3806SOL     OW12316   2.987   3.688   6.785
 3806SOL    HW112317   3.080   3.686   6.822
 3806SOL    HW212318   2.930   3.748   6.841
 3807SOL     OW12319   2.573   6.500   3.976
 3807SOL    HW112320   2.532   6.590   3.990
 3807SOL    HW212321   2.579   6.452   4.064
 3808SOL     OW12322   4.042   0.353   1.079
 3808SOL    HW112323   4.012   0.345   0.984
 3808SOL    HW212324   4.142   0.351   1.082
 3809SOL     OW12325   5.952   2.834   0.479
 3809SOL    HW112326   5.900   2.825   0.395
 3809SOL    HW212327   5.928   2.920   0.524
 3810SOL     OW12328   4.634   2.408   5.247
 3810SOL    HW112329   4.671   2.497   5.221
 3810SOL    HW212330   4.681   2.375   5.329
 3811SOL     OW12331   1.328   4.330   3.765
 3811SOL    HW112332   1.248   4.383   3.738
 3811SOL    HW212333   1.300   4.240   3.797
 3812SOL     OW12334   5.038   0.689   5.500
 3812SOL    HW112335   4.973   0.628   5.546
 3812SOL    HW212336   5.029   0.678   5.401
 3813SOL     OW12337   4.124   4.324   0.620
 3813SOL    HW112338   4.037   4.301   0.577
 3813SOL    HW212339   4.120   4.300   0.717
 3814SOL     OW12340   0.490   6.948   1.233
 3814SOL    HW112341   0.505   7.024   1.297
 3814SOL    HW212342   0.533   6.865   1.269
 3815SOL     OW12343   4.701   2.983   0.401
 3815SOL    HW112344   4.722   2.908   0.463
 3815SOL    HW212345   4.747   2.968   0.313
 3816SOL     OW12346   0.653   6.048   0.129
 3816SOL    HW112347   0.635   6.045   0.227
 3816SOL    HW212348   0.645   5.955   0.091
 3817SOL     OW12349   5.372   3.570   3.348
 3817SOL    HW112350   5.412   3.490   3.304
 3817SOL    HW212351   5.317   3.542   3.426
 3818SOL     OW12352   4.944   0.138   0.486
 3818SOL    HW112353   4.941   0.049   0.442
 3818SOL    HW212354   5.036   0.154   0.524
 3819SOL     OW12355   5.340   5.375   1.064
 3819SOL    HW112356   5.377   5.308   1.000
 3819SOL    HW212357   5.406   5.448   1.078
 3820SOL     OW12358   6.896   6.776   3.542
 3820SOL    HW112359   6.926   6.852   3.485
 3820SOL    HW212360   6.963   6.702   3.536
 3821SOL     OW12361   2.193   2.502   0.874
 3821SOL    HW112362   2.232   2.500   0.966
 3821SOL    HW212363   2.159   2.594   0.854
 3822SOL     OW12364   1.477   6.264   2.847
 3822SOL    HW112365   1.423   6.334   2.895
 3822SOL    HW212366   1.416   6.207   2.792
 3823SOL     OW12367   3.922   2.333   5.957
 3823SOL    HW112368   3.830   2.303   5.933
 3823SOL    HW212369   3.919   2.383   6.043
 3824SOL     OW12370   5.444   2.019   6.665
 3824SOL    HW112371   5.415   2.114   6.654
 3824SOL    HW212372   5.467   2.002   6.761
 3825SOL     OW12373   0.541   6.693   0.593
 3825SOL    HW112374   0.600   6.728   0.666
 3825SOL    HW212375   0.480   6.765   0.561
 3826SOL     OW12376   0.258   3.437   0.114
 3826SOL    HW112377   0.233   3.420   0.018
 3826SOL    HW212378   0.345   3.486   0.118
 3827SOL     OW12379   3.257   2.996   1.127
 3827SOL    HW112380   3.177   3.004   1.067
 3827SOL    HW212381   3.312   2.918   1.099
 3828SOL     OW12382   4.570   2.402   1.478
 3828SOL    HW112383   4.631   2.334   1.437
 3828SOL    HW212384   4.625   2.473   1.522
 3829SOL     OW12385   2.243   4.723   4.251
 3829SOL    HW112386   2.325   4.755   4.203
 3829SOL    HW212387   2.269   4.655   4.320
 3830SOL     OW12388   0.888   0.169   5.056
 3830SOL    HW112389   0.791   0.158   5.038
 3830SOL    HW212390   0.904   0.258   5.100
 3831SOL     OW12391   4.568   1.866   2.315
 3831SOL    HW112392   4.615   1.920   2.384
 3831SOL    HW212393   4.627   1.855   2.235
 3832SOL     OW12394   6.056   1.338   1.983
 3832SOL    HW112395   6.018   1.392   2.058
 3832SOL    HW212396   6.086   1.249   2.016
 3833SOL     OW12397   1.153   5.998   6.333
 3833SOL    HW112398   1.068   6.050   6.325
 3833SOL    HW212399   1.191   5.981   6.243
 3834SOL     OW12400   3.644   2.629   1.151
 3834SOL    HW112401   3.661   2.550   1.092
 3834SOL    HW212402   3.730   2.679   1.166
 3835SOL     OW12403   3.154   5.441   4.968
 3835SOL    HW112404   3.138   5.381   5.046
 3835SOL    HW212405   3.237   5.495   4.983
 3836SOL     OW12406   1.763   3.861   5.320
 3836SOL    HW112407   1.834   3.844   5.253
 3836SOL    HW212408   1.800   3.848   5.412
 3837SOL     OW12409   5.129   3.705   6.762
 3837SOL    HW112410   5.042   3.737   6.799
 3837SOL    HW212411   5.188   3.675   6.836
 3838SOL     OW12412   6.644   4.419   4.171
 3838SOL    HW112413   6.709   4.394   4.101
 3838SOL    HW212414   6.653   4.517   4.192
 3839SOL     OW12415   4.196   0.767   4.500
 3839SOL    HW112416   4.279   0.743   4.549
 3839SOL    HW212417   4.117   0.749   4.558
 3840SOL     OW12418   1.586   1.286   5.130
 3840SOL    HW112419   1.614   1.231   5.052
 3840SOL    HW212420   1.503   1.337   5.107
 3841SOL     OW12421   0.007   3.399   4.795
 3841SOL    HW112422   0.097   3.433   4.823
 3841SOL    HW212423   6.974   3.404   4.872
 3842SOL     OW12424   1.080   4.543   0.006
 3842SOL    HW112425   1.105   4.450   0.034
 3842SOL    HW212426   1.062   4.544   6.937
 3843SOL     OW12427   6.859   4.675   1.864
 3843SOL    HW112428   6.930   4.722   1.915
 3843SOL    HW212429   6.782   4.737   1.849
 3844SOL     OW12430   0.055   4.078   6.027
 3844SOL    HW112431   0.148   4.079   5.989
 3844SOL    HW212432   0.046   4.152   6.094
 3845SOL     OW12433   3.784   2.990   2.800
 3845SOL    HW112434   3.753   2.963   2.891
 3845SOL    HW212435   3.872   3.037   2.807
 3846SOL     OW12436   0.609   4.722   4.053
 3846SOL    HW112437   0.583   4.750   4.146
 3846SOL    HW212438   0.533   4.673   4.011
 3847SOL     OW12439   6.066   1.162   5.229
 3847SOL    HW112440   6.065   1.105   5.311
 3847SOL    HW212441   5.972   1.188   5.205
 3848SOL     OW12442   3.179   5.793   3.123
 3848SOL    HW112443   3.251   5.797   3.193
 3848SOL    HW212444   3.098   5.748   3.161
 3849SOL     OW12445   0.547   1.491   5.334
 3849SOL    HW112446   0.570   1.451   5.423
 3849SOL    HW212447   0.630   1.522   5.288
 3850SOL     OW12448   2.800   3.694   1.434
 3850SOL    HW112449   2.816   3.602   1.470
 3850SOL    HW212450   2.713   3.730   1.469
 3851SOL     OW12451   1.384   4.625   3.260
 3851SOL    HW112452   1.453   4.559   3.290
 3851SOL    HW212453   1.301   4.615   3.314
 3852SOL     OW12454   4.659   6.691   4.441
 3852SOL    HW112455   4.604   6.697   4.524
 3852SOL    HW212456   4.618   6.624   4.379
 3853SOL     OW12457   1.528   3.191   2.534
 3853SOL    HW112458   1.495   3.099   2.514
 3853SOL    HW212459   1.627   3.189   2.547
 3854SOL     OW12460   1.131   4.161   2.886
 3854SOL    HW112461   1.166   4.110   2.964
 3854SOL    HW212462   1.122   4.100   2.807
 3855SOL     OW12463   4.916   6.002   6.649
 3855SOL    HW112464   4.931   5.911   6.611
 3855SOL    HW212465   4.887   5.993   6.744
 3856SOL     OW12466   6.785   6.331   4.935
 3856SOL    HW112467   6.731   6.253   4.965
 3856SOL    HW212468   6.789   6.332   4.835
 3857SOL     OW12469   1.042   6.294   5.565
 3857SOL    HW112470   0.979   6.357   5.519
 3857SOL    HW212471   1.079   6.229   5.498
 3858SOL     OW12472   1.439   6.301   6.155
 3858SOL    HW112473   1.526   6.261   6.124
 3858SOL    HW212474   1.453   6.347   6.242
 3859SOL     OW12475   0.008   1.962   3.331
 3859SOL    HW112476   0.084   1.990   3.272
 3859SOL    HW212477   7.029   2.027   3.406
 3860SOL     OW12478   1.033   6.960   4.983
 3860SOL    HW112479   1.002   0.025   4.976
 3860SOL    HW212480   1.034   6.918   4.892
 3861SOL     OW12481   5.134   4.498   2.012
 3861SOL    HW112482   5.198   4.508   2.088
 3861SOL    HW212483   5.041   4.499   2.047
 3862SOL     OW12484   6.724   6.989   5.374
 3862SOL    HW112485   6.798   6.928   5.342
 3862SOL    HW212486   6.639   6.964   5.327
 3863SOL     OW12487   3.929   4.068   6.500
 3863SOL    HW112488   3.972   4.001   6.561
 3863SOL    HW212489   3.832   4.045   6.488
 3864SOL     OW12490   4.389   1.845   5.623
 3864SOL    HW112491   4.329   1.855   5.702
 3864SOL    HW212492   4.461   1.779   5.643
 3865SOL     OW12493   3.730   0.490   1.670
 3865SOL    HW112494   3.744   0.553   1.746
 3865SOL    HW212495   3.764   0.399   1.695
 3866SOL     OW12496   3.770   0.702   0.234
 3866SOL    HW112497   3.816   0.708   0.322
 3866SOL    HW212498   3.777   0.790   0.187
 3867SOL     OW12499   1.711   3.824   4.116
 3867SOL    HW112500   1.683   3.851   4.024
 3867SOL    HW212501   1.630   3.815   4.174
 3868SOL     OW12502   2.200   6.386   2.135
 3868SOL    HW112503   2.156   6.296   2.143
 3868SOL    HW212504   2.228   6.417   2.226
 3869SOL     OW12505   6.809   2.987   4.410
 3869SOL    HW112506   6.733   2.988   4.474
 3869SOL    HW212507   6.788   2.926   4.334
 3870SOL     OW12508   4.580   4.743   0.116
 3870SOL    HW112509   4.519   4.690   0.058
 3870SOL    HW212510   4.536   4.762   0.204
 3871SOL     OW12511   2.941   1.079   2.816
 3871SOL    HW112512   2.861   1.136   2.799
 3871SOL    HW212513   3.024   1.133   2.800
 3872SOL     OW12514   3.239   2.831   1.889
 3872SOL    HW112515   3.257   2.844   1.986
 3872SOL    HW212516   3.170   2.760   1.877
 3873SOL     OW12517   5.817   5.429   1.245
 3873SOL    HW112518   5.803   5.439   1.147
 3873SOL    HW212519   5.728   5.415   1.289
 3874SOL     OW12520   4.198   6.345   0.605
 3874SOL    HW112521   4.264   6.328   0.532
 3874SOL    HW212522   4.121   6.397   0.569
 3875SOL     OW12523   0.858   3.465   2.901
 3875SOL    HW112524   0.884   3.482   2.806
 3875SOL    HW212525   0.762   3.437   2.904
 3876SOL     OW12526   5.137   5.138   6.332
 3876SOL    HW112527   5.136   5.167   6.428
 3876SOL    HW212528   5.230   5.141   6.297
 3877SOL     OW12529   6.631   1.167   0.581
 3877SOL    HW112530   6.703   1.163   0.511
 3877SOL    HW212531   6.597   1.261   0.587
 3878SOL     OW12532   2.408   5.901   6.026
 3878SOL    HW112533   2.422   5.882   6.123
 3878SOL    HW212534   2.458   5.985   6.001
 3879SOL     OW12535   4.830   5.931   1.314
 3879SOL    HW112536   4.895   5.991   1.268
 3879SOL    HW212537   4.877   5.877   1.384
 3880SOL     OW12538   6.073   4.146   3.097
 3880SOL    HW112539   6.074   4.206   3.177
 3880SOL    HW212540   6.104   4.197   3.017
 3881SOL     OW12541   1.284   5.385   0.892
 3881SOL    HW112542   1.276   5.396   0.793
 3881SOL    HW212543   1.218   5.316   0.923
 3882SOL     OW12544   6.213   0.955   5.071
 3882SOL    HW112545   6.273   0.912   5.003
 3882SOL    HW212546   6.163   1.030   5.028
 3883SOL     OW12547   4.779   1.500   3.773
 3883SOL    HW112548   4.774   1.441   3.853
 3883SOL    HW212549   4.689   1.537   3.752
 3884SOL     OW12550   1.457   6.378   4.771
 3884SOL    HW112551   1.503   6.291   4.752
 3884SOL    HW212552   1.389   6.396   4.700
 3885SOL     OW12553   6.551   0.700   4.681
 3885SOL    HW112554   6.506   0.789   4.678
 3885SOL    HW212555   6.565   0.666   4.588
 3886SOL     OW12556   5.913   0.438   5.761
 3886SOL    HW112557   5.878   0.386   5.683
 3886SOL    HW212558   5.952   0.376   5.828
 3887SOL     OW12559   5.287   2.063   5.414
 3887SOL    HW112560   5.219   2.126   5.452
 3887SOL    HW212561   5.378   2.087   5.449
 3888SOL     OW12562   7.028   0.845   6.305
 3888SOL    HW112563   7.010   0.873   6.400
 3888SOL    HW212564   0.071   0.902   6.267
 3889SOL     OW12565   0.086   5.045   6.197
 3889SOL    HW112566   0.102   4.981   6.273
 3889SOL    HW212567   0.136   5.013   6.116
 3890SOL     OW12568   6.451   6.538   2.781
 3890SOL    HW112569   6.438   6.440   2.794
 3890SOL    HW212570   6.487   6.555   2.690
 3891SOL     OW12571   5.616   4.826   4.725
 3891SOL    HW112572   5.617   4.785   4.816
 3891SOL    HW212573   5.540   4.788   4.672
 3892SOL     OW12574   1.232   0.577   2.420
 3892SOL    HW112575   1.215   0.635   2.500
 3892SOL    HW212576   1.326   0.544   2.422
 3893SOL     OW12577   3.309   6.042   3.372
 3893SOL    HW112578   3.209   6.039   3.374
 3893SOL    HW212579   3.343   5.967   3.315
 3894SOL     OW12580   3.781   2.447   0.472
 3894SOL    HW112581   3.701   2.495   0.435
 3894SOL    HW212582   3.764   2.423   0.567
 3895SOL     OW12583   1.137   1.007   5.348
 3895SOL    HW112584   1.132   0.933   5.281
 3895SOL    HW212585   1.059   1.001   5.411
 3896SOL     OW12586   0.717   2.192   6.403
 3896SOL    HW112587   0.714   2.234   6.312
 3896SOL    HW212588   0.632   2.211   6.451
 3897SOL     OW12589   2.990   6.582   2.529
 3897SOL    HW112590   3.031   6.673   2.533
 3897SOL    HW212591   3.039   6.525   2.463
 3898SOL     OW12592   3.213   3.205   3.430
 3898SOL    HW112593   3.279   3.274   3.401
 3898SOL    HW212594   3.261   3.130   3.477
 3899SOL     OW12595   5.112   1.147   5.002
 3899SOL    HW112596   5.017   1.151   5.034
 3899SOL    HW212597   5.173   1.181   5.073
 3900SOL     OW12598   5.939   2.701   3.277
 3900SOL    HW112599   6.033   2.667   3.281
 3900SOL    HW212600   5.940   2.801   3.270
 3901SOL     OW12601   1.859   6.750   5.861
 3901SOL    HW112602   1.813   6.726   5.947
 3901SOL    HW212603   1.905   6.669   5.824
 3902SOL     OW12604   5.208   4.266   2.958
 3902SOL    HW112605   5.190   4.171   2.983
 3902SOL    HW212606   5.184   4.326   3.033
 3903SOL     OW12607   4.578   3.625   0.116
 3903SOL    HW112608   4.678   3.628   0.114
 3903SOL    HW212609   4.549   3.556   0.183
 3904SOL     OW12610   0.905   6.864   0.171
 3904SOL    HW112611   0.855   6.779   0.186
 3904SOL    HW212612   0.893   6.893   0.076
 3905SOL     OW12613   6.299   6.446   6.521
 3905SOL    HW112614   6.392   6.408   6.519
 3905SOL    HW212615   6.278   6.476   6.614
 3906SOL     OW12616   1.602   4.583   3.858
 3906SOL    HW112617   1.507   4.612   3.861
 3906SOL    HW212618   1.608   4.488   3.828
 3907SOL     OW12619   0.190   1.349   4.776
 3907SOL    HW112620   0.150   1.260   4.796
 3907SOL    HW212621   0.282   1.354   4.815
 3908SOL     OW12622   1.115   0.843   5.706
 3908SOL    HW112623   1.206   0.858   5.744
 3908SOL    HW212624   1.072   0.766   5.752
 3909SOL     OW12625   4.919   3.546   6.279
 3909SOL    HW112626   4.888   3.565   6.186
 3909SOL    HW212627   5.017   3.529   6.279
 3910SOL     OW12628   3.727   4.082   2.205
 3910SOL    HW112629   3.701   3.988   2.184
 3910SOL    HW212630   3.824   4.085   2.229
 3911SOL     OW12631   5.388   0.459   0.905
 3911SOL    HW112632   5.440   0.373   0.899
 3911SOL    HW212633   5.441   0.532   0.862
 3912SOL     OW12634   3.129   1.801   5.960
 3912SOL    HW112635   3.197   1.852   6.013
 3912SOL    HW212636   3.152   1.704   5.962
 3913SOL     OW12637   3.924   6.618   0.718
 3913SOL    HW112638   3.933   6.533   0.770
 3913SOL    HW212639   3.947   6.600   0.622
 3914SOL     OW12640   5.504   1.458   1.228
 3914SOL    HW112641   5.574   1.471   1.158
 3914SOL    HW212642   5.548   1.445   1.317
 3915SOL     OW12643   3.215   6.084   0.534
 3915SOL    HW112644   3.149   6.122   0.599
 3915SOL    HW212645   3.233   5.988   0.556
 3916SOL     OW12646   3.372   0.619   3.005
 3916SOL    HW112647   3.338   0.688   2.942
 3916SOL    HW212648   3.462   0.648   3.041
 3917SOL     OW12649   2.562   4.962   0.637
 3917SOL    HW112650   2.638   4.977   0.700
 3917SOL    HW212651   2.478   4.997   0.678
 3918SOL     OW12652   5.000   1.206   0.460
 3918SOL    HW112653   4.993   1.107   0.462
 3918SOL    HW212654   4.908   1.246   0.460
 3919SOL     OW12655   4.723   1.187   0.770
 3919SOL    HW112656   4.667   1.226   0.843
 3919SOL    HW212657   4.750   1.094   0.795
 3920SOL     OW12658   2.991   1.614   0.020
 3920SOL    HW112659   3.050   1.598   6.971
 3920SOL    HW212660   3.016   1.701   0.063
 3921SOL     OW12661   6.833   2.638   6.760
 3921SOL    HW112662   6.826   2.619   6.857
 3921SOL    HW212663   6.746   2.619   6.715
 3922SOL     OW12664   4.669   4.937   1.981
 3922SOL    HW112665   4.613   4.857   1.960
 3922SOL    HW212666   4.613   5.019   1.979
 3923SOL     OW12667   6.013   1.028   1.448
 3923SOL    HW112668   5.971   1.102   1.501
 3923SOL    HW212669   6.072   0.973   1.507
 3924SOL     OW12670   0.130   4.490   3.754
 3924SOL    HW112671   0.194   4.416   3.772
 3924SOL    HW212672   0.179   4.569   3.719
 3925SOL     OW12673   4.865   4.111   0.733
 3925SOL    HW112674   4.907   4.092   0.644
 3925SOL    HW212675   4.928   4.085   0.806
 3926SOL     OW12676   1.092   0.614   5.868
 3926SOL    HW112677   1.154   0.658   5.933
 3926SOL    HW212678   1.051   0.533   5.910
 3927SOL     OW12679   0.369   2.914   4.392
 3927SOL    HW112680   0.333   2.820   4.388
 3927SOL    HW212681   0.433   2.929   4.317
 3928SOL     OW12682   2.404   6.941   3.191
 3928SOL    HW112683   2.338   6.891   3.246
 3928SOL    HW212684   2.471   6.985   3.250
 3929SOL     OW12685   6.900   1.950   5.940
 3929SOL    HW112686   6.963   2.028   5.942
 3929SOL    HW212687   6.838   1.960   5.862
 3930SOL     OW12688   1.580   2.385   3.579
 3930SOL    HW112689   1.499   2.392   3.636
 3930SOL    HW212690   1.645   2.457   3.604
 3931SOL     OW12691   1.551   1.958   1.856
 3931SOL    HW112692   1.530   2.053   1.878
 3931SOL    HW212693   1.467   1.904   1.854
 3932SOL     OW12694   1.855   5.566   3.546
 3932SOL    HW112695   1.800   5.554   3.628
 3932SOL    HW212696   1.914   5.646   3.557
 3933SOL     OW12697   1.530   5.318   0.560
 3933SOL    HW112698   1.450   5.333   0.501
 3933SOL    HW212699   1.612   5.306   0.503
 3934SOL     OW12700   0.840   1.313   2.582
 3934SOL    HW112701   0.837   1.367   2.666
 3934SOL    HW212702   0.748   1.281   2.559
 3935SOL     OW12703   6.103   3.204   6.254
 3935SOL    HW112704   6.068   3.190   6.347
 3935SOL    HW212705   6.080   3.296   6.223
 3936SOL     OW12706   6.511   5.742   5.089
 3936SOL    HW112707   6.465   5.822   5.050
 3936SOL    HW212708   6.505   5.665   5.025
 3937SOL     OW12709   0.425   5.152   2.641
 3937SOL    HW112710   0.445   5.240   2.683
 3937SOL    HW212711   0.346   5.110   2.687
 3938SOL     OW12712   0.053   3.832   4.602
 3938SOL    HW112713   0.002   3.881   4.673
 3938SOL    HW212714   0.074   3.895   4.527
 3939SOL     OW12715   0.833   1.524   2.092
 3939SOL    HW112716   0.920   1.487   2.126
 3939SOL    HW212717   0.836   1.531   1.993
 3940SOL     OW12718   2.927   4.716   1.724
 3940SOL    HW112719   2.854   4.719   1.655
 3940SOL    HW212720   2.900   4.654   1.798
 3941SOL     OW12721   6.076   0.020   4.194
 3941SOL    HW112722   6.158   0.027   4.251
 3941SOL    HW212723   6.041   0.112   4.176
 3942SOL     OW12724   1.204   6.704   6.311
 3942SOL    HW112725   1.177   6.609   6.300
 3942SOL    HW212726   1.136   6.764   6.268
 3943SOL     OW12727   0.745   3.757   1.881
 3943SOL    HW112728   0.748   3.857   1.883
 3943SOL    HW212729   0.719   3.722   1.971
 3944SOL     OW12730   6.274   3.164   6.683
 3944SOL    HW112731   6.341   3.106   6.637
 3944SOL    HW212732   6.197   3.108   6.714
 3945SOL     OW12733   1.029   2.066   3.593
 3945SOL    HW112734   1.036   2.069   3.493
 3945SOL    HW212735   0.934   2.077   3.621
 3946SOL     OW12736   7.019   3.742   0.537
 3946SOL    HW112737   6.921   3.760   0.550
 3946SOL    HW212738   0.035   3.828   0.514
 3947SOL     OW12739   5.761   6.224   0.516
 3947SOL    HW112740   5.662   6.237   0.508
 3947SOL    HW212741   5.789   6.148   0.457
 3948SOL     OW12742   2.060   2.443   6.468
 3948SOL    HW112743   2.057   2.514   6.538
 3948SOL    HW212744   2.051   2.485   6.377
 3949SOL     OW12745   6.369   6.598   2.534
 3949SOL    HW112746   6.435   6.660   2.490
 3949SOL    HW212747   6.276   6.630   2.515
 3950SOL     OW12748   4.202   4.326   1.641
 3950SOL    HW112749   4.243   4.302   1.729
 3950SOL    HW212750   4.273   4.331   1.571
 3951SOL     OW12751   0.338   2.332   5.612
 3951SOL    HW112752   0.260   2.277   5.582
 3951SOL    HW212753   0.343   2.415   5.557
 3952SOL     OW12754   5.539   2.208   4.797
 3952SOL    HW112755   5.476   2.180   4.870
 3952SOL    HW212756   5.553   2.132   4.734
 3953SOL     OW12757   3.056   3.803   6.054
 3953SOL    HW112758   3.069   3.762   5.964
 3953SOL    HW212759   2.980   3.869   6.050
 3954SOL     OW12760   0.091   4.051   5.421
 3954SOL    HW112761   0.133   3.993   5.351
 3954SOL    HW212762   0.011   4.005   5.458
 3955SOL     OW12763   5.309   6.176   0.200
 3955SOL    HW112764   5.227   6.217   0.242
 3955SOL    HW212765   5.343   6.237   0.129
 3956SOL     OW12766   0.698   2.540   5.775
 3956SOL    HW112767   0.759   2.598   5.830
 3956SOL    HW212768   0.667   2.592   5.695
 3957SOL     OW12769   2.941   0.077   3.880
 3957SOL    HW112770   2.933   0.171   3.915
 3957SOL    HW212771   3.031   0.065   3.838
 3958SOL     OW12772   6.491   5.946   0.013
 3958SOL    HW112773   6.534   6.033   7.023
 3958SOL    HW212774   6.544   5.872   7.002
 3959SOL     OW12775   2.622   5.808   0.747
 3959SOL    HW112776   2.594   5.757   0.665
 3959SOL    HW212777   2.549   5.804   0.815
 3960SOL     OW12778   4.417   2.639   6.973
 3960SOL    HW112779   4.477   2.623   6.894
 3960SOL    HW212780   4.443   2.724   7.019
 3961SOL     OW12781   5.015   1.706   2.169
 3961SOL    HW112782   4.925   1.701   2.126
 3961SOL    HW212783   5.079   1.645   2.121
 3962SOL     OW12784   1.158   6.249   0.275
 3962SOL    HW112785   1.247   6.271   0.233
 3962SOL    HW212786   1.096   6.327   0.264
 3963SOL     OW12787   5.046   5.794   3.554
 3963SOL    HW112788   4.987   5.718   3.527
 3963SOL    HW212789   5.142   5.765   3.548
 3964SOL     OW12790   5.346   6.048   5.191
 3964SOL    HW112791   5.264   6.085   5.147
 3964SOL    HW212792   5.424   6.108   5.173
 3965SOL     OW12793   3.906   5.062   6.616
 3965SOL    HW112794   3.969   5.001   6.567
 3965SOL    HW212795   3.918   5.156   6.584
 3966SOL     OW12796   6.068   4.802   6.034
 3966SOL    HW112797   5.994   4.772   5.973
 3966SOL    HW212798   6.039   4.790   6.129
 3967SOL     OW12799   0.631   5.575   4.675
 3967SOL    HW112800   0.687   5.630   4.737
 3967SOL    HW212801   0.682   5.556   4.591
 3968SOL     OW12802   5.040   0.307   2.855
 3968SOL    HW112803   5.107   0.340   2.789
 3968SOL    HW212804   5.032   0.208   2.849
 3969SOL     OW12805   1.355   5.007   2.933
 3969SOL    HW112806   1.442   5.017   2.982
 3969SOL    HW212807   1.345   5.081   2.867
 3970SOL     OW12808   4.802   4.950   4.059
 3970SOL    HW112809   4.763   4.887   3.993
 3970SOL    HW212810   4.776   5.044   4.036
 3971SOL     OW12811   2.846   5.421   3.463
 3971SOL    HW112812   2.847   5.455   3.557
 3971SOL    HW212813   2.921   5.355   3.451
 3972SOL     OW12814   0.390   6.470   0.599
 3972SOL    HW112815   0.396   6.424   0.510
 3972SOL    HW212816   0.436   6.559   0.593
 3973SOL     OW12817   3.166   3.394   4.717
 3973SOL    HW112818   3.220   3.464   4.670
 3973SOL    HW212819   3.124   3.334   4.649
 3974SOL     OW12820   0.316   1.409   5.902
 3974SOL    HW112821   0.356   1.323   5.935
 3974SOL    HW212822   0.228   1.391   5.859
 3975SOL     OW12823   6.501   0.947   6.160
 3975SOL    HW112824   6.443   0.937   6.078
 3975SOL    HW212825   6.586   0.994   6.135
 3976SOL     OW12826   0.658   4.315   0.952
 3976SOL    HW112827   0.663   4.316   1.052
 3976SOL    HW212828   0.640   4.407   0.918
 3977SOL     OW12829   2.360   5.935   6.291
 3977SOL    HW112830   2.419   6.014   6.309
 3977SOL    HW212831   2.267   5.966   6.274
 3978SOL     OW12832   5.769   1.656   5.658
 3978SOL    HW112833   5.817   1.609   5.733
 3978SOL    HW212834   5.673   1.669   5.682
 3979SOL     OW12835   1.592   0.331   1.802
 3979SOL    HW112836   1.510   0.297   1.847
 3979SOL    HW212837   1.587   0.311   1.704
 3980SOL     OW12838   5.557   3.267   4.644
 3980SOL    HW112839   5.626   3.338   4.630
 3980SOL    HW212840   5.573   3.221   4.731
 3981SOL     OW12841   0.062   1.975   6.571
 3981SOL    HW112842   7.027   1.945   6.501
 3981SOL    HW212843   0.077   2.074   6.561
 3982SOL     OW12844   1.866   0.905   4.543
 3982SOL    HW112845   1.882   1.004   4.543
 3982SOL    HW212846   1.904   0.866   4.460
 3983SOL     OW12847   3.189   0.219   4.767
 3983SOL    HW112848   3.178   0.172   4.680
 3983SOL    HW212849   3.258   0.171   4.822
 3984SOL     OW12850   1.552   6.609   1.949
 3984SOL    HW112851   1.648   6.637   1.946
 3984SOL    HW212852   1.539   6.542   2.022
 3985SOL     OW12853   1.307   4.035   0.055
 3985SOL    HW112854   1.385   3.972   0.056
 3985SOL    HW212855   1.224   3.985   0.032
 3986SOL     OW12856   0.430   2.115   1.527
 3986SOL    HW112857   0.495   2.064   1.470
 3986SOL    HW212858   0.405   2.199   1.479
 3987SOL     OW12859   1.737   5.559   5.492
 3987SOL    HW112860   1.810   5.621   5.522
 3987SOL    HW212861   1.655   5.577   5.547
 3988SOL     OW12862   4.162   1.597   6.318
 3988SOL    HW112863   4.229   1.614   6.246
 3988SOL    HW212864   4.111   1.680   6.337
 3989SOL     OW12865   6.258   0.070   6.547
 3989SOL    HW112866   6.194   7.028   6.574
 3989SOL    HW212867   6.240   0.097   6.452
 3990SOL     OW12868   0.053   2.621   4.752
 3990SOL    HW112869   0.018   2.594   4.842
 3990SOL    HW212870   0.001   2.698   4.717
 3991SOL     OW12871   0.606   2.271   3.706
 3991SOL    HW112872   0.593   2.208   3.783
 3991SOL    HW212873   0.697   2.258   3.668
 3992SOL     OW12874   4.103   3.333   6.753
 3992SOL    HW112875   4.072   3.240   6.736
 3992SOL    HW212876   4.193   3.347   6.711
 3993SOL     OW12877   2.804   2.026   2.700
 3993SOL    HW112878   2.739   1.973   2.646
 3993SOL    HW212879   2.810   2.119   2.663
 3994SOL     OW12880   2.436   2.504   4.886
 3994SOL    HW112881   2.391   2.590   4.863
 3994SOL    HW212882   2.397   2.430   4.831
 3995SOL     OW12883   2.194   3.944   3.391
 3995SOL    HW112884   2.187   3.957   3.489
 3995SOL    HW212885   2.194   4.033   3.345
 3996SOL     OW12886   0.849   1.277   4.040
 3996SOL    HW112887   0.901   1.192   4.032
 3996SOL    HW212888   0.907   1.354   4.017
 3997SOL     OW12889   4.988   3.455   2.931
 3997SOL    HW112890   5.075   3.422   2.969
 3997SOL    HW212891   4.916   3.388   2.949
 3998SOL     OW12892   6.117   1.757   2.385
 3998SOL    HW112893   6.158   1.787   2.299
 3998SOL    HW212894   6.168   1.795   2.462
 3999SOL     OW12895   5.640   4.121   3.386
 3999SOL    HW112896   5.711   4.075   3.440
 3999SOL    HW212897   5.550   4.095   3.422
 4000SOL     OW12898   3.048   6.213   2.771
 4000SOL    HW112899   3.100   6.190   2.689
 4000SOL    HW212900   2.983   6.140   2.791
 4001SOL     OW12901   2.443   4.030   6.349
 4001SOL    HW112902   2.365   3.978   6.384
 4001SOL    HW212903   2.508   3.968   6.306
 4002SOL     OW12904   4.207   3.431   4.870
 4002SOL    HW112905   4.194   3.469   4.779
 4002SOL    HW212906   4.305   3.414   4.885
 4003SOL     OW12907   2.220   0.788   6.149
 4003SOL    HW112908   2.180   0.770   6.239
 4003SOL    HW212909   2.146   0.807   6.084
 4004SOL     OW12910   6.319   3.921   3.392
 4004SOL    HW112911   6.329   3.822   3.399
 4004SOL    HW212912   6.371   3.965   3.466
 4005SOL     OW12913   3.818   4.443   1.101
 4005SOL    HW112914   3.903   4.421   1.053
 4005SOL    HW212915   3.774   4.521   1.057
 4006SOL     OW12916   5.495   4.802   2.066
 4006SOL    HW112917   5.463   4.795   1.972
 4006SOL    HW212918   5.469   4.891   2.104
 4007SOL     OW12919   0.122   2.214   3.813
 4007SOL    HW112920   0.060   2.268   3.756
 4007SOL    HW212921   0.117   2.245   3.907
 4008SOL     OW12922   2.926   6.553   0.271
 4008SOL    HW112923   2.981   6.554   0.188
 4008SOL    HW212924   2.973   6.604   0.343
 4009SOL     OW12925   5.045   1.912   0.963
 4009SOL    HW112926   4.974   1.911   1.033
 4009SOL    HW212927   5.023   1.843   0.894
 4010SOL     OW12928   2.873   3.404   1.496
 4010SOL    HW112929   2.848   3.353   1.414
 4010SOL    HW212930   2.964   3.377   1.527
 4011SOL     OW12931   6.375   6.137   1.518
 4011SOL    HW112932   6.390   6.190   1.601
 4011SOL    HW212933   6.430   6.054   1.521
 4012SOL     OW12934   3.683   6.704   2.585
 4012SOL    HW112935   3.622   6.644   2.533
 4012SOL    HW212936   3.734   6.761   2.521
 4013SOL     OW12937   1.740   0.418   1.316
 4013SOL    HW112938   1.749   0.474   1.233
 4013SOL    HW212939   1.735   0.322   1.291
 4014SOL     OW12940   3.647   6.449   3.970
 4014SOL    HW112941   3.600   6.398   4.041
 4014SOL    HW212942   3.693   6.385   3.908
 4015SOL     OW12943   4.292   4.799   6.373
 4015SOL    HW112944   4.201   4.759   6.358
 4015SOL    HW212945   4.359   4.726   6.385
 4016SOL     OW12946   2.665   5.179   0.340
 4016SOL    HW112947   2.595   5.108   0.344
 4016SOL    HW212948   2.754   5.140   0.363
 4017SOL     OW12949   6.931   4.814   5.117
 4017SOL    HW112950   6.876   4.855   5.044
 4017SOL    HW212951   7.006   4.762   5.077
 4018SOL     OW12952   4.033   6.950   1.690
 4018SOL    HW112953   3.934   6.948   1.704
 4018SOL    HW212954   4.079   6.916   1.771
 4019SOL     OW12955   5.562   4.031   2.677
 4019SOL    HW112956   5.563   4.016   2.776
 4019SOL    HW212957   5.500   4.106   2.656
 4020SOL     OW12958   0.147   3.090   5.442
 4020SOL    HW112959   0.173   3.007   5.490
 4020SOL    HW212960   0.229   3.144   5.422
 4021SOL     OW12961   3.781   3.980   5.340
 4021SOL    HW112962   3.834   4.053   5.296
 4021SOL    HW212963   3.687   4.010   5.353
 4022SOL     OW12964   4.061   6.202   0.324
 4022SOL    HW112965   4.013   6.245   0.400
 4022SOL    HW212966   4.155   6.237   0.319
 4023SOL     OW12967   0.276   1.180   6.270
 4023SOL    HW112968   0.210   1.154   6.340
 4023SOL    HW212969   0.312   1.270   6.291
 4024SOL     OW12970   2.491   4.829   4.512
 4024SOL    HW112971   2.573   4.887   4.513
 4024SOL    HW212972   2.511   4.742   4.555
 4025SOL     OW12973   0.417   6.549   4.635
 4025SOL    HW112974   0.347   6.583   4.697
 4025SOL    HW212975   0.476   6.484   4.684
 4026SOL     OW12976   6.353   6.454   4.167
 4026SOL    HW112977   6.334   6.440   4.264
 4026SOL    HW212978   6.284   6.515   4.128
 4027SOL     OW12979   2.979   2.103   6.783
 4027SOL    HW112980   2.970   2.190   6.736
 4027SOL    HW212981   3.076   2.082   6.797
 4028SOL     OW12982   4.962   1.557   3.535
 4028SOL    HW112983   5.056   1.563   3.566
 4028SOL    HW212984   4.903   1.531   3.611
 4029SOL     OW12985   3.161   4.220   5.788
 4029SOL    HW112986   3.086   4.246   5.848
 4029SOL    HW212987   3.182   4.123   5.802
 4030SOL     OW12988   6.344   1.009   1.884
 4030SOL    HW112989   6.409   1.047   1.950
 4030SOL    HW212990   6.394   0.953   1.818
 4031SOL     OW12991   4.861   6.168   3.274
 4031SOL    HW112992   4.919   6.087   3.281
 4031SOL    HW212993   4.796   6.156   3.200
 4032SOL     OW12994   0.106   6.993   2.703
 4032SOL    HW112995   0.195   6.982   2.747
 4032SOL    HW212996   0.097   0.058   2.671
 4033SOL     OW12997   1.591   2.812   1.795
 4033SOL    HW112998   1.554   2.737   1.850
 4033SOL    HW212999   1.548   2.897   1.822
 4034SOL     OW13000   5.781   2.039   5.019
 4034SOL    HW113001   5.846   2.109   5.050
 4034SOL    HW213002   5.710   2.082   4.963
 4035SOL     OW13003   6.186   1.249   0.573
 4035SOL    HW113004   6.253   1.217   0.641
 4035SOL    HW213005   6.158   1.172   0.516
 4036SOL     OW13006   4.244   4.791   2.454
 4036SOL    HW113007   4.257   4.721   2.524
 4036SOL    HW213008   4.320   4.790   2.390
 4037SOL     OW13009   2.057   1.206   6.243
 4037SOL    HW113010   2.154   1.218   6.223
 4037SOL    HW213011   2.009   1.293   6.231
 4038SOL     OW13012   4.582   3.284   0.783
 4038SOL    HW113013   4.515   3.225   0.829
 4038SOL    HW213014   4.624   3.345   0.850
 4039SOL     OW13015   4.891   5.431   1.779
 4039SOL    HW113016   4.945   5.358   1.823
 4039SOL    HW213017   4.807   5.393   1.742
 4040SOL     OW13018   3.226   0.069   5.182
 4040SOL    HW113019   3.279   0.116   5.253
 4040SOL    HW213020   3.133   0.054   5.214
 4041SOL     OW13021   1.292   4.958   0.872
 4041SOL    HW113022   1.256   5.027   0.934
 4041SOL    HW213023   1.313   5.001   0.784
 4042SOL     OW13024   6.207   5.994   4.173
 4042SOL    HW113025   6.146   6.021   4.248
 4042SOL    HW213026   6.270   6.070   4.154
 4043SOL     OW13027   6.834   1.976   6.229
 4043SOL    HW113028   6.776   2.005   6.153
 4043SOL    HW213029   6.866   1.883   6.212
 4044SOL     OW13030   5.080   6.170   3.712
 4044SOL    HW113031   5.023   6.100   3.754
 4044SOL    HW213032   5.036   6.259   3.722
 4045SOL     OW13033   3.966   5.969   6.102
 4045SOL    HW113034   3.941   5.880   6.062
 4045SOL    HW213035   3.899   5.993   6.172
 4046SOL     OW13036   1.153   2.160   3.361
 4046SOL    HW113037   1.235   2.129   3.409
 4046SOL    HW213038   1.166   2.255   3.330
 4047SOL     OW13039   2.728   1.964   6.811
 4047SOL    HW113040   2.803   2.029   6.821
 4047SOL    HW213041   2.701   1.931   6.902
 4048SOL     OW13042   5.100   1.232   1.530
 4048SOL    HW113043   5.153   1.161   1.577
 4048SOL    HW213044   5.157   1.277   1.462
 4049SOL     OW13045   5.071   5.063   6.627
 4049SOL    HW113046   5.157   5.033   6.668
 4049SOL    HW213047   5.018   4.983   6.599
 4050SOL     OW13048   0.913   6.488   2.405
 4050SOL    HW113049   0.964   6.403   2.392
 4050SOL    HW213050   0.909   6.510   2.503
 4051SOL     OW13051   3.859   1.553   6.435
 4051SOL    HW113052   3.847   1.457   6.461
 4051SOL    HW213053   3.865   1.560   6.335
 4052SOL     OW13054   6.023   1.321   2.845
 4052SOL    HW113055   6.029   1.370   2.932
 4052SOL    HW213056   6.106   1.266   2.832
 4053SOL     OW13057   3.085   0.023   4.509
 4053SOL    HW113058   3.032   7.013   4.583
 4053SOL    HW213059   3.123   6.981   4.452
 4054SOL     OW13060   5.347   4.100   1.217
 4054SOL    HW113061   5.396   4.039   1.154
 4054SOL    HW213062   5.358   4.194   1.187
 4055SOL     OW13063   2.959   3.872   0.604
 4055SOL    HW113064   2.900   3.843   0.679
 4055SOL    HW213065   2.949   3.808   0.528
 4056SOL     OW13066   5.715   3.955   0.678
 4056SOL    HW113067   5.644   3.937   0.610
 4056SOL    HW213068   5.791   3.891   0.664
 4057SOL     OW13069   7.029   2.513   0.756
 4057SOL    HW113070   6.964   2.547   0.824
 4057SOL    HW213071   0.093   2.528   0.788
 4058SOL     OW13072   2.754   6.601   4.808
 4058SOL    HW113073   2.800   6.545   4.878
 4058SOL    HW213074   2.665   6.561   4.788
 4059SOL     OW13075   0.950   1.803   2.488
 4059SOL    HW113076   1.045   1.833   2.504
 4059SOL    HW213077   0.949   1.705   2.470
 4060SOL     OW13078   5.408   5.382   5.374
 4060SOL    HW113079   5.341   5.410   5.305
 4060SOL    HW213080   5.370   5.397   5.466
 4061SOL     OW13081   1.936   4.344   2.501
 4061SOL    HW113082   1.914   4.395   2.584
 4061SOL    HW213083   1.852   4.312   2.457
 4062SOL     OW13084   2.625   0.489   2.023
 4062SOL    HW113085   2.592   0.583   2.016
 4062SOL    HW213086   2.617   0.444   1.934
 4063SOL     OW13087   6.278   6.606   0.372
 4063SOL    HW113088   6.360   6.548   0.369
 4063SOL    HW213089   6.196   6.548   0.377
 4064SOL     OW13090   2.622   0.564   3.746
 4064SOL    HW113091   2.531   0.594   3.717
 4064SOL    HW213092   2.672   0.529   3.667
 4065SOL     OW13093   1.083   6.539   1.292
 4065SOL    HW113094   1.122   6.598   1.363
 4065SOL    HW213095   1.152   6.472   1.262
 4066SOL     OW13096   6.429   4.331   3.146
 4066SOL    HW113097   6.469   4.239   3.150
 4066SOL    HW213098   6.350   4.331   3.085
 4067SOL     OW13099   6.145   3.499   2.989
 4067SOL    HW113100   6.161   3.456   2.900
 4067SOL    HW213101   6.081   3.576   2.977
 4068SOL     OW13102   1.385   1.027   4.985
 4068SOL    HW113103   1.474   1.021   4.941
 4068SOL    HW213104   1.393   1.000   5.081
 4069SOL     OW13105   3.281   5.559   6.562
 4069SOL    HW113106   3.309   5.605   6.478
 4069SOL    HW213107   3.240   5.625   6.625
 4070SOL     OW13108   0.266   2.731   2.545
 4070SOL    HW113109   0.172   2.754   2.571
 4070SOL    HW213110   0.324   2.812   2.554
 4071SOL     OW13111   1.021   1.740   5.485
 4071SOL    HW113112   1.009   1.735   5.386
 4071SOL    HW213113   1.119   1.739   5.507
 4072SOL     OW13114   0.996   5.553   4.733
 4072SOL    HW113115   0.965   5.594   4.647
 4072SOL    HW213116   0.998   5.454   4.723
 4073SOL     OW13117   2.848   6.722   6.734
 4073SOL    HW113118   2.941   6.695   6.710
 4073SOL    HW213119   2.838   6.821   6.725
 4074SOL     OW13120   7.009   3.814   1.627
 4074SOL    HW113121   0.058   3.860   1.585
 4074SOL    HW213122   0.003   3.720   1.648
 4075SOL     OW13123   4.631   1.983   1.300
 4075SOL    HW113124   4.635   1.909   1.367
 4075SOL    HW213125   4.538   1.994   1.267
 4076SOL     OW13126   3.025   3.129   6.031
 4076SOL    HW113127   3.034   3.141   5.932
 4076SOL    HW213128   2.962   3.053   6.050
 4077SOL     OW13129   3.798   1.411   6.813
 4077SOL    HW113130   3.888   1.439   6.847
 4077SOL    HW213131   3.806   1.326   6.762
 4078SOL     OW13132   0.167   5.349   1.366
 4078SOL    HW113133   0.117   5.276   1.318
 4078SOL    HW213134   0.123   5.437   1.348
 4079SOL     OW13135   1.813   0.930   3.682
 4079SOL    HW113136   1.854   0.867   3.615
 4079SOL    HW213137   1.885   0.983   3.726
 4080SOL     OW13138   4.107   4.170   6.277
 4080SOL    HW113139   4.043   4.128   6.341
 4080SOL    HW213140   4.091   4.136   6.185
 4081SOL     OW13141   2.210   3.162   4.395
 4081SOL    HW113142   2.153   3.240   4.419
 4081SOL    HW213143   2.199   3.090   4.463
 4082SOL     OW13144   0.872   3.608   0.163
 4082SOL    HW113145   0.829   3.640   0.079
 4082SOL    HW213146   0.807   3.552   0.214
 4083SOL     OW13147   6.805   3.082   2.059
 4083SOL    HW113148   6.757   2.995   2.074
 4083SOL    HW213149   6.791   3.142   2.137
 4084SOL     OW13150   5.792   1.927   3.828
 4084SOL    HW113151   5.838   1.988   3.763
 4084SOL    HW213152   5.712   1.973   3.866
 4085SOL     OW13153   2.950   5.844   1.848
 4085SOL    HW113154   2.912   5.910   1.913
 4085SOL    HW213155   2.969   5.889   1.761
 4086SOL     OW13156   1.520   5.616   1.930
 4086SOL    HW113157   1.441   5.667   1.965
 4086SOL    HW213158   1.489   5.553   1.859
 4087SOL     OW13159   1.998   1.558   3.371
 4087SOL    HW113160   1.985   1.649   3.409
 4087SOL    HW213161   1.910   1.521   3.342
 4088SOL     OW13162   7.027   1.471   0.225
 4088SOL    HW113163   6.978   1.456   0.311
 4088SOL    HW213164   7.007   1.395   0.162
 4089SOL     OW13165   5.925   6.394   4.237
 4089SOL    HW113166   5.882   6.482   4.259
 4089SOL    HW213167   5.937   6.386   4.139
 4090SOL     OW13168   1.387   4.693   6.137
 4090SOL    HW113169   1.440   4.692   6.052
 4090SOL    HW213170   1.431   4.753   6.204
 4091SOL     OW13171   0.135   6.423   0.414
 4091SOL    HW113172   0.104   6.363   0.488
 4091SOL    HW213173   0.224   6.393   0.380
 4092SOL     OW13174   6.745   2.299   5.882
 4092SOL    HW113175   6.654   2.325   5.849
 4092SOL    HW213176   6.806   2.378   5.876
 4093SOL     OW13177   4.736   0.010   2.764
 4093SOL    HW113178   4.712   0.096   2.810
 4093SOL    HW213179   4.835   7.027   2.766
 4094SOL     OW13180   2.628   5.818   4.502
 4094SOL    HW113181   2.633   5.739   4.562
 4094SOL    HW213182   2.542   5.817   4.452
 4095SOL     OW13183   0.343   4.026   0.327
 4095SOL    HW113184   0.349   3.926   0.334
 4095SOL    HW213185   0.430   4.062   0.293
 4096SOL     OW13186   4.709   6.063   6.111
 4096SOL    HW113187   4.687   5.976   6.067
 4096SOL    HW213188   4.737   6.129   6.042
 4097SOL     OW13189   3.564   4.828   5.424
 4097SOL    HW113190   3.524   4.737   5.415
 4097SOL    HW213191   3.555   4.877   5.337
 4098SOL     OW13192   0.447   2.918   1.410
 4098SOL    HW113193   0.475   2.973   1.489
 4098SOL    HW213194   0.355   2.883   1.425
 4099SOL     OW13195   2.625   4.769   1.595
 4099SOL    HW113196   2.621   4.767   1.695
 4099SOL    HW213197   2.570   4.695   1.558
 4100SOL     OW13198   6.596   5.624   4.322
 4100SOL    HW113199   6.552   5.547   4.276
 4100SOL    HW213200   6.671   5.657   4.265
 4101SOL     OW13201   6.144   1.188   6.968
 4101SOL    HW113202   6.232   1.166   7.010
 4101SOL    HW213203   6.127   1.125   6.891
 4102SOL     OW13204   6.617   0.645   0.862
 4102SOL    HW113205   6.544   0.707   0.892
 4102SOL    HW213206   6.577   0.559   0.832
 4103SOL     OW13207   0.286   0.714   0.329
 4103SOL    HW113208   0.370   0.757   0.362
 4103SOL    HW213209   0.307   0.627   0.287
 4104SOL     OW13210   0.637   4.661   2.637
 4104SOL    HW113211   0.698   4.740   2.632
 4104SOL    HW213212   0.684   4.580   2.603
 4105SOL     OW13213   4.408   6.716   1.474
 4105SOL    HW113214   4.493   6.669   1.497
 4105SOL    HW213215   4.395   6.716   1.375
 4106SOL     OW13216   6.602   2.609   3.470
 4106SOL    HW113217   6.617   2.611   3.371
 4106SOL    HW213218   6.548   2.689   3.497
 4107SOL     OW13219   1.161   5.509   1.355
 4107SOL    HW113220   1.144   5.521   1.258
 4107SOL    HW213221   1.122   5.586   1.406
 4108SOL     OW13222   6.149   4.608   5.315
 4108SOL    HW113223   6.090   4.672   5.266
 4108SOL    HW213224   6.123   4.515   5.293
 4109SOL     OW13225   5.824   0.008   5.354
 4109SOL    HW113226   5.911   6.997   5.382
 4109SOL    HW213227   5.828   0.031   5.257
 4110SOL     OW13228   4.329   3.749   6.151
 4110SOL    HW113229   4.408   3.800   6.117
 4110SOL    HW213230   4.300   3.787   6.239
 4111SOL     OW13231   3.901   3.783   6.964
 4111SOL    HW113232   3.999   3.771   6.976
 4111SOL    HW213233   3.853   3.699   6.993
 4112SOL     OW13234   4.930   6.776   5.228
 4112SOL    HW113235   4.851   6.776   5.168
 4112SOL    HW213236   4.964   6.869   5.240
 4113SOL     OW13237   4.955   6.295   4.413
 4113SOL    HW113238   4.894   6.348   4.472
 4113SOL    HW213239   5.048   6.298   4.450
 4114SOL     OW13240   3.263   2.059   4.319
 4114SOL    HW113241   3.338   2.061   4.384
 4114SOL    HW213242   3.180   2.094   4.362
 4115SOL     OW13243   3.785   4.826   2.347
 4115SOL    HW113244   3.849   4.861   2.278
 4115SOL    HW213245   3.713   4.774   2.301
 4116SOL     OW13246   3.877   1.547   1.880
 4116SOL    HW113247   3.787   1.562   1.839
 4116SOL    HW213248   3.901   1.626   1.936
 4117SOL     OW13249   1.044   4.581   2.151
 4117SOL    HW113250   1.059   4.605   2.247
 4117SOL    HW213251   1.082   4.653   2.093
 4118SOL     OW13252   2.792   6.479   0.815
 4118SOL    HW113253   2.745   6.441   0.895
 4118SOL    HW213254   2.799   6.409   0.744
 4119SOL     OW13255   3.565   1.998   4.024
 4119SOL    HW113256   3.630   1.922   4.035
 4119SOL    HW213257   3.475   1.970   4.057
 4120SOL     OW13258   3.722   7.015   0.482
 4120SOL    HW113259   3.762   0.026   0.401
 4120SOL    HW213260   3.626   0.014   0.490
 4121SOL     OW13261   6.265   0.582   5.263
 4121SOL    HW113262   6.240   0.677   5.280
 4121SOL    HW213263   6.189   0.522   5.288
 4122SOL     OW13264   0.948   5.560   5.211
 4122SOL    HW113265   0.929   5.545   5.114
 4122SOL    HW213266   1.043   5.535   5.230
 4123SOL     OW13267   4.454   4.927   5.759
 4123SOL    HW113268   4.448   4.858   5.831
 4123SOL    HW213269   4.391   5.002   5.780
 4124SOL     OW13270   5.736   5.371   6.789
 4124SOL    HW113271   5.730   5.284   6.741
 4124SOL    HW213272   5.725   5.446   6.724
 4125SOL     OW13273   4.608   1.493   2.213
 4125SOL    HW113274   4.677   1.460   2.278
 4125SOL    HW213275   4.647   1.495   2.121
 4126SOL     OW13276   1.441   3.783   4.238
 4126SOL    HW113277   1.376   3.815   4.170
 4126SOL    HW213278   1.460   3.686   4.223
 4127SOL     OW13279   4.298   4.685   4.568
 4127SOL    HW113280   4.322   4.604   4.622
 4127SOL    HW213281   4.315   4.767   4.622
 4128SOL     OW13282   1.688   3.110   1.842
 4128SOL    HW113283   1.782   3.131   1.869
 4128SOL    HW213284   1.670   3.148   1.751
 4129SOL     OW13285   4.380   1.582   6.558
 4129SOL    HW113286   4.284   1.557   6.575
 4129SOL    HW213287   4.413   1.639   6.633
 4130SOL     OW13288   6.531   2.684   5.643
 4130SOL    HW113289   6.528   2.607   5.708
 4130SOL    HW213290   6.547   2.769   5.693
 4131SOL     OW13291   1.900   0.293   3.105
 4131SOL    HW113292   1.885   0.316   3.009
 4131SOL    HW213293   1.837   0.347   3.162
 4132SOL     OW13294   4.890   4.330   3.590
 4132SOL    HW113295   4.807   4.286   3.556
 4132SOL    HW213296   4.970   4.282   3.554
 4133SOL     OW13297   2.974   6.712   1.177
 4133SOL    HW113298   3.031   6.631   1.187
 4133SOL    HW213299   2.956   6.752   1.267
 4134SOL     OW13300   2.568   3.114   0.134
 4134SOL    HW113301   2.623   3.194   0.108
 4134SOL    HW213302   2.629   3.035   0.147
 4135SOL     OW13303   1.522   1.636   3.141
 4135SOL    HW113304   1.588   1.572   3.102
 4135SOL    HW213305   1.510   1.713   3.079
 4136SOL     OW13306   1.381   2.227   2.768
 4136SOL    HW113307   1.435   2.175   2.702
 4136SOL    HW213308   1.437   2.249   2.848
 4137SOL     OW13309   0.614   4.617   0.841
 4137SOL    HW113310   0.713   4.634   0.840
 4137SOL    HW213311   0.576   4.641   0.752
 4138SOL     OW13312   4.190   5.141   3.238
 4138SOL    HW113313   4.143   5.157   3.324
 4138SOL    HW213314   4.135   5.176   3.162
 4139SOL     OW13315   2.175   2.279   4.977
 4139SOL    HW113316   2.090   2.331   4.979
 4139SOL    HW213317   2.235   2.317   4.906
 4140SOL     OW13318   2.644   1.121   5.565
 4140SOL    HW113319   2.639   1.031   5.521
 4140SOL    HW213320   2.672   1.110   5.661
 4141SOL     OW13321   6.151   6.203   1.314
 4141SOL    HW113322   6.125   6.298   1.332
 4141SOL    HW213323   6.228   6.178   1.372
 4142SOL     OW13324   6.386   5.895   0.586
 4142SOL    HW113325   6.321   5.970   0.573
 4142SOL    HW213326   6.387   5.837   0.505
 4143SOL     OW13327   6.718   2.888   1.063
 4143SOL    HW113328   6.672   2.962   1.013
 4143SOL    HW213329   6.805   2.868   1.018
 4144SOL     OW13330   4.748   4.040   5.820
 4144SOL    HW113331   4.763   3.975   5.894
 4144SOL    HW213332   4.731   3.991   5.735
 4145SOL     OW13333   6.862   5.951   1.014
 4145SOL    HW113334   6.818   6.020   1.070
 4145SOL    HW213335   6.793   5.905   0.958
 4146SOL     OW13336   6.858   0.964   5.348
 4146SOL    HW113337   6.830   1.010   5.263
 4146SOL    HW213338   6.779   0.919   5.389
 4147SOL     OW13339   4.779   3.529   5.720
 4147SOL    HW113340   4.713   3.458   5.747
 4147SOL    HW213341   4.764   3.554   5.625
 4148SOL     OW13342   1.029   0.367   5.208
 4148SOL    HW113343   1.124   0.337   5.195
 4148SOL    HW213344   1.024   0.431   5.284
 4149SOL     OW13345   0.199   2.610   0.182
 4149SOL    HW113346   0.231   2.569   0.268
 4149SOL    HW213347   0.153   2.540   0.127
 4150SOL     OW13348   0.744   0.803   5.660
 4150SOL    HW113349   0.838   0.831   5.680
 4150SOL    HW213350   0.687   0.884   5.648
 4151SOL     OW13351   3.743   6.135   5.823
 4151SOL    HW113352   3.828   6.179   5.792
 4151SOL    HW213353   3.722   6.058   5.762
 4152SOL     OW13354   3.137   6.288   1.423
 4152SOL    HW113355   3.221   6.234   1.414
 4152SOL    HW213356   3.076   6.242   1.488
 4153SOL     OW13357   4.784   4.721   6.949
 4153SOL    HW113358   4.700   4.729   7.003
 4153SOL    HW213359   4.860   4.699   7.009
 4154SOL     OW13360   0.631   4.739   4.566
 4154SOL    HW113361   0.727   4.764   4.560
 4154SOL    HW213362   0.624   4.644   4.598
 4155SOL     OW13363   6.708   1.388   1.981
 4155SOL    HW113364   6.629   1.420   2.034
 4155SOL    HW213365   6.732   1.457   1.912
 4156SOL     OW13366   5.514   5.942   4.581
 4156SOL    HW113367   5.563   5.910   4.500
 4156SOL    HW213368   5.464   6.026   4.559
 4157SOL     OW13369   4.193   6.092   4.642
 4157SOL    HW113370   4.122   6.026   4.618
 4157SOL    HW213371   4.191   6.168   4.577
 4158SOL     OW13372   1.624   4.971   2.975
 4158SOL    HW113373   1.600   4.965   2.878
 4158SOL    HW213374   1.611   4.881   3.017
 4159SOL     OW13375   2.081   3.415   4.486
 4159SOL    HW113376   2.058   3.471   4.565
 4159SOL    HW213377   2.118   3.474   4.413
 4160SOL     OW13378   6.158   0.549   0.736
 4160SOL    HW113379   6.153   0.597   0.648
 4160SOL    HW213380   6.067   0.540   0.774
 4161SOL     OW13381   0.631   0.612   0.121
 4161SOL    HW113382   0.636   0.711   0.106
 4161SOL    HW213383   0.596   0.595   0.213
 4162SOL     OW13384   6.145   6.698   5.746
 4162SOL    HW113385   6.237   6.711   5.709
 4162SOL    HW213386   6.139   6.739   5.836
 4163SOL     OW13387   6.233   0.099   3.154
 4163SOL    HW113388   6.295   0.163   3.200
 4163SOL    HW213389   6.236   0.011   3.200
 4164SOL     OW13390   1.382   6.700   6.892
 4164SOL    HW113391   1.423   6.721   6.980
 4164SOL    HW213392   1.403   6.605   6.867
 4165SOL     OW13393   4.039   0.174   6.861
 4165SOL    HW113394   4.068   0.132   6.775
 4165SOL    HW213395   4.100   0.250   6.882
 4166SOL     OW13396   6.373   3.868   1.000
 4166SOL    HW113397   6.370   3.805   0.922
 4166SOL    HW213398   6.365   3.962   0.967
 4167SOL     OW13399   1.209   3.952   0.884
 4167SOL    HW113400   1.184   4.042   0.922
 4167SOL    HW213401   1.160   3.881   0.934
 4168SOL     OW13402   6.459   5.294   1.081
 4168SOL    HW113403   6.509   5.207   1.087
 4168SOL    HW213404   6.480   5.349   1.162
 4169SOL     OW13405   5.732   4.334   3.915
 4169SOL    HW113406   5.787   4.371   3.989
 4169SOL    HW213407   5.727   4.234   3.923
 4170SOL     OW13408   3.275   4.067   5.174
 4170SOL    HW113409   3.235   4.026   5.092
 4170SOL    HW213410   3.218   4.143   5.204
 4171SOL     OW13411   5.064   5.222   1.470
 4171SOL    HW113412   4.999   5.146   1.471
 4171SOL    HW213413   5.123   5.214   1.390
 4172SOL     OW13414   0.463   1.993   6.113
 4172SOL    HW113415   0.490   2.028   6.023
 4172SOL    HW213416   0.365   2.005   6.126
 4173SOL     OW13417   5.321   4.059   5.324
 4173SOL    HW113418   5.243   4.016   5.278
 4173SOL    HW213419   5.334   4.017   5.414
 4174SOL     OW13420   5.233   0.894   3.485
 4174SOL    HW113421   5.243   0.992   3.469
 4174SOL    HW213422   5.284   0.844   3.414
 4175SOL     OW13423   2.039   5.891   4.597
 4175SOL    HW113424   2.105   5.825   4.562
 4175SOL    HW213425   2.049   5.899   4.696
 4176SOL     OW13426   3.133   7.008   2.069
 4176SOL    HW113427   3.162   0.072   2.051
 4176SOL    HW213428   3.045   6.991   2.025
 4177SOL     OW13429   0.061   4.372   4.538
 4177SOL    HW113430   7.001   4.408   4.562
 4177SOL    HW213431   0.077   4.385   4.440
 4178SOL     OW13432   4.579   1.335   4.277
 4178SOL    HW113433   4.598   1.239   4.297
 4178SOL    HW213434   4.482   1.346   4.255
 4179SOL     OW13435   5.433   2.441   3.235
 4179SOL    HW113436   5.483   2.459   3.151
 4179SOL    HW213437   5.465   2.502   3.307
 4180SOL     OW13438   5.193   3.717   1.686
 4180SOL    HW113439   5.187   3.729   1.587
 4180SOL    HW213440   5.287   3.732   1.716
 4181SOL     OW13441   2.231   1.846   6.709
 4181SOL    HW113442   2.155   1.784   6.726
 4181SOL    HW213443   2.308   1.822   6.769
 4182SOL     OW13444   0.228   6.203   2.833
 4182SOL    HW113445   0.153   6.233   2.892
 4182SOL    HW213446   0.254   6.276   2.770
 4183SOL     OW13447   4.282   0.460   0.236
 4183SOL    HW113448   4.228   0.378   0.217
 4183SOL    HW213449   4.294   0.512   0.151
 4184SOL     OW13450   4.459   5.554   1.445
 4184SOL    HW113451   4.408   5.483   1.397
 4184SOL    HW213452   4.456   5.536   1.544
 4185SOL     OW13453   1.050   6.033   2.126
 4185SOL    HW113454   1.098   6.098   2.185
 4185SOL    HW213455   1.075   6.051   2.031
 4186SOL     OW13456   1.879   4.869   1.182
 4186SOL    HW113457   1.979   4.866   1.172
 4186SOL    HW213458   1.842   4.777   1.173
 4187SOL     OW13459   3.225   3.964   5.793
 4187SOL    HW113460   3.252   3.890   5.854
 4187SOL    HW213461   3.299   3.983   5.729
 4188SOL     OW13462   5.452   0.284   3.961
 4188SOL    HW113463   5.481   0.201   4.010
 4188SOL    HW213464   5.525   0.312   3.899
 4189SOL     OW13465   3.361   0.709   5.168
 4189SOL    HW113466   3.271   0.745   5.194
 4189SOL    HW213467   3.355   0.610   5.156
 4190SOL     OW13468   0.750   0.064   0.020
 4190SOL    HW113469   0.791   0.154   0.006
 4190SOL    HW213470   0.757   0.038   0.116
 4191SOL     OW13471   5.625   3.493   3.112
 4191SOL    HW113472   5.648   3.582   3.151
 4191SOL    HW213473   5.576   3.506   3.026
 4192SOL     OW13474   0.395   0.476   3.624
 4192SOL    HW113475   0.365   0.568   3.647
 4192SOL    HW213476   0.493   0.468   3.641
 4193SOL     OW13477   2.435   6.777   2.436
 4193SOL    HW113478   2.425   6.875   2.417
 4193SOL    HW213479   2.532   6.754   2.445
 4194SOL     OW13480   6.047   1.000   5.453
 4194SOL    HW113481   6.124   0.989   5.516
 4194SOL    HW213482   5.963   1.012   5.505
 4195SOL     OW13483   4.064   0.533   1.832
 4195SOL    HW113484   3.981   0.537   1.887
 4195SOL    HW213485   4.059   0.603   1.760
 4196SOL     OW13486   6.104   2.490   3.959
 4196SOL    HW113487   6.136   2.403   3.923
 4196SOL    HW213488   6.052   2.475   4.043
 4197SOL     OW13489   5.354   5.712   5.460
 4197SOL    HW113490   5.430   5.736   5.521
 4197SOL    HW213491   5.312   5.627   5.492
 4198SOL     OW13492   5.683   2.989   6.595
 4198SOL    HW113493   5.749   3.060   6.619
 4198SOL    HW213494   5.660   2.936   6.676
 4199SOL     OW13495   1.948   4.298   6.419
 4199SOL    HW113496   2.009   4.221   6.405
 4199SOL    HW213497   1.860   4.280   6.374
 4200SOL     OW13498   3.299   6.501   4.983
 4200SOL    HW113499   3.333   6.586   4.943
 4200SOL    HW213500   3.281   6.435   4.911
 4201SOL     OW13501   5.946   6.038   3.574
 4201SOL    HW113502   6.005   5.970   3.618
 4201SOL    HW213503   5.850   6.015   3.591
 4202SOL     OW13504   4.005   5.708   5.966
 4202SOL    HW113505   3.933   5.675   6.027
 4202SOL    HW213506   4.075   5.637   5.955
 4203SOL     OW13507   4.780   5.548   1.222
 4203SOL    HW113508   4.795   5.620   1.154
 4203SOL    HW213509   4.705   5.489   1.192
 4204SOL     OW13510   3.765   3.257   2.192
 4204SOL    HW113511   3.789   3.170   2.234
 4204SOL    HW213512   3.795   3.258   2.097
 4205SOL     OW13513   4.051   5.017   4.251
 4205SOL    HW113514   4.005   4.973   4.174
 4205SOL    HW213515   3.999   5.002   4.334
 4206SOL     OW13516   5.993   0.655   5.502
 4206SOL    HW113517   6.050   0.602   5.565
 4206SOL    HW213518   6.046   0.680   5.421
 4207SOL     OW13519   2.415   1.692   1.648
 4207SOL    HW113520   2.425   1.596   1.676
 4207SOL    HW213521   2.412   1.750   1.730
 4208SOL     OW13522   1.587   2.676   6.450
 4208SOL    HW113523   1.556   2.589   6.411
 4208SOL    HW213524   1.681   2.666   6.484
 4209SOL     OW13525   0.690   1.802   5.420
 4209SOL    HW113526   0.703   1.731   5.351
 4209SOL    HW213527   0.695   1.892   5.378
 4210SOL     OW13528   3.009   3.602   2.038
 4210SOL    HW113529   3.006   3.675   1.969
 4210SOL    HW213530   2.937   3.535   2.018
 4211SOL     OW13531   3.771   5.878   5.252
 4211SOL    HW113532   3.759   5.880   5.153
 4211SOL    HW213533   3.800   5.787   5.280
 4212SOL     OW13534   5.903   2.422   2.519
 4212SOL    HW113535   5.891   2.461   2.427
 4212SOL    HW213536   5.814   2.391   2.554
 4213SOL     OW13537   2.887   1.231   3.046
 4213SOL    HW113538   2.902   1.312   2.990
 4213SOL    HW213539   2.949   1.158   3.018
 4214SOL     OW13540   0.712   4.182   6.238
 4214SOL    HW113541   0.755   4.250   6.297
 4214SOL    HW213542   0.614   4.180   6.255
 4215SOL     OW13543   6.357   5.737   4.398
 4215SOL    HW113544   6.317   5.740   4.307
 4215SOL    HW213545   6.451   5.705   4.392
 4216SOL     OW13546   1.936   1.729   2.980
 4216SOL    HW113547   1.974   1.738   3.072
 4216SOL    HW213548   1.953   1.636   2.946
 4217SOL     OW13549   6.436   0.020   2.423
 4217SOL    HW113550   6.484   0.077   2.489
 4217SOL    HW213551   6.341   0.050   2.416
 4218SOL     OW13552   4.777   0.208   1.294
 4218SOL    HW113553   4.695   0.158   1.322
 4218SOL    HW213554   4.831   0.152   1.232
 4219SOL     OW13555   2.707   5.206   4.467
 4219SOL    HW113556   2.626   5.189   4.523
 4219SOL    HW213557   2.789   5.181   4.519
 4220SOL     OW13558   6.259   2.759   3.050
 4220SOL    HW113559   6.256   2.851   3.087
 4220SOL    HW213560   6.252   2.693   3.125
 4221SOL     OW13561   6.213   5.646   6.449
 4221SOL    HW113562   6.120   5.625   6.421
 4221SOL    HW213563   6.227   5.619   6.545
 4222SOL     OW13564   6.346   2.274   2.593
 4222SOL    HW113565   6.382   2.199   2.537
 4222SOL    HW213566   6.404   2.354   2.581
 4223SOL     OW13567   2.912   3.702   4.574
 4223SOL    HW113568   2.915   3.720   4.672
 4223SOL    HW213569   2.922   3.603   4.558
 4224SOL     OW13570   4.899   3.113   3.835
 4224SOL    HW113571   4.931   3.024   3.866
 4224SOL    HW213572   4.887   3.112   3.736
 4225SOL     OW13573   4.792   0.125   5.331
 4225SOL    HW113574   4.843   0.212   5.325
 4225SOL    HW213575   4.826   0.072   5.408
 4226SOL     OW13576   1.018   0.741   3.215
 4226SOL    HW113577   0.984   0.664   3.159
 4226SOL    HW213578   0.940   0.785   3.261
 4227SOL     OW13579   3.341   5.045   6.752
 4227SOL    HW113580   3.298   4.994   6.678
 4227SOL    HW213581   3.317   5.142   6.745
 4228SOL     OW13582   6.716   3.835   3.182
 4228SOL    HW113583   6.644   3.905   3.186
 4228SOL    HW213584   6.676   3.748   3.154
 4229SOL     OW13585   4.852   4.744   5.557
 4229SOL    HW113586   4.865   4.712   5.464
 4229SOL    HW213587   4.767   4.708   5.594
 4230SOL     OW13588   2.106   0.912   4.702
 4230SOL    HW113589   2.188   0.946   4.749
 4230SOL    HW213590   2.050   0.990   4.673
 4231SOL     OW13591   5.744   6.403   4.777
 4231SOL    HW113592   5.717   6.309   4.756
 4231SOL    HW213593   5.728   6.421   4.874
 4232SOL     OW13594   0.512   4.713   2.020
 4232SOL    HW113595   0.475   4.632   2.065
 4232SOL    HW213596   0.478   4.795   2.065
 4233SOL     OW13597   6.790   0.059   6.791
 4233SOL    HW113598   6.837   7.026   6.853
 4233SOL    HW213599   6.768   0.144   6.840
 4234SOL     OW13600   1.219   0.274   6.081
 4234SOL    HW113601   1.143   0.259   6.018
 4234SOL    HW213602   1.183   0.302   6.170
 4235SOL     OW13603   6.491   3.614   5.611
 4235SOL    HW113604   6.434   3.536   5.638
 4235SOL    HW213605   6.462   3.646   5.521
 4236SOL     OW13606   0.343   3.076   3.141
 4236SOL    HW113607   0.327   3.149   3.208
 4236SOL    HW213608   0.256   3.048   3.100
 4237SOL     OW13609   6.371   4.878   4.075
 4237SOL    HW113610   6.369   4.936   4.157
 4237SOL    HW213611   6.360   4.935   3.994
 4238SOL     OW13612   4.698   4.811   3.777
 4238SOL    HW113613   4.762   4.792   3.703
 4238SOL    HW213614   4.605   4.817   3.740
 4239SOL     OW13615   5.925   0.836   3.576
 4239SOL    HW113616   5.951   0.874   3.665
 4239SOL    HW213617   5.999   0.778   3.542
 4240SOL     OW13618   2.129   6.737   6.802
 4240SOL    HW113619   2.092   6.828   6.785
 4240SOL    HW213620   2.128   6.719   6.901
 4241SOL     OW13621   4.781   0.839   0.889
 4241SOL    HW113622   4.722   0.805   0.962
 4241SOL    HW213623   4.752   0.800   0.801
 4242SOL     OW13624   1.729   0.630   2.902
 4242SOL    HW113625   1.785   0.606   2.822
 4242SOL    HW213626   1.693   0.547   2.944
 4243SOL     OW13627   0.803   3.672   3.338
 4243SOL    HW113628   0.825   3.582   3.301
 4243SOL    HW213629   0.724   3.664   3.399
 4244SOL     OW13630   4.706   5.217   1.036
 4244SOL    HW113631   4.668   5.309   1.035
 4244SOL    HW213632   4.771   5.207   0.960
 4245SOL     OW13633   0.057   1.443   6.875
 4245SOL    HW113634   7.020   1.515   6.894
 4245SOL    HW213635   0.142   1.484   6.843
 4246SOL     OW13636   5.874   2.689   3.648
 4246SOL    HW113637   5.822   2.758   3.600
 4246SOL    HW213638   5.963   2.727   3.675
 4247SOL     OW13639   2.370   5.269   4.268
 4247SOL    HW113640   2.335   5.362   4.270
 4247SOL    HW213641   2.307   5.208   4.317
 4248SOL     OW13642   1.069   1.148   3.463
 4248SOL    HW113643   1.136   1.112   3.398
 4248SOL    HW213644   1.067   1.248   3.456
 4249SOL     OW13645   6.670   1.292   3.506
 4249SOL    HW113646   6.571   1.307   3.504
 4249SOL    HW213647   6.715   1.368   3.554
 4250SOL     OW13648   0.054   5.847   3.741
 4250SOL    HW113649   7.007   5.831   3.679
 4250SOL    HW213650   0.044   5.936   3.785
 4251SOL     OW13651   6.703   2.801   0.329
 4251SOL    HW113652   6.740   2.876   0.385
 4251SOL    HW213653   6.726   2.714   0.372
 4252SOL     OW13654   5.460   6.140   6.115
 4252SOL    HW113655   5.517   6.152   6.033
 4252SOL    HW213656   5.459   6.225   6.167
 4253SOL     OW13657   3.828   5.736   2.121
 4253SOL    HW113658   3.854   5.650   2.078
 4253SOL    HW213659   3.798   5.719   2.215
 4254SOL     OW13660   2.076   4.347   2.074
 4254SOL    HW113661   2.111   4.382   2.161
 4254SOL    HW213662   2.015   4.414   2.033
 4255SOL     OW13663   0.600   3.958   4.086
 4255SOL    HW113664   0.586   3.867   4.124
 4255SOL    HW213665   0.694   3.988   4.103
 4256SOL     OW13666   1.198   5.870   1.792
 4256SOL    HW113667   1.149   5.952   1.820
 4256SOL    HW213668   1.246   5.831   1.871
 4257SOL     OW13669   5.721   1.084   4.231
 4257SOL    HW113670   5.719   0.985   4.243
 4257SOL    HW213671   5.628   1.119   4.223
 4258SOL     OW13672   3.098   5.932   1.246
 4258SOL    HW113673   3.035   5.952   1.171
 4258SOL    HW213674   3.145   5.846   1.227
 4259SOL     OW13675   1.836   6.080   1.095
 4259SOL    HW113676   1.854   6.051   1.190
 4259SOL    HW213677   1.770   6.154   1.095
 4260SOL     OW13678   5.483   6.814   3.767
 4260SOL    HW113679   5.408   6.864   3.723
 4260SOL    HW213680   5.567   6.867   3.760
 4261SOL     OW13681   1.565   0.778   2.756
 4261SOL    HW113682   1.646   0.736   2.797
 4261SOL    HW213683   1.593   0.843   2.686
 4262SOL     OW13684   1.442   4.234   6.119
 4262SOL    HW113685   1.355   4.205   6.079
 4262SOL    HW213686   1.488   4.297   6.056
 4263SOL     OW13687   2.498   1.129   3.443
 4263SOL    HW113688   2.558   1.186   3.499
 4263SOL    HW213689   2.531   1.129   3.348
 4264SOL     OW13690   6.331   1.638   4.005
 4264SOL    HW113691   6.396   1.694   4.057
 4264SOL    HW213692   6.334   1.544   4.040
 4265SOL     OW13693   3.873   0.968   0.669
 4265SOL    HW113694   3.818   0.962   0.752
 4265SOL    HW213695   3.834   1.037   0.608
 4266SOL     OW13696   1.157   6.585   0.423
 4266SOL    HW113697   1.160   6.683   0.403
 4266SOL    HW213698   1.094   6.540   0.361
 4267SOL     OW13699   1.834   3.631   3.833
 4267SOL    HW113700   1.813   3.637   3.931
 4267SOL    HW213701   1.764   3.576   3.787
 4268SOL     OW13702   2.040   5.573   6.867
 4268SOL    HW113703   1.958   5.519   6.884
 4268SOL    HW213704   2.109   5.515   6.823
 4269SOL     OW13705   2.891   0.951   3.810
 4269SOL    HW113706   2.805   0.901   3.802
 4269SOL    HW213707   2.923   0.948   3.905
 4270SOL     OW13708   3.320   2.874   2.148
 4270SOL    HW113709   3.398   2.818   2.120
 4270SOL    HW213710   3.289   2.846   2.239
 4271SOL     OW13711   6.732   0.525   0.038
 4271SOL    HW113712   6.820   0.568   0.056
 4271SOL    HW213713   6.683   0.577   6.998
 4272SOL     OW13714   6.842   3.223   5.313
 4272SOL    HW113715   6.890   3.144   5.352
 4272SOL    HW213716   6.827   3.292   5.383
 4273SOL     OW13717   4.906   5.968   5.041
 4273SOL    HW113718   4.966   5.890   5.023
 4273SOL    HW213719   4.938   6.047   4.990
 4274SOL     OW13720   0.919   0.133   1.902
 4274SOL    HW113721   0.895   0.207   1.839
 4274SOL    HW213722   0.932   0.169   1.994
 4275SOL     OW13723   0.430   1.927   4.162
 4275SOL    HW113724   0.404   1.890   4.073
 4275SOL    HW213725   0.483   1.859   4.213
 4276SOL     OW13726   3.019   5.292   3.735
 4276SOL    HW113727   2.930   5.252   3.758
 4276SOL    HW213728   3.043   5.267   3.641
 4277SOL     OW13729   6.924   4.169   2.618
 4277SOL    HW113730   6.859   4.195   2.689
 4277SOL    HW213731   7.003   4.231   2.620
 4278SOL     OW13732   0.791   6.902   3.659
 4278SOL    HW113733   0.692   6.912   3.664
 4278SOL    HW213734   0.817   6.807   3.675
 4279SOL     OW13735   1.056   1.359   2.169
 4279SOL    HW113736   1.098   1.442   2.207
 4279SOL    HW213737   1.028   1.299   2.244
 4280SOL     OW13738   6.236   6.891   5.952
 4280SOL    HW113739   6.331   6.872   5.925
 4280SOL    HW213740   6.229   6.986   5.984
 4281SOL     OW13741   5.281   4.783   3.638
 4281SOL    HW113742   5.200   4.828   3.673
 4281SOL    HW213743   5.358   4.799   3.700
 4282SOL     OW13744   2.962   5.031   0.992
 4282SOL    HW113745   3.033   4.968   0.959
 4282SOL    HW213746   3.002   5.093   1.060
 4283SOL     OW13747   4.294   1.206   3.723
 4283SOL    HW113748   4.256   1.284   3.771
 4283SOL    HW213749   4.243   1.123   3.747
 4284SOL     OW13750   4.592   5.363   0.358
 4284SOL    HW113751   4.656   5.433   0.391
 4284SOL    HW213752   4.522   5.405   0.302
 4285SOL     OW13753   2.629   0.963   6.352
 4285SOL    HW113754   2.609   0.915   6.437
 4285SOL    HW213755   2.553   0.952   6.288
 4286SOL     OW13756   5.912   0.112   6.373
 4286SOL    HW113757   5.937   0.205   6.347
 4286SOL    HW213758   5.833   0.083   6.318
 4287SOL     OW13759   5.024   1.253   6.022
 4287SOL    HW113760   4.990   1.159   6.025
 4287SOL    HW213761   4.950   1.314   5.993
 4288SOL     OW13762   0.250   5.875   2.877
 4288SOL    HW113763   0.231   5.924   2.792
 4288SOL    HW213764   0.305   5.934   2.937
 4289SOL     OW13765   1.280   2.656   6.456
 4289SOL    HW113766   1.244   2.579   6.509
 4289SOL    HW213767   1.379   2.664   6.473
 4290SOL     OW13768   0.312   6.697   5.087
 4290SOL    HW113769   0.264   6.619   5.047
 4290SOL    HW213770   0.340   6.674   5.181
 4291SOL     OW13771   5.050   3.846   6.197
 4291SOL    HW113772   4.982   3.917   6.213
 4291SOL    HW213773   5.074   3.844   6.100
 4292SOL     OW13774   6.248   3.008   6.994
 4292SOL    HW113775   6.181   3.068   0.007
 4292SOL    HW213776   6.210   2.970   6.909
 4293SOL     OW13777   3.567   4.185   6.678
 4293SOL    HW113778   3.594   4.112   6.615
 4293SOL    HW213779   3.631   4.261   6.671
 4294SOL     OW13780   2.148   1.740   6.090
 4294SOL    HW113781   2.189   1.663   6.139
 4294SOL    HW213782   2.208   1.820   6.097
 4295SOL     OW13783   4.640   6.439   3.083
 4295SOL    HW113784   4.567   6.451   3.017
 4295SOL    HW213785   4.632   6.508   3.155
 4296SOL     OW13786   3.726   6.823   0.701
 4296SOL    HW113787   3.781   6.743   0.675
 4296SOL    HW213788   3.732   6.893   0.631
 4297SOL     OW13789   6.821   6.695   2.306
 4297SOL    HW113790   6.770   6.700   2.391
 4297SOL    HW213791   6.764   6.728   2.230
 4298SOL     OW13792   3.330   6.150   2.170
 4298SOL    HW113793   3.369   6.179   2.258
 4298SOL    HW213794   3.396   6.093   2.122
 4299SOL     OW13795   1.000   3.072   6.994
 4299SOL    HW113796   1.066   3.133   6.950
 4299SOL    HW213797   1.048   3.011   0.028
 4300SOL     OW13798   2.978   6.698   0.481
 4300SOL    HW113799   2.921   6.656   0.552
 4300SOL    HW213800   2.996   6.793   0.506
 4301SOL     OW13801   4.122   0.259   1.793
 4301SOL    HW113802   4.097   0.354   1.810
 4301SOL    HW213803   4.055   0.218   1.732
 4302SOL     OW13804   6.367   0.198   6.760
 4302SOL    HW113805   6.363   0.145   6.676
 4302SOL    HW213806   6.294   0.169   6.822
 4303SOL     OW13807   0.264   4.746   3.795
 4303SOL    HW113808   0.282   4.701   3.883
 4303SOL    HW213809   0.351   4.761   3.748
 4304SOL     OW13810   3.406   3.939   1.681
 4304SOL    HW113811   3.403   3.916   1.584
 4304SOL    HW213812   3.464   3.874   1.729
 4305SOL     OW13813   0.761   6.725   5.608
 4305SOL    HW113814   0.678   6.747   5.659
 4305SOL    HW213815   0.769   6.785   5.529
 4306SOL     OW13816   4.948   4.982   4.562
 4306SOL    HW113817   5.041   4.960   4.593
 4306SOL    HW213818   4.952   5.011   4.466
 4307SOL     OW13819   5.613   3.421   5.387
 4307SOL    HW113820   5.606   3.454   5.481
 4307SOL    HW213821   5.659   3.490   5.331
 4308SOL     OW13822   5.424   5.149   1.596
 4308SOL    HW113823   5.439   5.203   1.513
 4308SOL    HW213824   5.491   5.074   1.599
 4309SOL     OW13825   1.458   2.712   0.195
 4309SOL    HW113826   1.548   2.684   0.162
 4309SOL    HW213827   1.453   2.697   0.294
 4310SOL     OW13828   1.437   3.001   1.915
 4310SOL    HW113829   1.412   3.016   1.819
 4310SOL    HW213830   1.531   3.030   1.929
 4311SOL     OW13831   1.272   6.305   2.156
 4311SOL    HW113832   1.197   6.314   2.090
 4311SOL    HW213833   1.263   6.218   2.204
 4312SOL     OW13834   1.782   5.801   2.868
 4312SOL    HW113835   1.810   5.883   2.819
 4312SOL    HW213836   1.853   5.774   2.932
 4313SOL     OW13837   3.821   2.118   0.351
 4313SOL    HW113838   3.860   2.046   0.294
 4313SOL    HW213839   3.758   2.173   0.296
 4314SOL     OW13840   6.159   1.957   5.068
 4314SOL    HW113841   6.160   2.037   5.127
 4314SOL    HW213842   6.225   1.969   4.993
 4315SOL     OW13843   1.825   1.119   3.216
 4315SOL    HW113844   1.739   1.144   3.261
 4315SOL    HW213845   1.876   1.201   3.192
 4316SOL     OW13846   5.446   0.189   2.428
 4316SOL    HW113847   5.392   0.117   2.383
 4316SOL    HW213848   5.471   0.159   2.520
 4317SOL     OW13849   4.511   1.363   5.605
 4317SOL    HW113850   4.524   1.398   5.512
 4317SOL    HW213851   4.600   1.348   5.648
 4318SOL     OW13852   0.934   1.242   4.444
 4318SOL    HW113853   1.019   1.201   4.479
 4318SOL    HW213854   0.863   1.172   4.439
 4319SOL     OW13855   1.902   1.861   1.500
 4319SOL    HW113856   1.808   1.864   1.536
 4319SOL    HW213857   1.908   1.917   1.417
 4320SOL     OW13858   3.695   6.167   1.307
 4320SOL    HW113859   3.783   6.209   1.327
 4320SOL    HW213860   3.677   6.170   1.209
 4321SOL     OW13861   6.911   5.041   3.531
 4321SOL    HW113862   6.958   4.981   3.596
 4321SOL    HW213863   6.816   5.053   3.559
 4322SOL     OW13864   6.609   2.917   5.808
 4322SOL    HW113865   6.550   2.992   5.779
 4322SOL    HW213866   6.704   2.948   5.807
 4323SOL     OW13867   4.697   5.017   0.049
 4323SOL    HW113868   4.724   5.113   0.052
 4323SOL    HW213869   4.597   5.010   0.040
 4324SOL     OW13870   6.791   4.262   5.420
 4324SOL    HW113871   6.765   4.194   5.351
 4324SOL    HW213872   6.734   4.250   5.502
 4325SOL     OW13873   2.755   1.780   2.380
 4325SOL    HW113874   2.702   1.831   2.447
 4325SOL    HW213875   2.764   1.834   2.296
 4326SOL     OW13876   5.775   3.766   2.026
 4326SOL    HW113877   5.755   3.860   1.999
 4326SOL    HW213878   5.697   3.708   2.003
 4327SOL     OW13879   4.242   6.179   2.927
 4327SOL    HW113880   4.189   6.098   2.951
 4327SOL    HW213881   4.180   6.253   2.900
 4328SOL     OW13882   5.955   4.391   4.970
 4328SOL    HW113883   5.963   4.470   4.910
 4328SOL    HW213884   6.029   4.327   4.950
 4329SOL     OW13885   6.155   3.210   5.654
 4329SOL    HW113886   6.060   3.185   5.676
 4329SOL    HW213887   6.215   3.134   5.679
 4330SOL     OW13888   2.198   6.977   4.056
 4330SOL    HW113889   2.136   6.997   3.980
 4330SOL    HW213890   2.147   6.933   4.130
 4331SOL     OW13891   6.590   0.362   1.407
 4331SOL    HW113892   6.636   0.276   1.385
 4331SOL    HW213893   6.630   0.436   1.354
 4332SOL     OW13894   6.576   3.369   3.150
 4332SOL    HW113895   6.549   3.449   3.097
 4332SOL    HW213896   6.642   3.315   3.098
 4333SOL     OW13897   4.282   1.974   4.766
 4333SOL    HW113898   4.272   2.032   4.685
 4333SOL    HW213899   4.202   1.915   4.774
 4334SOL     OW13900   1.625   2.862   2.441
 4334SOL    HW113901   1.688   2.911   2.500
 4334SOL    HW213902   1.660   2.861   2.347
 4335SOL     OW13903   3.824   2.976   1.788
 4335SOL    HW113904   3.847   2.925   1.704
 4335SOL    HW213905   3.728   3.002   1.786
 4336SOL     OW13906   2.163   5.138   5.824
 4336SOL    HW113907   2.178   5.198   5.902
 4336SOL    HW213908   2.217   5.055   5.834
 4337SOL     OW13909   1.830   5.093   1.531
 4337SOL    HW113910   1.800   5.188   1.538
 4337SOL    HW213911   1.823   5.049   1.621
 4338SOL     OW13912   5.969   0.358   6.254
 4338SOL    HW113913   6.004   0.429   6.315
 4338SOL    HW213914   5.884   0.389   6.213
 4339SOL     OW13915   3.194   2.494   6.270
 4339SOL    HW113916   3.261   2.551   6.317
 4339SOL    HW213917   3.218   2.488   6.173
 4340SOL     OW13918   5.495   3.086   1.162
 4340SOL    HW113919   5.421   3.117   1.103
 4340SOL    HW213920   5.558   3.029   1.109
 4341SOL     OW13921   1.190   5.282   1.841
 4341SOL    HW113922   1.268   5.338   1.814
 4341SOL    HW213923   1.148   5.321   1.923
 4342SOL     OW13924   5.259   3.376   2.994
 4342SOL    HW113925   5.329   3.419   2.936
 4342SOL    HW213926   5.295   3.291   3.032
 4343SOL     OW13927   3.072   6.118   5.546
 4343SOL    HW113928   3.155   6.164   5.578
 4343SOL    HW213929   3.034   6.062   5.620
 4344SOL     OW13930   1.028   2.763   3.251
 4344SOL    HW113931   1.019   2.731   3.345
 4344SOL    HW213932   1.032   2.863   3.251
 4345SOL     OW13933   2.997   3.546   3.927
 4345SOL    HW113934   3.092   3.551   3.959
 4345SOL    HW213935   2.947   3.479   3.981
 4346SOL     OW13936   2.306   2.839   2.404
 4346SOL    HW113937   2.358   2.762   2.366
 4346SOL    HW213938   2.327   2.922   2.352
 4347SOL     OW13939   6.224   6.381   2.542
 4347SOL    HW113940   6.299   6.447   2.535
 4347SOL    HW213941   6.216   6.351   2.637
 4348SOL     OW13942   0.759   5.887   4.492
 4348SOL    HW113943   0.711   5.823   4.433
 4348SOL    HW213944   0.808   5.954   4.436
 4349SOL     OW13945   6.982   3.350   4.154
 4349SOL    HW113946   6.971   3.284   4.229
 4349SOL    HW213947   6.946   3.311   4.070
 4350SOL     OW13948   5.188   2.146   3.927
 4350SOL    HW113949   5.200   2.186   4.018
 4350SOL    HW213950   5.275   2.147   3.878
 4351SOL     OW13951   1.090   5.933   1.357
 4351SOL    HW113952   1.157   5.938   1.284
 4351SOL    HW213953   1.062   6.025   1.384
 4352SOL     OW13954   6.141   3.968   1.890
 4352SOL    HW113955   6.224   4.022   1.904
 4352SOL    HW213956   6.076   3.986   1.964
 4353SOL     OW13957   3.095   3.753   0.098
 4353SOL    HW113958   3.126   3.784   0.008
 4353SOL    HW213959   3.128   3.816   0.168
 4354SOL     OW13960   0.731   1.687   5.851
 4354SOL    HW113961   0.640   1.721   5.830
 4354SOL    HW213962   0.767   1.638   5.771
 4355SOL     OW13963   1.679   0.042   2.778
 4355SOL    HW113964   1.702   0.003   2.689
 4355SOL    HW213965   1.580   0.048   2.787
 4356SOL     OW13966   4.348   3.159   5.376
 4356SOL    HW113967   4.378   3.240   5.425
 4356SOL    HW213968   4.393   3.078   5.414
 4357SOL     OW13969   0.112   1.419   1.394
 4357SOL    HW113970   0.014   1.436   1.404
 4357SOL    HW213971   0.141   1.354   1.464
 4358SOL     OW13972   6.981   6.828   0.143
 4358SOL    HW113973   7.025   6.765   0.207
 4358SOL    HW213974   6.886   6.843   0.170
 4359SOL     OW13975   1.649   0.897   6.484
 4359SOL    HW113976   1.574   0.903   6.550
 4359SOL    HW213977   1.613   0.874   6.394
 4360SOL     OW13978   0.887   2.603   3.883
 4360SOL    HW113979   0.917   2.647   3.968
 4360SOL    HW213980   0.811   2.654   3.844
 4361SOL     OW13981   2.230   3.295   1.254
 4361SOL    HW113982   2.148   3.239   1.264
 4361SOL    HW213983   2.226   3.345   1.168
 4362SOL     OW13984   0.311   5.959   4.006
 4362SOL    HW113985   0.342   6.054   4.006
 4362SOL    HW213986   0.386   5.898   3.982
 4363SOL     OW13987   4.475   0.995   1.775
 4363SOL    HW113988   4.523   1.074   1.813
 4363SOL    HW213989   4.377   1.014   1.773
 4364SOL     OW13990   3.217   3.783   2.845
 4364SOL    HW113991   3.185   3.842   2.919
 4364SOL    HW213992   3.276   3.711   2.882
 4365SOL     OW13993   2.970   1.249   1.940
 4365SOL    HW113994   2.992   1.311   1.864
 4365SOL    HW213995   2.960   1.156   1.905
 4366SOL     OW13996   5.944   6.535   6.471
 4366SOL    HW113997   6.027   6.480   6.468
 4366SOL    HW213998   5.867   6.483   6.435
 4367SOL     OW13999   3.110   4.833   3.586
 4367SOL    HW114000   3.012   4.824   3.605
 4367SOL    HW214001   3.160   4.834   3.672
 4368SOL     OW14002   3.771   5.345   2.636
 4368SOL    HW114003   3.721   5.289   2.570
 4368SOL    HW214004   3.862   5.365   2.600
 4369SOL     OW14005   5.132   5.723   3.172
 4369SOL    HW114006   5.166   5.708   3.079
 4369SOL    HW214007   5.050   5.666   3.187
 4370SOL     OW14008   3.676   4.002   1.427
 4370SOL    HW114009   3.632   4.008   1.338
 4370SOL    HW214010   3.606   4.001   1.499
 4371SOL     OW14011   2.035   1.469   2.913
 4371SOL    HW114012   2.030   1.472   2.813
 4371SOL    HW214013   2.131   1.469   2.942
 4372SOL     OW14014   2.100   3.209   3.870
 4372SOL    HW114015   2.123   3.194   3.966
 4372SOL    HW214016   2.180   3.244   3.822
 4373SOL     OW14017   4.222   1.343   6.315
 4373SOL    HW114018   4.203   1.441   6.326
 4373SOL    HW214019   4.176   1.292   6.388
 4374SOL     OW14020   1.857   1.615   1.377
 4374SOL    HW114021   1.883   1.709   1.396
 4374SOL    HW214022   1.781   1.588   1.436
 4375SOL     OW14023   3.850   6.231   2.965
 4375SOL    HW114024   3.838   6.323   3.003
 4375SOL    HW214025   3.760   6.191   2.948
 4376SOL     OW14026   6.768   6.976   1.925
 4376SOL    HW114027   6.834   0.013   1.959
 4376SOL    HW214028   6.815   6.911   1.865
 4377SOL     OW14029   6.313   5.176   0.300
 4377SOL    HW114030   6.223   5.188   0.342
 4377SOL    HW214031   6.369   5.116   0.357
 4378SOL     OW14032   1.195   4.361   2.681
 4378SOL    HW114033   1.141   4.309   2.746
 4378SOL    HW214034   1.136   4.398   2.609
 4379SOL     OW14035   2.194   0.772   2.008
 4379SOL    HW114036   2.137   0.810   1.934
 4379SOL    HW214037   2.211   0.675   1.990
 4380SOL     OW14038   1.927   5.864   4.863
 4380SOL    HW114039   1.886   5.954   4.878
 4380SOL    HW214040   1.861   5.804   4.818
 4381SOL     OW14041   2.194   4.319   5.029
 4381SOL    HW114042   2.235   4.228   5.035
 4381SOL    HW214043   2.128   4.331   5.103
 4382SOL     OW14044   6.416   4.090   5.946
 4382SOL    HW114045   6.394   4.073   5.850
 4382SOL    HW214046   6.396   4.185   5.969
 4383SOL     OW14047   0.310   2.457   5.304
 4383SOL    HW114048   0.218   2.425   5.282
 4383SOL    HW214049   0.369   2.446   5.223
 4384SOL     OW14050   5.261   1.287   0.297
 4384SOL    HW114051   5.325   1.293   0.374
 4384SOL    HW214052   5.171   1.261   0.331
 4385SOL     OW14053   6.807   2.840   4.132
 4385SOL    HW114054   6.775   2.923   4.086
 4385SOL    HW214055   6.843   2.776   4.065
 4386SOL     OW14056   1.289   3.429   6.662
 4386SOL    HW114057   1.337   3.349   6.625
 4386SOL    HW214058   1.332   3.456   6.749
 4387SOL     OW14059   0.781   2.406   1.905
 4387SOL    HW114060   0.823   2.363   1.985
 4387SOL    HW214061   0.823   2.371   1.822
 4388SOL     OW14062   4.237   1.216   6.725
 4388SOL    HW114063   4.195   1.305   6.707
 4388SOL    HW214064   4.272   1.214   6.819
 4389SOL     OW14065   5.634   2.292   0.482
 4389SOL    HW114066   5.609   2.252   0.393
 4389SOL    HW214067   5.620   2.224   0.554
 4390SOL     OW14068   4.014   2.198   2.344
 4390SOL    HW114069   3.983   2.193   2.250
 4390SOL    HW214070   4.095   2.257   2.350
 4391SOL     OW14071   1.459   5.803   6.199
 4391SOL    HW114072   1.386   5.735   6.207
 4391SOL    HW214073   1.481   5.839   6.289
 4392SOL     OW14074   5.937   4.021   5.169
 4392SOL    HW114075   6.004   4.021   5.243
 4392SOL    HW214076   5.983   4.004   5.082
 4393SOL     OW14077   5.073   6.326   2.736
 4393SOL    HW114078   5.054   6.250   2.673
 4393SOL    HW214079   5.011   6.321   2.814
 4394SOL     OW14080   6.459   5.507   3.229
 4394SOL    HW114081   6.383   5.456   3.269
 4394SOL    HW214082   6.425   5.592   3.189
 4395SOL     OW14083   4.472   1.862   1.858
 4395SOL    HW114084   4.488   1.793   1.930
 4395SOL    HW214085   4.470   1.817   1.769
 4396SOL     OW14086   2.513   1.688   4.060
 4396SOL    HW114087   2.455   1.737   4.125
 4396SOL    HW214088   2.573   1.753   4.014
 4397SOL     OW14089   0.366   1.846   4.540
 4397SOL    HW114090   0.458   1.881   4.521
 4397SOL    HW214091   0.299   1.896   4.484
 4398SOL     OW14092   1.225   4.466   5.353
 4398SOL    HW114093   1.128   4.453   5.332
 4398SOL    HW214094   1.280   4.443   5.272
 4399SOL     OW14095   1.878   0.753   1.697
 4399SOL    HW114096   1.809   0.794   1.756
 4399SOL    HW214097   1.834   0.694   1.630
 4400SOL     OW14098   2.075   6.776   4.825
 4400SOL    HW114099   2.026   6.840   4.885
 4400SOL    HW214100   2.105   6.697   4.878
 4401SOL     OW14101   5.261   5.962   6.055
 4401SOL    HW114102   5.335   6.025   6.078
 4401SOL    HW214103   5.173   6.009   6.064
 4402SOL     OW14104   2.006   6.209   2.591
 4402SOL    HW114105   2.092   6.232   2.546
 4402SOL    HW214106   1.968   6.291   2.634
 4403SOL     OW14107   0.110   6.580   3.591
 4403SOL    HW114108   0.128   6.655   3.654
 4403SOL    HW214109   0.176   6.584   3.515
 4404SOL     OW14110   1.278   3.894   5.365
 4404SOL    HW114111   1.240   3.984   5.388
 4404SOL    HW214112   1.253   3.828   5.436
 4405SOL     OW14113   2.921   4.112   0.154
 4405SOL    HW114114   2.885   4.203   0.175
 4405SOL    HW214115   2.941   4.106   0.056
 4406SOL     OW14116   5.479   4.627   1.351
 4406SOL    HW114117   5.560   4.614   1.409
 4406SOL    HW214118   5.397   4.605   1.403
 4407SOL     OW14119   0.099   4.741   0.802
 4407SOL    HW114120   0.092   4.803   0.880
 4407SOL    HW214121   0.145   4.787   0.726
 4408SOL     OW14122   4.992   0.927   0.755
 4408SOL    HW114123   5.081   0.935   0.802
 4408SOL    HW214124   4.930   0.871   0.811
 4409SOL     OW14125   3.947   0.544   2.339
 4409SOL    HW114126   3.980   0.601   2.264
 4409SOL    HW214127   3.853   0.515   2.320
 4410SOL     OW14128   1.970   4.573   0.126
 4410SOL    HW114129   2.036   4.500   0.142
 4410SOL    HW214130   1.908   4.581   0.204
 4411SOL     OW14131   4.075   3.718   3.495
 4411SOL    HW114132   4.085   3.619   3.499
 4411SOL    HW214133   4.046   3.752   3.585
 4412SOL     OW14134   3.364   1.782   4.501
 4412SOL    HW114135   3.427   1.714   4.538
 4412SOL    HW214136   3.383   1.871   4.542
 4413SOL     OW14137   5.143   5.803   5.020
 4413SOL    HW114138   5.144   5.713   4.978
 4413SOL    HW214139   5.154   5.794   5.119
 4414SOL     OW14140   4.380   4.866   1.953
 4414SOL    HW114141   4.323   4.816   2.018
 4414SOL    HW214142   4.394   4.959   1.984
 4415SOL     OW14143   4.206   3.736   6.894
 4415SOL    HW114144   4.166   3.650   6.862
 4415SOL    HW214145   4.178   3.811   6.833
 4416SOL     OW14146   2.729   0.653   4.587
 4416SOL    HW114147   2.631   0.651   4.608
 4416SOL    HW214148   2.763   0.746   4.601
 4417SOL     OW14149   6.730   4.267   2.779
 4417SOL    HW114150   6.775   4.246   2.866
 4417SOL    HW214151   6.660   4.336   2.793
 4418SOL     OW14152   5.015   0.410   4.140
 4418SOL    HW114153   4.990   0.314   4.152
 4418SOL    HW214154   5.080   0.436   4.211
 4419SOL     OW14155   5.595   5.971   0.423
 4419SOL    HW114156   5.605   5.928   0.334
 4419SOL    HW214157   5.537   6.053   0.414
 4420SOL     OW14158   4.872   2.089   0.624
 4420SOL    HW114159   4.844   2.030   0.549
 4420SOL    HW214160   4.821   2.063   0.707
 4421SOL     OW14161   1.891   0.839   3.252
 4421SOL    HW114162   1.980   0.817   3.211
 4421SOL    HW214163   1.861   0.928   3.218
 4422SOL     OW14164   2.198   3.543   5.846
 4422SOL    HW114165   2.171   3.447   5.842
 4422SOL    HW214166   2.298   3.549   5.850
 4423SOL     OW14167   1.532   2.614   6.100
 4423SOL    HW114168   1.521   2.553   6.179
 4423SOL    HW214169   1.509   2.565   6.016
 4424SOL     OW14170   5.699   6.948   3.684
 4424SOL    HW114171   5.769   6.901   3.737
 4424SOL    HW214172   5.742   7.018   3.626
 4425SOL     OW14173   3.698   5.880   6.024
 4425SOL    HW114174   3.681   5.975   6.000
 4425SOL    HW214175   3.630   5.850   6.091
 4426SOL     OW14176   6.865   1.898   4.643
 4426SOL    HW114177   6.910   1.947   4.718
 4426SOL    HW214178   6.775   1.938   4.626
 4427SOL     OW14179   6.978   6.736   2.791
 4427SOL    HW114180   7.015   6.825   2.763
 4427SOL    HW214181   6.949   6.685   2.710
 4428SOL     OW14182   3.029   5.566   2.855
 4428SOL    HW114183   3.078   5.486   2.890
 4428SOL    HW214184   3.092   5.624   2.805
 4429SOL     OW14185   2.984   0.354   3.983
 4429SOL    HW114186   2.910   0.402   4.030
 4429SOL    HW214187   2.992   0.388   3.889
 4430SOL     OW14188   5.411   3.342   4.046
 4430SOL    HW114189   5.439   3.383   4.132
 4430SOL    HW214190   5.485   3.350   3.979
 4431SOL     OW14191   1.455   1.426   1.891
 4431SOL    HW114192   1.522   1.493   1.923
 4431SOL    HW214193   1.394   1.400   1.966
 4432SOL     OW14194   3.499   4.167   3.682
 4432SOL    HW114195   3.553   4.191   3.601
 4432SOL    HW214196   3.414   4.123   3.653
 4433SOL     OW14197   6.147   0.295   4.788
 4433SOL    HW114198   6.189   0.325   4.874
 4433SOL    HW214199   6.069   0.354   4.767
 4434SOL     OW14200   4.806   2.057   3.861
 4434SOL    HW114201   4.821   2.148   3.823
 4434SOL    HW214202   4.893   2.009   3.867
 4435SOL     OW14203   4.429   3.804   1.034
 4435SOL    HW114204   4.374   3.744   0.976
 4435SOL    HW214205   4.511   3.756   1.063
 4436SOL     OW14206   3.390   2.241   0.577
 4436SOL    HW114207   3.383   2.302   0.498
 4436SOL    HW214208   3.311   2.179   0.578
 4437SOL     OW14209   5.696   1.627   3.412
 4437SOL    HW114210   5.646   1.699   3.461
 4437SOL    HW214211   5.793   1.634   3.434
 4438SOL     OW14212   4.119   1.516   6.608
 4438SOL    HW114213   4.080   1.520   6.516
 4438SOL    HW214214   4.083   1.592   6.663
 4439SOL     OW14215   0.220   6.072   1.638
 4439SOL    HW114216   0.223   5.972   1.638
 4439SOL    HW214217   0.313   6.108   1.625
 4440SOL     OW14218   1.776   4.607   0.333
 4440SOL    HW114219   1.789   4.699   0.297
 4440SOL    HW214220   1.756   4.612   0.431
 4441SOL     OW14221   0.006   1.107   2.220
 4441SOL    HW114222   0.085   1.166   2.239
 4441SOL    HW214223   6.975   1.153   2.155
 4442SOL     OW14224   3.293   6.409   4.131
 4442SOL    HW114225   3.251   6.319   4.142
 4442SOL    HW214226   3.392   6.401   4.137
 4443SOL     OW14227   0.136   2.766   0.446
 4443SOL    HW114228   0.111   2.738   0.353
 4443SOL    HW214229   0.190   2.693   0.489
 4444SOL     OW14230   3.775   6.348   6.588
 4444SOL    HW114231   3.846   6.316   6.651
 4444SOL    HW214232   3.715   6.412   6.636
 4445SOL     OW14233   0.020   0.314   0.803
 4445SOL    HW114234   0.028   0.229   0.855
 4445SOL    HW214235   0.053   0.391   0.858
 4446SOL     OW14236   5.317   1.369   1.905
 4446SOL    HW114237   5.267   1.286   1.882
 4446SOL    HW214238   5.352   1.411   1.821
 4447SOL     OW14239   5.530   3.460   6.022
 4447SOL    HW114240   5.581   3.540   6.053
 4447SOL    HW214241   5.448   3.489   5.973
 4448SOL     OW14242   3.263   4.131   0.874
 4448SOL    HW114243   3.343   4.129   0.933
 4448SOL    HW214244   3.183   4.099   0.925
 4449SOL     OW14245   4.529   0.762   5.809
 4449SOL    HW114246   4.468   0.814   5.868
 4449SOL    HW214247   4.616   0.811   5.800
 4450SOL     OW14248   3.932   3.061   4.278
 4450SOL    HW114249   3.953   3.064   4.376
 4450SOL    HW214250   3.983   3.132   4.230
 4451SOL     OW14251   5.948   3.715   2.985
 4451SOL    HW114252   6.009   3.785   3.023
 4451SOL    HW214253   5.861   3.715   3.034
 4452SOL     OW14254   5.955   6.771   5.034
 4452SOL    HW114255   5.996   6.770   5.125
 4452SOL    HW214256   5.955   6.865   4.998
 4453SOL     OW14257   6.358   2.710   0.771
 4453SOL    HW114258   6.422   2.656   0.716
 4453SOL    HW214259   6.347   2.800   0.729
 4454SOL     OW14260   5.450   2.921   0.339
 4454SOL    HW114261   5.364   2.961   0.371
 4454SOL    HW214262   5.471   2.839   0.391
 4455SOL     OW14263   3.284   0.290   6.506
 4455SOL    HW114264   3.272   0.388   6.489
 4455SOL    HW214265   3.194   0.246   6.509
 4456SOL     OW14266   2.436   5.047   2.568
 4456SOL    HW114267   2.512   5.040   2.503
 4456SOL    HW214268   2.458   5.113   2.639
 4457SOL     OW14269   3.811   2.517   0.096
 4457SOL    HW114270   3.856   2.471   0.019
 4457SOL    HW214271   3.871   2.589   0.131
 4458SOL     OW14272   1.241   3.915   6.616
 4458SOL    HW114273   1.200   3.836   6.662
 4458SOL    HW214274   1.267   3.983   6.684
 4459SOL     OW14275   5.472   0.439   3.324
 4459SOL    HW114276   5.534   0.401   3.255
 4459SOL    HW214277   5.425   0.365   3.372
 4460SOL     OW14278   2.744   3.063   5.725
 4460SOL    HW114279   2.659   3.043   5.773
 4460SOL    HW214280   2.725   3.127   5.650
 4461SOL     OW14281   0.802   0.599   2.724
 4461SOL    HW114282   0.742   0.522   2.746
 4461SOL    HW214283   0.783   0.675   2.787
 4462SOL     OW14284   6.965   3.450   1.525
 4462SOL    HW114285   6.997   3.475   1.617
 4462SOL    HW214286   0.014   3.424   1.469
 4463SOL     OW14287   3.110   2.472   0.070
 4463SOL    HW114288   3.027   2.527   0.078
 4463SOL    HW214289   3.130   2.457   7.003
 4464SOL     OW14290   5.995   4.928   6.719
 4464SOL    HW114291   5.956   4.917   6.628
 4464SOL    HW214292   6.074   4.988   6.715
 4465SOL     OW14293   2.137   5.773   3.406
 4465SOL    HW114294   2.059   5.780   3.468
 4465SOL    HW214295   2.216   5.820   3.445
 4466SOL     OW14296   1.368   0.461   2.066
 4466SOL    HW114297   1.334   0.368   2.067
 4466SOL    HW214298   1.317   0.517   2.132
 4467SOL     OW14299   1.653   6.059   3.501
 4467SOL    HW114300   1.565   6.013   3.513
 4467SOL    HW214301   1.705   6.014   3.428
 4468SOL     OW14302   1.288   2.401   0.156
 4468SOL    HW114303   1.335   2.337   0.218
 4468SOL    HW214304   1.322   2.388   0.063
 4469SOL     OW14305   3.461   0.192   1.273
 4469SOL    HW114306   3.512   0.278   1.275
 4469SOL    HW214307   3.365   0.212   1.252
 4470SOL     OW14308   6.190   3.731   1.760
 4470SOL    HW114309   6.098   3.716   1.724
 4470SOL    HW214310   6.195   3.822   1.801
 4471SOL     OW14311   0.389   2.111   0.427
 4471SOL    HW114312   0.421   2.105   0.521
 4471SOL    HW214313   0.296   2.146   0.425
 4472SOL     OW14314   1.746   2.846   3.840
 4472SOL    HW114315   1.687   2.914   3.798
 4472SOL    HW214316   1.840   2.879   3.841
 4473SOL     OW14317   6.910   2.119   3.549
 4473SOL    HW114318   6.855   2.107   3.467
 4473SOL    HW214319   6.886   2.048   3.616
 4474SOL     OW14320   2.758   1.273   1.734
 4474SOL    HW114321   2.799   1.331   1.805
 4474SOL    HW214322   2.764   1.319   1.646
 4475SOL     OW14323   1.508   4.029   2.531
 4475SOL    HW114324   1.573   4.080   2.475
 4475SOL    HW214325   1.555   3.953   2.575
 4476SOL     OW14326   5.067   6.740   3.753
 4476SOL    HW114327   5.018   6.696   3.678
 4476SOL    HW214328   5.004   6.760   3.828
 4477SOL     OW14329   1.774   6.988   5.762
 4477SOL    HW114330   1.788   6.997   5.664
 4477SOL    HW214331   1.786   6.892   5.789
 4478SOL     OW14332   2.801   5.909   2.492
 4478SOL    HW114333   2.747   5.965   2.556
 4478SOL    HW214334   2.740   5.859   2.431
 4479SOL     OW14335   0.822   0.306   1.202
 4479SOL    HW114336   0.743   0.281   1.145
 4479SOL    HW214337   0.891   0.350   1.145
 4480SOL     OW14338   1.675   3.598   5.324
 4480SOL    HW114339   1.682   3.697   5.313
 4480SOL    HW214340   1.583   3.574   5.354
 4481SOL     OW14341   2.736   6.793   5.128
 4481SOL    HW114342   2.666   6.722   5.132
 4481SOL    HW214343   2.741   6.829   5.035
 4482SOL     OW14344   0.824   4.003   4.203
 4482SOL    HW114345   0.856   4.075   4.264
 4482SOL    HW214346   0.898   3.937   4.187
 4483SOL     OW14347   5.739   3.203   1.286
 4483SOL    HW114348   5.752   3.288   1.236
 4483SOL    HW214349   5.664   3.151   1.245
 4484SOL     OW14350   3.097   2.173   5.318
 4484SOL    HW114351   2.998   2.177   5.306
 4484SOL    HW214352   3.139   2.251   5.272
 4485SOL     OW14353   5.374   2.176   6.227
 4485SOL    HW114354   5.365   2.083   6.263
 4485SOL    HW214355   5.284   2.220   6.227
 4486SOL     OW14356   5.607   3.659   4.363
 4486SOL    HW114357   5.508   3.667   4.351
 4486SOL    HW214358   5.634   3.700   4.450
 4487SOL     OW14359   2.660   3.151   6.675
 4487SOL    HW114360   2.646   3.204   6.591
 4487SOL    HW214361   2.733   3.084   6.660
 4488SOL     OW14362   5.937   2.900   5.276
 4488SOL    HW114363   5.849   2.857   5.296
 4488SOL    HW214364   5.922   2.995   5.248
 4489SOL     OW14365   5.215   6.216   4.509
 4489SOL    HW114366   5.302   6.186   4.470
 4489SOL    HW214367   5.156   6.137   4.524
 4490SOL     OW14368   5.901   2.336   2.120
 4490SOL    HW114369   5.912   2.420   2.174
 4490SOL    HW214370   5.972   2.270   2.145
 4491SOL     OW14371   0.619   2.967   3.904
 4491SOL    HW114372   0.614   3.014   3.992
 4491SOL    HW214373   0.529   2.966   3.861
 4492SOL     OW14374   5.327   3.375   0.778
 4492SOL    HW114375   5.334   3.328   0.690
 4492SOL    HW214376   5.246   3.434   0.777
 4493SOL     OW14377   4.693   5.787   5.737
 4493SOL    HW114378   4.618   5.838   5.696
 4493SOL    HW214379   4.721   5.714   5.675
 4494SOL     OW14380   0.272   1.771   6.101
 4494SOL    HW114381   0.208   1.695   6.096
 4494SOL    HW214382   0.342   1.751   6.170
 4495SOL     OW14383   4.963   6.413   3.749
 4495SOL    HW114384   4.983   6.462   3.834
 4495SOL    HW214385   4.907   6.472   3.690
 4496SOL     OW14386   4.585   5.711   0.622
 4496SOL    HW114387   4.676   5.738   0.589
 4496SOL    HW214388   4.517   5.731   0.552
 4497SOL     OW14389   4.647   0.136   0.296
 4497SOL    HW114390   4.657   0.235   0.279
 4497SOL    HW214391   4.564   0.120   0.348
 4498SOL     OW14392   0.253   2.832   6.074
 4498SOL    HW114393   0.305   2.767   6.129
 4498SOL    HW214394   0.188   2.783   6.016
 4499SOL     OW14395   0.371   3.583   4.037
 4499SOL    HW114396   0.315   3.529   4.099
 4499SOL    HW214397   0.343   3.565   3.942
 4500SOL     OW14398   2.916   3.385   4.137
 4500SOL    HW114399   2.952   3.295   4.112
 4500SOL    HW214400   2.942   3.407   4.231
 4501SOL     OW14401   0.548   3.215   6.075
 4501SOL    HW114402   0.528   3.118   6.061
 4501SOL    HW214403   0.629   3.240   6.021
 4502SOL     OW14404   1.876   1.870   6.898
 4502SOL    HW114405   1.909   1.863   6.803
 4502SOL    HW214406   1.778   1.852   6.900
 4503SOL     OW14407   3.055   0.520   2.901
 4503SOL    HW114408   3.080   0.591   2.835
 4503SOL    HW214409   2.955   0.507   2.899
 4504SOL     OW14410   6.521   1.781   4.919
 4504SOL    HW114411   6.454   1.706   4.914
 4504SOL    HW214412   6.482   1.863   4.878
 4505SOL     OW14413   6.470   5.874   3.416
 4505SOL    HW114414   6.429   5.924   3.339
 4505SOL    HW214415   6.493   5.938   3.489
 4506SOL     OW14416   4.701   2.814   4.289
 4506SOL    HW114417   4.789   2.857   4.310
 4506SOL    HW214418   4.694   2.801   4.190
 4507SOL     OW14419   5.293   4.634   2.210
 4507SOL    HW114420   5.206   4.673   2.178
 4507SOL    HW214421   5.368   4.669   2.153
 4508SOL     OW14422   0.959   4.966   5.955
 4508SOL    HW114423   0.980   4.962   6.053
 4508SOL    HW214424   0.896   5.042   5.938
 4509SOL     OW14425   5.631   2.895   3.966
 4509SOL    HW114426   5.634   2.810   3.913
 4509SOL    HW214427   5.710   2.951   3.942
 4510SOL     OW14428   5.493   0.019   5.641
 4510SOL    HW114429   5.536   7.015   5.724
 4510SOL    HW214430   5.400   0.049   5.662
 4511SOL     OW14431   6.860   3.808   6.529
 4511SOL    HW114432   6.933   3.777   6.590
 4511SOL    HW214433   6.897   3.824   6.438
 4512SOL     OW14434   2.103   6.595   5.722
 4512SOL    HW114435   2.089   6.534   5.800
 4512SOL    HW214436   2.133   6.685   5.754
 4513SOL     OW14437   4.840   6.188   0.324
 4513SOL    HW114438   4.866   6.269   0.270
 4513SOL    HW214439   4.837   6.212   0.421
 4514SOL     OW14440   4.861   1.183   5.190
 4514SOL    HW114441   4.891   1.275   5.165
 4514SOL    HW214442   4.777   1.189   5.244
 4515SOL     OW14443   6.896   4.095   5.831
 4515SOL    HW114444   6.978   4.098   5.887
 4515SOL    HW214445   6.817   4.071   5.888
 4516SOL     OW14446   1.463   0.929   6.041
 4516SOL    HW114447   1.495   1.017   6.004
 4516SOL    HW214448   1.534   0.890   6.100
 4517SOL     OW14449   2.241   0.509   7.028
 4517SOL    HW114450   2.184   0.574   0.049
 4517SOL    HW214451   2.185   0.432   6.999
 4518SOL     OW14452   6.779   1.558   3.517
 4518SOL    HW114453   6.701   1.609   3.553
 4518SOL    HW214454   6.859   1.573   3.575
 4519SOL     OW14455   5.654   0.265   1.510
 4519SOL    HW114456   5.583   0.310   1.456
 4519SOL    HW214457   5.649   0.295   1.605
 4520SOL     OW14458   5.278   5.704   3.461
 4520SOL    HW114459   5.345   5.740   3.396
 4520SOL    HW214460   5.231   5.625   3.421
 4521SOL     OW14461   5.065   2.086   4.287
 4521SOL    HW114462   5.048   2.171   4.237
 4521SOL    HW214463   5.151   2.095   4.338
 4522SOL     OW14464   5.456   0.114   3.462
 4522SOL    HW114465   5.404   0.171   3.525
 4522SOL    HW214466   5.552   0.113   3.491
 4523SOL     OW14467   1.143   4.255   0.123
 4523SOL    HW114468   1.206   4.179   0.104
 4523SOL    HW214469   1.171   4.301   0.207
 4524SOL     OW14470   5.130   2.288   4.828
 4524SOL    HW114471   5.195   2.216   4.853
 4524SOL    HW214472   5.067   2.253   4.758
 4525SOL     OW14473   6.391   1.248   3.458
 4525SOL    HW114474   6.348   1.267   3.370
 4525SOL    HW214475   6.369   1.155   3.487
 4526SOL     OW14476   4.489   0.691   0.679
 4526SOL    HW114477   4.567   0.640   0.716
 4526SOL    HW214478   4.440   0.634   0.613
 4527SOL     OW14479   4.237   1.413   4.038
 4527SOL    HW114480   4.146   1.452   4.048
 4527SOL    HW214481   4.236   1.317   4.067
 4528SOL     OW14482   4.481   6.485   0.018
 4528SOL    HW114483   4.473   6.437   0.105
 4528SOL    HW214484   4.450   6.579   0.028
 4529SOL     OW14485   3.526   1.554   4.309
 4529SOL    HW114486   3.603   1.529   4.368
 4529SOL    HW214487   3.441   1.547   4.362
 4530SOL     OW14488   0.492   3.211   5.735
 4530SOL    HW114489   0.544   3.148   5.795
 4530SOL    HW214490   0.521   3.198   5.641
 4531SOL     OW14491   0.657   3.279   3.715
 4531SOL    HW114492   0.749   3.304   3.743
 4531SOL    HW214493   0.639   3.314   3.623
 4532SOL     OW14494   0.298   0.976   2.414
 4532SOL    HW114495   0.320   1.013   2.324
 4532SOL    HW214496   0.204   1.000   2.438
 4533SOL     OW14497   0.976   0.466   2.539
 4533SOL    HW114498   1.047   0.518   2.492
 4533SOL    HW214499   0.920   0.528   2.595
 4534SOL     OW14500   6.359   4.006   4.287
 4534SOL    HW114501   6.406   3.918   4.281
 4534SOL    HW214502   6.391   4.065   4.213
 4535SOL     OW14503   4.661   1.787   2.799
 4535SOL    HW114504   4.736   1.812   2.737
 4535SOL    HW214505   4.658   1.851   2.875
 4536SOL     OW14506   4.878   2.502   4.157
 4536SOL    HW114507   4.844   2.589   4.123
 4536SOL    HW214508   4.807   2.433   4.149
 4537SOL     OW14509   3.760   2.770   6.021
 4537SOL    HW114510   3.755   2.789   5.923
 4537SOL    HW214511   3.774   2.856   6.071
 4538SOL     OW14512   2.665   0.964   4.329
 4538SOL    HW114513   2.647   0.883   4.272
 4538SOL    HW214514   2.653   1.046   4.273
 4539SOL     OW14515   2.126   1.125   4.387
 4539SOL    HW114516   2.221   1.118   4.419
 4539SOL    HW214517   2.111   1.060   4.313
 4540SOL     OW14518   3.615   3.072   4.288
 4540SOL    HW114519   3.631   3.009   4.212
 4540SOL    HW214520   3.701   3.116   4.314
 4541SOL     OW14521   5.758   1.465   0.180
 4541SOL    HW114522   5.734   1.434   0.272
 4541SOL    HW214523   5.848   1.430   0.155
 4542SOL     OW14524   6.083   6.694   1.761
 4542SOL    HW114525   6.178   6.662   1.757
 4542SOL    HW214526   6.072   6.756   1.839
 4543SOL     OW14527   5.016   2.257   0.175
 4543SOL    HW114528   4.969   2.172   0.151
 4543SOL    HW214529   4.992   2.283   0.269
 4544SOL     OW14530   2.702   6.337   5.707
 4544SOL    HW114531   2.697   6.385   5.619
 4544SOL    HW214532   2.681   6.240   5.693
 4545SOL     OW14533   5.291   2.841   4.737
 4545SOL    HW114534   5.283   2.743   4.754
 4545SOL    HW214535   5.342   2.856   4.652
 4546SOL     OW14536   1.314   1.634   6.210
 4546SOL    HW114537   1.321   1.703   6.138
 4546SOL    HW214538   1.340   1.675   6.298
 4547SOL     OW14539   6.512   2.918   2.927
 4547SOL    HW114540   6.430   2.928   2.984
 4547SOL    HW214541   6.557   2.832   2.949
 4548SOL     OW14542   1.483   4.321   4.755
 4548SOL    HW114543   1.572   4.325   4.709
 4548SOL    HW214544   1.486   4.375   4.839
 4549SOL     OW14545   6.082   3.817   2.241
 4549SOL    HW114546   6.070   3.742   2.175
 4549SOL    HW214547   6.040   3.791   2.328
 4550SOL     OW14548   0.929   6.061   2.428
 4550SOL    HW114549   0.969   6.153   2.428
 4550SOL    HW214550   0.835   6.066   2.393
 4551SOL     OW14551   6.701   2.202   5.472
 4551SOL    HW114552   6.763   2.203   5.550
 4551SOL    HW214553   6.633   2.129   5.483
 4552SOL     OW14554   6.450   2.647   6.387
 4552SOL    HW114555   6.487   2.740   6.386
 4552SOL    HW214556   6.424   2.621   6.294
 4553SOL     OW14557   4.063   4.493   0.191
 4553SOL    HW114558   4.095   4.410   0.146
 4553SOL    HW214559   3.964   4.501   0.179
 4554SOL     OW14560   3.793   1.016   1.589
 4554SOL    HW114561   3.854   0.980   1.518
 4554SOL    HW214562   3.827   0.988   1.679
 4555SOL     OW14563   3.255   1.921   5.748
 4555SOL    HW114564   3.196   1.875   5.815
 4555SOL    HW214565   3.198   1.970   5.682
 4556SOL     OW14566   4.804   2.530   3.151
 4556SOL    HW114567   4.746   2.602   3.187
 4556SOL    HW214568   4.785   2.444   3.199
 4557SOL     OW14569   5.362   6.956   5.220
 4557SOL    HW114570   5.401   6.905   5.143
 4557SOL    HW214571   5.394   0.021   5.216
 4558SOL     OW14572   6.963   3.842   6.023
 4558SOL    HW114573   6.996   3.771   5.960
 4558SOL    HW214574   6.998   3.931   5.994
 4559SOL     OW14575   0.988   4.627   1.022
 4559SOL    HW114576   0.970   4.703   1.084
 4559SOL    HW214577   1.068   4.648   0.966
 4560SOL     OW14578   5.425   4.645   3.447
 4560SOL    HW114579   5.372   4.708   3.503
 4560SOL    HW214580   5.391   4.552   3.460
 4561SOL     OW14581   2.824   0.907   1.479
 4561SOL    HW114582   2.769   0.987   1.454
 4561SOL    HW214583   2.848   0.912   1.576
 4562SOL     OW14584   2.902   5.637   4.948
 4562SOL    HW114585   3.001   5.630   4.964
 4562SOL    HW214586   2.857   5.556   4.986
 4563SOL     OW14587   6.950   4.011   0.242
 4563SOL    HW114588   6.882   3.937   0.251
 4563SOL    HW214589   7.011   4.009   0.321
 4564SOL     OW14590   0.669   6.686   0.977
 4564SOL    HW114591   0.741   6.755   0.976
 4564SOL    HW214592   0.684   6.623   1.053
 4565SOL     OW14593   0.244   1.343   5.445
 4565SOL    HW114594   0.267   1.425   5.393
 4565SOL    HW214595   0.159   1.304   5.410
 4566SOL     OW14596   6.323   1.127   0.758
 4566SOL    HW114597   6.297   1.034   0.732
 4566SOL    HW214598   6.382   1.123   0.839
 4567SOL     OW14599   0.551   1.134   7.009
 4567SOL    HW114600   0.600   1.166   6.928
 4567SOL    HW214601   0.467   1.187   7.020
 4568SOL     OW14602   1.308   4.714   5.388
 4568SOL    HW114603   1.228   4.773   5.401
 4568SOL    HW214604   1.282   4.619   5.406
 4569SOL     OW14605   2.315   1.486   3.121
 4569SOL    HW114606   2.321   1.586   3.116
 4569SOL    HW214607   2.324   1.456   3.216
 4570SOL     OW14608   0.460   4.875   3.278
 4570SOL    HW114609   0.510   4.826   3.349
 4570SOL    HW214610   0.385   4.818   3.245
 4571SOL     OW14611   3.595   3.286   5.762
 4571SOL    HW114612   3.638   3.261   5.676
 4571SOL    HW214613   3.517   3.346   5.745
 4572SOL     OW14614   1.052   6.479   6.134
 4572SOL    HW114615   1.028   6.407   6.068
 4572SOL    HW214616   0.980   6.549   6.135
 4573SOL     OW14617   6.171   6.072   0.570
 4573SOL    HW114618   6.154   6.088   0.473
 4573SOL    HW214619   6.185   6.159   0.617
 4574SOL     OW14620   6.436   4.260   1.268
 4574SOL    HW114621   6.382   4.284   1.349
 4574SOL    HW214622   6.455   4.162   1.268
 4575SOL     OW14623   6.660   1.922   6.472
 4575SOL    HW114624   6.697   1.992   6.412
 4575SOL    HW214625   6.562   1.910   6.454
 4576SOL     OW14626   2.247   6.112   6.655
 4576SOL    HW114627   2.150   6.115   6.629
 4576SOL    HW214628   2.272   6.018   6.678
 4577SOL     OW14629   0.518   3.018   3.333
 4577SOL    HW114630   0.607   3.015   3.287
 4577SOL    HW214631   0.446   3.026   3.264
 4578SOL     OW14632   0.275   3.169   4.179
 4578SOL    HW114633   0.220   3.238   4.227
 4578SOL    HW214634   0.223   3.084   4.172
 4579SOL     OW14635   5.986   1.681   2.802
 4579SOL    HW114636   6.041   1.642   2.728
 4579SOL    HW214637   5.893   1.699   2.768
 4580SOL     OW14638   5.178   5.626   6.612
 4580SOL    HW114639   5.196   5.527   6.614
 4580SOL    HW214640   5.183   5.663   6.704
 4581SOL     OW14641   3.014   5.603   3.243
 4581SOL    HW114642   2.947   5.576   3.174
 4581SOL    HW214643   3.075   5.526   3.263
 4582SOL     OW14644   6.031   6.692   4.771
 4582SOL    HW114645   5.966   6.690   4.694
 4582SOL    HW214646   5.980   6.686   4.857
 4583SOL     OW14647   2.747   1.262   4.837
 4583SOL    HW114648   2.835   1.270   4.791
 4583SOL    HW214649   2.692   1.344   4.818
 4584SOL     OW14650   0.282   5.125   4.819
 4584SOL    HW114651   0.285   5.068   4.901
 4584SOL    HW214652   0.340   5.205   4.832
 4585SOL     OW14653   2.680   6.654   3.010
 4585SOL    HW114654   2.618   6.723   2.974
 4585SOL    HW214655   2.728   6.690   3.089
 4586SOL     OW14656   3.657   5.194   0.690
 4586SOL    HW114657   3.565   5.186   0.728
 4586SOL    HW214658   3.703   5.106   0.696
 4587SOL     OW14659   4.260   3.135   1.576
 4587SOL    HW114660   4.273   3.183   1.489
 4587SOL    HW214661   4.230   3.201   1.646
 4588SOL     OW14662   3.732   4.047   5.620
 4588SOL    HW114663   3.784   4.012   5.542
 4588SOL    HW214664   3.764   4.003   5.704
 4589SOL     OW14665   5.741   1.520   1.809
 4589SOL    HW114666   5.784   1.525   1.719
 4589SOL    HW214667   5.741   1.425   1.841
 4590SOL     OW14668   4.263   6.296   2.125
 4590SOL    HW114669   4.307   6.207   2.122
 4590SOL    HW214670   4.165   6.286   2.109
 4591SOL     OW14671   0.607   5.998   4.832
 4591SOL    HW114672   0.704   5.983   4.812
 4591SOL    HW214673   0.598   6.076   4.894
 4592SOL     OW14674   4.154   2.330   1.856
 4592SOL    HW114675   4.191   2.239   1.839
 4592SOL    HW214676   4.229   2.395   1.866
 4593SOL     OW14677   3.970   5.986   4.160
 4593SOL    HW114678   4.004   5.903   4.115
 4593SOL    HW214679   3.999   5.986   4.255
 4594SOL     OW14680   3.639   2.050   1.309
 4594SOL    HW114681   3.602   2.104   1.233
 4594SOL    HW214682   3.564   2.008   1.360
 4595SOL     OW14683   3.499   2.851   5.897
 4595SOL    HW114684   3.497   2.938   5.849
 4595SOL    HW214685   3.567   2.791   5.855
 4596SOL     OW14686   6.538   6.540   2.214
 4596SOL    HW114687   6.452   6.492   2.233
 4596SOL    HW214688   6.518   6.628   2.170
 4597SOL     OW14689   5.341   4.803   0.102
 4597SOL    HW114690   5.311   4.873   0.037
 4597SOL    HW214691   5.325   4.712   0.063
 4598SOL     OW14692   1.659   5.595   7.014
 4598SOL    HW114693   1.730   5.530   6.988
 4598SOL    HW214694   1.577   5.545   0.013
 4599SOL     OW14695   1.815   4.116   0.498
 4599SOL    HW114696   1.902   4.104   0.451
 4599SOL    HW214697   1.823   4.190   0.564
 4600SOL     OW14698   1.837   6.008   5.986
 4600SOL    HW114699   1.935   6.020   5.969
 4600SOL    HW214700   1.786   6.073   5.929
 4601SOL     OW14701   1.591   0.451   5.084
 4601SOL    HW114702   1.569   0.548   5.098
 4601SOL    HW214703   1.558   0.422   4.994
 4602SOL     OW14704   1.147   5.908   0.931
 4602SOL    HW114705   1.165   5.925   0.835
 4602SOL    HW214706   1.175   5.815   0.955
 4603SOL     OW14707   3.630   6.487   0.911
 4603SOL    HW114708   3.720   6.445   0.904
 4603SOL    HW214709   3.593   6.471   1.003
 4604SOL     OW14710   4.912   0.725   1.834
 4604SOL    HW114711   4.942   0.801   1.777
 4604SOL    HW214712   4.817   0.740   1.862
 4605SOL     OW14713   5.076   1.375   3.218
 4605SOL    HW114714   5.163   1.355   3.175
 4605SOL    HW214715   5.049   1.469   3.196
 4606SOL     OW14716   0.572   0.109   1.440
 4606SOL    HW114717   0.661   0.146   1.414
 4606SOL    HW214718   0.537   0.159   1.520
 4607SOL     OW14719   2.785   2.823   0.367
 4607SOL    HW114720   2.697   2.780   0.388
 4607SOL    HW214721   2.859   2.758   0.387
 4608SOL     OW14722   0.994   5.836   3.804
 4608SOL    HW114723   0.965   5.745   3.834
 4608SOL    HW214724   1.087   5.832   3.770
 4609SOL     OW14725   3.827   5.637   6.207
 4609SOL    HW114726   3.820   5.543   6.240
 4609SOL    HW214727   3.737   5.668   6.176
 4610SOL     OW14728   5.690   2.556   0.471
 4610SOL    HW114729   5.696   2.460   0.498
 4610SOL    HW214730   5.616   2.601   0.521
 4611SOL     OW14731   6.020   5.898   6.055
 4611SOL    HW114732   6.081   5.974   6.076
 4611SOL    HW214733   6.073   5.815   6.040
 4612SOL     OW14734   1.226   6.579   0.929
 4612SOL    HW114735   1.245   6.487   0.965
 4612SOL    HW214736   1.219   6.574   0.829
 4613SOL     OW14737   2.748   5.332   2.427
 4613SOL    HW114738   2.796   5.288   2.502
 4613SOL    HW214739   2.711   5.420   2.459
 4614SOL     OW14740   0.948   3.986   5.438
 4614SOL    HW114741   1.021   4.005   5.372
 4614SOL    HW214742   0.926   4.070   5.487
 4615SOL     OW14743   1.522   0.738   0.033
 4615SOL    HW114744   1.568   0.651   0.020
 4615SOL    HW214745   1.588   0.808   0.061
 4616SOL     OW14746   6.010   0.268   5.962
 4616SOL    HW114747   6.013   0.275   6.062
 4616SOL    HW214748   6.103   0.253   5.927
 4617SOL     OW14749   1.339   2.404   2.279
 4617SOL    HW114750   1.251   2.426   2.237
 4617SOL    HW214751   1.348   2.451   2.366
 4618SOL     OW14752   1.863   2.309   5.366
 4618SOL    HW114753   1.908   2.398   5.368
 4618SOL    HW214754   1.916   2.246   5.308
 4619SOL     OW14755   3.655   6.403   3.304
 4619SOL    HW114756   3.575   6.463   3.298
 4619SOL    HW214757   3.719   6.426   3.231
 4620SOL     OW14758   2.931   4.238   6.923
 4620SOL    HW114759   3.009   4.285   6.963
 4620SOL    HW214760   2.938   4.241   6.823
 4621SOL     OW14761   5.943   1.681   3.094
 4621SOL    HW114762   5.844   1.669   3.087
 4621SOL    HW214763   5.983   1.677   3.002
 4622SOL     OW14764   1.116   3.300   0.710
 4622SOL    HW114765   1.137   3.241   0.789
 4622SOL    HW214766   1.117   3.396   0.739
 4623SOL     OW14767   0.389   6.071   0.741
 4623SOL    HW114768   0.331   5.990   0.742
 4623SOL    HW214769   0.403   6.103   0.835
 4624SOL     OW14770   5.146   6.573   2.805
 4624SOL    HW114771   5.108   6.482   2.794
 4624SOL    HW214772   5.222   6.570   2.870
 4625SOL     OW14773   1.641   4.835   0.036
 4625SOL    HW114774   1.587   4.752   0.029
 4625SOL    HW214775   1.701   4.843   6.987
 4626SOL     OW14776   5.829   5.507   1.837
 4626SOL    HW114777   5.774   5.453   1.774
 4626SOL    HW214778   5.925   5.507   1.806
 4627SOL     OW14779   3.597   6.000   3.948
 4627SOL    HW114780   3.525   6.001   3.878
 4627SOL    HW214781   3.575   5.933   4.018
 4628SOL     OW14782   6.191   4.178   3.910
 4628SOL    HW114783   6.283   4.176   3.950
 4628SOL    HW214784   6.171   4.269   3.876
 4629SOL     OW14785   2.060   5.144   5.196
 4629SOL    HW114786   2.132   5.148   5.265
 4629SOL    HW214787   1.979   5.101   5.234
 4630SOL     OW14788   3.546   5.681   3.046
 4630SOL    HW114789   3.460   5.707   3.001
 4630SOL    HW214790   3.602   5.626   2.983
 4631SOL     OW14791   2.226   6.306   3.863
 4631SOL    HW114792   2.225   6.232   3.796
 4631SOL    HW214793   2.313   6.304   3.913
 4632SOL     OW14794   4.256   4.779   3.421
 4632SOL    HW114795   4.286   4.686   3.399
 4632SOL    HW214796   4.223   4.782   3.515
 4633SOL     OW14797   6.175   2.184   3.752
 4633SOL    HW114798   6.247   2.115   3.754
 4633SOL    HW214799   6.186   2.242   3.671
 4634SOL     OW14800   2.372   4.670   6.772
 4634SOL    HW114801   2.296   4.678   6.708
 4634SOL    HW214802   2.440   4.606   6.735
 4635SOL     OW14803   5.601   3.566   1.981
 4635SOL    HW114804   5.608   3.521   1.892
 4635SOL    HW214805   5.516   3.540   2.026
 4636SOL     OW14806   2.259   5.334   0.203
 4636SOL    HW114807   2.304   5.359   0.117
 4636SOL    HW214808   2.267   5.235   0.216
 4637SOL     OW14809   1.795   0.768   0.271
 4637SOL    HW114810   1.823   0.673   0.264
 4637SOL    HW214811   1.758   0.799   0.183
 4638SOL     OW14812   3.960   3.305   6.350
 4638SOL    HW114813   3.945   3.214   6.388
 4638SOL    HW214814   3.916   3.373   6.409
 4639SOL     OW14815   2.062   4.662   5.328
 4639SOL    HW114816   1.991   4.657   5.258
 4639SOL    HW214817   2.036   4.729   5.397
 4640SOL     OW14818   5.138   5.222   3.479
 4640SOL    HW114819   5.230   5.188   3.499
 4640SOL    HW214820   5.084   5.221   3.563
 4641SOL     OW14821   3.043   6.242   4.327
 4641SOL    HW114822   3.064   6.170   4.261
 4641SOL    HW214823   3.033   6.202   4.418
 4642SOL     OW14824   0.824   6.453   5.509
 4642SOL    HW114825   0.852   6.548   5.526
 4642SOL    HW214826   0.783   6.415   5.591
 4643SOL     OW14827   5.539   2.231   1.312
 4643SOL    HW114828   5.540   2.246   1.411
 4643SOL    HW214829   5.447   2.250   1.277
 4644SOL     OW14830   1.268   5.073   4.878
 4644SOL    HW114831   1.347   5.079   4.939
 4644SOL    HW214832   1.226   4.982   4.888
 4645SOL     OW14833   1.282   0.472   3.810
 4645SOL    HW114834   1.198   0.525   3.800
 4645SOL    HW214835   1.360   0.534   3.822
 4646SOL     OW14836   2.736   6.703   3.403
 4646SOL    HW114837   2.637   6.699   3.416
 4646SOL    HW214838   2.757   6.739   3.312
 4647SOL     OW14839   1.072   6.809   3.403
 4647SOL    HW114840   1.001   6.879   3.403
 4647SOL    HW214841   1.053   6.742   3.474
 4648SOL     OW14842   4.305   0.312   1.178
 4648SOL    HW114843   4.344   0.225   1.208
 4648SOL    HW214844   4.316   0.380   1.251
 4649SOL     OW14845   5.276   6.626   5.896
 4649SOL    HW114846   5.281   6.643   5.798
 4649SOL    HW214847   5.280   6.713   5.945
 4650SOL     OW14848   4.136   6.130   3.906
 4650SOL    HW114849   4.184   6.045   3.926
 4650SOL    HW214850   4.051   6.134   3.958
 4651SOL     OW14851   0.261   1.318   0.949
 4651SOL    HW114852   0.211   1.395   0.910
 4651SOL    HW214853   0.330   1.287   0.883
 4652SOL     OW14854   0.352   0.719   4.296
 4652SOL    HW114855   0.274   0.662   4.271
 4652SOL    HW214856   0.426   0.661   4.329
 4653SOL     OW14857   5.970   5.793   6.650
 4653SOL    HW114858   5.978   5.695   6.632
 4653SOL    HW214859   6.056   5.839   6.628
 4654SOL     OW14860   0.361   6.841   6.986
 4654SOL    HW114861   0.404   6.817   0.043
 4654SOL    HW214862   0.430   6.877   6.924
 4655SOL     OW14863   6.625   5.594   1.842
 4655SOL    HW114864   6.585   5.642   1.764
 4655SOL    HW214865   6.570   5.612   1.923
 4656SOL     OW14866   1.163   0.130   3.403
 4656SOL    HW114867   1.199   0.199   3.466
 4656SOL    HW214868   1.071   0.104   3.431
 4657SOL     OW14869   4.591   6.510   1.506
 4657SOL    HW114870   4.645   6.464   1.436
 4657SOL    HW214871   4.640   6.507   1.593
 4658SOL     OW14872   3.760   1.031   2.085
 4658SOL    HW114873   3.818   0.990   2.155
 4658SOL    HW214874   3.781   1.129   2.078
 4659SOL     OW14875   2.746   3.711   6.058
 4659SOL    HW114876   2.727   3.762   5.974
 4659SOL    HW214877   2.730   3.771   6.137
 4660SOL     OW14878   1.027   2.809   5.105
 4660SOL    HW114879   0.989   2.769   5.188
 4660SOL    HW214880   1.089   2.884   5.130
 4661SOL     OW14881   3.456   4.018   5.634
 4661SOL    HW114882   3.556   4.018   5.633
 4661SOL    HW214883   3.422   4.075   5.559
 4662SOL     OW14884   4.363   0.339   5.084
 4662SOL    HW114885   4.297   0.311   5.153
 4662SOL    HW214886   4.360   0.276   5.007
 4663SOL     OW14887   0.603   1.991   2.191
 4663SOL    HW114888   0.682   1.937   2.164
 4663SOL    HW214889   0.545   1.937   2.252
 4664SOL     OW14890   2.250   1.993   0.630
 4664SOL    HW114891   2.324   1.930   0.608
 4664SOL    HW214892   2.180   1.989   0.559
 4665SOL     OW14893   4.098   0.049   0.645
 4665SOL    HW114894   4.148   0.118   0.697
 4665SOL    HW214895   4.000   0.058   0.663
 4666SOL     OW14896   1.664   1.578   0.677
 4666SOL    HW114897   1.683   1.560   0.581
 4666SOL    HW214898   1.633   1.672   0.688
 4667SOL     OW14899   6.277   4.586   1.332
 4667SOL    HW114900   6.217   4.666   1.340
 4667SOL    HW214901   6.372   4.617   1.321
 4668SOL     OW14902   6.490   2.402   2.997
 4668SOL    HW114903   6.572   2.378   2.945
 4668SOL    HW214904   6.459   2.322   3.049
 4669SOL     OW14905   3.104   6.940   0.483
 4669SOL    HW114906   3.111   7.016   0.548
 4669SOL    HW214907   3.178   6.875   0.500
 4670SOL     OW14908   3.369   1.659   5.120
 4670SOL    HW114909   3.438   1.672   5.191
 4670SOL    HW214910   3.330   1.567   5.129
 4671SOL     OW14911   6.943   2.507   2.097
 4671SOL    HW114912   7.019   2.445   2.113
 4671SOL    HW214913   6.978   2.595   2.063
 4672SOL     OW14914   2.606   5.158   6.293
 4672SOL    HW114915   2.653   5.243   6.270
 4672SOL    HW214916   2.599   5.150   6.392
 4673SOL     OW14917   4.807   6.587   0.719
 4673SOL    HW114918   4.722   6.582   0.771
 4673SOL    HW214919   4.883   6.556   0.777
 4674SOL     OW14920   4.979   6.960   6.889
 4674SOL    HW114921   5.054   6.968   6.954
 4674SOL    HW214922   4.979   0.010   6.828
 4675SOL     OW14923   0.801   3.045   6.764
 4675SOL    HW114924   0.808   3.136   6.724
 4675SOL    HW214925   0.889   3.020   6.805
 4676SOL     OW14926   6.802   5.800   3.636
 4676SOL    HW114927   6.726   5.861   3.614
 4676SOL    HW214928   6.786   5.758   3.726
 4677SOL     OW14929   2.644   2.398   0.893
 4677SOL    HW114930   2.680   2.307   0.873
 4677SOL    HW214931   2.594   2.396   0.980
 4678SOL     OW14932   2.149   4.595   2.985
 4678SOL    HW114933   2.161   4.598   2.886
 4678SOL    HW214934   2.230   4.553   3.027
 4679SOL     OW14935   4.379   0.245   1.812
 4679SOL    HW114936   4.393   0.181   1.888
 4679SOL    HW214937   4.282   0.249   1.789
 4680SOL     OW14938   3.864   0.970   6.387
 4680SOL    HW114939   3.936   0.969   6.456
 4680SOL    HW214940   3.847   1.064   6.357
 4681SOL     OW14941   5.581   4.879   0.249
 4681SOL    HW114942   5.608   4.856   0.343
 4681SOL    HW214943   5.538   4.799   0.207
 4682SOL     OW14944   4.407   4.471   5.485
 4682SOL    HW114945   4.468   4.396   5.461
 4682SOL    HW214946   4.446   4.558   5.454
 4683SOL     OW14947   5.709   5.444   2.631
 4683SOL    HW114948   5.802   5.455   2.664
 4683SOL    HW214949   5.647   5.501   2.684
 4684SOL     OW14950   5.043   6.896   5.700
 4684SOL    HW114951   5.009   6.864   5.788
 4684SOL    HW214952   5.106   6.828   5.662
 4685SOL     OW14953   1.962   5.088   6.762
 4685SOL    HW114954   2.020   5.109   6.841
 4685SOL    HW214955   2.018   5.056   6.687
 4686SOL     OW14956   4.126   5.975   6.917
 4686SOL    HW114957   4.102   5.902   6.853
 4686SOL    HW214958   4.049   6.039   6.926
 4687SOL     OW14959   4.876   3.002   4.128
 4687SOL    HW114960   4.837   3.050   4.207
 4687SOL    HW214961   4.838   3.039   4.044
 4688SOL     OW14962   6.216   2.671   5.114
 4688SOL    HW114963   6.249   2.725   5.036
 4688SOL    HW214964   6.286   2.668   5.185
 4689SOL     OW14965   5.616   0.976   0.735
 4689SOL    HW114966   5.551   1.027   0.791
 4689SOL    HW214967   5.624   1.019   0.645
 4690SOL     OW14968   2.164   0.501   0.615
 4690SOL    HW114969   2.078   0.450   0.623
 4690SOL    HW214970   2.194   0.501   0.519
 4691SOL     OW14971   3.126   3.556   0.851
 4691SOL    HW114972   3.146   3.599   0.939
 4691SOL    HW214973   3.149   3.619   0.777
 4692SOL     OW14974   5.686   5.210   2.903
 4692SOL    HW114975   5.724   5.301   2.886
 4692SOL    HW214976   5.586   5.214   2.899
 4693SOL     OW14977   1.607   0.733   3.525
 4693SOL    HW114978   1.527   0.729   3.586
 4693SOL    HW214979   1.661   0.814   3.547
 4694SOL     OW14980   2.336   1.503   0.121
 4694SOL    HW114981   2.328   1.434   0.192
 4694SOL    HW214982   2.430   1.538   0.118
 4695SOL     OW14983   1.227   4.698   0.907
 4695SOL    HW114984   1.244   4.796   0.898
 4695SOL    HW214985   1.256   4.652   0.823
 4696SOL     OW14986   0.326   5.467   6.170
 4696SOL    HW114987   0.324   5.456   6.071
 4696SOL    HW214988   0.275   5.550   6.195
 4697SOL     OW14989   1.222   3.784   2.281
 4697SOL    HW114990   1.263   3.787   2.190
 4697SOL    HW214991   1.129   3.749   2.274
 4698SOL     OW14992   4.262   6.268   3.196
 4698SOL    HW114993   4.323   6.233   3.267
 4698SOL    HW214994   4.295   6.238   3.106
 4699SOL     OW14995   0.488   6.368   2.476
 4699SOL    HW114996   0.400   6.384   2.519
 4699SOL    HW214997   0.475   6.332   2.384
 4700SOL     OW14998   6.446   2.062   2.405
 4700SOL    HW114999   6.513   2.111   2.349
 4700SOL    HW215000   6.424   1.975   2.362
 4701SOL     OW15001   3.427   2.083   0.188
 4701SOL    HW115002   3.362   2.017   0.226
 4701SOL    HW215003   3.426   2.077   0.088
 4702SOL     OW15004   4.944   4.974   7.000
 4702SOL    HW115005   4.850   4.991   7.030
 4702SOL    HW215006   4.966   4.877   7.009
 4703SOL     OW15007   1.328   6.738   2.929
 4703SOL    HW115008   1.361   6.693   2.846
 4703SOL    HW215009   1.228   6.738   2.931
 4704SOL     OW15010   6.599   5.996   6.381
 4704SOL    HW115011   6.503   5.981   6.356
 4704SOL    HW215012   6.623   5.936   6.458
 4705SOL     OW15013   4.478   2.528   1.117
 4705SOL    HW115014   4.460   2.508   1.213
 4705SOL    HW215015   4.570   2.497   1.093
 4706SOL     OW15016   1.829   0.529   0.589
 4706SOL    HW115017   1.872   0.476   0.516
 4706SOL    HW215018   1.822   0.473   0.671
 4707SOL     OW15019   0.861   6.557   1.651
 4707SOL    HW115020   0.930   6.619   1.614
 4707SOL    HW215021   0.844   6.579   1.747
 4708SOL     OW15022   1.479   1.918   5.622
 4708SOL    HW115023   1.460   1.981   5.547
 4708SOL    HW215024   1.574   1.888   5.617
 4709SOL     OW15025   4.869   5.294   5.164
 4709SOL    HW115026   4.929   5.323   5.090
 4709SOL    HW215027   4.883   5.196   5.182
 4710SOL     OW15028   5.225   0.180   6.168
 4710SOL    HW115029   5.293   0.152   6.100
 4710SOL    HW215030   5.175   0.099   6.200
 4711SOL     OW15031   6.397   1.573   1.387
 4711SOL    HW115032   6.393   1.621   1.299
 4711SOL    HW215033   6.446   1.628   1.454
 4712SOL     OW15034   3.010   4.934   6.727
 4712SOL    HW115035   2.919   4.892   6.732
 4712SOL    HW215036   3.043   4.930   6.633
 4713SOL     OW15037   3.872   4.804   1.012
 4713SOL    HW115038   3.864   4.899   1.039
 4713SOL    HW215039   3.960   4.790   0.965
 4714SOL     OW15040   0.477   1.388   6.294
 4714SOL    HW115041   0.554   1.324   6.305
 4714SOL    HW215042   0.492   1.445   6.213
 4715SOL     OW15043   6.003   3.176   1.283
 4715SOL    HW115044   6.044   3.085   1.278
 4715SOL    HW215045   5.903   3.169   1.280
 4716SOL     OW15046   4.343   6.475   5.511
 4716SOL    HW115047   4.427   6.478   5.566
 4716SOL    HW215048   4.331   6.382   5.474
 4717SOL     OW15049   0.991   5.827   4.928
 4717SOL    HW115050   1.063   5.758   4.921
 4717SOL    HW215051   1.008   5.885   5.007
 4718SOL     OW15052   5.430   1.864   0.904
 4718SOL    HW115053   5.387   1.931   0.964
 4718SOL    HW215054   5.519   1.837   0.942
 4719SOL     OW15055   4.892   3.774   2.315
 4719SOL    HW115056   4.933   3.736   2.398
 4719SOL    HW215057   4.859   3.700   2.256
 4720SOL     OW15058   1.663   5.235   6.061
 4720SOL    HW115059   1.753   5.221   6.020
 4720SOL    HW215060   1.649   5.333   6.078
 4721SOL     OW15061   6.470   1.821   1.844
 4721SOL    HW115062   6.430   1.843   1.755
 4721SOL    HW215063   6.488   1.906   1.894
 4722SOL     OW15064   1.092   6.132   6.878
 4722SOL    HW115065   1.015   6.093   6.928
 4722SOL    HW215066   1.104   6.082   6.792
 4723SOL     OW15067   2.739   3.440   5.431
 4723SOL    HW115068   2.714   3.490   5.514
 4723SOL    HW215069   2.824   3.390   5.447
 4724SOL     OW15070   0.102   6.923   4.306
 4724SOL    HW115071   0.102   6.922   4.206
 4724SOL    HW215072   0.082   6.832   4.340
 4725SOL     OW15073   6.465   4.858   0.324
 4725SOL    HW115074   6.531   4.783   0.317
 4725SOL    HW215075   6.489   4.915   0.403
 4726SOL     OW15076   1.456   3.064   6.250
 4726SOL    HW115077   1.501   3.151   6.231
 4726SOL    HW215078   1.459   3.006   6.169
 4727SOL     OW15079   0.595   6.379   1.330
 4727SOL    HW115080   0.610   6.289   1.372
 4727SOL    HW215081   0.597   6.369   1.230
 4728SOL     OW15082   6.391   0.898   2.881
 4728SOL    HW115083   6.427   0.890   2.788
 4728SOL    HW215084   6.387   0.808   2.923
 4729SOL     OW15085   4.920   0.936   0.509
 4729SOL    HW115086   4.963   0.931   0.599
 4729SOL    HW215087   4.909   0.844   0.471
 4730SOL     OW15088   3.264   6.028   5.277
 4730SOL    HW115089   3.329   6.101   5.298
 4730SOL    HW215090   3.287   5.947   5.331
 4731SOL     OW15091   2.903   1.158   0.787
 4731SOL    HW115092   2.919   1.186   0.692
 4731SOL    HW215093   2.811   1.183   0.815
 4732SOL     OW15094   0.662   3.414   5.351
 4732SOL    HW115095   0.760   3.394   5.340
 4732SOL    HW215096   0.648   3.470   5.432
 4733SOL     OW15097   1.579   3.822   3.837
 4733SOL    HW115098   1.651   3.758   3.810
 4733SOL    HW215099   1.579   3.900   3.775
 4734SOL     OW15100   4.493   3.399   0.279
 4734SOL    HW115101   4.462   3.391   0.374
 4734SOL    HW215102   4.518   3.309   0.244
 4735SOL     OW15103   6.765   5.741   3.961
 4735SOL    HW115104   6.678   5.692   3.966
 4735SOL    HW215105   6.747   5.840   3.960
 4736SOL     OW15106   5.567   1.691   5.974
 4736SOL    HW115107   5.543   1.748   5.895
 4736SOL    HW215108   5.660   1.711   6.003
 4737SOL     OW15109   2.805   4.282   0.983
 4737SOL    HW115110   2.809   4.327   0.893
 4737SOL    HW215111   2.762   4.344   1.049
 4738SOL     OW15112   2.474   6.676   3.431
 4738SOL    HW115113   2.411   6.617   3.481
 4738SOL    HW215114   2.458   6.667   3.332
 4739SOL     OW15115   5.441   1.635   2.935
 4739SOL    HW115116   5.469   1.541   2.915
 4739SOL    HW215117   5.463   1.693   2.856
 4740SOL     OW15118   0.158   0.480   0.957
 4740SOL    HW115119   0.120   0.571   0.944
 4740SOL    HW215120   0.248   0.474   0.915
 4741SOL     OW15121   4.448   3.429   1.365
 4741SOL    HW115122   4.489   3.500   1.422
 4741SOL    HW215123   4.498   3.343   1.378
 4742SOL     OW15124   2.587   6.672   1.487
 4742SOL    HW115125   2.570   6.736   1.412
 4742SOL    HW215126   2.672   6.622   1.469
 4743SOL     OW15127   1.629   2.794   5.241
 4743SOL    HW115128   1.674   2.883   5.249
 4743SOL    HW215129   1.656   2.751   5.155
 4744SOL     OW15130   2.698   3.835   5.827
 4744SOL    HW115131   2.708   3.932   5.848
 4744SOL    HW215132   2.659   3.824   5.735
 4745SOL     OW15133   2.599   5.351   5.482
 4745SOL    HW115134   2.533   5.282   5.513
 4745SOL    HW215135   2.565   5.394   5.398
 4746SOL     OW15136   5.951   6.361   2.506
 4746SOL    HW115137   5.888   6.294   2.546
 4746SOL    HW215138   6.043   6.346   2.544
 4747SOL     OW15139   1.533   3.809   0.150
 4747SOL    HW115140   1.480   3.725   0.142
 4747SOL    HW215141   1.529   3.843   0.244
 4748SOL     OW15142   1.381   5.103   0.653
 4748SOL    HW115143   1.445   5.177   0.634
 4748SOL    HW215144   1.287   5.135   0.635
 4749SOL     OW15145   2.835   6.158   5.402
 4749SOL    HW115146   2.803   6.251   5.418
 4749SOL    HW215147   2.920   6.142   5.454
 4750SOL     OW15148   0.257   3.515   4.455
 4750SOL    HW115149   0.295   3.605   4.437
 4750SOL    HW215150   0.317   3.464   4.517
 4751SOL     OW15151   2.518   2.616   0.387
 4751SOL    HW115152   2.429   2.601   0.344
 4751SOL    HW215153   2.551   2.531   0.426
 4752SOL     OW15154   2.871   0.304   0.294
 4752SOL    HW115155   2.968   0.281   0.306
 4752SOL    HW215156   2.819   0.269   0.370
 4753SOL     OW15157   5.611   0.179   4.517
 4753SOL    HW115158   5.563   0.120   4.452
 4753SOL    HW215159   5.701   0.140   4.537
 4754SOL     OW15160   5.891   0.470   5.044
 4754SOL    HW115161   5.862   0.566   5.052
 4754SOL    HW215162   5.958   0.450   5.115
 4755SOL     OW15163   2.975   0.697   1.025
 4755SOL    HW115164   2.895   0.753   1.007
 4755SOL    HW215165   3.018   0.726   1.110
 4756SOL     OW15166   6.023   2.901   1.281
 4756SOL    HW115167   6.034   2.804   1.258
 4756SOL    HW215168   6.050   2.916   1.376
 4757SOL     OW15169   1.615   2.509   1.689
 4757SOL    HW115170   1.685   2.523   1.759
 4757SOL    HW215171   1.594   2.597   1.645
 4758SOL     OW15172   2.829   5.960   4.714
 4758SOL    HW115173   2.896   5.963   4.640
 4758SOL    HW215174   2.749   5.907   4.684
 4759SOL     OW15175   5.559   5.409   4.543
 4759SOL    HW115176   5.597   5.463   4.618
 4759SOL    HW215177   5.606   5.321   4.539
 4760SOL     OW15178   3.634   2.065   0.843
 4760SOL    HW115179   3.585   2.096   0.761
 4760SOL    HW215180   3.684   1.981   0.823
 4761SOL     OW15181   0.776   6.534   6.398
 4761SOL    HW115182   0.699   6.477   6.370
 4761SOL    HW215183   0.809   6.586   6.320
 4762SOL     OW15184   2.296   5.228   3.003
 4762SOL    HW115185   2.299   5.315   3.053
 4762SOL    HW215186   2.285   5.246   2.905
 4763SOL     OW15187   6.075   6.479   3.612
 4763SOL    HW115188   6.066   6.442   3.520
 4763SOL    HW215189   6.074   6.404   3.678
 4764SOL     OW15190   4.898   4.282   5.746
 4764SOL    HW115191   4.980   4.245   5.791
 4764SOL    HW215192   4.822   4.219   5.757
 4765SOL     OW15193   5.330   0.599   4.522
 4765SOL    HW115194   5.391   0.582   4.599
 4765SOL    HW215195   5.301   0.695   4.523
 4766SOL     OW15196   4.482   7.026   4.044
 4766SOL    HW115197   4.418   0.070   4.064
 4766SOL    HW215198   4.465   6.949   4.105
 4767SOL     OW15199   4.021   5.013   5.825
 4767SOL    HW115200   3.936   5.035   5.873
 4767SOL    HW215201   4.001   4.994   5.729
 4768SOL     OW15202   4.304   1.735   5.010
 4768SOL    HW115203   4.399   1.707   4.994
 4768SOL    HW215204   4.275   1.796   4.936
 4769SOL     OW15205   4.840   4.697   0.329
 4769SOL    HW115206   4.794   4.783   0.352
 4769SOL    HW215207   4.934   4.699   0.362
 4770SOL     OW15208   0.837   0.677   4.520
 4770SOL    HW115209   0.821   0.658   4.423
 4770SOL    HW215210   0.867   0.594   4.566
 4771SOL     OW15211   3.430   5.365   5.267
 4771SOL    HW115212   3.379   5.451   5.259
 4771SOL    HW215213   3.415   5.327   5.358
 4772SOL     OW15214   2.800   5.034   1.647
 4772SOL    HW115215   2.704   5.034   1.621
 4772SOL    HW215216   2.810   5.073   1.738
 4773SOL     OW15217   6.709   5.528   4.750
 4773SOL    HW115218   6.620   5.529   4.796
 4773SOL    HW215219   6.751   5.619   4.758
 4774SOL     OW15220   1.095   2.559   1.686
 4774SOL    HW115221   1.173   2.518   1.638
 4774SOL    HW215222   1.015   2.559   1.626
 4775SOL     OW15223   5.251   6.683   2.289
 4775SOL    HW115224   5.232   6.625   2.367
 4775SOL    HW215225   5.332   6.648   2.240
 4776SOL     OW15226   0.999   6.427   4.932
 4776SOL    HW115227   0.979   6.329   4.930
 4776SOL    HW215228   0.983   6.463   5.024
 4777SOL     OW15229   2.937   4.661   1.419
 4777SOL    HW115230   2.924   4.563   1.401
 4777SOL    HW215231   2.856   4.711   1.391
 4778SOL     OW15232   6.054   2.664   2.459
 4778SOL    HW115233   6.022   2.597   2.526
 4778SOL    HW215234   6.154   2.663   2.455
 4779SOL     OW15235   6.656   6.328   2.354
 4779SOL    HW115236   6.625   6.409   2.304
 4779SOL    HW215237   6.717   6.355   2.428
 4780SOL     OW15238   6.895   0.525   0.614
 4780SOL    HW115239   6.824   0.578   0.567
 4780SOL    HW215240   6.873   0.428   0.610
 4781SOL     OW15241   2.964   6.613   1.987
 4781SOL    HW115242   3.044   6.658   2.028
 4781SOL    HW215243   2.995   6.553   1.913
 4782SOL     OW15244   4.510   6.181   0.186
 4782SOL    HW115245   4.544   6.135   0.105
 4782SOL    HW215246   4.474   6.114   0.250
 4783SOL     OW15247   4.720   4.672   6.696
 4783SOL    HW115248   4.639   4.727   6.672
 4783SOL    HW215249   4.739   4.681   6.794
 4784SOL     OW15250   6.281   4.285   6.297
 4784SOL    HW115251   6.269   4.347   6.220
 4784SOL    HW215252   6.277   4.190   6.265
 4785SOL     OW15253   5.741   5.412   1.556
 4785SOL    HW115254   5.768   5.508   1.548
 4785SOL    HW215255   5.655   5.397   1.508
 4786SOL     OW15256   2.458   2.424   1.571
 4786SOL    HW115257   2.553   2.397   1.585
 4786SOL    HW215258   2.425   2.386   1.485
 4787SOL     OW15259   3.346   2.063   3.387
 4787SOL    HW115260   3.277   2.101   3.325
 4787SOL    HW215261   3.401   1.995   3.338
 4788SOL     OW15262   1.155   5.086   5.809
 4788SOL    HW115263   1.081   5.054   5.867
 4788SOL    HW215264   1.218   5.143   5.862
 4789SOL     OW15265   5.724   0.958   0.164
 4789SOL    HW115266   5.648   1.006   0.120
 4789SOL    HW215267   5.715   0.860   0.150
 4790SOL     OW15268   0.496   2.658   5.950
 4790SOL    HW115269   0.576   2.678   6.007
 4790SOL    HW215270   0.478   2.560   5.950
 4791SOL     OW15271   6.401   1.700   0.957
 4791SOL    HW115272   6.384   1.779   0.898
 4791SOL    HW215273   6.490   1.661   0.935
 4792SOL     OW15274   2.142   2.989   2.847
 4792SOL    HW115275   2.098   3.067   2.802
 4792SOL    HW215276   2.200   2.941   2.781
 4793SOL     OW15277   1.789   2.674   6.166
 4793SOL    HW115278   1.693   2.660   6.140
 4793SOL    HW215279   1.794   2.703   6.261
 4794SOL     OW15280   4.793   0.374   3.399
 4794SOL    HW115281   4.718   0.440   3.398
 4794SOL    HW215282   4.758   0.285   3.428
 4795SOL     OW15283   6.869   1.564   3.254
 4795SOL    HW115284   6.917   1.503   3.190
 4795SOL    HW215285   6.861   1.519   3.343
 4796SOL     OW15286   4.913   1.862   6.561
 4796SOL    HW115287   5.000   1.888   6.605
 4796SOL    HW215288   4.843   1.849   6.631
 4797SOL     OW15289   1.891   6.343   5.697
 4797SOL    HW115290   1.934   6.385   5.777
 4797SOL    HW215291   1.935   6.256   5.676
 4798SOL     OW15292   0.288   2.949   4.951
 4798SOL    HW115293   0.189   2.966   4.945
 4798SOL    HW215294   0.316   2.945   5.046
 4799SOL     OW15295   4.597   2.431   6.546
 4799SOL    HW115296   4.528   2.428   6.619
 4799SOL    HW215297   4.663   2.503   6.566
 4800SOL     OW15298   2.474   3.508   5.815
 4800SOL    HW115299   2.481   3.417   5.855
 4800SOL    HW215300   2.561   3.534   5.774
 4801SOL     OW15301   2.847   2.394   1.283
 4801SOL    HW115302   2.939   2.362   1.261
 4801SOL    HW215303   2.853   2.465   1.354
 4802SOL     OW15304   1.120   6.286   2.462
 4802SOL    HW115305   1.113   6.337   2.548
 4802SOL    HW215306   1.216   6.266   2.443
 4803SOL     OW15307   1.477   6.400   0.689
 4803SOL    HW115308   1.521   6.436   0.771
 4803SOL    HW215309   1.400   6.341   0.716
 4804SOL     OW15310   4.964   5.774   6.503
 4804SOL    HW115311   5.042   5.728   6.547
 4804SOL    HW215312   4.956   5.741   6.408
 4805SOL     OW15313   5.985   0.577   1.332
 4805SOL    HW115314   5.921   0.645   1.367
 4805SOL    HW215315   6.057   0.622   1.279
 4806SOL     OW15316   1.037   4.677   2.768
 4806SOL    HW115317   0.974   4.620   2.821
 4806SOL    HW215318   1.121   4.690   2.821
 4807SOL     OW15319   1.045   4.952   0.269
 4807SOL    HW115320   1.114   5.022   0.290
 4807SOL    HW215321   0.958   4.977   0.310
 4808SOL     OW15322   6.160   3.684   6.466
 4808SOL    HW115323   6.248   3.688   6.513
 4808SOL    HW215324   6.093   3.740   6.515
 4809SOL     OW15325   3.508   4.314   0.194
 4809SOL    HW115326   3.471   4.378   0.127
 4809SOL    HW215327   3.491   4.221   0.164
 4810SOL     OW15328   0.830   5.207   2.368
 4810SOL    HW115329   0.847   5.256   2.453
 4810SOL    HW215330   0.907   5.146   2.348
 4811SOL     OW15331   1.756   4.621   2.158
 4811SOL    HW115332   1.821   4.603   2.084
 4811SOL    HW215333   1.743   4.538   2.212
 4812SOL     OW15334   7.018   5.076   4.781
 4812SOL    HW115335   0.065   5.056   4.842
 4812SOL    HW215336   6.944   5.011   4.798
 4813SOL     OW15337   5.612   1.773   0.517
 4813SOL    HW115338   5.702   1.772   0.561
 4813SOL    HW215339   5.554   1.841   0.562
 4814SOL     OW15340   6.010   4.104   0.740
 4814SOL    HW115341   5.979   4.111   0.645
 4814SOL    HW215342   5.957   4.034   0.788
 4815SOL     OW15343   5.847   4.327   3.319
 4815SOL    HW115344   5.916   4.277   3.370
 4815SOL    HW215345   5.756   4.296   3.346
 4816SOL     OW15346   0.498   5.267   1.627
 4816SOL    HW115347   0.589   5.258   1.667
 4816SOL    HW215348   0.501   5.244   1.530
 4817SOL     OW15349   1.149   2.438   6.555
 4817SOL    HW115350   1.073   2.442   6.490
 4817SOL    HW215351   1.136   2.509   6.625
 4818SOL     OW15352   1.139   0.536   5.007
 4818SOL    HW115353   1.136   0.473   5.084
 4818SOL    HW215354   1.229   0.531   4.964
 4819SOL     OW15355   1.061   2.272   0.002
 4819SOL    HW115356   1.154   2.293   7.004
 4819SOL    HW215357   1.054   2.276   0.101
 4820SOL     OW15358   6.737   2.607   0.891
 4820SOL    HW115359   6.782   2.658   0.818
 4820SOL    HW215360   6.658   2.658   0.924
 4821SOL     OW15361   1.388   6.274   2.456
 4821SOL    HW115362   1.463   6.239   2.399
 4821SOL    HW215363   1.427   6.329   2.530
 4822SOL     OW15364   1.716   3.055   4.583
 4822SOL    HW115365   1.805   3.069   4.627
 4822SOL    HW215366   1.712   3.107   4.498
 4823SOL     OW15367   1.701   1.133   4.211
 4823SOL    HW115368   1.755   1.063   4.165
 4823SOL    HW215369   1.736   1.223   4.188
 4824SOL     OW15370   4.836   2.675   5.355
 4824SOL    HW115371   4.883   2.589   5.339
 4824SOL    HW215372   4.870   2.745   5.292
 4825SOL     OW15373   1.251   2.529   4.326
 4825SOL    HW115374   1.269   2.559   4.232
 4825SOL    HW215375   1.336   2.525   4.377
 4826SOL     OW15376   5.385   0.393   0.420
 4826SOL    HW115377   5.403   0.457   0.345
 4826SOL    HW215378   5.450   0.317   0.416
 4827SOL     OW15379   6.267   1.548   0.576
 4827SOL    HW115380   6.212   1.486   0.520
 4827SOL    HW215381   6.259   1.522   0.672
 4828SOL     OW15382   4.764   1.364   0.478
 4828SOL    HW115383   4.760   1.399   0.572
 4828SOL    HW215384   4.692   1.406   0.424
 4829SOL     OW15385   3.052   0.290   5.664
 4829SOL    HW115386   3.104   0.204   5.663
 4829SOL    HW215387   3.080   0.345   5.743
 4830SOL     OW15388   3.556   5.784   4.134
 4830SOL    HW115389   3.469   5.737   4.118
 4830SOL    HW215390   3.632   5.720   4.123
 4831SOL     OW15391   1.322   4.596   5.764
 4831SOL    HW115392   1.409   4.641   5.782
 4831SOL    HW215393   1.339   4.502   5.733
 4832SOL     OW15394   3.260   3.994   3.675
 4832SOL    HW115395   3.190   4.007   3.605
 4832SOL    HW215396   3.282   3.896   3.682
 4833SOL     OW15397   6.450   1.478   3.282
 4833SOL    HW115398   6.351   1.469   3.269
 4833SOL    HW215399   6.477   1.430   3.365
 4834SOL     OW15400   2.749   5.577   1.998
 4834SOL    HW115401   2.817   5.636   2.041
 4834SOL    HW215402   2.700   5.627   1.928
 4835SOL     OW15403   5.706   2.766   5.326
 4835SOL    HW115404   5.722   2.676   5.366
 4835SOL    HW215405   5.618   2.766   5.278
 4836SOL     OW15406   5.211   1.699   4.555
 4836SOL    HW115407   5.278   1.636   4.515
 4836SOL    HW215408   5.152   1.736   4.482
 4837SOL     OW15409   0.058   3.184   3.204
 4837SOL    HW115410   0.083   3.135   3.120
 4837SOL    HW215411   6.992   3.165   3.226
 4838SOL     OW15412   2.008   6.197   0.490
 4838SOL    HW115413   1.961   6.166   0.573
 4838SOL    HW215414   2.065   6.276   0.511
 4839SOL     OW15415   0.715   3.438   0.300
 4839SOL    HW115416   0.780   3.362   0.307
 4839SOL    HW215417   0.674   3.456   0.390
 4840SOL     OW15418   6.550   4.533   6.144
 4840SOL    HW115419   6.572   4.538   6.242
 4840SOL    HW215420   6.565   4.622   6.102
 4841SOL     OW15421   2.591   5.325   2.996
 4841SOL    HW115422   2.554   5.262   3.064
 4841SOL    HW215423   2.658   5.385   3.039
 4842SOL     OW15424   2.570   5.031   3.106
 4842SOL    HW115425   2.534   5.067   3.192
 4842SOL    HW215426   2.649   4.973   3.124
 4843SOL     OW15427   6.177   2.367   1.754
 4843SOL    HW115428   6.172   2.388   1.657
 4843SOL    HW215429   6.253   2.303   1.771
 4844SOL     OW15430   0.334   4.081   5.953
 4844SOL    HW115431   0.365   4.032   6.035
 4844SOL    HW215432   0.299   4.015   5.886
 4845SOL     OW15433   4.785   4.834   6.440
 4845SOL    HW115434   4.731   4.902   6.392
 4845SOL    HW215435   4.750   4.821   6.533
 4846SOL     OW15436   0.269   2.459   3.803
 4846SOL    HW115437   0.335   2.473   3.729
 4846SOL    HW215438   0.223   2.371   3.791
 4847SOL     OW15439   2.339   1.289   6.196
 4847SOL    HW115440   2.340   1.246   6.105
 4847SOL    HW215441   2.398   1.370   6.195
 4848SOL     OW15442   2.616   1.037   4.847
 4848SOL    HW115443   2.650   0.989   4.928
 4848SOL    HW215444   2.656   1.129   4.844
 4849SOL     OW15445   1.716   5.482   1.238
 4849SOL    HW115446   1.716   5.571   1.194
 4849SOL    HW215447   1.679   5.491   1.331
 4850SOL     OW15448   4.947   0.864   1.584
 4850SOL    HW115449   4.954   0.793   1.514
 4850SOL    HW215450   4.857   0.908   1.578
 4851SOL     OW15451   2.894   5.591   5.702
 4851SOL    HW115452   2.968   5.589   5.768
 4851SOL    HW215453   2.880   5.499   5.664
 4852SOL     OW15454   2.385   5.761   5.157
 4852SOL    HW115455   2.321   5.724   5.090
 4852SOL    HW215456   2.357   5.854   5.181
 4853SOL     OW15457   3.962   1.358   3.201
 4853SOL    HW115458   3.901   1.437   3.191
 4853SOL    HW215459   3.916   1.276   3.170
 4854SOL     OW15460   5.112   0.185   2.088
 4854SOL    HW115461   5.087   0.250   2.016
 4854SOL    HW215462   5.178   0.228   2.150
 4855SOL     OW15463   6.273   3.450   5.637
 4855SOL    HW115464   6.211   3.524   5.612
 4855SOL    HW215465   6.222   3.365   5.648
 4856SOL     OW15466   1.307   3.085   2.849
 4856SOL    HW115467   1.235   3.143   2.812
 4856SOL    HW215468   1.376   3.142   2.895
 4857SOL     OW15469   2.842   2.167   3.538
 4857SOL    HW115470   2.911   2.199   3.603
 4857SOL    HW215471   2.755   2.211   3.557
 4858SOL     OW15472   6.938   6.523   5.076
 4858SOL    HW115473   6.861   6.476   5.034
 4858SOL    HW215474   6.941   6.618   5.044
 4859SOL     OW15475   0.234   4.749   1.885
 4859SOL    HW115476   0.211   4.662   1.840
 4859SOL    HW215477   0.331   4.748   1.912
 4860SOL     OW15478   4.434   4.544   7.009
 4860SOL    HW115479   4.468   4.474   0.041
 4860SOL    HW215480   4.365   4.505   6.948
 4861SOL     OW15481   5.881   5.624   6.394
 4861SOL    HW115482   5.860   5.710   6.348
 4861SOL    HW215483   5.864   5.548   6.331
 4862SOL     OW15484   2.471   4.725   5.334
 4862SOL    HW115485   2.396   4.741   5.271
 4862SOL    HW215486   2.558   4.742   5.288
 4863SOL     OW15487   5.045   2.819   2.448
 4863SOL    HW115488   5.052   2.724   2.480
 4863SOL    HW215489   5.024   2.819   2.350
 4864SOL     OW15490   3.494   1.455   2.006
 4864SOL    HW115491   3.511   1.553   1.996
 4864SOL    HW215492   3.481   1.414   1.916
 4865SOL     OW15493   2.298   5.652   4.770
 4865SOL    HW115494   2.396   5.669   4.774
 4865SOL    HW215495   2.249   5.733   4.804
 4866SOL     OW15496   5.799   4.493   1.075
 4866SOL    HW115497   5.781   4.518   0.980
 4866SOL    HW215498   5.749   4.409   1.098
 4867SOL     OW15499   4.456   5.676   3.556
 4867SOL    HW115500   4.488   5.596   3.505
 4867SOL    HW215501   4.390   5.648   3.625
 4868SOL     OW15502   6.959   5.296   1.642
 4868SOL    HW115503   6.905   5.332   1.718
 4868SOL    HW215504   0.009   5.353   1.627
 4869SOL     OW15505   0.039   2.346   1.026
 4869SOL    HW115506   0.087   2.422   0.984
 4869SOL    HW215507   0.029   2.363   1.125
 4870SOL     OW15508   5.149   5.272   1.750
 4870SOL    HW115509   5.218   5.345   1.747
 4870SOL    HW215510   5.118   5.252   1.658
 4871SOL     OW15511   0.394   1.160   4.403
 4871SOL    HW115512   0.331   1.093   4.441
 4871SOL    HW215513   0.459   1.114   4.343
 4872SOL     OW15514   0.502   6.160   4.050
 4872SOL    HW115515   0.493   6.212   4.135
 4872SOL    HW215516   0.565   6.084   4.064
 4873SOL     OW15517   0.180   4.872   4.103
 4873SOL    HW115518   0.169   4.933   4.024
 4873SOL    HW215519   0.220   4.923   4.179
 4874SOL     OW15520   5.949   3.612   2.595
 4874SOL    HW115521   6.010   3.679   2.554
 4874SOL    HW215522   5.897   3.655   2.669
 4875SOL     OW15523   5.255   2.287   1.211
 4875SOL    HW115524   5.170   2.317   1.167
 4875SOL    HW215525   5.282   2.198   1.175
 4876SOL     OW15526   6.248   0.740   4.456
 4876SOL    HW115527   6.253   0.646   4.489
 4876SOL    HW215528   6.283   0.745   4.363
 4877SOL     OW15529   6.955   1.576   0.693
 4877SOL    HW115530   6.855   1.584   0.689
 4877SOL    HW215531   6.980   1.480   0.691
 4878SOL     OW15532   5.854   1.952   2.301
 4878SOL    HW115533   5.924   1.936   2.371
 4878SOL    HW215534   5.880   1.906   2.216
 4879SOL     OW15535   4.367   5.538   3.306
 4879SOL    HW115536   4.378   5.637   3.300
 4879SOL    HW215537   4.299   5.508   3.238
 4880SOL     OW15538   5.160   2.998   6.492
 4880SOL    HW115539   5.210   3.050   6.423
 4880SOL    HW215540   5.223   2.936   6.539
 4881SOL     OW15541   2.213   6.043   0.254
 4881SOL    HW115542   2.171   5.974   0.313
 4881SOL    HW215543   2.162   6.128   0.261
 4882SOL     OW15544   6.176   1.391   4.537
 4882SOL    HW115545   6.152   1.295   4.520
 4882SOL    HW215546   6.271   1.398   4.565
 4883SOL     OW15547   5.403   4.584   2.564
 4883SOL    HW115548   5.429   4.670   2.521
 4883SOL    HW215549   5.478   4.518   2.554
 4884SOL     OW15550   4.238   0.253   0.771
 4884SOL    HW115551   4.327   0.220   0.742
 4884SOL    HW215552   4.248   0.344   0.814
 4885SOL     OW15553   2.860   6.349   2.607
 4885SOL    HW115554   2.900   6.440   2.593
 4885SOL    HW215555   2.920   6.295   2.665
 4886SOL     OW15556   0.139   5.705   6.222
 4886SOL    HW115557   0.092   5.761   6.153
 4886SOL    HW215558   0.134   5.750   6.311
 4887SOL     OW15559   0.237   1.742   2.551
 4887SOL    HW115560   0.309   1.735   2.481
 4887SOL    HW215561   0.152   1.703   2.516
 4888SOL     OW15562   1.903   6.389   4.304
 4888SOL    HW115563   1.875   6.440   4.386
 4888SOL    HW215564   1.965   6.315   4.329
 4889SOL     OW15565   0.280   1.498   6.730
 4889SOL    HW115566   0.341   1.568   6.767
 4889SOL    HW215567   0.333   1.434   6.675
 4890SOL     OW15568   0.518   2.491   5.110
 4890SOL    HW115569   0.535   2.490   5.011
 4890SOL    HW215570   0.581   2.556   5.153
 4891SOL     OW15571   1.347   5.887   0.288
 4891SOL    HW115572   1.404   5.967   0.310
 4891SOL    HW215573   1.267   5.916   0.236
 4892SOL     OW15574   2.619   6.040   2.246
 4892SOL    HW115575   2.683   5.964   2.251
 4892SOL    HW215576   2.621   6.079   2.153
 4893SOL     OW15577   6.146   4.578   6.686
 4893SOL    HW115578   6.086   4.585   6.765
 4893SOL    HW215579   6.093   4.552   6.606
 4894SOL     OW15580   2.570   0.743   2.009
 4894SOL    HW115581   2.495   0.767   2.071
 4894SOL    HW215582   2.597   0.823   1.956
 4895SOL     OW15583   0.070   4.740   1.227
 4895SOL    HW115584   0.050   4.830   1.265
 4895SOL    HW215585   0.012   4.724   1.147
 4896SOL     OW15586   2.418   5.394   2.550
 4896SOL    HW115587   2.369   5.373   2.465
 4896SOL    HW215588   2.480   5.319   2.572
 4897SOL     OW15589   2.767   5.390   6.269
 4897SOL    HW115590   2.850   5.443   6.288
 4897SOL    HW215591   2.687   5.451   6.273
 4898SOL     OW15592   5.935   1.668   5.227
 4898SOL    HW115593   5.836   1.672   5.242
 4898SOL    HW215594   5.954   1.674   5.129
 4899SOL     OW15595   6.165   4.623   3.017
 4899SOL    HW115596   6.250   4.670   3.039
 4899SOL    HW215597   6.120   4.595   3.102
 4900SOL     OW15598   1.896   6.324   5.206
 4900SOL    HW115599   1.822   6.336   5.273
 4900SOL    HW215600   1.970   6.387   5.226
 4901SOL     OW15601   2.323   6.724   5.160
 4901SOL    HW115602   2.321   6.801   5.096
 4901SOL    HW215603   2.246   6.663   5.140
 4902SOL     OW15604   2.156   2.440   4.529
 4902SOL    HW115605   2.189   2.534   4.522
 4902SOL    HW215606   2.084   2.425   4.462
 4903SOL     OW15607   3.327   6.770   0.092
 4903SOL    HW115608   3.234   6.737   0.077
 4903SOL    HW215609   3.384   6.695   0.125
 4904SOL     OW15610   1.911   0.270   3.786
 4904SOL    HW115611   1.835   0.317   3.831
 4904SOL    HW215612   1.989   0.267   3.849
 4905SOL     OW15613   4.218   2.177   2.744
 4905SOL    HW115614   4.268   2.264   2.753
 4905SOL    HW215615   4.194   2.142   2.834
 4906SOL     OW15616   3.419   1.013   6.443
 4906SOL    HW115617   3.336   1.059   6.411
 4906SOL    HW215618   3.396   0.953   6.519
 4907SOL     OW15619   4.332   5.965   2.381
 4907SOL    HW115620   4.266   5.939   2.451
 4907SOL    HW215621   4.417   5.914   2.394
 4908SOL     OW15622   3.919   5.186   6.881
 4908SOL    HW115623   3.889   5.146   6.794
 4908SOL    HW215624   3.850   5.250   6.914
 4909SOL     OW15625   6.089   6.868   6.295
 4909SOL    HW115626   6.010   6.833   6.345
 4909SOL    HW215627   6.153   6.793   6.278
 4910SOL     OW15628   5.746   6.917   4.814
 4910SOL    HW115629   5.702   6.856   4.748
 4910SOL    HW215630   5.686   6.995   4.832
 4911SOL     OW15631   6.891   2.562   5.811
 4911SOL    HW115632   6.988   2.569   5.833
 4911SOL    HW215633   6.847   2.651   5.820
 4912SOL     OW15634   5.301   1.664   1.087
 4912SOL    HW115635   5.382   1.612   1.113
 4912SOL    HW215636   5.316   1.707   0.999
 4913SOL     OW15637   3.578   3.538   3.496
 4913SOL    HW115638   3.650   3.573   3.555
 4913SOL    HW215639   3.489   3.549   3.541
 4914SOL     OW15640   3.805   0.870   5.128
 4914SOL    HW115641   3.719   0.872   5.180
 4914SOL    HW215642   3.786   0.849   5.032
 4915SOL     OW15643   4.721   0.973   4.960
 4915SOL    HW115644   4.706   0.939   4.868
 4915SOL    HW215645   4.802   0.928   4.999
 4916SOL     OW15646   1.669   1.466   3.014
 4916SOL    HW115647   1.619   1.379   3.016
 4916SOL    HW215648   1.715   1.476   2.926
 4917SOL     OW15649   1.886   3.802   0.388
 4917SOL    HW115650   1.970   3.853   0.409
 4917SOL    HW215651   1.888   3.714   0.435
 4918SOL     OW15652   3.087   0.274   2.818
 4918SOL    HW115653   3.170   0.244   2.866
 4918SOL    HW215654   3.065   0.367   2.845
 4919SOL     OW15655   2.610   1.995   1.467
 4919SOL    HW115656   2.616   2.053   1.386
 4919SOL    HW215657   2.614   1.899   1.439
 4920SOL     OW15658   3.965   0.457   6.771
 4920SOL    HW115659   3.998   0.477   6.679
 4920SOL    HW215660   4.042   0.454   6.834
 4921SOL     OW15661   1.846   4.137   1.756
 4921SOL    HW115662   1.940   4.138   1.789
 4921SOL    HW215663   1.844   4.107   1.660
 4922SOL     OW15664   1.037   3.228   5.078
 4922SOL    HW115665   0.971   3.195   5.011
 4922SOL    HW215666   1.108   3.281   5.030
 4923SOL     OW15667   4.412   0.651   1.136
 4923SOL    HW115668   4.405   0.708   1.055
 4923SOL    HW215669   4.333   0.667   1.195
 4924SOL     OW15670   2.072   2.779   6.096
 4924SOL    HW115671   2.055   2.859   6.038
 4924SOL    HW215672   1.986   2.749   6.138
 4925SOL     OW15673   6.502   6.410   0.382
 4925SOL    HW115674   6.580   6.451   0.429
 4925SOL    HW215675   6.531   6.372   0.294
 4926SOL     OW15676   5.342   2.953   1.538
 4926SOL    HW115677   5.315   2.986   1.628
 4926SOL    HW215678   5.283   2.993   1.468
 4927SOL     OW15679   4.130   3.248   3.841
 4927SOL    HW115680   4.053   3.226   3.902
 4927SOL    HW215681   4.213   3.203   3.874
 4928SOL     OW15682   0.516   6.838   6.525
 4928SOL    HW115683   0.594   6.859   6.465
 4928SOL    HW215684   0.469   6.757   6.490
 4929SOL     OW15685   1.239   4.180   5.450
 4929SOL    HW115686   1.197   4.270   5.442
 4929SOL    HW215687   1.338   4.190   5.458
 4930SOL     OW15688   6.766   0.149   1.316
 4930SOL    HW115689   6.720   0.074   1.269
 4930SOL    HW215690   6.817   0.204   1.250
 4931SOL     OW15691   0.862   6.577   0.459
 4931SOL    HW115692   0.923   6.629   0.519
 4931SOL    HW215693   0.846   6.487   0.498
 4932SOL     OW15694   2.228   3.391   1.612
 4932SOL    HW115695   2.308   3.414   1.668
 4932SOL    HW215696   2.145   3.410   1.664
 4933SOL     OW15697   2.617   0.410   4.323
 4933SOL    HW115698   2.613   0.507   4.348
 4933SOL    HW215699   2.640   0.402   4.226
 4934SOL     OW15700   1.405   5.231   3.954
 4934SOL    HW115701   1.451   5.205   4.038
 4934SOL    HW215702   1.372   5.149   3.906
 4935SOL     OW15703   0.859   1.156   0.029
 4935SOL    HW115704   0.825   1.175   0.122
 4935SOL    HW215705   0.784   1.169   6.994
 4936SOL     OW15706   1.910   5.184   2.075
 4936SOL    HW115707   1.901   5.084   2.077
 4936SOL    HW215708   1.881   5.218   1.985
 4937SOL     OW15709   0.747   3.961   6.038
 4937SOL    HW115710   0.658   3.945   5.994
 4937SOL    HW215711   0.737   4.035   6.105
 4938SOL     OW15712   3.512   5.194   1.704
 4938SOL    HW115713   3.502   5.230   1.797
 4938SOL    HW215714   3.503   5.094   1.706
 4939SOL     OW15715   1.407   2.114   3.469
 4939SOL    HW115716   1.443   2.172   3.542
 4939SOL    HW215717   1.468   2.117   3.390
 4940SOL     OW15718   6.992   1.338   5.625
 4940SOL    HW115719   0.024   1.405   5.664
 4940SOL    HW215720   0.010   1.284   5.555
 4941SOL     OW15721   4.153   2.767   5.347
 4941SOL    HW115722   4.099   2.849   5.328
 4941SOL    HW215723   4.170   2.718   5.261
 4942SOL     OW15724   5.219   3.048   4.472
 4942SOL    HW115725   5.290   2.981   4.494
 4942SOL    HW215726   5.218   3.119   4.542
 4943SOL     OW15727   4.843   4.096   6.211
 4943SOL    HW115728   4.776   4.122   6.281
 4943SOL    HW215729   4.796   4.045   6.138
 4944SOL     OW15730   2.466   4.256   1.685
 4944SOL    HW115731   2.426   4.194   1.753
 4944SOL    HW215732   2.434   4.350   1.703
 4945SOL     OW15733   1.048   0.260   4.841
 4945SOL    HW115734   1.035   0.264   4.940
 4945SOL    HW215735   0.965   0.225   4.798
 4946SOL     OW15736   1.074   5.264   0.109
 4946SOL    HW115737   0.980   5.231   0.114
 4946SOL    HW215738   1.136   5.190   0.136
 4947SOL     OW15739   2.454   1.318   1.432
 4947SOL    HW115740   2.458   1.234   1.377
 4947SOL    HW215741   2.434   1.294   1.527
 4948SOL     OW15742   2.036   2.836   3.185
 4948SOL    HW115743   2.104   2.788   3.129
 4948SOL    HW215744   2.022   2.928   3.148
 4949SOL     OW15745   0.326   3.958   5.028
 4949SOL    HW115746   0.267   3.932   4.952
 4949SOL    HW215747   0.295   4.045   5.066
 4950SOL     OW15748   2.249   4.236   5.713
 4950SOL    HW115749   2.183   4.306   5.685
 4950SOL    HW215750   2.342   4.268   5.695
 4951SOL     OW15751   6.512   6.536   4.695
 4951SOL    HW115752   6.561   6.452   4.672
 4951SOL    HW215753   6.419   6.531   4.659
 4952SOL     OW15754   0.555   6.728   6.148
 4952SOL    HW115755   0.542   6.827   6.161
 4952SOL    HW215756   0.496   6.697   6.074
 4953SOL     OW15757   1.624   0.096   3.089
 4953SOL    HW115758   1.611   7.028   3.074
 4953SOL    HW215759   1.720   0.119   3.071
 4954SOL     OW15760   3.110   3.542   6.425
 4954SOL    HW115761   3.043   3.543   6.500
 4954SOL    HW215762   3.106   3.629   6.376
 4955SOL     OW15763   3.194   6.431   0.315
 4955SOL    HW115764   3.233   6.429   0.223
 4955SOL    HW215765   3.095   6.421   0.310
 4956SOL     OW15766   2.636   0.208   5.117
 4956SOL    HW115767   2.705   0.168   5.057
 4956SOL    HW215768   2.667   0.297   5.150
 4957SOL     OW15769   5.317   3.238   0.497
 4957SOL    HW115770   5.253   3.300   0.451
 4957SOL    HW215771   5.272   3.152   0.518
 4958SOL     OW15772   1.697   5.764   6.069
 4958SOL    HW115773   1.632   5.800   6.136
 4958SOL    HW215774   1.751   5.839   6.032
 4959SOL     OW15775   6.207   1.263   1.138
 4959SOL    HW115776   6.165   1.176   1.164
 4959SOL    HW215777   6.137   1.325   1.103
 4960SOL     OW15778   4.403   4.816   4.095
 4960SOL    HW115779   4.442   4.730   4.061
 4960SOL    HW215780   4.329   4.795   4.159
 4961SOL     OW15781   2.920   0.316   6.215
 4961SOL    HW115782   3.001   0.361   6.176
 4961SOL    HW215783   2.901   0.232   6.164
 4962SOL     OW15784   5.570   2.533   0.865
 4962SOL    HW115785   5.496   2.597   0.884
 4962SOL    HW215786   5.653   2.563   0.911
 4963SOL     OW15787   1.123   5.188   0.591
 4963SOL    HW115788   1.096   5.096   0.622
 4963SOL    HW215789   1.133   5.188   0.491
 4964SOL     OW15790   2.550   0.012   4.302
 4964SOL    HW115791   2.584   0.082   4.364
 4964SOL    HW215792   2.489   6.980   4.351
 4965SOL     OW15793   1.221   6.634   2.543
 4965SOL    HW115794   1.306   6.641   2.596
 4965SOL    HW215795   1.243   6.623   2.446
 4966SOL     OW15796   2.867   6.541   5.078
 4966SOL    HW115797   2.933   6.470   5.103
 4966SOL    HW215798   2.840   6.592   5.160
 4967SOL     OW15799   2.815   5.301   5.665
 4967SOL    HW115800   2.744   5.316   5.596
 4967SOL    HW215801   2.774   5.305   5.756
 4968SOL     OW15802   0.394   1.458   3.676
 4968SOL    HW115803   0.493   1.446   3.679
 4968SOL    HW215804   0.369   1.509   3.594
 4969SOL     OW15805   1.313   6.086   2.724
 4969SOL    HW115806   1.237   6.087   2.789
 4969SOL    HW215807   1.276   6.091   2.631
 4970SOL     OW15808   2.352   1.540   1.279
 4970SOL    HW115809   2.320   1.622   1.327
 4970SOL    HW215810   2.392   1.476   1.345
 4971SOL     OW15811   6.424   5.766   3.103
 4971SOL    HW115812   6.522   5.756   3.084
 4971SOL    HW215813   6.407   5.856   3.143
 4972SOL     OW15814   0.645   4.063   0.855
 4972SOL    HW115815   0.696   4.149   0.867
 4972SOL    HW215816   0.563   4.081   0.800
 4973SOL     OW15817   0.669   0.215   1.773
 4973SOL    HW115818   0.570   0.209   1.761
 4973SOL    HW215819   0.713   0.135   1.731
 4974SOL     OW15820   6.105   5.026   0.689
 4974SOL    HW115821   6.105   5.063   0.596
 4974SOL    HW215822   6.159   5.086   0.749
 4975SOL     OW15823   5.539   3.945   6.946
 4975SOL    HW115824   5.507   3.854   6.918
 4975SOL    HW215825   5.506   4.013   6.880
 4976SOL     OW15826   1.264   1.206   4.360
 4976SOL    HW115827   1.185   1.183   4.304
 4976SOL    HW215828   1.348   1.192   4.307
 4977SOL     OW15829   4.409   5.054   0.025
 4977SOL    HW115830   4.334   5.067   0.090
 4977SOL    HW215831   4.377   5.002   6.976
 4978SOL     OW15832   5.506   4.742   4.357
 4978SOL    HW115833   5.407   4.753   4.348
 4978SOL    HW215834   5.544   4.714   4.269
 4979SOL     OW15835   6.851   6.520   5.964
 4979SOL    HW115836   6.805   6.502   5.877
 4979SOL    HW215837   6.791   6.494   6.039
 4980SOL     OW15838   5.360   5.347   3.191
 4980SOL    HW115839   5.282   5.385   3.240
 4980SOL    HW215840   5.380   5.255   3.226
 4981SOL     OW15841   3.731   5.047   2.480
 4981SOL    HW115842   3.792   5.116   2.440
 4981SOL    HW215843   3.743   4.961   2.431
 4982SOL     OW15844   3.232   2.262   5.793
 4982SOL    HW115845   3.137   2.284   5.812
 4982SOL    HW215846   3.260   2.308   5.708
 4983SOL     OW15847   5.868   3.736   4.839
 4983SOL    HW115848   5.939   3.800   4.868
 4983SOL    HW215849   5.857   3.742   4.739
 4984SOL     OW15850   4.932   3.474   2.679
 4984SOL    HW115851   4.965   3.495   2.771
 4984SOL    HW215852   4.902   3.378   2.676
 4985SOL     OW15853   5.754   6.741   3.112
 4985SOL    HW115854   5.722   6.653   3.145
 4985SOL    HW215855   5.815   6.727   3.033
 4986SOL     OW15856   6.459   5.076   0.514
 4986SOL    HW115857   6.551   5.105   0.540
 4986SOL    HW215858   6.392   5.138   0.553
 4987SOL     OW15859   1.228   6.591   2.256
 4987SOL    HW115860   1.275   6.514   2.212
 4987SOL    HW215861   1.147   6.557   2.305
 4988SOL     OW15862   6.256   0.976   2.397
 4988SOL    HW115863   6.211   1.053   2.351
 4988SOL    HW215864   6.187   0.917   2.439
 4989SOL     OW15865   5.531   6.843   1.316
 4989SOL    HW115866   5.484   6.887   1.239
 4989SOL    HW215867   5.537   6.906   1.393
 4990SOL     OW15868   2.769   2.097   6.031
 4990SOL    HW115869   2.756   2.030   5.958
 4990SOL    HW215870   2.867   2.109   6.048
 4991SOL     OW15871   6.220   5.172   4.115
 4991SOL    HW115872   6.287   5.186   4.041
 4991SOL    HW215873   6.128   5.179   4.078
 4992SOL     OW15874   5.255   0.530   2.058
 4992SOL    HW115875   5.346   0.569   2.043
 4992SOL    HW215876   5.261   0.454   2.123
 4993SOL     OW15877   3.641   6.340   4.857
 4993SOL    HW115878   3.579   6.359   4.781
 4993SOL    HW215879   3.725   6.391   4.845
 4994SOL     OW15880   2.324   6.893   4.392
 4994SOL    HW115881   2.251   6.857   4.335
 4994SOL    HW215882   2.286   6.917   4.482
 4995SOL     OW15883   0.898   1.912   5.689
 4995SOL    HW115884   0.917   1.839   5.624
 4995SOL    HW215885   0.799   1.923   5.699
 4996SOL     OW15886   0.345   0.792   2.874
 4996SOL    HW115887   0.336   0.712   2.933
 4996SOL    HW215888   0.289   0.779   2.792
 4997SOL     OW15889   4.259   2.301   2.308
 4997SOL    HW115890   4.329   2.268   2.371
 4997SOL    HW215891   4.289   2.389   2.269
 4998SOL     OW15892   1.786   3.997   4.666
 4998SOL    HW115893   1.834   3.925   4.716
 4998SOL    HW215894   1.757   3.962   4.577
 4999SOL     OW15895   6.855   3.274   4.968
 4999SOL    HW115896   6.853   3.193   5.028
 4999SOL    HW215897   6.766   3.319   4.971
 5000SOL     OW15898   2.981   0.273   3.604
 5000SOL    HW115899   3.023   0.193   3.647
 5000SOL    HW215900   2.886   0.252   3.579
 5001SOL     OW15901   1.012   5.337   2.037
 5001SOL    HW115902   1.033   5.434   2.055
 5001SOL    HW215903   0.921   5.316   2.072
 5002SOL     OW15904   0.668   3.648   2.107
 5002SOL    HW115905   0.594   3.647   2.174
 5002SOL    HW215906   0.740   3.584   2.135
 5003SOL     OW15907   2.989   6.000   3.376
 5003SOL    HW115908   2.957   6.022   3.284
 5003SOL    HW215909   2.959   5.908   3.400
 5004SOL     OW15910   2.422   4.675   5.815
 5004SOL    HW115911   2.378   4.649   5.730
 5004SOL    HW215912   2.461   4.594   5.859
 5005SOL     OW15913   3.523   3.180   6.977
 5005SOL    HW115914   3.443   3.238   6.963
 5005SOL    HW215915   3.602   3.237   7.002
 5006SOL     OW15916   5.315   0.664   1.579
 5006SOL    HW115917   5.370   0.735   1.621
 5006SOL    HW215918   5.253   0.624   1.647
 5007SOL     OW15919   0.308   6.919   1.549
 5007SOL    HW115920   0.298   6.984   1.474
 5007SOL    HW215921   0.332   6.829   1.513
 5008SOL     OW15922   6.016   5.821   2.111
 5008SOL    HW115923   5.951   5.773   2.052
 5008SOL    HW215924   5.970   5.850   2.195
 5009SOL     OW15925   0.216   2.216   0.065
 5009SOL    HW115926   0.209   2.153   7.018
 5009SOL    HW215927   0.273   2.294   0.039
 5010SOL     OW15928   4.299   2.732   1.017
 5010SOL    HW115929   4.340   2.642   1.034
 5010SOL    HW215930   4.291   2.747   0.918
 5011SOL     OW15931   1.148   4.714   1.675
 5011SOL    HW115932   1.235   4.684   1.714
 5011SOL    HW215933   1.152   4.813   1.657
 5012SOL     OW15934   6.032   3.032   5.008
 5012SOL    HW115935   6.115   3.077   4.975
 5012SOL    HW215936   6.008   3.069   5.098
 5013SOL     OW15937   5.211   1.736   6.305
 5013SOL    HW115938   5.225   1.785   6.391
 5013SOL    HW215939   5.113   1.731   6.285
 5014SOL     OW15940   5.639   4.276   1.085
 5014SOL    HW115941   5.606   4.261   0.992
 5014SOL    HW215942   5.681   4.192   1.119
 5015SOL     OW15943   5.244   1.528   5.110
 5015SOL    HW115944   5.218   1.526   5.013
 5015SOL    HW215945   5.258   1.623   5.138
 5016SOL     OW15946   1.976   2.938   5.386
 5016SOL    HW115947   2.014   2.914   5.475
 5016SOL    HW215948   2.034   3.006   5.341
 5017SOL     OW15949   2.271   2.642   1.330
 5017SOL    HW115950   2.189   2.586   1.336
 5017SOL    HW215951   2.285   2.691   1.416
 5018SOL     OW15952   1.074   4.741   2.471
 5018SOL    HW115953   1.173   4.745   2.482
 5018SOL    HW215954   1.032   4.702   2.553
 5019SOL     OW15955   1.531   5.800   5.832
 5019SOL    HW115956   1.583   5.779   5.914
 5019SOL    HW215957   1.434   5.779   5.847
 5020SOL     OW15958   5.693   0.030   6.220
 5020SOL    HW115959   5.688   0.088   6.138
 5020SOL    HW215960   5.698   6.964   6.193
 5021SOL     OW15961   1.067   1.316   0.266
 5021SOL    HW115962   1.088   1.363   0.351
 5021SOL    HW215963   1.132   1.242   0.251
 5022SOL     OW15964   2.390   2.604   1.092
 5022SOL    HW115965   2.348   2.622   1.181
 5022SOL    HW215966   2.396   2.505   1.077
 5023SOL     OW15967   0.246   3.263   1.630
 5023SOL    HW115968   0.211   3.322   1.558
 5023SOL    HW215969   0.182   3.188   1.646
 5024SOL     OW15970   5.863   5.706   1.572
 5024SOL    HW115971   5.818   5.723   1.485
 5024SOL    HW215972   5.863   5.791   1.626
 5025SOL     OW15973   4.309   2.081   3.760
 5025SOL    HW115974   4.379   2.067   3.830
 5025SOL    HW215975   4.295   1.995   3.710
 5026SOL     OW15976   6.566   6.214   5.469
 5026SOL    HW115977   6.488   6.151   5.472
 5026SOL    HW215978   6.602   6.228   5.562
 5027SOL     OW15979   6.458   6.591   1.509
 5027SOL    HW115980   6.409   6.505   1.496
 5027SOL    HW215981   6.528   6.600   1.438
 5028SOL     OW15982   0.560   1.817   2.723
 5028SOL    HW115983   0.660   1.811   2.724
 5028SOL    HW215984   0.528   1.822   2.629
 5029SOL     OW15985   6.335   2.636   2.369
 5029SOL    HW115986   6.356   2.733   2.352
 5029SOL    HW215987   6.340   2.585   2.283
 5030SOL     OW15988   0.325   6.165   6.274
 5030SOL    HW115989   0.283   6.244   6.318
 5030SOL    HW215990   0.318   6.086   6.335
 5031SOL     OW15991   6.702   1.180   6.125
 5031SOL    HW115992   6.739   1.104   6.071
 5031SOL    HW215993   6.622   1.219   6.078
 5032SOL     OW15994   2.330   2.462   5.910
 5032SOL    HW115995   2.301   2.397   5.839
 5032SOL    HW215996   2.427   2.448   5.929
 5033SOL     OW15997   2.138   6.884   5.851
 5033SOL    HW115998   2.219   6.865   5.907
 5033SOL    HW215999   2.056   6.873   5.907
 5034SOL     OW16000   5.800   6.943   3.339
 5034SOL    HW116001   5.748   6.891   3.272
 5034SOL    HW216002   5.890   6.900   3.353
 5035SOL     OW16003   0.289   4.199   6.298
 5035SOL    HW116004   0.321   4.112   6.260
 5035SOL    HW216005   0.367   4.250   6.336
 5036SOL     OW16006   0.342   5.073   6.732
 5036SOL    HW116007   0.407   5.032   6.796
 5036SOL    HW216008   0.280   5.134   6.782
 5037SOL     OW16009   4.913   4.412   1.787
 5037SOL    HW116010   4.986   4.448   1.846
 5037SOL    HW216011   4.883   4.323   1.822
 5038SOL     OW16012   3.150   3.618   5.701
 5038SOL    HW116013   3.078   3.685   5.713
 5038SOL    HW216014   3.233   3.649   5.747
 5039SOL     OW16015   2.253   4.364   5.948
 5039SOL    HW116016   2.223   4.327   6.036
 5039SOL    HW216017   2.244   4.295   5.877
 5040SOL     OW16018   1.399   6.885   6.357
 5040SOL    HW116019   1.422   6.866   6.452
 5040SOL    HW216020   1.318   6.832   6.332
 5041SOL     OW16021   1.204   1.721   2.491
 5041SOL    HW116022   1.246   1.739   2.580
 5041SOL    HW216023   1.227   1.629   2.461
 5042SOL     OW16024   6.341   3.598   0.065
 5042SOL    HW116025   6.266   3.534   0.080
 5042SOL    HW216026   6.408   3.557   0.004
 5043SOL     OW16027   3.311   6.926   6.634
 5043SOL    HW116028   3.357   6.900   6.549
 5043SOL    HW216029   3.371   6.986   6.687
 5044SOL     OW16030   0.799   6.329   0.545
 5044SOL    HW116031   0.841   6.238   0.541
 5044SOL    HW216032   0.700   6.320   0.529
 5045SOL     OW16033   5.669   6.959   6.483
 5045SOL    HW116034   5.606   6.995   6.552
 5045SOL    HW216035   5.672   7.021   6.404
 5046SOL     OW16036   3.400   4.120   2.684
 5046SOL    HW116037   3.480   4.094   2.632
 5046SOL    HW216038   3.361   4.204   2.648
 5047SOL     OW16039   1.079   4.428   2.431
 5047SOL    HW116040   1.058   4.346   2.378
 5047SOL    HW216041   1.175   4.451   2.418
 5048SOL     OW16042   1.211   1.478   2.351
 5048SOL    HW116043   1.215   1.406   2.421
 5048SOL    HW216044   1.286   1.464   2.286
 5049SOL     OW16045   5.067   1.981   6.882
 5049SOL    HW116046   4.987   1.938   6.926
 5049SOL    HW216047   5.039   2.067   6.839
 5050SOL     OW16048   2.009   0.664   1.414
 5050SOL    HW116049   1.934   0.632   1.472
 5050SOL    HW216050   1.975   0.729   1.347
 5051SOL     OW16051   4.056   4.419   0.918
 5051SOL    HW116052   4.141   4.468   0.935
 5051SOL    HW216053   4.011   4.458   0.837
 5052SOL     OW16054   2.466   0.686   6.102
 5052SOL    HW116055   2.380   0.730   6.128
 5052SOL    HW216056   2.480   0.696   6.003
 5053SOL     OW16057   2.010   3.859   4.072
 5053SOL    HW116058   1.984   3.866   3.976
 5053SOL    HW216059   1.928   3.845   4.128
 5054SOL     OW16060   3.466   4.965   4.311
 5054SOL    HW116061   3.378   4.919   4.325
 5054SOL    HW216062   3.464   5.055   4.355
 5055SOL     OW16063   1.450   2.598   5.375
 5055SOL    HW116064   1.490   2.675   5.325
 5055SOL    HW216065   1.350   2.604   5.370
 5056SOL     OW16066   5.409   4.135   6.757
 5056SOL    HW116067   5.380   4.186   6.676
 5056SOL    HW216068   5.332   4.080   6.791
 5057SOL     OW16069   6.903   6.164   3.681
 5057SOL    HW116070   6.997   6.146   3.653
 5057SOL    HW216071   6.889   6.263   3.689
 5058SOL     OW16072   3.257   4.168   5.455
 5058SOL    HW116073   3.250   4.268   5.455
 5058SOL    HW216074   3.171   4.128   5.486
 5059SOL     OW16075   6.851   1.247   3.024
 5059SOL    HW116076   6.846   1.191   2.942
 5059SOL    HW216077   6.867   1.343   2.998
 5060SOL     OW16078   0.600   2.113   5.883
 5060SOL    HW116079   0.698   2.131   5.884
 5060SOL    HW216080   0.576   2.067   5.798
 5061SOL     OW16081   4.900   2.830   0.935
 5061SOL    HW116082   4.846   2.911   0.910
 5061SOL    HW216083   4.997   2.851   0.927
 5062SOL     OW16084   5.888   0.233   2.934
 5062SOL    HW116085   5.824   0.242   3.011
 5062SOL    HW216086   5.852   0.166   2.869
 5063SOL     OW16087   0.953   6.939   2.288
 5063SOL    HW116088   0.960   6.970   2.383
 5063SOL    HW216089   0.960   7.018   2.227
 5064SOL     OW16090   5.332   3.691   1.007
 5064SOL    HW116091   5.383   3.616   1.049
 5064SOL    HW216092   5.265   3.726   1.073
 5065SOL     OW16093   2.373   1.057   4.517
 5065SOL    HW116094   2.383   1.066   4.616
 5065SOL    HW216095   2.398   0.964   4.489
 5066SOL     OW16096   5.095   4.715   2.490
 5066SOL    HW116097   5.180   4.666   2.474
 5066SOL    HW216098   5.099   4.762   2.578
 5067SOL     OW16099   4.488   0.816   1.472
 5067SOL    HW116100   4.557   0.842   1.405
 5067SOL    HW216101   4.532   0.765   1.546
 5068SOL     OW16102   2.456   3.732   0.959
 5068SOL    HW116103   2.452   3.642   0.916
 5068SOL    HW216104   2.546   3.746   0.999
 5069SOL     OW16105   1.861   3.838   5.556
 5069SOL    HW116106   1.845   3.914   5.619
 5069SOL    HW216107   1.947   3.792   5.581
 5070SOL     OW16108   5.128   3.968   4.270
 5070SOL    HW116109   5.137   3.913   4.353
 5070SOL    HW216110   5.032   3.970   4.241
 5071SOL     OW16111   4.560   2.612   4.424
 5071SOL    HW116112   4.603   2.682   4.367
 5071SOL    HW216113   4.541   2.531   4.370
 5072SOL     OW16114   1.123   6.994   1.029
 5072SOL    HW116115   1.178   6.911   1.024
 5072SOL    HW216116   1.165   0.029   1.092
 5073SOL     OW16117   7.007   5.932   2.676
 5073SOL    HW116118   6.966   6.018   2.644
 5073SOL    HW216119   0.076   5.937   2.666
 5074SOL     OW16120   3.119   3.065   0.791
 5074SOL    HW116121   3.062   3.029   0.865
 5074SOL    HW216122   3.169   3.146   0.822
 5075SOL     OW16123   1.578   1.899   6.897
 5075SOL    HW116124   1.580   1.922   6.799
 5075SOL    HW216125   1.532   1.811   6.910
 5076SOL     OW16126   3.777   1.176   0.489
 5076SOL    HW116127   3.811   1.264   0.523
 5076SOL    HW216128   3.817   1.157   0.400
 5077SOL     OW16129   0.888   3.774   5.622
 5077SOL    HW116130   0.924   3.837   5.554
 5077SOL    HW216131   0.879   3.821   5.710
 5078SOL     OW16132   1.712   1.618   3.958
 5078SOL    HW116133   1.758   1.657   4.038
 5078SOL    HW216134   1.771   1.625   3.878
 5079SOL     OW16135   2.107   3.734   5.641
 5079SOL    HW116136   2.159   3.689   5.568
 5079SOL    HW216137   2.096   3.671   5.717
 5080SOL     OW16138   6.226   6.645   6.063
 5080SOL    HW116139   6.258   6.626   6.155
 5080SOL    HW216140   6.228   6.744   6.047
 5081SOL     OW16141   3.479   2.996   3.987
 5081SOL    HW116142   3.469   3.005   3.888
 5081SOL    HW216143   3.562   2.944   4.007
 5082SOL     OW16144   5.282   5.858   6.370
 5082SOL    HW116145   5.247   5.773   6.408
 5082SOL    HW216146   5.332   5.838   6.285
 5083SOL     OW16147   2.761   0.244   3.155
 5083SOL    HW116148   2.798   0.337   3.164
 5083SOL    HW216149   2.833   0.178   3.175
 5084SOL     OW16150   0.752   4.466   4.155
 5084SOL    HW116151   0.733   4.540   4.090
 5084SOL    HW216152   0.667   4.420   4.180
 5085SOL     OW16153   4.695   3.381   6.259
 5085SOL    HW116154   4.769   3.447   6.267
 5085SOL    HW216155   4.692   3.344   6.166
 5086SOL     OW16156   6.992   5.709   3.196
 5086SOL    HW116157   6.908   5.757   3.221
 5086SOL    HW216158   6.974   5.610   3.192
 5087SOL     OW16159   0.332   5.036   2.978
 5087SOL    HW116160   0.279   4.971   3.033
 5087SOL    HW216161   0.419   5.055   3.023
 5088SOL     OW16162   6.134   1.890   4.666
 5088SOL    HW116163   6.157   1.794   4.677
 5088SOL    HW216164   6.046   1.909   4.710
 5089SOL     OW16165   5.225   3.216   3.430
 5089SOL    HW116166   5.210   3.119   3.411
 5089SOL    HW216167   5.263   3.227   3.521
 5090SOL     OW16168   1.738   3.345   2.852
 5090SOL    HW116169   1.811   3.288   2.814
 5090SOL    HW216170   1.755   3.441   2.831
 5091SOL     OW16171   1.723   6.564   2.408
 5091SOL    HW116172   1.804   6.545   2.352
 5091SOL    HW216173   1.694   6.480   2.455
 5092SOL     OW16174   3.677   2.973   1.285
 5092SOL    HW116175   3.707   2.878   1.276
 5092SOL    HW216176   3.738   3.021   1.348
 5093SOL     OW16177   2.953   1.558   1.186
 5093SOL    HW116178   3.032   1.582   1.129
 5093SOL    HW216179   2.913   1.473   1.151
 5094SOL     OW16180   1.686   6.377   5.369
 5094SOL    HW116181   1.596   6.355   5.405
 5094SOL    HW216182   1.730   6.446   5.426
 5095SOL     OW16183   0.339   2.697   4.825
 5095SOL    HW116184   0.338   2.781   4.879
 5095SOL    HW216185   0.247   2.677   4.792
 5096SOL     OW16186   4.399   3.623   0.678
 5096SOL    HW116187   4.341   3.560   0.627
 5096SOL    HW216188   4.383   3.611   0.776
 5097SOL     OW16189   1.624   0.462   0.006
 5097SOL    HW116190   1.625   0.399   0.084
 5097SOL    HW216191   1.618   0.409   6.951
 5098SOL     OW16192   1.487   0.682   1.285
 5098SOL    HW116193   1.535   0.768   1.267
 5098SOL    HW216194   1.488   0.663   1.383
 5099SOL     OW16195   1.036   6.413   6.512
 5099SOL    HW116196   1.032   6.430   6.610
 5099SOL    HW216197   0.948   6.436   6.470
 5100SOL     OW16198   4.418   6.162   5.117
 5100SOL    HW116199   4.513   6.141   5.141
 5100SOL    HW216200   4.417   6.228   5.042
 5101SOL     OW16201   4.041   6.693   0.326
 5101SOL    HW116202   4.084   6.698   0.236
 5101SOL    HW216203   4.036   6.784   0.366
 5102SOL     OW16204   6.268   0.446   5.002
 5102SOL    HW116205   6.288   0.522   5.063
 5102SOL    HW216206   6.331   0.370   5.021
 5103SOL     OW16207   0.516   0.650   3.906
 5103SOL    HW116208   0.465   0.588   3.964
 5103SOL    HW216209   0.465   0.735   3.892
 5104SOL     OW16210   2.146   6.780   2.440
 5104SOL    HW116211   2.246   6.786   2.432
 5104SOL    HW216212   2.106   6.779   2.349
 5105SOL     OW16213   3.575   2.590   6.779
 5105SOL    HW116214   3.650   2.541   6.733
 5105SOL    HW216215   3.613   2.664   6.834
 5106SOL     OW16216   3.343   0.801   1.429
 5106SOL    HW116217   3.399   0.749   1.364
 5106SOL    HW216218   3.308   0.884   1.384
 5107SOL     OW16219   4.371   0.804   0.913
 5107SOL    HW116220   4.292   0.847   0.869
 5107SOL    HW216221   4.430   0.764   0.844
 5108SOL     OW16222   2.996   3.828   3.901
 5108SOL    HW116223   3.000   3.731   3.924
 5108SOL    HW216224   2.987   3.881   3.985
 5109SOL     OW16225   1.193   0.814   0.813
 5109SOL    HW116226   1.282   0.811   0.767
 5109SOL    HW216227   1.187   0.897   0.868
 5110SOL     OW16228   0.804   0.321   6.397
 5110SOL    HW116229   0.749   0.380   6.338
 5110SOL    HW216230   0.746   0.251   6.438
 5111SOL     OW16231   1.781   0.823   5.649
 5111SOL    HW116232   1.796   0.740   5.595
 5111SOL    HW216233   1.683   0.843   5.652
 5112SOL     OW16234   0.991   0.009   2.546
 5112SOL    HW116235   1.089   7.019   2.540
 5112SOL    HW216236   0.974   0.069   2.624
 5113SOL     OW16237   2.246   0.199   2.237
 5113SOL    HW116238   2.324   0.194   2.174
 5113SOL    HW216239   2.165   0.232   2.187
 5114SOL     OW16240   3.429   2.416   6.971
 5114SOL    HW116241   3.428   2.465   0.028
 5114SOL    HW216242   3.479   2.470   6.903
 5115SOL     OW16243   2.121   5.073   4.916
 5115SOL    HW116244   2.085   5.107   5.002
 5115SOL    HW216245   2.049   5.072   4.847
 5116SOL     OW16246   5.336   6.431   6.695
 5116SOL    HW116247   5.238   6.428   6.714
 5116SOL    HW216248   5.352   6.477   6.608
 5117SOL     OW16249   2.086   4.588   4.710
 5117SOL    HW116250   2.005   4.647   4.707
 5117SOL    HW216251   2.058   4.496   4.737
 5118SOL     OW16252   4.334   6.827   0.265
 5118SOL    HW116253   4.348   6.737   0.306
 5118SOL    HW216254   4.238   6.839   0.242
 5119SOL     OW16255   5.183   1.134   1.877
 5119SOL    HW116256   5.189   1.076   1.796
 5119SOL    HW216257   5.147   1.081   1.954
 5120SOL     OW16258   4.770   1.276   3.502
 5120SOL    HW116259   4.673   1.283   3.527
 5120SOL    HW216260   4.826   1.265   3.584
 5121SOL     OW16261   2.388   2.603   0.044
 5121SOL    HW116262   2.347   2.646   0.125
 5121SOL    HW216263   2.341   2.517   0.025
 5122SOL     OW16264   3.501   0.580   4.268
 5122SOL    HW116265   3.509   0.482   4.286
 5122SOL    HW216266   3.546   0.631   4.342
 5123SOL     OW16267   5.770   2.635   4.638
 5123SOL    HW116268   5.861   2.677   4.646
 5123SOL    HW216269   5.772   2.566   4.565
 5124SOL     OW16270   2.672   5.182   5.191
 5124SOL    HW116271   2.754   5.128   5.175
 5124SOL    HW216272   2.593   5.121   5.203
 5125SOL     OW16273   6.278   3.254   4.526
 5125SOL    HW116274   6.229   3.200   4.594
 5125SOL    HW216275   6.228   3.340   4.510
 5126SOL     OW16276   6.210   5.208   6.225
 5126SOL    HW116277   6.117   5.213   6.260
 5126SOL    HW216278   6.230   5.291   6.172
 5127SOL     OW16279   6.766   3.815   0.162
 5127SOL    HW116280   6.724   3.763   0.236
 5127SOL    HW216281   6.711   3.806   0.079
 5128SOL     OW16282   0.197   6.628   6.943
 5128SOL    HW116283   0.120   6.650   6.884
 5128SOL    HW216284   0.257   6.709   6.950
 5129SOL     OW16285   4.865   0.280   3.070
 5129SOL    HW116286   4.886   0.326   3.156
 5129SOL    HW216287   4.943   0.286   3.009
 5130SOL     OW16288   1.650   6.263   3.932
 5130SOL    HW116289   1.712   6.334   3.966
 5130SOL    HW216290   1.556   6.293   3.944
 5131SOL     OW16291   2.832   4.822   3.662
 5131SOL    HW116292   2.766   4.836   3.588
 5131SOL    HW216293   2.801   4.747   3.721
 5132SOL     OW16294   3.267   1.573   5.913
 5132SOL    HW116295   3.348   1.572   5.971
 5132SOL    HW216296   3.293   1.601   5.821
 5133SOL     OW16297   2.686   5.875   6.648
 5133SOL    HW116298   2.626   5.934   6.594
 5133SOL    HW216299   2.730   5.929   6.720
 5134SOL     OW16300   6.945   0.071   2.928
 5134SOL    HW116301   6.998   0.054   2.846
 5134SOL    HW216302   6.885   0.150   2.913
 5135SOL     OW16303   5.705   3.836   3.839
 5135SOL    HW116304   5.777   3.770   3.859
 5135SOL    HW216305   5.617   3.802   3.874
 5136SOL     OW16306   5.758   0.730   5.896
 5136SOL    HW116307   5.751   0.693   5.803
 5136SOL    HW216308   5.669   0.766   5.924
 5137SOL     OW16309   5.398   3.387   5.213
 5137SOL    HW116310   5.462   3.420   5.283
 5137SOL    HW216311   5.445   3.326   5.151
 5138SOL     OW16312   3.907   3.970   4.377
 5138SOL    HW116313   3.865   4.043   4.322
 5138SOL    HW216314   3.967   3.916   4.318
 5139SOL     OW16315   1.076   6.900   4.716
 5139SOL    HW116316   1.058   6.981   4.661
 5139SOL    HW216317   1.117   6.829   4.659
 5140SOL     OW16318   3.592   1.840   5.349
 5140SOL    HW116319   3.620   1.916   5.291
 5140SOL    HW216320   3.629   1.754   5.312
 5141SOL     OW16321   6.595   3.365   1.020
 5141SOL    HW116322   6.614   3.380   1.117
 5141SOL    HW216323   6.647   3.430   0.965
 5142SOL     OW16324   5.456   6.826   5.490
 5142SOL    HW116325   5.444   6.856   5.395
 5142SOL    HW216326   5.469   6.906   5.549
 5143SOL     OW16327   1.045   4.109   5.149
 5143SOL    HW116328   0.951   4.106   5.115
 5143SOL    HW216329   1.055   4.186   5.212
 5144SOL     OW16330   2.102   3.965   6.114
 5144SOL    HW116331   2.050   4.001   6.037
 5144SOL    HW216332   2.168   3.897   6.082
 5145SOL     OW16333   3.980   6.268   6.090
 5145SOL    HW116334   4.045   6.285   6.164
 5145SOL    HW216335   3.965   6.169   6.081
 5146SOL     OW16336   3.824   4.159   5.075
 5146SOL    HW116337   3.746   4.211   5.043
 5146SOL    HW216338   3.850   4.091   5.006
 5147SOL     OW16339   6.179   4.837   3.448
 5147SOL    HW116340   6.162   4.862   3.544
 5147SOL    HW216341   6.159   4.740   3.435
 5148SOL     OW16342   0.261   1.262   2.215
 5148SOL    HW116343   0.336   1.201   2.191
 5148SOL    HW216344   0.279   1.354   2.181
 5149SOL     OW16345   5.951   5.515   4.802
 5149SOL    HW116346   6.030   5.524   4.862
 5149SOL    HW216347   5.966   5.568   4.718
 5150SOL     OW16348   2.218   4.305   3.882
 5150SOL    HW116349   2.120   4.295   3.863
 5150SOL    HW216350   2.268   4.232   3.838
 5151SOL     OW16351   6.751   3.794   2.042
 5151SOL    HW116352   6.760   3.873   2.102
 5151SOL    HW216353   6.677   3.811   1.976
 5152SOL     OW16354   1.883   5.814   6.754
 5152SOL    HW116355   1.917   5.888   6.811
 5152SOL    HW216356   1.938   5.732   6.769
 5153SOL     OW16357   0.451   2.305   0.839
 5153SOL    HW116358   0.493   2.310   0.749
 5153SOL    HW216359   0.427   2.210   0.860
 5154SOL     OW16360   1.186   2.621   6.183
 5154SOL    HW116361   1.223   2.653   6.270
 5154SOL    HW216362   1.183   2.697   6.118
 5155SOL     OW16363   4.188   0.675   1.331
 5155SOL    HW116364   4.139   0.605   1.382
 5155SOL    HW216365   4.273   0.699   1.379
 5156SOL     OW16366   5.930   4.663   4.852
 5156SOL    HW116367   5.975   4.749   4.876
 5156SOL    HW216368   5.865   4.680   4.778
 5157SOL     OW16369   3.207   2.114   2.243
 5157SOL    HW116370   3.255   2.049   2.185
 5157SOL    HW216371   3.255   2.124   2.330
 5158SOL     OW16372   3.713   2.388   0.741
 5158SOL    HW116373   3.797   2.345   0.775
 5158SOL    HW216374   3.634   2.353   0.791
 5159SOL     OW16375   5.804   3.581   6.360
 5159SOL    HW116376   5.802   3.601   6.457
 5159SOL    HW216377   5.778   3.663   6.308
 5160SOL     OW16378   0.198   5.250   3.136
 5160SOL    HW116379   0.159   5.181   3.196
 5160SOL    HW216380   0.292   5.271   3.166
 5161SOL     OW16381   0.926   3.570   0.571
 5161SOL    HW116382   0.861   3.576   0.495
 5161SOL    HW216383   0.999   3.636   0.558
 5162SOL     OW16384   1.095   5.427   2.443
 5162SOL    HW116385   1.134   5.339   2.417
 5162SOL    HW216386   1.030   5.457   2.372
 5163SOL     OW16387   3.545   6.750   0.890
 5163SOL    HW116388   3.609   6.783   0.821
 5163SOL    HW216389   3.564   6.654   0.910
 5164SOL     OW16390   3.380   2.920   6.508
 5164SOL    HW116391   3.353   3.002   6.458
 5164SOL    HW216392   3.422   2.946   6.595
 5165SOL     OW16393   1.128   4.331   6.841
 5165SOL    HW116394   1.185   4.249   6.850
 5165SOL    HW216395   1.183   4.406   6.805
 5166SOL     OW16396   1.793   5.053   2.689
 5166SOL    HW116397   1.886   5.078   2.712
 5166SOL    HW216398   1.730   5.124   2.720
 5167SOL     OW16399   6.757   4.062   4.645
 5167SOL    HW116400   6.695   3.984   4.635
 5167SOL    HW216401   6.777   4.100   4.555
 5168SOL     OW16402   5.514   2.642   2.818
 5168SOL    HW116403   5.541   2.579   2.745
 5168SOL    HW216404   5.416   2.657   2.814
 5169SOL     OW16405   4.536   2.029   3.411
 5169SOL    HW116406   4.486   1.967   3.351
 5169SOL    HW216407   4.563   1.982   3.494
 5170SOL     OW16408   1.502   3.180   5.386
 5170SOL    HW116409   1.476   3.228   5.302
 5170SOL    HW216410   1.601   3.180   5.395
 5171SOL     OW16411   6.916   4.626   5.831
 5171SOL    HW116412   6.980   4.602   5.757
 5171SOL    HW216413   6.836   4.566   5.826
 5172SOL     OW16414   1.287   4.364   3.366
 5172SOL    HW116415   1.294   4.316   3.279
 5172SOL    HW216416   1.223   4.317   3.426
 5173SOL     OW16417   4.608   4.658   5.665
 5173SOL    HW116418   4.616   4.610   5.752
 5173SOL    HW216419   4.580   4.752   5.681
 5174SOL     OW16420   2.088   5.291   3.617
 5174SOL    HW116421   1.988   5.290   3.622
 5174SOL    HW216422   2.126   5.228   3.684
 5175SOL     OW16423   2.719   3.921   0.221
 5175SOL    HW116424   2.626   3.943   0.191
 5175SOL    HW216425   2.782   3.991   0.187
 5176SOL     OW16426   5.129   4.631   6.353
 5176SOL    HW116427   5.102   4.728   6.349
 5176SOL    HW216428   5.103   4.586   6.268
 5177SOL     OW16429   4.540   6.853   0.844
 5177SOL    HW116430   4.543   6.873   0.942
 5177SOL    HW216431   4.452   6.882   0.806
 5178SOL     OW16432   1.382   4.328   2.285
 5178SOL    HW116433   1.375   4.228   2.288
 5178SOL    HW216434   1.368   4.360   2.191
 5179SOL     OW16435   4.744   4.155   4.065
 5179SOL    HW116436   4.772   4.063   4.095
 5179SOL    HW216437   4.720   4.210   4.145
 5180SOL     OW16438   3.605   1.002   1.243
 5180SOL    HW116439   3.635   0.998   1.148
 5180SOL    HW216440   3.634   1.089   1.284
 5181SOL     OW16441   6.301   0.012   1.655
 5181SOL    HW116442   6.235   0.077   1.618
 5181SOL    HW216443   6.367   0.060   1.713
 5182SOL     OW16444   4.484   4.543   2.138
 5182SOL    HW116445   4.501   4.584   2.048
 5182SOL    HW216446   4.500   4.444   2.133
 5183SOL     OW16447   4.130   1.817   2.419
 5183SOL    HW116448   4.097   1.906   2.449
 5183SOL    HW216449   4.085   1.745   2.471
 5184SOL     OW16450   2.561   1.748   3.369
 5184SOL    HW116451   2.508   1.664   3.385
 5184SOL    HW216452   2.653   1.737   3.405
 5185SOL     OW16453   5.543   0.759   2.514
 5185SOL    HW116454   5.581   0.772   2.422
 5185SOL    HW216455   5.450   0.794   2.518
 5186SOL     OW16456   6.348   2.611   6.146
 5186SOL    HW116457   6.256   2.638   6.119
 5186SOL    HW216458   6.414   2.646   6.080
 5187SOL     OW16459   1.297   5.439   5.709
 5187SOL    HW116460   1.210   5.464   5.752
 5187SOL    HW216461   1.361   5.406   5.779
 5188SOL     OW16462   5.774   5.780   1.912
 5188SOL    HW116463   5.771   5.681   1.897
 5188SOL    HW216464   5.683   5.819   1.897
 5189SOL     OW16465   5.160   5.934   0.201
 5189SOL    HW116466   5.230   5.978   0.258
 5189SOL    HW216467   5.131   5.998   0.130
 5190SOL     OW16468   0.977   3.666   3.760
 5190SOL    HW116469   1.041   3.676   3.683
 5190SOL    HW216470   1.021   3.699   3.843
 5191SOL     OW16471   3.535   5.665   2.334
 5191SOL    HW116472   3.453   5.719   2.348
 5191SOL    HW216473   3.545   5.599   2.409
 5192SOL     OW16474   1.294   5.893   1.193
 5192SOL    HW116475   1.386   5.898   1.232
 5192SOL    HW216476   1.287   5.813   1.134
 5193SOL     OW16477   4.749   5.616   5.547
 5193SOL    HW116478   4.790   5.678   5.479
 5193SOL    HW216479   4.658   5.589   5.516
 5194SOL     OW16480   3.474   2.115   6.945
 5194SOL    HW116481   3.523   2.096   6.860
 5194SOL    HW216482   3.452   2.213   6.949
 5195SOL     OW16483   0.264   0.915   4.447
 5195SOL    HW116484   0.303   0.842   4.391
 5195SOL    HW216485   0.183   0.952   4.403
 5196SOL     OW16486   4.618   0.063   2.284
 5196SOL    HW116487   4.708   0.089   2.249
 5196SOL    HW216488   4.587   0.131   2.350
 5197SOL     OW16489   1.567   3.661   6.785
 5197SOL    HW116490   1.616   3.715   6.852
 5197SOL    HW216491   1.625   3.586   6.753
 5198SOL     OW16492   4.635   5.540   3.030
 5198SOL    HW116493   4.702   5.588   3.087
 5198SOL    HW216494   4.681   5.476   2.969
 5199SOL     OW16495   0.853   5.437   0.455
 5199SOL    HW116496   0.826   5.516   0.509
 5199SOL    HW216497   0.821   5.447   0.361
 5200SOL     OW16498   6.776   3.761   5.107
 5200SOL    HW116499   6.752   3.786   5.013
 5200SOL    HW216500   6.875   3.746   5.113
 5201SOL     OW16501   1.494   6.872   3.127
 5201SOL    HW116502   1.404   6.886   3.168
 5201SOL    HW216503   1.487   6.807   3.052
 5202SOL     OW16504   5.448   3.077   6.553
 5202SOL    HW116505   5.420   3.109   6.644
 5202SOL    HW216506   5.545   3.053   6.555
 5203SOL     OW16507   2.046   1.668   6.804
 5203SOL    HW116508   2.103   1.600   6.850
 5203SOL    HW216509   1.977   1.703   6.868
 5204SOL     OW16510   3.775   4.906   0.390
 5204SOL    HW116511   3.683   4.913   0.428
 5204SOL    HW216512   3.772   4.925   0.291
 5205SOL     OW16513   1.959   6.755   0.793
 5205SOL    HW116514   1.978   6.780   0.888
 5205SOL    HW216515   2.039   6.775   0.737
 5206SOL     OW16516   0.439   4.172   5.262
 5206SOL    HW116517   0.346   4.201   5.283
 5206SOL    HW216518   0.438   4.076   5.235
 5207SOL     OW16519   0.907   5.743   4.144
 5207SOL    HW116520   0.862   5.656   4.124
 5207SOL    HW216521   0.944   5.741   4.237
 5208SOL     OW16522   3.997   2.098   6.883
 5208SOL    HW116523   3.961   2.186   6.915
 5208SOL    HW216524   3.936   2.025   6.915
 5209SOL     OW16525   5.657   5.843   3.857
 5209SOL    HW116526   5.689   5.821   3.765
 5209SOL    HW216527   5.559   5.823   3.863
 5210SOL     OW16528   5.811   2.424   5.197
 5210SOL    HW116529   5.865   2.507   5.193
 5210SOL    HW216530   5.801   2.386   5.105
 5211SOL     OW16531   3.993   3.162   4.826
 5211SOL    HW116532   4.022   3.253   4.857
 5211SOL    HW216533   3.954   3.111   4.903
 5212SOL     OW16534   6.502   1.386   0.622
 5212SOL    HW116535   6.498   1.447   0.701
 5212SOL    HW216536   6.451   1.426   0.546
 5213SOL     OW16537   5.190   4.223   6.604
 5213SOL    HW116538   5.214   4.305   6.553
 5213SOL    HW216539   5.229   4.142   6.559
 5214SOL     OW16540   4.800   1.438   6.378
 5214SOL    HW116541   4.811   1.342   6.405
 5214SOL    HW216542   4.703   1.455   6.357
 5215SOL     OW16543   5.545   5.376   3.643
 5215SOL    HW116544   5.605   5.382   3.722
 5215SOL    HW216545   5.514   5.468   3.617
 5216SOL     OW16546   4.024   5.296   1.724
 5216SOL    HW116547   4.022   5.303   1.625
 5216SOL    HW216548   4.089   5.225   1.752
 5217SOL     OW16549   4.018   5.480   3.810
 5217SOL    HW116550   3.959   5.449   3.736
 5217SOL    HW216551   4.027   5.580   3.805
 5218SOL     OW16552   1.156   0.716   3.574
 5218SOL    HW116553   1.075   0.775   3.581
 5218SOL    HW216554   1.134   0.638   3.515
 5219SOL     OW16555   3.298   0.517   5.885
 5219SOL    HW116556   3.351   0.460   5.947
 5219SOL    HW216557   3.342   0.606   5.875
 5220SOL     OW16558   1.592   6.062   2.596
 5220SOL    HW116559   1.607   5.968   2.629
 5220SOL    HW216560   1.504   6.095   2.631
 5221SOL     OW16561   5.448   2.228   3.815
 5221SOL    HW116562   5.450   2.326   3.838
 5221SOL    HW216563   5.473   2.216   3.719
 5222SOL     OW16564   2.517   6.881   3.600
 5222SOL    HW116565   2.520   6.795   3.550
 5222SOL    HW216566   2.426   6.892   3.642
 5223SOL     OW16567   5.490   0.659   1.063
 5223SOL    HW116568   5.449   0.567   1.063
 5223SOL    HW216569   5.504   0.689   0.969
 5224SOL     OW16570   0.606   2.162   4.239
 5224SOL    HW116571   0.704   2.154   4.258
 5224SOL    HW216572   0.574   2.080   4.192
 5225SOL     OW16573   6.389   0.349   3.133
 5225SOL    HW116574   6.295   0.369   3.105
 5225SOL    HW216575   6.452   0.371   3.059
 5226SOL     OW16576   0.552   5.720   5.141
 5226SOL    HW116577   0.459   5.751   5.158
 5226SOL    HW216578   0.587   5.673   5.223
 5227SOL     OW16579   1.498   4.906   3.722
 5227SOL    HW116580   1.541   4.867   3.640
 5227SOL    HW216581   1.563   4.902   3.798
 5228SOL     OW16582   6.707   2.040   0.951
 5228SOL    HW116583   6.620   2.027   0.904
 5228SOL    HW216584   6.733   2.137   0.948
 5229SOL     OW16585   1.559   3.825   0.423
 5229SOL    HW116586   1.658   3.840   0.431
 5229SOL    HW216587   1.539   3.729   0.442
 5230SOL     OW16588   0.289   6.642   1.454
 5230SOL    HW116589   0.370   6.615   1.506
 5230SOL    HW216590   0.310   6.640   1.356
 5231SOL     OW16591   4.069   3.718   4.888
 5231SOL    HW116592   4.081   3.772   4.804
 5231SOL    HW216593   4.017   3.636   4.867
 5232SOL     OW16594   3.344   2.182   6.021
 5232SOL    HW116595   3.327   2.191   5.923
 5232SOL    HW216596   3.373   2.089   6.042
 5233SOL     OW16597   5.943   0.498   1.887
 5233SOL    HW116598   5.992   0.457   1.964
 5233SOL    HW216599   5.899   0.426   1.834
 5234SOL     OW16600   2.294   0.366   6.728
 5234SOL    HW116601   2.306   0.322   6.817
 5234SOL    HW216602   2.233   0.445   6.738
 5235SOL     OW16603   2.102   3.003   1.234
 5235SOL    HW116604   2.064   2.929   1.177
 5235SOL    HW216605   2.044   3.016   1.314
 5236SOL     OW16606   5.765   3.409   2.352
 5236SOL    HW116607   5.750   3.388   2.449
 5236SOL    HW216608   5.783   3.507   2.341
 5237SOL     OW16609   2.473   0.737   5.830
 5237SOL    HW116610   2.542   0.673   5.797
 5237SOL    HW216611   2.491   0.828   5.793
 5238SOL     OW16612   1.737   4.657   0.599
 5238SOL    HW116613   1.826   4.663   0.643
 5238SOL    HW216614   1.692   4.746   0.602
 5239SOL     OW16615   4.088   3.526   3.904
 5239SOL    HW116616   4.129   3.447   3.858
 5239SOL    HW216617   4.041   3.495   3.987
 5240SOL     OW16618   2.706   1.758   6.120
 5240SOL    HW116619   2.703   1.674   6.175
 5240SOL    HW216620   2.681   1.836   6.177
 5241SOL     OW16621   1.265   5.696   6.523
 5241SOL    HW116622   1.166   5.705   6.508
 5241SOL    HW216623   1.287   5.600   6.545
 5242SOL     OW16624   0.003   6.756   5.660
 5242SOL    HW116625   7.018   6.689   5.587
 5242SOL    HW216626   0.003   6.848   5.622
 5243SOL     OW16627   1.112   5.740   1.551
 5243SOL    HW116628   1.103   5.794   1.467
 5243SOL    HW216629   1.153   5.796   1.623
 5244SOL     OW16630   3.655   4.330   5.836
 5244SOL    HW116631   3.639   4.296   5.744
 5244SOL    HW216632   3.601   4.413   5.850
 5245SOL     OW16633   4.288   4.653   0.186
 5245SOL    HW116634   4.333   4.622   0.102
 5245SOL    HW216635   4.198   4.609   0.194
 5246SOL     OW16636   5.900   4.353   2.820
 5246SOL    HW116637   5.880   4.409   2.900
 5246SOL    HW216638   5.863   4.261   2.834
 5247SOL     OW16639   1.219   6.276   0.915
 5247SOL    HW116640   1.299   6.220   0.933
 5247SOL    HW216641   1.182   6.255   0.824
 5248SOL     OW16642   6.415   6.979   4.548
 5248SOL    HW116643   6.440   7.028   4.632
 5248SOL    HW216644   6.468   6.895   4.542
 5249SOL     OW16645   0.783   5.168   4.890
 5249SOL    HW116646   0.810   5.082   4.845
 5249SOL    HW216647   0.702   5.152   4.945
 5250SOL     OW16648   0.384   1.160   6.024
 5250SOL    HW116649   0.319   1.106   5.970
 5250SOL    HW216650   0.347   1.172   6.117
 5251SOL     OW16651   0.446   3.108   1.092
 5251SOL    HW116652   0.509   3.141   1.162
 5251SOL    HW216653   0.498   3.067   1.017
 5252SOL     OW16654   1.947   5.356   0.876
 5252SOL    HW116655   1.858   5.315   0.896
 5252SOL    HW216656   2.006   5.348   0.957
 5253SOL     OW16657   6.206   4.071   5.344
 5253SOL    HW116658   6.209   4.042   5.439
 5253SOL    HW216659   6.294   4.053   5.300
 5254SOL     OW16660   5.757   1.091   3.414
 5254SOL    HW116661   5.737   1.003   3.456
 5254SOL    HW216662   5.728   1.165   3.475
 5255SOL     OW16663   4.515   0.290   5.559
 5255SOL    HW116664   4.608   0.292   5.596
 5255SOL    HW216665   4.517   0.321   5.463
 5256SOL     OW16666   4.665   0.609   3.352
 5256SOL    HW116667   4.665   0.605   3.252
 5256SOL    HW216668   4.675   0.704   3.382
 5257SOL     OW16669   4.159   0.333   2.112
 5257SOL    HW116670   4.174   0.309   2.017
 5257SOL    HW216671   4.207   0.418   2.134
 5258SOL     OW16672   5.168   3.602   1.279
 5258SOL    HW116673   5.252   3.578   1.328
 5258SOL    HW216674   5.168   3.700   1.259
 5259SOL     OW16675   4.409   6.274   1.341
 5259SOL    HW116676   4.458   6.190   1.367
 5259SOL    HW216677   4.398   6.331   1.423
 5260SOL     OW16678   5.477   3.825   1.417
 5260SOL    HW116679   5.526   3.816   1.330
 5260SOL    HW216680   5.517   3.763   1.485
 5261SOL     OW16681   1.774   3.121   6.300
 5261SOL    HW116682   1.860   3.169   6.281
 5261SOL    HW216683   1.702   3.157   6.241
 5262SOL     OW16684   2.996   0.867   2.975
 5262SOL    HW116685   2.933   0.926   2.924
 5262SOL    HW216686   2.945   0.795   3.022
 5263SOL     OW16687   0.888   1.345   5.218
 5263SOL    HW116688   0.867   1.259   5.171
 5263SOL    HW216689   0.948   1.327   5.296
 5264SOL     OW16690   6.545   0.392   2.639
 5264SOL    HW116691   6.463   0.334   2.642
 5264SOL    HW216692   6.616   0.353   2.697
 5265SOL     OW16693   4.880   4.544   3.029
 5265SOL    HW116694   4.887   4.568   2.932
 5265SOL    HW216695   4.825   4.461   3.039
 5266SOL     OW16696   2.821   0.843   2.341
 5266SOL    HW116697   2.729   0.803   2.347
 5266SOL    HW216698   2.845   0.884   2.429
 5267SOL     OW16699   4.874   4.667   6.081
 5267SOL    HW116700   4.911   4.629   5.996
 5267SOL    HW216701   4.789   4.717   6.060
 5268SOL     OW16702   6.101   6.002   5.760
 5268SOL    HW116703   6.129   5.909   5.784
 5268SOL    HW216704   6.143   6.067   5.823
 5269SOL     OW16705   2.377   6.287   4.425
 5269SOL    HW116706   2.356   6.320   4.517
 5269SOL    HW216707   2.391   6.188   4.427
 5270SOL     OW16708   4.945   1.314   1.777
 5270SOL    HW116709   4.990   1.279   1.695
 5270SOL    HW216710   5.013   1.330   1.848
 5271SOL     OW16711   4.504   4.801   4.721
 5271SOL    HW116712   4.577   4.808   4.653
 5271SOL    HW216713   4.432   4.867   4.698
 5272SOL     OW16714   2.105   6.182   2.990
 5272SOL    HW116715   2.182   6.144   3.041
 5272SOL    HW216716   2.100   6.280   3.006
 5273SOL     OW16717   0.302   3.411   3.798
 5273SOL    HW116718   0.369   3.356   3.847
 5273SOL    HW216719   0.326   3.414   3.701
 5274SOL     OW16720   5.914   5.313   2.237
 5274SOL    HW116721   5.962   5.348   2.318
 5274SOL    HW216722   5.945   5.220   2.218
 5275SOL     OW16723   3.684   1.288   6.259
 5275SOL    HW116724   3.641   1.378   6.260
 5275SOL    HW216725   3.754   1.283   6.331
 5276SOL     OW16726   1.080   6.870   1.294
 5276SOL    HW116727   1.156   6.871   1.359
 5276SOL    HW216728   1.115   6.866   1.201
 5277SOL     OW16729   1.415   2.888   3.109
 5277SOL    HW116730   1.482   2.962   3.096
 5277SOL    HW216731   1.358   2.880   3.027
 5278SOL     OW16732   4.980   0.087   3.977
 5278SOL    HW116733   5.041   0.118   3.905
 5278SOL    HW216734   4.906   0.032   3.938
 5279SOL     OW16735   1.375   5.465   6.610
 5279SOL    HW116736   1.469   5.496   6.594
 5279SOL    HW216737   1.371   5.410   6.694
 5280SOL     OW16738   2.400   5.703   5.830
 5280SOL    HW116739   2.373   5.776   5.893
 5280SOL    HW216740   2.364   5.615   5.863
 5281SOL     OW16741   0.827   1.202   3.686
 5281SOL    HW116742   0.826   1.113   3.731
 5281SOL    HW216743   0.910   1.251   3.713
 5282SOL     OW16744   1.676   1.178   2.708
 5282SOL    HW116745   1.594   1.228   2.735
 5282SOL    HW216746   1.714   1.130   2.787
 5283SOL     OW16747   2.793   0.460   2.825
 5283SOL    HW116748   2.756   0.368   2.813
 5283SOL    HW216749   2.767   0.518   2.748
 5284SOL     OW16750   4.628   2.719   2.505
 5284SOL    HW116751   4.545   2.738   2.558
 5284SOL    HW216752   4.611   2.739   2.408
 5285SOL     OW16753   1.600   3.950   4.451
 5285SOL    HW116754   1.556   3.965   4.539
 5285SOL    HW216755   1.530   3.940   4.379
 5286SOL     OW16756   6.699   4.092   1.304
 5286SOL    HW116757   6.663   4.078   1.396
 5286SOL    HW216758   6.764   4.168   1.305
 5287SOL     OW16759   2.165   6.072   1.377
 5287SOL    HW116760   2.201   6.135   1.445
 5287SOL    HW216761   2.094   6.014   1.418
 5288SOL     OW16762   3.662   1.154   2.383
 5288SOL    HW116763   3.574   1.179   2.340
 5288SOL    HW216764   3.735   1.166   2.316
 5289SOL     OW16765   1.437   5.490   6.310
 5289SOL    HW116766   1.378   5.410   6.306
 5289SOL    HW216767   1.502   5.480   6.386
 5290SOL     OW16768   0.960   4.393   5.926
 5290SOL    HW116769   0.984   4.374   6.021
 5290SOL    HW216770   0.891   4.466   5.923
 5291SOL     OW16771   2.816   4.978   6.283
 5291SOL    HW116772   2.742   5.044   6.278
 5291SOL    HW216773   2.863   4.974   6.195
 5292SOL     OW16774   5.924   4.459   6.562
 5292SOL    HW116775   5.898   4.496   6.473
 5292SOL    HW216776   5.843   4.451   6.620
 5293SOL     OW16777   1.299   0.279   4.301
 5293SOL    HW116778   1.237   0.228   4.361
 5293SOL    HW216779   1.313   0.371   4.338
 5294SOL     OW16780   5.909   2.796   4.904
 5294SOL    HW116781   5.939   2.886   4.934
 5294SOL    HW216782   5.986   2.746   4.866
 5295SOL     OW16783   3.886   1.266   2.814
 5295SOL    HW116784   3.827   1.242   2.738
 5295SOL    HW216785   3.848   1.230   2.899
 5296SOL     OW16786   3.203   5.260   6.997
 5296SOL    HW116787   3.128   5.251   6.931
 5296SOL    HW216788   3.276   5.315   6.957
 5297SOL     OW16789   1.867   2.608   0.678
 5297SOL    HW116790   1.910   2.520   0.660
 5297SOL    HW216791   1.935   2.681   0.667
 5298SOL     OW16792   1.127   5.991   0.147
 5298SOL    HW116793   1.073   5.990   0.063
 5298SOL    HW216794   1.137   6.085   0.179
 5299SOL     OW16795   2.596   3.344   0.441
 5299SOL    HW116796   2.615   3.249   0.417
 5299SOL    HW216797   2.592   3.354   0.540
 5300SOL     OW16798   0.838   5.803   1.393
 5300SOL    HW116799   0.775   5.846   1.458
 5300SOL    HW216800   0.929   5.844   1.404
 5301SOL     OW16801   3.453   2.247   6.599
 5301SOL    HW116802   3.402   2.325   6.635
 5301SOL    HW216803   3.424   2.229   6.505
 5302SOL     OW16804   5.973   5.628   3.967
 5302SOL    HW116805   5.956   5.587   3.877
 5302SOL    HW216806   6.005   5.557   4.030
 5303SOL     OW16807   7.028   5.568   3.459
 5303SOL    HW116808   0.074   5.597   3.518
 5303SOL    HW216809   0.025   5.577   3.363
 5304SOL     OW16810   5.419   0.906   0.449
 5304SOL    HW116811   5.383   0.955   0.528
 5304SOL    HW216812   5.408   0.807   0.462
 5305SOL     OW16813   0.705   5.141   2.731
 5305SOL    HW116814   0.776   5.205   2.700
 5305SOL    HW216815   0.616   5.171   2.696
 5306SOL     OW16816   1.219   4.207   4.806
 5306SOL    HW116817   1.214   4.178   4.902
 5306SOL    HW216818   1.302   4.260   4.791
 5307SOL     OW16819   4.293   2.079   0.487
 5307SOL    HW116820   4.221   2.068   0.556
 5307SOL    HW216821   4.255   2.127   0.407
 5308SOL     OW16822   0.814   5.623   3.775
 5308SOL    HW116823   0.850   5.531   3.758
 5308SOL    HW216824   0.715   5.623   3.756
 5309SOL     OW16825   4.245   4.586   1.471
 5309SOL    HW116826   4.177   4.603   1.541
 5309SOL    HW216827   4.207   4.526   1.400
 5310SOL     OW16828   6.561   3.668   2.232
 5310SOL    HW116829   6.647   3.689   2.186
 5310SOL    HW216830   6.507   3.605   2.175
 5311SOL     OW16831   6.502   5.988   6.677
 5311SOL    HW116832   6.561   5.912   6.703
 5311SOL    HW216833   6.521   6.066   6.737
 5312SOL     OW16834   6.816   5.381   1.880
 5312SOL    HW116835   6.764   5.302   1.914
 5312SOL    HW216836   6.753   5.457   1.864
 5313SOL     OW16837   1.391   3.824   6.057
 5313SOL    HW116838   1.305   3.772   6.063
 5313SOL    HW216839   1.423   3.847   6.148
 5314SOL     OW16840   2.981   6.202   0.901
 5314SOL    HW116841   2.972   6.197   0.802
 5314SOL    HW216842   3.006   6.295   0.928
 5315SOL     OW16843   4.975   3.663   1.499
 5315SOL    HW116844   5.018   3.658   1.589
 5315SOL    HW216845   5.029   3.610   1.433
 5316SOL     OW16846   0.781   4.071   5.024
 5316SOL    HW116847   0.756   4.037   4.934
 5316SOL    HW216848   0.778   4.171   5.025
 5317SOL     OW16849   6.527   7.007   4.154
 5317SOL    HW116850   6.573   6.946   4.219
 5317SOL    HW216851   6.439   0.007   4.192
 5318SOL     OW16852   0.542   3.108   6.366
 5318SOL    HW116853   0.637   3.087   6.390
 5318SOL    HW216854   0.530   3.102   6.267
 5319SOL     OW16855   3.553   6.621   0.377
 5319SOL    HW116856   3.481   6.620   0.447
 5319SOL    HW216857   3.519   6.576   0.294
 5320SOL     OW16858   5.617   5.374   0.291
 5320SOL    HW116859   5.635   5.289   0.242
 5320SOL    HW216860   5.563   5.435   0.233
 5321SOL     OW16861   1.316   4.782   4.461
 5321SOL    HW116862   1.325   4.845   4.538
 5321SOL    HW216863   1.370   4.700   4.479
 5322SOL     OW16864   4.902   6.321   6.325
 5322SOL    HW116865   4.859   6.241   6.366
 5322SOL    HW216866   5.001   6.312   6.330
 5323SOL     OW16867   4.065   1.745   6.733
 5323SOL    HW116868   4.152   1.792   6.750
 5323SOL    HW216869   4.000   1.810   6.691
 5324SOL     OW16870   3.956   2.746   0.653
 5324SOL    HW116871   3.987   2.752   0.748
 5324SOL    HW216872   3.857   2.762   0.649
 5325SOL     OW16873   5.026   0.968   4.486
 5325SOL    HW116874   4.951   0.910   4.452
 5325SOL    HW216875   5.008   0.993   4.581
 5326SOL     OW16876   0.165   4.733   3.344
 5326SOL    HW116877   0.195   4.644   3.378
 5326SOL    HW216878   0.067   4.743   3.360
 5327SOL     OW16879   5.682   3.159   5.379
 5327SOL    HW116880   5.612   3.100   5.339
 5327SOL    HW216881   5.652   3.254   5.374
 5328SOL     OW16882   4.630   3.064   5.309
 5328SOL    HW116883   4.722   3.069   5.347
 5328SOL    HW216884   4.590   3.156   5.305
 5329SOL     OW16885   0.057   4.863   0.266
 5329SOL    HW116886   0.052   4.876   0.167
 5329SOL    HW216887   0.102   4.943   0.308
 5330SOL     OW16888   3.515   4.581   5.778
 5330SOL    HW116889   3.584   4.644   5.813
 5330SOL    HW216890   3.517   4.582   5.678
 5331SOL     OW16891   5.284   1.320   0.799
 5331SOL    HW116892   5.330   1.396   0.846
 5331SOL    HW216893   5.188   1.343   0.785
 5332SOL     OW16894   0.694   3.449   1.374
 5332SOL    HW116895   0.697   3.514   1.298
 5332SOL    HW216896   0.668   3.359   1.339
 5333SOL     OW16897   1.131   0.515   3.367
 5333SOL    HW116898   1.131   0.597   3.310
 5333SOL    HW216899   1.224   0.478   3.371
 5334SOL     OW16900   4.249   0.255   4.488
 5334SOL    HW116901   4.343   0.229   4.512
 5334SOL    HW216902   4.250   0.311   4.405
 5335SOL     OW16903   5.886   6.004   2.296
 5335SOL    HW116904   5.957   5.992   2.365
 5335SOL    HW216905   5.923   6.056   2.219
 5336SOL     OW16906   2.882   1.951   3.397
 5336SOL    HW116907   2.848   2.032   3.444
 5336SOL    HW216908   2.852   1.953   3.301
 5337SOL     OW16909   5.265   3.980   1.483
 5337SOL    HW116910   5.270   4.077   1.460
 5337SOL    HW216911   5.353   3.937   1.465
 5338SOL     OW16912   5.649   1.742   6.330
 5338SOL    HW116913   5.671   1.743   6.233
 5338SOL    HW216914   5.706   1.809   6.378
 5339SOL     OW16915   6.833   2.277   4.333
 5339SOL    HW116916   6.755   2.295   4.273
 5339SOL    HW216917   6.894   2.356   4.332
 5340SOL     OW16918   5.562   2.836   1.034
 5340SOL    HW116919   5.514   2.822   0.947
 5340SOL    HW216920   5.637   2.770   1.042
 5341SOL     OW16921   3.393   3.907   6.400
 5341SOL    HW116922   3.435   3.820   6.425
 5341SOL    HW216923   3.429   3.939   6.313
 5342SOL     OW16924   3.244   6.871   3.710
 5342SOL    HW116925   3.281   6.873   3.803
 5342SOL    HW216926   3.185   6.791   3.699
 5343SOL     OW16927   3.847   3.581   4.723
 5343SOL    HW116928   3.754   3.615   4.711
 5343SOL    HW216929   3.855   3.534   4.811
 5344SOL     OW16930   2.456   2.224   2.166
 5344SOL    HW116931   2.435   2.231   2.068
 5344SOL    HW216932   2.444   2.129   2.195
 5345SOL     OW16933   3.509   6.961   1.716
 5345SOL    HW116934   3.441   7.008   1.660
 5345SOL    HW216935   3.471   6.875   1.750
 5346SOL     OW16936   3.231   5.546   4.364
 5346SOL    HW116937   3.145   5.522   4.320
 5346SOL    HW216938   3.291   5.592   4.298
 5347SOL     OW16939   0.163   2.425   1.329
 5347SOL    HW116940   0.164   2.515   1.285
 5347SOL    HW216941   0.202   2.432   1.420
 5348SOL     OW16942   0.021   1.740   0.918
 5348SOL    HW116943   0.029   1.674   0.842
 5348SOL    HW216944   0.109   1.783   0.934
 5349SOL     OW16945   1.824   2.190   0.120
 5349SOL    HW116946   1.873   2.272   0.150
 5349SOL    HW216947   1.882   2.109   0.135
 5350SOL     OW16948   1.804   0.056   5.494
 5350SOL    HW116949   1.847   7.022   5.431
 5350SOL    HW216950   1.769   0.135   5.443
 5351SOL     OW16951   6.901   5.040   2.426
 5351SOL    HW116952   6.979   5.078   2.377
 5351SOL    HW216953   6.817   5.059   2.375
 5352SOL     OW16954   2.452   4.759   3.326
 5352SOL    HW116955   2.367   4.812   3.325
 5352SOL    HW216956   2.464   4.713   3.238
 5353SOL     OW16957   4.166   4.902   3.930
 5353SOL    HW116958   4.249   4.866   3.974
 5353SOL    HW216959   4.088   4.886   3.989
 5354SOL     OW16960   2.297   5.414   1.828
 5354SOL    HW116961   2.206   5.375   1.831
 5354SOL    HW216962   2.365   5.343   1.845
 5355SOL     OW16963   6.998   4.195   4.105
 5355SOL    HW116964   6.985   4.138   4.024
 5355SOL    HW216965   6.986   4.139   4.187
 5356SOL     OW16966   5.787   4.549   2.025
 5356SOL    HW116967   5.714   4.487   2.053
 5356SOL    HW216968   5.834   4.582   2.106
 5357SOL     OW16969   3.452   5.806   0.557
 5357SOL    HW116970   3.525   5.855   0.603
 5357SOL    HW216971   3.443   5.839   0.463
 5358SOL     OW16972   4.590   0.980   0.271
 5358SOL    HW116973   4.675   1.004   0.224
 5358SOL    HW216974   4.599   1.001   0.369
 5359SOL     OW16975   1.267   1.733   5.569
 5359SOL    HW116976   1.325   1.673   5.515
 5359SOL    HW216977   1.323   1.805   5.610
 5360SOL     OW16978   3.762   6.805   4.849
 5360SOL    HW116979   3.718   6.802   4.759
 5360SOL    HW216980   3.694   6.828   4.918
 5361SOL     OW16981   2.202   0.883   5.543
 5361SOL    HW116982   2.131   0.911   5.478
 5361SOL    HW216983   2.179   0.793   5.581
 5362SOL     OW16984   6.811   5.894   3.342
 5362SOL    HW116985   6.781   5.984   3.373
 5362SOL    HW216986   6.806   5.829   3.417
 5363SOL     OW16987   0.123   0.653   6.531
 5363SOL    HW116988   0.089   0.581   6.471
 5363SOL    HW216989   0.221   0.640   6.546
 5364SOL     OW16990   6.922   6.564   1.929
 5364SOL    HW116991   7.002   6.508   1.908
 5364SOL    HW216992   6.893   6.613   1.846
 5365SOL     OW16993   3.751   3.355   6.963
 5365SOL    HW116994   3.740   3.311   6.874
 5365SOL    HW216995   3.847   3.351   6.991
 5366SOL     OW16996   5.170   5.579   1.682
 5366SOL    HW116997   5.249   5.618   1.730
 5366SOL    HW216998   5.196   5.554   1.589
 5367SOL     OW16999   0.949   6.655   0.963
 5367SOL    HW117000   1.045   6.626   0.972
 5367SOL    HW217001   0.901   6.637   1.048
 5368SOL     OW17002   5.527   0.172   2.692
 5368SOL    HW117003   5.617   0.146   2.725
 5368SOL    HW217004   5.488   0.242   2.751
 5369SOL     OW17005   2.704   0.099   2.053
 5369SOL    HW117006   2.786   0.058   2.094
 5369SOL    HW217007   2.632   0.031   2.047
 5370SOL     OW17008   4.597   2.803   1.495
 5370SOL    HW117009   4.593   2.722   1.554
 5370SOL    HW217010   4.547   2.878   1.537
 5371SOL     OW17011   0.873   3.677   5.370
 5371SOL    HW117012   0.796   3.731   5.336
 5371SOL    HW217013   0.871   3.675   5.470
 5372SOL     OW17014   1.937   6.559   3.826
 5372SOL    HW117015   2.016   6.593   3.878
 5372SOL    HW217016   1.867   6.527   3.890
 5373SOL     OW17017   3.663   6.566   4.437
 5373SOL    HW117018   3.691   6.566   4.341
 5373SOL    HW217019   3.744   6.557   4.495
 5374SOL     OW17020   1.750   3.783   6.993
 5374SOL    HW117021   1.783   3.702   0.013
 5374SOL    HW217022   1.690   3.836   0.022
 5375SOL     OW17023   0.791   5.429   4.998
 5375SOL    HW117024   0.752   5.514   4.964
 5375SOL    HW217025   0.762   5.353   4.939
 5376SOL     OW17026   1.824   2.591   0.962
 5376SOL    HW117027   1.855   2.603   0.868
 5376SOL    HW217028   1.833   2.677   1.011
 5377SOL     OW17029   7.017   6.652   2.465
 5377SOL    HW117030   6.956   6.669   2.388
 5377SOL    HW217031   0.060   6.720   2.466
 5378SOL     OW17032   6.462   0.152   1.887
 5378SOL    HW117033   6.535   0.154   1.819
 5378SOL    HW217034   6.478   0.077   1.951
 5379SOL     OW17035   1.257   4.671   5.105
 5379SOL    HW117036   1.316   4.656   5.184
 5379SOL    HW217037   1.236   4.583   5.062
 5380SOL     OW17038   2.426   1.153   2.977
 5380SOL    HW117039   2.330   1.149   2.952
 5380SOL    HW217040   2.459   1.248   2.971
 5381SOL     OW17041   6.466   4.832   2.048
 5381SOL    HW117042   6.473   4.919   2.097
 5381SOL    HW217043   6.550   4.815   1.997
 5382SOL     OW17044   2.804   1.279   2.156
 5382SOL    HW117045   2.808   1.181   2.174
 5382SOL    HW217046   2.854   1.299   2.072
 5383SOL     OW17047   2.362   2.232   5.498
 5383SOL    HW117048   2.383   2.328   5.482
 5383SOL    HW217049   2.349   2.186   5.410
 5384SOL     OW17050   6.017   6.778   5.301
 5384SOL    HW117051   6.041   6.801   5.395
 5384SOL    HW217052   5.920   6.752   5.297
 5385SOL     OW17053   3.438   3.270   4.138
 5385SOL    HW117054   3.401   3.218   4.061
 5385SOL    HW217055   3.504   3.213   4.187
 5386SOL     OW17056   4.972   1.069   4.741
 5386SOL    HW117057   5.001   1.012   4.818
 5386SOL    HW217058   4.949   1.160   4.774
 5387SOL     OW17059   2.378   0.184   3.323
 5387SOL    HW117060   2.395   0.234   3.408
 5387SOL    HW217061   2.305   0.117   3.338
 5388SOL     OW17062   0.175   1.051   3.871
 5388SOL    HW117063   0.209   1.053   3.965
 5388SOL    HW217064   0.175   1.144   3.834
 5389SOL     OW17065   4.764   1.546   3.059
 5389SOL    HW117066   4.833   1.571   3.127
 5389SOL    HW217067   4.808   1.540   2.969
 5390SOL     OW17068   4.934   3.863   3.160
 5390SOL    HW117069   4.868   3.897   3.092
 5390SOL    HW217070   4.928   3.764   3.165
 5391SOL     OW17071   2.405   1.793   0.865
 5391SOL    HW117072   2.427   1.736   0.944
 5391SOL    HW217073   2.398   1.889   0.893
 5392SOL     OW17074   5.610   3.327   0.431
 5392SOL    HW117075   5.535   3.359   0.489
 5392SOL    HW217076   5.626   3.230   0.450
 5393SOL     OW17077   4.589   6.728   6.153
 5393SOL    HW117078   4.556   6.801   6.214
 5393SOL    HW217079   4.669   6.684   6.193
 5394SOL     OW17080   0.005   5.197   0.065
 5394SOL    HW117081   6.942   5.203   0.104
 5394SOL    HW217082   0.072   5.206   0.138
 5395SOL     OW17083   5.192   0.997   1.658
 5395SOL    HW117084   5.119   0.938   1.623
 5395SOL    HW217085   5.264   1.005   1.589
 5396SOL     OW17086   4.555   4.417   1.713
 5396SOL    HW117087   4.519   4.336   1.760
 5396SOL    HW217088   4.503   4.432   1.629
 5397SOL     OW17089   0.179   2.705   1.255
 5397SOL    HW117090   0.138   2.691   1.165
 5397SOL    HW217091   0.278   2.692   1.249
 5398SOL     OW17092   3.328   1.862   3.764
 5398SOL    HW117093   3.394   1.937   3.760
 5398SOL    HW217094   3.256   1.877   3.697
 5399SOL     OW17095   2.897   5.421   0.838
 5399SOL    HW117096   2.980   5.385   0.883
 5399SOL    HW217097   2.905   5.520   0.829
 5400SOL     OW17098   2.828   3.850   6.962
 5400SOL    HW117099   2.794   3.847   0.026
 5400SOL    HW217100   2.773   3.914   6.909
 5401SOL     OW17101   6.096   3.783   1.367
 5401SOL    HW117102   6.061   3.839   1.292
 5401SOL    HW217103   6.062   3.818   1.454
 5402SOL     OW17104   2.827   5.172   1.879
 5402SOL    HW117105   2.890   5.108   1.923
 5402SOL    HW217106   2.733   5.144   1.899
 5403SOL     OW17107   5.251   2.566   5.897
 5403SOL    HW117108   5.348   2.546   5.883
 5403SOL    HW217109   5.241   2.655   5.941
 5404SOL     OW17110   0.990   0.434   2.185
 5404SOL    HW117111   1.060   0.491   2.228
 5404SOL    HW217112   0.918   0.492   2.147
 5405SOL     OW17113   5.886   6.083   0.321
 5405SOL    HW117114   5.910   6.026   0.242
 5405SOL    HW217115   5.968   6.101   0.375
 5406SOL     OW17116   2.440   7.006   6.414
 5406SOL    HW117117   2.419   6.956   6.498
 5406SOL    HW217118   2.533   0.014   6.419
 5407SOL     OW17119   4.212   2.303   1.223
 5407SOL    HW117120   4.274   2.375   1.254
 5407SOL    HW217121   4.264   2.221   1.200
 5408SOL     OW17122   3.766   1.152   5.928
 5408SOL    HW117123   3.735   1.067   5.969
 5408SOL    HW217124   3.759   1.226   5.995
 5409SOL     OW17125   6.446   2.270   3.929
 5409SOL    HW117126   6.434   2.215   3.846
 5409SOL    HW217127   6.439   2.367   3.906
 5410SOL     OW17128   1.201   3.320   0.239
 5410SOL    HW117129   1.177   3.385   0.166
 5410SOL    HW217130   1.241   3.238   0.198
 5411SOL     OW17131   6.213   5.101   5.438
 5411SOL    HW117132   6.307   5.094   5.402
 5411SOL    HW217133   6.211   5.166   5.513
 5412SOL     OW17134   4.158   0.408   6.967
 5412SOL    HW117135   4.135   0.356   0.019
 5412SOL    HW217136   4.208   0.490   6.992
 5413SOL     OW17137   0.374   0.391   1.447
 5413SOL    HW117138   0.278   0.378   1.422
 5413SOL    HW217139   0.431   0.326   1.395
 5414SOL     OW17140   6.526   3.136   5.438
 5414SOL    HW117141   6.584   3.208   5.476
 5414SOL    HW217142   6.524   3.144   5.338
 5415SOL     OW17143   1.524   6.226   1.334
 5415SOL    HW117144   1.552   6.315   1.369
 5415SOL    HW217145   1.435   6.202   1.373
 5416SOL     OW17146   3.820   4.993   6.253
 5416SOL    HW117147   3.789   4.901   6.228
 5416SOL    HW217148   3.859   4.990   6.346
 5417SOL     OW17149   4.313   6.927   4.450
 5417SOL    HW117150   4.373   6.994   4.494
 5417SOL    HW217151   4.279   6.862   4.518
 5418SOL     OW17152   5.141   0.408   4.605
 5418SOL    HW117153   5.213   0.472   4.577
 5418SOL    HW217154   5.100   0.367   4.524
 5419SOL     OW17155   3.067   5.553   0.473
 5419SOL    HW117156   3.063   5.637   0.528
 5419SOL    HW217157   2.974   5.521   0.455
 5420SOL     OW17158   1.731   2.856   2.117
 5420SOL    HW117159   1.799   2.785   2.099
 5420SOL    HW217160   1.656   2.848   2.051
 5421SOL     OW17161   2.066   4.226   3.055
 5421SOL    HW117162   2.163   4.227   3.029
 5421SOL    HW217163   2.021   4.147   3.014
 5422SOL     OW17164   1.078   5.846   5.680
 5422SOL    HW117165   1.069   5.920   5.614
 5422SOL    HW217166   1.067   5.758   5.633
 5423SOL     OW17167   5.702   3.590   6.986
 5423SOL    HW117168   5.737   3.625   6.899
 5423SOL    HW217169   5.737   3.498   7.002
 5424SOL     OW17170   6.129   3.565   4.048
 5424SOL    HW117171   6.228   3.579   4.048
 5424SOL    HW217172   6.101   3.529   4.138
 5425SOL     OW17173   5.723   1.321   3.653
 5425SOL    HW117174   5.705   1.257   3.728
 5425SOL    HW217175   5.709   1.415   3.685
 5426SOL     OW17176   0.041   5.273   3.986
 5426SOL    HW117177   0.016   5.301   4.079
 5426SOL    HW217178   0.140   5.261   3.981
 5427SOL     OW17179   5.507   4.804   1.126
 5427SOL    HW117180   5.495   4.745   1.206
 5427SOL    HW217181   5.528   4.747   1.047
 5428SOL     OW17182   6.886   0.570   2.069
 5428SOL    HW117183   6.945   0.623   2.009
 5428SOL    HW217184   6.790   0.585   2.044
 5429SOL     OW17185   1.118   1.027   4.884
 5429SOL    HW117186   1.093   0.932   4.866
 5429SOL    HW217187   1.213   1.032   4.913
 5430SOL     OW17188   1.760   3.106   5.387
 5430SOL    HW117189   1.819   3.026   5.380
 5430SOL    HW217190   1.793   3.166   5.460
 5431SOL     OW17191   3.789   5.375   6.292
 5431SOL    HW117192   3.805   5.318   6.212
 5431SOL    HW217193   3.838   5.337   6.371
 5432SOL     OW17194   3.964   6.294   5.694
 5432SOL    HW117195   3.992   6.348   5.773
 5432SOL    HW217196   4.032   6.223   5.676
 5433SOL     OW17197   0.219   1.350   3.840
 5433SOL    HW117198   0.286   1.397   3.783
 5433SOL    HW217199   0.250   1.348   3.934
 5434SOL     OW17200   4.123   0.493   4.898
 5434SOL    HW117201   4.146   0.585   4.931
 5434SOL    HW217202   4.093   0.498   4.803
 5435SOL     OW17203   6.166   1.726   1.104
 5435SOL    HW117204   6.098   1.669   1.058
 5435SOL    HW217205   6.244   1.740   1.043
 5436SOL     OW17206   5.588   4.010   4.724
 5436SOL    HW117207   5.610   4.061   4.807
 5436SOL    HW217208   5.504   4.046   4.684
 5437SOL     OW17209   2.447   5.129   5.586
 5437SOL    HW117210   2.513   5.067   5.543
 5437SOL    HW217211   2.419   5.092   5.674
 5438SOL     OW17212   5.829   4.047   2.609
 5438SOL    HW117213   5.864   3.969   2.661
 5438SOL    HW217214   5.733   4.061   2.629
 5439SOL     OW17215   6.982   2.413   0.219
 5439SOL    HW117216   7.001   2.315   0.217
 5439SOL    HW217217   6.951   2.439   0.311
 5440SOL     OW17218   0.583   0.058   2.611
 5440SOL    HW117219   0.512   0.089   2.548
 5440SOL    HW217220   0.655   0.127   2.616
 5441SOL     OW17221   4.848   3.132   3.537
 5441SOL    HW117222   4.897   3.200   3.483
 5441SOL    HW217223   4.843   3.046   3.486
 5442SOL     OW17224   2.953   6.953   3.416
 5442SOL    HW117225   3.013   6.873   3.410
 5442SOL    HW217226   2.897   6.948   3.498
 5443SOL     OW17227   2.668   6.157   3.970
 5443SOL    HW117228   2.680   6.064   4.005
 5443SOL    HW217229   2.744   6.179   3.909
 5444SOL     OW17230   0.599   0.675   3.191
 5444SOL    HW117231   0.635   0.594   3.236
 5444SOL    HW217232   0.559   0.736   3.260
 5445SOL     OW17233   6.364   4.583   4.080
 5445SOL    HW117234   6.358   4.682   4.073
 5445SOL    HW217235   6.434   4.549   4.017
 5446SOL     OW17236   5.440   5.044   4.818
 5446SOL    HW117237   5.368   5.005   4.876
 5446SOL    HW217238   5.498   4.970   4.784
 5447SOL     OW17239   1.503   1.785   0.699
 5447SOL    HW117240   1.408   1.757   0.690
 5447SOL    HW217241   1.511   1.883   0.680
 5448SOL     OW17242   5.883   3.934   4.617
 5448SOL    HW117243   5.864   3.921   4.520
 5448SOL    HW217244   5.802   3.971   4.662
 5449SOL     OW17245   1.698   1.513   0.054
 5449SOL    HW117246   1.763   1.584   0.082
 5449SOL    HW217247   1.670   1.460   0.134
 5450SOL     OW17248   2.226   0.511   1.888
 5450SOL    HW117249   2.132   0.491   1.860
 5450SOL    HW217250   2.275   0.550   1.810
 5451SOL     OW17251   2.069   5.546   3.257
 5451SOL    HW117252   2.070   5.617   3.327
 5451SOL    HW217253   1.976   5.511   3.246
 5452SOL     OW17254   2.270   3.693   0.428
 5452SOL    HW117255   2.198   3.626   0.409
 5452SOL    HW217256   2.228   3.782   0.445
 5453SOL     OW17257   5.059   4.268   1.402
 5453SOL    HW117258   5.131   4.234   1.462
 5453SOL    HW217259   5.014   4.346   1.445
 5454SOL     OW17260   6.441   4.389   5.619
 5454SOL    HW117261   6.494   4.315   5.660
 5454SOL    HW217262   6.501   4.449   5.567
 5455SOL     OW17263   6.684   2.392   2.050
 5455SOL    HW117264   6.760   2.446   2.087
 5455SOL    HW217265   6.675   2.410   1.952
 5456SOL     OW17266   2.806   6.951   0.339
 5456SOL    HW117267   2.759   6.880   0.286
 5456SOL    HW217268   2.900   6.923   0.355
 5457SOL     OW17269   0.231   2.487   0.903
 5457SOL    HW117270   0.310   2.438   0.866
 5457SOL    HW217271   0.260   2.579   0.933
 5458SOL     OW17272   0.266   4.666   0.368
 5458SOL    HW117273   0.287   4.659   0.465
 5458SOL    HW217274   0.171   4.693   0.356
 5459SOL     OW17275   2.826   3.824   6.538
 5459SOL    HW117276   2.856   3.777   6.621
 5459SOL    HW217277   2.903   3.834   6.475
 5460SOL     OW17278   4.045   0.068   3.001
 5460SOL    HW117279   4.093   0.137   2.946
 5460SOL    HW217280   3.983   0.114   3.065
 5461SOL     OW17281   0.267   0.509   5.942
 5461SOL    HW117282   0.266   0.596   5.893
 5461SOL    HW217283   0.312   0.439   5.886
 5462SOL     OW17284   6.480   6.422   1.141
 5462SOL    HW117285   6.397   6.479   1.135
 5462SOL    HW217286   6.550   6.471   1.193
 5463SOL     OW17287   0.099   1.324   0.582
 5463SOL    HW117288   0.136   1.232   0.577
 5463SOL    HW217289   0.172   1.389   0.605
 5464SOL     OW17290   6.885   0.517   4.569
 5464SOL    HW117291   6.937   0.433   4.549
 5464SOL    HW217292   6.943   0.580   4.621
 5465SOL     OW17293   4.819   0.828   4.352
 5465SOL    HW117294   4.761   0.856   4.276
 5465SOL    HW217295   4.771   0.759   4.407
 5466SOL     OW17296   5.329   3.048   4.922
 5466SOL    HW117297   5.298   2.974   4.982
 5466SOL    HW217298   5.340   3.013   4.829
 5467SOL     OW17299   4.892   3.946   3.438
 5467SOL    HW117300   4.905   3.907   3.346
 5467SOL    HW217301   4.882   3.872   3.504
 5468SOL     OW17302   6.628   2.826   3.713
 5468SOL    HW117303   6.552   2.762   3.718
 5468SOL    HW217304   6.714   2.776   3.703
 5469SOL     OW17305   2.702   5.680   5.883
 5469SOL    HW117306   2.606   5.689   5.858
 5469SOL    HW217307   2.754   5.647   5.804
 5470SOL     OW17308   3.460   5.209   3.257
 5470SOL    HW117309   3.523   5.208   3.334
 5470SOL    HW217310   3.397   5.131   3.264
 5471SOL     OW17311   5.555   6.656   2.777
 5471SOL    HW117312   5.625   6.715   2.737
 5471SOL    HW217313   5.471   6.709   2.792
 5472SOL     OW17314   3.222   3.943   6.589
 5472SOL    HW117315   3.203   4.037   6.620
 5472SOL    HW217316   3.299   3.944   6.526
 5473SOL     OW17317   0.695   3.331   2.527
 5473SOL    HW117318   0.616   3.326   2.465
 5473SOL    HW217319   0.778   3.308   2.477
 5474SOL     OW17320   1.126   4.829   4.036
 5474SOL    HW117321   1.034   4.829   3.996
 5474SOL    HW217322   1.132   4.901   4.105
 5475SOL     OW17323   2.285   2.919   0.832
 5475SOL    HW117324   2.354   2.891   0.765
 5475SOL    HW217325   2.315   2.894   0.924
 5476SOL     OW17326   2.636   4.347   5.896
 5476SOL    HW117327   2.618   4.371   5.801
 5476SOL    HW217328   2.603   4.421   5.955
 5477SOL     OW17329   1.904   4.482   2.742
 5477SOL    HW117330   1.998   4.514   2.729
 5477SOL    HW217331   1.891   4.452   2.836
 5478SOL     OW17332   3.047   5.865   4.541
 5478SOL    HW117333   3.144   5.885   4.529
 5478SOL    HW217334   3.036   5.771   4.574
 5479SOL     OW17335   5.461   1.571   6.423
 5479SOL    HW117336   5.443   1.558   6.520
 5479SOL    HW217337   5.533   1.638   6.411
 5480SOL     OW17338   5.801   4.762   3.695
 5480SOL    HW117339   5.824   4.835   3.631
 5480SOL    HW217340   5.709   4.777   3.730
 5481SOL     OW17341   4.239   1.729   4.268
 5481SOL    HW117342   4.217   1.716   4.171
 5481SOL    HW217343   4.268   1.642   4.307
 5482SOL     OW17344   3.559   4.403   1.715
 5482SOL    HW117345   3.554   4.481   1.778
 5482SOL    HW217346   3.492   4.334   1.742
 5483SOL     OW17347   0.266   1.696   5.601
 5483SOL    HW117348   0.318   1.650   5.529
 5483SOL    HW217349   0.190   1.747   5.560
 5484SOL     OW17350   3.992   1.583   4.846
 5484SOL    HW117351   4.062   1.609   4.914
 5484SOL    HW217352   4.034   1.579   4.756
 5485SOL     OW17353   3.985   0.293   4.614
 5485SOL    HW117354   3.916   0.346   4.566
 5485SOL    HW217355   4.063   0.277   4.554
 5486SOL     OW17356   2.448   6.283   5.310
 5486SOL    HW117357   2.465   6.185   5.305
 5486SOL    HW217358   2.454   6.323   5.219
 5487SOL     OW17359   5.064   2.434   6.915
 5487SOL    HW117360   4.986   2.471   6.966
 5487SOL    HW217361   5.146   2.439   6.973
 5488SOL     OW17362   6.194   0.500   1.105
 5488SOL    HW117363   6.204   0.403   1.084
 5488SOL    HW217364   6.271   0.531   1.160
 5489SOL     OW17365   0.198   4.264   1.686
 5489SOL    HW117366   0.135   4.186   1.684
 5489SOL    HW217367   0.287   4.234   1.722
 5490SOL     OW17368   3.248   0.445   2.478
 5490SOL    HW117369   3.189   0.376   2.519
 5490SOL    HW217370   3.264   0.519   2.543
 5491SOL     OW17371   0.933   3.283   0.322
 5491SOL    HW117372   0.908   3.187   0.306
 5491SOL    HW217373   1.032   3.293   0.317
 5492SOL     OW17374   0.560   3.909   6.524
 5492SOL    HW117375   0.468   3.923   6.561
 5492SOL    HW217376   0.563   3.824   6.472
 5493SOL     OW17377   3.424   4.138   4.277
 5493SOL    HW117378   3.516   4.175   4.267
 5493SOL    HW217379   3.386   4.121   4.186
 5494SOL     OW17380   0.841   3.776   6.423
 5494SOL    HW117381   0.749   3.745   6.397
 5494SOL    HW217382   0.859   3.864   6.381
 5495SOL     OW17383   5.402   1.084   0.900
 5495SOL    HW117384   5.481   1.101   0.959
 5495SOL    HW217385   5.365   1.170   0.867
 5496SOL     OW17386   4.370   0.747   3.366
 5496SOL    HW117387   4.388   0.813   3.294
 5496SOL    HW217388   4.272   0.735   3.376
 5497SOL     OW17389   6.898   1.159   5.028
 5497SOL    HW117390   6.995   1.183   5.031
 5497SOL    HW217391   6.863   1.170   4.935
 5498SOL     OW17392   0.027   5.807   1.479
 5498SOL    HW117393   0.015   5.897   1.437
 5498SOL    HW217394   6.980   5.788   1.540
 5499SOL     OW17395   0.439   0.561   4.747
 5499SOL    HW117396   0.412   0.496   4.676
 5499SOL    HW217397   0.378   0.640   4.743
 5500SOL     OW17398   0.772   0.368   0.351
 5500SOL    HW117399   0.806   0.276   0.335
 5500SOL    HW217400   0.802   0.427   0.276
 5501SOL     OW17401   3.490   1.678   6.661
 5501SOL    HW117402   3.571   1.724   6.624
 5501SOL    HW217403   3.482   1.587   6.620
 5502SOL     OW17404   4.707   3.853   0.409
 5502SOL    HW117405   4.735   3.947   0.427
 5502SOL    HW217406   4.780   3.804   0.362
 5503SOL     OW17407   6.646   4.104   1.554
 5503SOL    HW117408   6.600   4.176   1.606
 5503SOL    HW217409   6.695   4.043   1.616
 5504SOL     OW17410   4.644   1.520   5.359
 5504SOL    HW117411   4.609   1.590   5.296
 5504SOL    HW217412   4.743   1.533   5.371
 5505SOL     OW17413   1.805   5.230   3.611
 5505SOL    HW117414   1.795   5.245   3.513
 5505SOL    HW217415   1.775   5.137   3.634
 5506SOL     OW17416   0.442   3.770   0.405
 5506SOL    HW117417   0.385   3.768   0.487
 5506SOL    HW217418   0.537   3.789   0.431
 5507SOL     OW17419   4.333   1.126   4.688
 5507SOL    HW117420   4.359   1.218   4.658
 5507SOL    HW217421   4.313   1.127   4.786
 5508SOL     OW17422   1.349   0.832   0.349
 5508SOL    HW117423   1.312   0.802   0.261
 5508SOL    HW217424   1.336   0.760   0.417
 5509SOL     OW17425   0.393   6.150   6.008
 5509SOL    HW117426   0.354   6.152   6.100
 5509SOL    HW217427   0.452   6.230   5.995
 5510SOL     OW17428   4.718   5.279   0.137
 5510SOL    HW117429   4.676   5.358   0.091
 5510SOL    HW217430   4.682   5.271   0.229
 5511SOL     OW17431   1.023   0.303   3.706
 5511SOL    HW117432   0.963   0.224   3.716
 5511SOL    HW217433   1.118   0.273   3.698
 5512SOL     OW17434   5.214   2.118   0.572
 5512SOL    HW117435   5.198   2.110   0.670
 5512SOL    HW217436   5.129   2.099   0.523
 5513SOL     OW17437   3.773   5.026   5.949
 5513SOL    HW117438   3.815   5.099   6.004
 5513SOL    HW217439   3.701   4.981   6.002
 5514SOL     OW17440   3.352   0.435   4.591
 5514SOL    HW117441   3.448   0.419   4.568
 5514SOL    HW217442   3.294   0.382   4.530
 5515SOL     OW17443   0.888   5.805   1.973
 5515SOL    HW117444   0.804   5.845   2.009
 5515SOL    HW217445   0.898   5.829   1.877
 5516SOL     OW17446   1.958   3.033   5.969
 5516SOL    HW117447   1.908   3.020   6.055
 5516SOL    HW217448   1.893   3.047   5.895
 5517SOL     OW17449   2.032   3.368   2.110
 5517SOL    HW117450   2.038   3.269   2.096
 5517SOL    HW217451   2.104   3.413   2.057
 5518SOL     OW17452   5.863   6.089   6.592
 5518SOL    HW117453   5.800   6.166   6.598
 5518SOL    HW217454   5.816   6.004   6.616
 5519SOL     OW17455   5.418   3.153   3.000
 5519SOL    HW117456   5.381   3.138   2.908
 5519SOL    HW217457   5.472   3.074   3.027
 5520SOL     OW17458   6.531   6.800   2.445
 5520SOL    HW117459   6.525   6.822   2.542
 5520SOL    HW217460   6.488   6.873   2.391
 5521SOL     OW17461   4.950   6.358   2.202
 5521SOL    HW117462   4.870   6.382   2.257
 5521SOL    HW217463   4.925   6.286   2.137
 5522SOL     OW17464   6.282   4.541   0.353
 5522SOL    HW117465   6.227   4.578   0.278
 5522SOL    HW217466   6.234   4.556   0.440
 5523SOL     OW17467   4.174   1.764   1.832
 5523SOL    HW117468   4.157   1.671   1.865
 5523SOL    HW217469   4.175   1.827   1.909
 5524SOL     OW17470   4.597   0.216   4.555
 5524SOL    HW117471   4.583   0.166   4.469
 5524SOL    HW217472   4.673   0.175   4.605
 5525SOL     OW17473   0.488   2.243   0.219
 5525SOL    HW117474   0.471   2.191   0.135
 5525SOL    HW217475   0.461   2.189   0.298
 5526SOL     OW17476   4.858   4.927   2.965
 5526SOL    HW117477   4.784   4.925   3.032
 5526SOL    HW217478   4.934   4.979   3.002
 5527SOL     OW17479   4.916   3.651   4.171
 5527SOL    HW117480   5.003   3.645   4.122
 5527SOL    HW217481   4.894   3.562   4.210
 5528SOL     OW17482   1.694   1.031   0.395
 5528SOL    HW117483   1.766   1.095   0.422
 5528SOL    HW217484   1.732   0.963   0.333
 5529SOL     OW17485   3.497   6.792   5.403
 5529SOL    HW117486   3.562   6.750   5.340
 5529SOL    HW217487   3.420   6.730   5.419
 5530SOL     OW17488   5.859   1.873   0.674
 5530SOL    HW117489   5.911   1.958   0.679
 5530SOL    HW217490   5.922   1.796   0.662
 5531SOL     OW17491   3.601   3.717   1.761
 5531SOL    HW117492   3.613   3.655   1.838
 5531SOL    HW217493   3.682   3.774   1.750
 5532SOL     OW17494   1.176   3.401   1.040
 5532SOL    HW117495   1.147   3.471   0.975
 5532SOL    HW217496   1.235   3.335   0.993
 5533SOL     OW17497   3.920   1.901   3.044
 5533SOL    HW117498   3.895   1.850   3.126
 5533SOL    HW217499   3.994   1.854   2.996
 5534SOL     OW17500   1.208   1.824   6.866
 5534SOL    HW117501   1.146   1.822   6.945
 5534SOL    HW217502   1.302   1.839   6.898
 5535SOL     OW17503   0.934   1.529   3.260
 5535SOL    HW117504   0.959   1.622   3.232
 5535SOL    HW217505   0.993   1.499   3.334
 5536SOL     OW17506   3.896   0.883   4.152
 5536SOL    HW117507   3.977   0.839   4.190
 5536SOL    HW217508   3.892   0.977   4.183
 5537SOL     OW17509   2.875   1.329   2.458
 5537SOL    HW117510   2.947   1.270   2.494
 5537SOL    HW217511   2.830   1.283   2.382
 5538SOL     OW17512   3.601   5.661   5.027
 5538SOL    HW117513   3.664   5.588   5.052
 5538SOL    HW217514   3.653   5.743   5.004
 5539SOL     OW17515   0.996   4.054   1.926
 5539SOL    HW117516   1.012   4.149   1.899
 5539SOL    HW217517   0.912   4.047   1.978
 5540SOL     OW17518   4.606   4.333   3.845
 5540SOL    HW117519   4.628   4.271   3.770
 5540SOL    HW217520   4.623   4.287   3.932
 5541SOL     OW17521   4.895   0.535   6.653
 5541SOL    HW117522   4.903   0.582   6.565
 5541SOL    HW217523   4.906   0.437   6.640
 5542SOL     OW17524   4.598   3.604   5.984
 5542SOL    HW117525   4.529   3.538   6.015
 5542SOL    HW217526   4.574   3.637   5.893
 5543SOL     OW17527   4.275   4.136   6.621
 5543SOL    HW117528   4.336   4.157   6.544
 5543SOL    HW217529   4.325   4.083   6.689
 5544SOL     OW17530   5.005   5.415   6.799
 5544SOL    HW117531   5.024   5.370   6.886
 5544SOL    HW217532   4.992   5.513   6.813
 5545SOL     OW17533   4.566   0.928   2.642
 5545SOL    HW117534   4.543   1.025   2.645
 5545SOL    HW217535   4.505   0.881   2.579
 5546SOL     OW17536   0.357   4.629   4.438
 5546SOL    HW117537   0.266   4.667   4.453
 5546SOL    HW217538   0.426   4.692   4.472
 5547SOL     OW17539   2.998   6.747   5.495
 5547SOL    HW117540   3.020   6.789   5.582
 5547SOL    HW217541   2.984   6.818   5.426
 5548SOL     OW17542   6.067   2.296   5.326
 5548SOL    HW117543   6.099   2.362   5.393
 5548SOL    HW217544   5.981   2.329   5.285
 5549SOL     OW17545   4.189   5.071   6.809
 5549SOL    HW117546   4.189   4.993   6.871
 5549SOL    HW217547   4.111   5.131   6.831
 5550SOL     OW17548   2.894   5.322   2.685
 5550SOL    HW117549   2.945   5.237   2.692
 5550SOL    HW217550   2.930   5.388   2.752
 5551SOL     OW17551   2.290   1.018   2.708
 5551SOL    HW117552   2.268   1.020   2.806
 5551SOL    HW217553   2.231   0.952   2.662
 5552SOL     OW17554   0.156   1.018   6.934
 5552SOL    HW117555   0.116   0.968   6.858
 5552SOL    HW217556   0.236   1.068   6.902
 5553SOL     OW17557   4.001   6.465   0.475
 5553SOL    HW117558   3.907   6.431   0.472
 5553SOL    HW217559   4.010   6.543   0.414
 5554SOL     OW17560   3.036   1.608   5.574
 5554SOL    HW117561   2.960   1.544   5.564
 5554SOL    HW217562   3.002   1.696   5.606
 5555SOL     OW17563   0.849   5.000   3.742
 5555SOL    HW117564   0.873   4.922   3.799
 5555SOL    HW217565   0.832   4.969   3.648
 5556SOL     OW17566   0.071   2.981   4.167
 5556SOL    HW117567   0.100   2.886   4.181
 5556SOL    HW217568   0.001   3.004   4.235
 5557SOL     OW17569   3.344   4.956   3.508
 5557SOL    HW117570   3.368   4.991   3.598
 5557SOL    HW217571   3.254   4.914   3.511
 5558SOL     OW17572   5.150   3.457   5.442
 5558SOL    HW117573   5.062   3.488   5.404
 5558SOL    HW217574   5.162   3.360   5.422
 5559SOL     OW17575   2.822   0.088   2.523
 5559SOL    HW117576   2.862   0.034   2.596
 5559SOL    HW217577   2.752   0.034   2.475
 5560SOL     OW17578   0.363   6.986   2.789
 5560SOL    HW117579   0.402   6.915   2.848
 5560SOL    HW217580   0.435   7.026   2.732
 5561SOL     OW17581   2.262   1.962   3.703
 5561SOL    HW117582   2.192   1.910   3.750
 5561SOL    HW217583   2.321   2.007   3.769
 5562SOL     OW17584   1.866   1.962   6.593
 5562SOL    HW117585   1.908   1.919   6.513
 5562SOL    HW217586   1.899   2.056   6.602
 5563SOL     OW17587   4.488   6.394   2.637
 5563SOL    HW117588   4.513   6.478   2.588
 5563SOL    HW217589   4.401   6.360   2.603
 5564SOL     OW17590   5.270   1.834   1.308
 5564SOL    HW117591   5.284   1.749   1.258
 5564SOL    HW217592   5.177   1.837   1.344
 5565SOL     OW17593   4.669   2.009   6.024
 5565SOL    HW117594   4.651   2.099   6.064
 5565SOL    HW217595   4.703   2.020   5.931
 5566SOL     OW17596   1.306   5.344   1.522
 5566SOL    HW117597   1.269   5.396   1.444
 5566SOL    HW217598   1.255   5.259   1.532
 5567SOL     OW17599   0.819   4.869   0.803
 5567SOL    HW117600   0.850   4.868   0.898
 5567SOL    HW217601   0.743   4.933   0.793
 5568SOL     OW17602   4.380   2.450   1.922
 5568SOL    HW117603   4.411   2.476   2.014
 5568SOL    HW217604   4.454   2.465   1.857
 5569SOL     OW17605   3.914   1.800   2.009
 5569SOL    HW117606   4.000   1.829   2.051
 5569SOL    HW217607   3.858   1.881   1.989
 5570SOL     OW17608   6.225   4.768   4.630
 5570SOL    HW117609   6.314   4.795   4.593
 5570SOL    HW217610   6.236   4.740   4.725
 5571SOL     OW17611   0.434   6.312   0.292
 5571SOL    HW117612   0.414   6.246   0.219
 5571SOL    HW217613   0.475   6.265   0.370
 5572SOL     OW17614   2.641   2.329   6.481
 5572SOL    HW117615   2.548   2.349   6.453
 5572SOL    HW217616   2.696   2.305   6.401
 5573SOL     OW17617   0.999   2.920   0.616
 5573SOL    HW117618   0.904   2.917   0.647
 5573SOL    HW217619   1.036   2.827   0.615
 5574SOL     OW17620   6.792   1.390   4.512
 5574SOL    HW117621   6.788   1.449   4.592
 5574SOL    HW217622   6.743   1.304   4.531
 5575SOL     OW17623   1.481   0.845   1.756
 5575SOL    HW117624   1.529   0.930   1.775
 5575SOL    HW217625   1.446   0.807   1.842
 5576SOL     OW17626   6.504   5.240   1.884
 5576SOL    HW117627   6.448   5.278   1.811
 5576SOL    HW217628   6.478   5.281   1.972
 5577SOL     OW17629   2.334   3.329   5.356
 5577SOL    HW117630   2.310   3.234   5.375
 5577SOL    HW217631   2.250   3.383   5.348
 5578SOL     OW17632   3.686   2.813   0.633
 5578SOL    HW117633   3.610   2.829   0.570
 5578SOL    HW217634   3.652   2.781   0.721
 5579SOL     OW17635   5.937   3.726   5.716
 5579SOL    HW117636   5.868   3.793   5.743
 5579SOL    HW217637   5.990   3.698   5.796
 5580SOL     OW17638   4.433   1.975   0.765
 5580SOL    HW117639   4.453   2.056   0.821
 5580SOL    HW217640   4.356   1.995   0.704
 5581SOL     OW17641   2.759   0.269   0.733
 5581SOL    HW117642   2.847   0.298   0.770
 5581SOL    HW217643   2.773   0.232   0.641
 5582SOL     OW17644   3.445   3.595   4.307
 5582SOL    HW117645   3.468   3.661   4.235
 5582SOL    HW217646   3.409   3.512   4.264
 5583SOL     OW17647   4.333   6.821   2.572
 5583SOL    HW117648   4.367   6.858   2.486
 5583SOL    HW217649   4.406   6.825   2.641
 5584SOL     OW17650   5.736   3.957   3.587
 5584SOL    HW117651   5.836   3.957   3.591
 5584SOL    HW217652   5.699   3.913   3.668
 5585SOL     OW17653   5.881   0.523   4.073
 5585SOL    HW117654   5.782   0.528   4.089
 5585SOL    HW217655   5.900   0.543   3.977
 5586SOL     OW17656   1.742   2.243   6.487
 5586SOL    HW117657   1.818   2.272   6.429
 5586SOL    HW217658   1.669   2.206   6.430
 5587SOL     OW17659   3.817   6.911   2.481
 5587SOL    HW117660   3.834   6.944   2.574
 5587SOL    HW217661   3.791   6.988   2.423
 5588SOL     OW17662   1.541   6.811   4.533
 5588SOL    HW117663   1.463   6.873   4.539
 5588SOL    HW217664   1.614   6.855   4.480
 5589SOL     OW17665   5.081   2.963   5.822
 5589SOL    HW117666   5.103   2.973   5.725
 5589SOL    HW217667   5.157   2.918   5.868
 5590SOL     OW17668   6.576   5.633   3.444
 5590SOL    HW117669   6.538   5.722   3.419
 5590SOL    HW217670   6.551   5.566   3.375
 5591SOL     OW17671   5.470   0.587   0.258
 5591SOL    HW117672   5.434   0.639   0.180
 5591SOL    HW217673   5.569   0.601   0.263
 5592SOL     OW17674   2.173   3.462   4.101
 5592SOL    HW117675   2.164   3.543   4.160
 5592SOL    HW217676   2.083   3.435   4.068
 5593SOL     OW17677   0.262   2.342   5.896
 5593SOL    HW117678   0.293   2.332   5.801
 5593SOL    HW217679   0.336   2.318   5.958
 5594SOL     OW17680   2.321   1.135   7.000
 5594SOL    HW117681   2.295   1.230   6.982
 5594SOL    HW217682   2.401   1.112   6.944
 5595SOL     OW17683   6.592   0.658   5.608
 5595SOL    HW117684   6.649   0.739   5.621
 5595SOL    HW217685   6.650   0.576   5.605
 5596SOL     OW17686   6.005   6.965   2.545
 5596SOL    HW117687   6.030   0.031   2.535
 5596SOL    HW217688   5.910   6.953   2.515
 5597SOL     OW17689   5.344   2.246   5.901
 5597SOL    HW117690   5.294   2.276   5.981
 5597SOL    HW217691   5.286   2.185   5.846
 5598SOL     OW17692   5.112   2.299   3.711
 5598SOL    HW117693   5.017   2.286   3.740
 5598SOL    HW217694   5.173   2.278   3.787
 5599SOL     OW17695   5.628   4.013   1.922
 5599SOL    HW117696   5.606   4.107   1.896
 5599SOL    HW217697   5.546   3.968   1.956
 5600SOL     OW17698   2.511   0.217   3.061
 5600SOL    HW117699   2.605   0.226   3.094
 5600SOL    HW217700   2.450   0.196   3.138
 5601SOL     OW17701   5.160   2.752   5.584
 5601SOL    HW117702   5.078   2.741   5.640
 5601SOL    HW217703   5.166   2.676   5.519
 5602SOL     OW17704   0.242   1.985   3.791
 5602SOL    HW117705   0.208   1.941   3.708
 5602SOL    HW217706   0.195   2.072   3.805
 5603SOL     OW17707   4.508   2.626   5.116
 5603SOL    HW117708   4.467   2.636   5.025
 5603SOL    HW217709   4.563   2.707   5.137
 5604SOL     OW17710   0.809   0.886   4.232
 5604SOL    HW117711   0.857   0.800   4.246
 5604SOL    HW217712   0.718   0.867   4.195
 5605SOL     OW17713   0.840   0.137   4.722
 5605SOL    HW117714   0.821   0.065   4.655
 5605SOL    HW217715   0.766   0.139   4.789
 5606SOL     OW17716   4.605   1.520   0.321
 5606SOL    HW117717   4.676   1.541   0.253
 5606SOL    HW217718   4.517   1.556   0.290
 5607SOL     OW17719   6.023   2.451   3.559
 5607SOL    HW117720   5.973   2.386   3.501
 5607SOL    HW217721   5.982   2.542   3.550
 5608SOL     OW17722   6.150   0.453   3.034
 5608SOL    HW117723   6.054   0.446   3.060
 5608SOL    HW217724   6.159   0.513   2.954
 5609SOL     OW17725   4.647   6.432   0.289
 5609SOL    HW117726   4.728   6.486   0.269
 5609SOL    HW217727   4.668   6.335   0.279
 5610SOL     OW17728   5.826   4.058   6.797
 5610SOL    HW117729   5.831   4.003   6.881
 5610SOL    HW217730   5.918   4.068   6.759
 5611SOL     OW17731   7.021   4.303   1.976
 5611SOL    HW117732   6.974   4.367   2.037
 5611SOL    HW217733   6.993   4.321   1.882
 5612SOL     OW17734   3.278   3.117   0.390
 5612SOL    HW117735   3.283   3.182   0.466
 5612SOL    HW217736   3.183   3.089   0.377
 5613SOL     OW17737   6.976   5.345   4.228
 5613SOL    HW117738   6.972   5.297   4.316
 5613SOL    HW217739   6.977   5.444   4.245
 5614SOL     OW17740   6.543   1.714   4.174
 5614SOL    HW117741   6.627   1.725   4.121
 5614SOL    HW217742   6.562   1.737   4.270
 5615SOL     OW17743   0.425   2.246   2.282
 5615SOL    HW117744   0.523   2.264   2.272
 5615SOL    HW217745   0.412   2.170   2.345
 5616SOL     OW17746   2.282   1.892   4.642
 5616SOL    HW117747   2.367   1.942   4.627
 5616SOL    HW217748   2.234   1.932   4.721
 5617SOL     OW17749   1.909   5.081   4.722
 5617SOL    HW117750   1.817   5.051   4.694
 5617SOL    HW217751   1.940   5.153   4.661
 5618SOL     OW17752   6.303   5.420   3.621
 5618SOL    HW117753   6.280   5.374   3.535
 5618SOL    HW217754   6.392   5.465   3.613
 5619SOL     OW17755   3.271   3.328   3.887
 5619SOL    HW117756   3.276   3.418   3.931
 5619SOL    HW217757   3.206   3.332   3.811
 5620SOL     OW17758   4.280   4.059   5.935
 5620SOL    HW117759   4.366   4.038   5.982
 5620SOL    HW217760   4.225   4.120   5.991
 5621SOL     OW17761   1.842   2.796   6.401
 5621SOL    HW117762   1.904   2.793   6.479
 5621SOL    HW217763   1.831   2.891   6.371
 5622SOL     OW17764   4.368   5.814   5.172
 5622SOL    HW117765   4.282   5.822   5.222
 5622SOL    HW217766   4.374   5.887   5.104
 5623SOL     OW17767   5.021   6.949   4.413
 5623SOL    HW117768   4.932   6.994   4.412
 5623SOL    HW217769   5.070   6.967   4.328
 5624SOL     OW17770   0.569   5.250   3.364
 5624SOL    HW117771   0.491   5.261   3.425
 5624SOL    HW217772   0.646   5.304   3.398
 5625SOL     OW17773   0.901   5.662   4.488
 5625SOL    HW117774   0.846   5.745   4.491
 5625SOL    HW217775   0.849   5.589   4.444
 5626SOL     OW17776   1.807   4.568   4.238
 5626SOL    HW117777   1.728   4.629   4.233
 5626SOL    HW217778   1.878   4.601   4.175
 5627SOL     OW17779   0.542   5.907   6.032
 5627SOL    HW117780   0.482   5.983   6.005
 5627SOL    HW217781   0.535   5.833   5.965
 5628SOL     OW17782   2.722   3.198   0.773
 5628SOL    HW117783   2.720   3.123   0.838
 5628SOL    HW217784   2.740   3.163   0.681
 5629SOL     OW17785   3.911   3.366   1.369
 5629SOL    HW117786   3.886   3.272   1.394
 5629SOL    HW217787   3.830   3.423   1.370
 5630SOL     OW17788   1.724   3.577   6.322
 5630SOL    HW117789   1.799   3.628   6.365
 5630SOL    HW217790   1.761   3.515   6.253
 5631SOL     OW17791   4.716   0.910   2.146
 5631SOL    HW117792   4.779   0.980   2.178
 5631SOL    HW217793   4.715   0.833   2.210
 5632SOL     OW17794   5.137   0.686   6.275
 5632SOL    HW117795   5.193   0.760   6.312
 5632SOL    HW217796   5.115   0.705   6.179
 5633SOL     OW17797   0.572   4.844   4.305
 5633SOL    HW117798   0.609   4.780   4.372
 5633SOL    HW217799   0.480   4.872   4.332
 5634SOL     OW17800   2.419   5.381   5.264
 5634SOL    HW117801   2.370   5.297   5.290
 5634SOL    HW217802   2.437   5.380   5.166
 5635SOL     OW17803   2.950   0.146   6.986
 5635SOL    HW117804   2.917   0.114   0.045
 5635SOL    HW217805   2.950   0.246   6.984
 5636SOL     OW17806   5.865   1.526   5.878
 5636SOL    HW117807   5.961   1.548   5.863
 5636SOL    HW217808   5.847   1.431   5.852
 5637SOL     OW17809   5.631   6.834   4.035
 5637SOL    HW117810   5.590   6.742   4.034
 5637SOL    HW217811   5.708   6.837   3.971
 5638SOL     OW17812   5.369   5.934   1.600
 5638SOL    HW117813   5.436   5.877   1.553
 5638SOL    HW217814   5.292   5.952   1.539
 5639SOL     OW17815   1.492   0.638   1.571
 5639SOL    HW117816   1.504   0.711   1.638
 5639SOL    HW217817   1.406   0.590   1.588
 5640SOL     OW17818   2.426   7.026   2.735
 5640SOL    HW117819   2.344   0.037   2.776
 5640SOL    HW217820   2.405   6.996   2.641
 5641SOL     OW17821   0.764   4.216   5.840
 5641SOL    HW117822   0.676   4.225   5.886
 5641SOL    HW217823   0.828   4.284   5.875
 5642SOL     OW17824   0.404   5.101   5.953
 5642SOL    HW117825   0.343   5.024   5.932
 5642SOL    HW217826   0.498   5.075   5.932
 5643SOL     OW17827   3.412   0.889   4.760
 5643SOL    HW117828   3.346   0.900   4.686
 5643SOL    HW217829   3.376   0.934   4.842
 5644SOL     OW17830   5.178   1.369   4.033
 5644SOL    HW117831   5.099   1.334   3.983
 5644SOL    HW217832   5.253   1.303   4.027
 5645SOL     OW17833   6.061   4.460   2.405
 5645SOL    HW117834   6.077   4.364   2.427
 5645SOL    HW217835   6.045   4.512   2.489
 5646SOL     OW17836   1.243   5.447   3.857
 5646SOL    HW117837   1.278   5.355   3.874
 5646SOL    HW217838   1.191   5.478   3.936
 5647SOL     OW17839   6.516   6.273   6.514
 5647SOL    HW117840   6.587   6.328   6.559
 5647SOL    HW217841   6.543   6.177   6.515
 5648SOL     OW17842   1.794   1.056   2.948
 5648SOL    HW117843   1.871   1.111   2.916
 5648SOL    HW217844   1.790   1.057   3.047
 5649SOL     OW17845   1.441   6.990   5.314
 5649SOL    HW117846   1.455   6.946   5.226
 5649SOL    HW217847   1.477   6.931   5.387
 5650SOL     OW17848   0.375   5.023   1.219
 5650SOL    HW117849   0.384   4.973   1.133
 5650SOL    HW217850   0.467   5.043   1.255
 5651SOL     OW17851   0.315   1.537   1.640
 5651SOL    HW117852   0.359   1.594   1.709
 5651SOL    HW217853   0.250   1.592   1.588
 5652SOL     OW17854   4.877   6.116   2.067
 5652SOL    HW117855   4.822   6.036   2.090
 5652SOL    HW217856   4.973   6.090   2.055
 5653SOL     OW17857   0.192   6.363   6.444
 5653SOL    HW117858   0.113   6.379   6.502
 5653SOL    HW217859   0.267   6.422   6.472
 5654SOL     OW17860   0.541   7.018   6.170
 5654SOL    HW117861   0.532   0.025   6.263
 5654SOL    HW217862   0.459   0.009   6.118
 5655SOL     OW17863   0.991   2.920   4.312
 5655SOL    HW117864   1.066   2.986   4.322
 5655SOL    HW217865   0.903   2.967   4.325
 5656SOL     OW17866   3.116   5.142   0.720
 5656SOL    HW117867   3.064   5.057   0.710
 5656SOL    HW217868   3.093   5.186   0.806
 5657SOL     OW17869   4.715   6.881   1.253
 5657SOL    HW117870   4.771   6.929   1.184
 5657SOL    HW217871   4.770   6.866   1.335
 5658SOL     OW17872   2.829   6.736   5.987
 5658SOL    HW117873   2.825   6.769   6.081
 5658SOL    HW217874   2.925   6.730   5.958
 5659SOL     OW17875   2.967   3.717   2.798
 5659SOL    HW117876   2.925   3.754   2.716
 5659SOL    HW217877   3.066   3.724   2.792
 5660SOL     OW17878   5.540   0.696   6.609
 5660SOL    HW117879   5.627   0.745   6.609
 5660SOL    HW217880   5.465   0.760   6.625
 5661SOL     OW17881   7.019   5.275   6.080
 5661SOL    HW117882   0.067   5.280   6.017
 5661SOL    HW217883   0.005   5.201   6.145
 5662SOL     OW17884   2.433   4.994   4.265
 5662SOL    HW117885   2.439   4.926   4.337
 5662SOL    HW217886   2.482   5.076   4.292
 5663SOL     OW17887   1.320   4.122   6.827
 5663SOL    HW117888   1.312   4.088   6.921
 5663SOL    HW217889   1.384   4.199   6.825
 5664SOL     OW17890   0.111   3.890   3.916
 5664SOL    HW117891   0.092   3.793   3.933
 5664SOL    HW217892   0.025   3.941   3.917
 5665SOL     OW17893   1.484   1.261   6.395
 5665SOL    HW117894   1.580   1.290   6.388
 5665SOL    HW217895   1.434   1.326   6.452
 5666SOL     OW17896   5.045   5.820   0.916
 5666SOL    HW117897   5.040   5.752   0.989
 5666SOL    HW217898   5.139   5.830   0.886
 5667SOL     OW17899   0.498   4.760   3.641
 5667SOL    HW117900   0.481   4.858   3.653
 5667SOL    HW217901   0.542   4.745   3.553
 5668SOL     OW17902   5.320   2.307   6.635
 5668SOL    HW117903   5.234   2.350   6.607
 5668SOL    HW217904   5.395   2.346   6.581
 5669SOL     OW17905   0.276   3.561   6.479
 5669SOL    HW117906   0.321   3.570   6.568
 5669SOL    HW217907   0.292   3.470   6.442
 5670SOL     OW17908   0.327   2.922   3.542
 5670SOL    HW117909   0.326   2.827   3.509
 5670SOL    HW217910   0.404   2.971   3.501
 5671SOL     OW17911   0.747   6.929   6.379
 5671SOL    HW117912   0.752   6.945   6.281
 5671SOL    HW217913   0.754   7.016   6.427
 5672SOL     OW17914   4.183   5.057   6.287
 5672SOL    HW117915   4.175   5.085   6.382
 5672SOL    HW217916   4.211   4.961   6.283
 5673SOL     OW17917   0.957   6.895   1.869
 5673SOL    HW117918   0.981   6.837   1.946
 5673SOL    HW217919   0.921   6.982   1.903
 5674SOL     OW17920   6.956   3.412   2.397
 5674SOL    HW117921   6.956   3.511   2.384
 5674SOL    HW217922   6.929   3.391   2.491
 5675SOL     OW17923   4.322   2.468   5.671
 5675SOL    HW117924   4.254   2.519   5.724
 5675SOL    HW217925   4.340   2.381   5.716
 5676SOL     OW17926   2.060   1.743   1.808
 5676SOL    HW117927   1.970   1.714   1.774
 5676SOL    HW217928   2.103   1.803   1.741
 5677SOL     OW17929   0.783   2.185   3.266
 5677SOL    HW117930   0.849   2.205   3.193
 5677SOL    HW217931   0.739   2.097   3.248
 5678SOL     OW17932   2.813   6.856   3.199
 5678SOL    HW117933   2.848   6.889   3.286
 5678SOL    HW217934   2.889   6.839   3.136
 5679SOL     OW17935   1.342   6.954   4.009
 5679SOL    HW117936   1.387   0.012   4.023
 5679SOL    HW217937   1.408   6.887   3.974
 5680SOL     OW17938   1.579   5.414   0.931
 5680SOL    HW117939   1.596   5.489   0.867
 5680SOL    HW217940   1.486   5.422   0.968
 5681SOL     OW17941   1.288   3.657   6.954
 5681SOL    HW117942   1.223   3.696   6.889
 5681SOL    HW217943   1.378   3.652   6.912
 5682SOL     OW17944   2.057   4.757   6.250
 5682SOL    HW117945   2.026   4.724   6.339
 5682SOL    HW217946   2.088   4.680   6.194
 5683SOL     OW17947   4.513   1.826   6.159
 5683SOL    HW117948   4.576   1.862   6.090
 5683SOL    HW217949   4.541   1.858   6.249
 5684SOL     OW17950   4.196   3.550   4.626
 5684SOL    HW117951   4.134   3.628   4.628
 5684SOL    HW217952   4.289   3.581   4.606
 5685SOL     OW17953   0.567   4.712   1.564
 5685SOL    HW117954   0.506   4.636   1.543
 5685SOL    HW217955   0.516   4.787   1.605
 5686SOL     OW17956   2.898   0.808   0.274
 5686SOL    HW117957   2.884   0.766   0.364
 5686SOL    HW217958   2.852   0.753   0.205
 5687SOL     OW17959   6.728   3.719   4.829
 5687SOL    HW117960   6.814   3.766   4.847
 5687SOL    HW217961   6.687   3.755   4.745
 5688SOL     OW17962   6.517   1.248   0.051
 5688SOL    HW117963   6.591   1.294   0.002
 5688SOL    HW217964   6.435   1.305   0.048
 5689SOL     OW17965   4.017   1.003   6.802
 5689SOL    HW117966   4.052   0.948   6.879
 5689SOL    HW217967   3.997   0.943   6.725
 5690SOL     OW17968   2.528   6.297   1.350
 5690SOL    HW117969   2.524   6.210   1.399
 5690SOL    HW217970   2.623   6.319   1.328
 5691SOL     OW17971   3.096   6.407   2.325
 5691SOL    HW117972   3.030   6.364   2.263
 5691SOL    HW217973   3.188   6.399   2.286
 5692SOL     OW17974   0.121   2.623   5.863
 5692SOL    HW117975   0.207   2.662   5.830
 5692SOL    HW217976   0.131   2.524   5.873
 5693SOL     OW17977   5.442   2.822   2.082
 5693SOL    HW117978   5.515   2.835   2.015
 5693SOL    HW217979   5.357   2.799   2.035
 5694SOL     OW17980   0.493   1.139   3.835
 5694SOL    HW117981   0.498   1.236   3.860
 5694SOL    HW217982   0.487   1.131   3.735
 5695SOL     OW17983   0.991   2.446   2.966
 5695SOL    HW117984   0.903   2.473   2.928
 5695SOL    HW217985   1.065   2.495   2.919
 5696SOL     OW17986   1.613   0.366   2.936
 5696SOL    HW117987   1.604   0.267   2.945
 5696SOL    HW217988   1.534   0.402   2.885
 5697SOL     OW17989   6.105   1.765   0.664
 5697SOL    HW117990   6.162   1.814   0.730
 5697SOL    HW217991   6.148   1.678   0.641
 5698SOL     OW17992   0.287   2.522   1.953
 5698SOL    HW117993   0.289   2.621   1.935
 5698SOL    HW217994   0.381   2.487   1.957
 5699SOL     OW17995   6.390   2.412   3.318
 5699SOL    HW117996   6.486   2.434   3.304
 5699SOL    HW217997   6.369   2.323   3.276
 5700SOL     OW17998   6.692   6.326   4.666
 5700SOL    HW117999   6.607   6.278   4.688
 5700SOL    HW218000   6.762   6.260   4.638
 5701SOL     OW18001   0.918   5.911   3.325
 5701SOL    HW118002   0.996   5.974   3.332
 5701SOL    HW218003   0.853   5.946   3.258
 5702SOL     OW18004   1.869   7.023   6.005
 5702SOL    HW118005   1.956   0.038   5.986
 5702SOL    HW218006   1.832   6.984   5.921
 5703SOL     OW18007   5.094   4.702   0.389
 5703SOL    HW118008   5.101   4.661   0.480
 5703SOL    HW218009   5.134   4.794   0.390
 5704SOL     OW18010   3.984   5.076   2.349
 5704SOL    HW118011   4.081   5.081   2.376
 5704SOL    HW218012   3.976   5.022   2.266
 5705SOL     OW18013   6.060   1.039   0.421
 5705SOL    HW118014   6.125   0.964   0.409
 5705SOL    HW218015   6.004   1.050   0.339
 5706SOL     OW18016   1.179   1.770   0.667
 5706SOL    HW118017   1.113   1.818   0.724
 5706SOL    HW218018   1.156   1.673   0.664
 5707SOL     OW18019   0.464   6.607   0.335
 5707SOL    HW118020   0.517   6.626   0.418
 5707SOL    HW218021   0.462   6.509   0.318
 5708SOL     OW18022   5.554   6.567   1.309
 5708SOL    HW118023   5.545   6.665   1.323
 5708SOL    HW218024   5.647   6.538   1.329
 5709SOL     OW18025   1.084   6.672   3.653
 5709SOL    HW118026   0.986   6.657   3.667
 5709SOL    HW218027   1.120   6.726   3.730
 5710SOL     OW18028   2.215   3.066   5.592
 5710SOL    HW118029   2.224   3.154   5.638
 5710SOL    HW218030   2.126   3.026   5.612
 5711SOL     OW18031   5.313   0.774   2.986
 5711SOL    HW118032   5.245   0.839   3.020
 5711SOL    HW218033   5.277   0.681   2.994
 5712SOL     OW18034   0.861   6.343   5.759
 5712SOL    HW118035   0.922   6.298   5.694
 5712SOL    HW218036   0.769   6.303   5.753
 5713SOL     OW18037   1.219   2.028   0.857
 5713SOL    HW118038   1.306   2.030   0.807
 5713SOL    HW218039   1.215   1.944   0.912
 5714SOL     OW18040   1.334   6.291   0.070
 5714SOL    HW118041   1.364   6.329   7.012
 5714SOL    HW218042   1.411   6.246   0.115
 5715SOL     OW18043   1.238   5.981   3.373
 5715SOL    HW118044   1.258   5.924   3.293
 5715SOL    HW218045   1.274   5.937   3.455
 5716SOL     OW18046   1.236   3.752   5.589
 5716SOL    HW118047   1.145   3.722   5.617
 5716SOL    HW218048   1.280   3.800   5.664
 5717SOL     OW18049   1.794   5.452   0.346
 5717SOL    HW118050   1.886   5.467   0.310
 5717SOL    HW218051   1.734   5.527   0.318
 5718SOL     OW18052   1.176   4.140   6.094
 5718SOL    HW118053   1.116   4.211   6.133
 5718SOL    HW218054   1.160   4.054   6.142
 5719SOL     OW18055   2.431   0.980   6.176
 5719SOL    HW118056   2.394   1.045   6.110
 5719SOL    HW218057   2.369   0.902   6.184
 5720SOL     OW18058   0.883   4.771   4.514
 5720SOL    HW118059   0.944   4.846   4.488
 5720SOL    HW218060   0.904   4.691   4.459
 5721SOL     OW18061   0.331   3.964   0.897
 5721SOL    HW118062   0.345   3.979   0.995
 5721SOL    HW218063   0.342   3.867   0.876
 5722SOL     OW18064   5.963   1.613   4.945
 5722SOL    HW118065   5.923   1.697   4.906
 5722SOL    HW218066   6.009   1.561   4.873
 5723SOL     OW18067   4.089   4.032   0.177
 5723SOL    HW118068   4.107   3.951   0.232
 5723SOL    HW218069   4.004   4.020   0.126
 5724SOL     OW18070   3.960   2.397   5.311
 5724SOL    HW118071   4.008   2.330   5.367
 5724SOL    HW218072   4.024   2.468   5.282
 5725SOL     OW18073   5.087   5.952   3.316
 5725SOL    HW118074   5.096   5.901   3.401
 5725SOL    HW218075   5.099   5.890   3.238
 5726SOL     OW18076   6.522   3.451   3.536
 5726SOL    HW118077   6.478   3.389   3.471
 5726SOL    HW218078   6.621   3.452   3.519
 5727SOL     OW18079   0.056   3.231   3.726
 5727SOL    HW118080   0.070   3.326   3.754
 5727SOL    HW218081   0.084   3.170   3.801
 5728SOL     OW18082   4.508   1.471   6.345
 5728SOL    HW118083   4.453   1.397   6.308
 5728SOL    HW218084   4.454   1.524   6.410
 5729SOL     OW18085   0.860   1.252   0.693
 5729SOL    HW118086   0.877   1.163   0.651
 5729SOL    HW218087   0.928   1.270   0.764
 5730SOL     OW18088   4.426   5.548   5.832
 5730SOL    HW118089   4.416   5.524   5.736
 5730SOL    HW218090   4.375   5.631   5.852
 5731SOL     OW18091   2.134   6.631   4.002
 5731SOL    HW118092   2.224   6.594   3.977
 5731SOL    HW218093   2.146   6.707   4.065
 5732SOL     OW18094   6.361   4.435   4.863
 5732SOL    HW118095   6.383   4.398   4.953
 5732SOL    HW218096   6.344   4.360   4.799
 5733SOL     OW18097   3.167   0.579   5.467
 5733SOL    HW118098   3.267   0.581   5.465
 5733SOL    HW218099   3.136   0.588   5.562
 5734SOL     OW18100   1.680   6.837   6.748
 5734SOL    HW118101   1.729   6.792   6.822
 5734SOL    HW218102   1.584   6.848   6.773
 5735SOL     OW18103   3.587   1.487   2.880
 5735SOL    HW118104   3.573   1.442   2.792
 5735SOL    HW218105   3.668   1.546   2.874
 5736SOL     OW18106   5.657   4.755   0.489
 5736SOL    HW118107   5.720   4.679   0.509
 5736SOL    HW218108   5.564   4.727   0.510
 5737SOL     OW18109   5.464   6.218   0.426
 5737SOL    HW118110   5.449   6.314   0.452
 5737SOL    HW218111   5.404   6.194   0.349
 5738SOL     OW18112   3.828   1.690   6.884
 5738SOL    HW118113   3.791   1.611   6.834
 5738SOL    HW218114   3.926   1.697   6.866
 5739SOL     OW18115   1.539   6.749   5.461
 5739SOL    HW118116   1.472   6.690   5.417
 5739SOL    HW218117   1.627   6.741   5.414
 5740SOL     OW18118   4.586   3.634   1.175
 5740SOL    HW118119   4.558   3.550   1.223
 5740SOL    HW218120   4.597   3.708   1.241
 5741SOL     OW18121   7.020   3.766   4.321
 5741SOL    HW118122   7.015   3.726   4.413
 5741SOL    HW218123   0.010   3.694   4.255
 5742SOL     OW18124   4.673   6.178   3.085
 5742SOL    HW118125   4.655   6.147   2.991
 5742SOL    HW218126   4.665   6.278   3.089
 5743SOL     OW18127   3.293   5.620   5.207
 5743SOL    HW118128   3.340   5.668   5.281
 5743SOL    HW218129   3.270   5.685   5.135
 5744SOL     OW18130   5.570   1.082   2.158
 5744SOL    HW118131   5.492   1.034   2.199
 5744SOL    HW218132   5.563   1.078   2.058
 5745SOL     OW18133   2.617   0.699   4.196
 5745SOL    HW118134   2.518   0.694   4.205
 5745SOL    HW218135   2.645   0.655   4.111
 5746SOL     OW18136   4.889   6.516   1.382
 5746SOL    HW118137   4.970   6.505   1.439
 5746SOL    HW218138   4.849   6.606   1.398
 5747SOL     OW18139   0.764   5.342   1.630
 5747SOL    HW118140   0.826   5.263   1.633
 5747SOL    HW218141   0.803   5.416   1.685
 5748SOL     OW18142   1.693   0.030   0.671
 5748SOL    HW118143   1.732   0.120   0.688
 5748SOL    HW218144   1.732   7.021   0.587
 5749SOL     OW18145   1.725   6.734   4.940
 5749SOL    HW118146   1.736   6.831   4.921
 5749SOL    HW218147   1.680   6.690   4.862
 5750SOL     OW18148   6.277   6.116   5.416
 5750SOL    HW118149   6.290   6.032   5.468
 5750SOL    HW218150   6.191   6.160   5.444
 5751SOL     OW18151   2.319   2.747   4.867
 5751SOL    HW118152   2.230   2.740   4.911
 5751SOL    HW218153   2.374   2.817   4.911
 5752SOL     OW18154   5.668   0.229   0.573
 5752SOL    HW118155   5.712   0.318   0.586
 5752SOL    HW218156   5.646   0.216   0.476
 5753SOL     OW18157   3.458   4.204   4.734
 5753SOL    HW118158   3.377   4.147   4.721
 5753SOL    HW218159   3.430   4.300   4.744
 5754SOL     OW18160   0.977   5.526   1.723
 5754SOL    HW118161   1.032   5.483   1.794
 5754SOL    HW218162   1.031   5.598   1.678
 5755SOL     OW18163   1.530   2.114   6.372
 5755SOL    HW118164   1.546   2.053   6.294
 5755SOL    HW218165   1.460   2.181   6.348
 5756SOL     OW18166   0.660   0.346   2.779
 5756SOL    HW118167   0.566   0.366   2.753
 5756SOL    HW218168   0.715   0.326   2.698
 5757SOL     OW18169   0.547   5.410   4.254
 5757SOL    HW118170   0.519   5.468   4.177
 5757SOL    HW218171   0.597   5.331   4.219
 5758SOL     OW18172   2.328   1.383   2.707
 5758SOL    HW118173   2.384   1.310   2.668
 5758SOL    HW218174   2.309   1.452   2.637
 5759SOL     OW18175   4.573   0.703   0.375
 5759SOL    HW118176   4.492   0.687   0.431
 5759SOL    HW218177   4.574   0.799   0.345
 5760SOL     OW18178   6.227   1.928   0.850
 5760SOL    HW118179   6.152   1.993   0.862
 5760SOL    HW218180   6.309   1.977   0.820
 5761SOL     OW18181   6.057   4.969   5.775
 5761SOL    HW118182   6.125   4.926   5.835
 5761SOL    HW218183   6.088   4.963   5.680
 5762SOL     OW18184   4.835   4.395   0.960
 5762SOL    HW118185   4.932   4.376   0.978
 5762SOL    HW218186   4.826   4.444   0.873
 5763SOL     OW18187   5.915   6.212   0.767
 5763SOL    HW118188   5.880   6.256   0.684
 5763SOL    HW218189   5.888   6.266   0.847
 5764SOL     OW18190   4.511   4.536   4.317
 5764SOL    HW118191   4.455   4.563   4.395
 5764SOL    HW218192   4.560   4.615   4.281
 5765SOL     OW18193   6.164   3.383   0.169
 5765SOL    HW118194   6.068   3.355   0.162
 5765SOL    HW218195   6.213   3.320   0.229
 5766SOL     OW18196   1.726   1.944   5.310
 5766SOL    HW118197   1.629   1.919   5.316
 5766SOL    HW218198   1.763   1.911   5.224
 5767SOL     OW18199   2.571   0.093   0.801
 5767SOL    HW118200   2.640   0.156   0.764
 5767SOL    HW218201   2.617   0.014   0.842
 5768SOL     OW18202   0.529   6.903   3.648
 5768SOL    HW118203   0.472   6.956   3.585
 5768SOL    HW218204   0.494   6.809   3.653
 5769SOL     OW18205   2.633   5.225   4.190
 5769SOL    HW118206   2.677   5.241   4.278
 5769SOL    HW218207   2.535   5.243   4.197
 5770SOL     OW18208   6.665   6.435   6.174
 5770SOL    HW118209   6.605   6.355   6.169
 5770SOL    HW218210   6.713   6.435   6.262
 5771SOL     OW18211   1.114   7.017   4.149
 5771SOL    HW118212   1.186   6.993   4.085
 5771SOL    HW218213   1.088   0.083   4.136
 5772SOL     OW18214   5.166   1.142   1.086
 5772SOL    HW118215   5.237   1.092   1.037
 5772SOL    HW218216   5.103   1.183   1.021
 5773SOL     OW18217   4.379   1.162   3.396
 5773SOL    HW118218   4.405   1.068   3.417
 5773SOL    HW218219   4.451   1.224   3.429
 5774SOL     OW18220   3.370   0.019   4.172
 5774SOL    HW118221   3.436   7.028   4.245
 5774SOL    HW218222   3.280   0.034   4.212
 5775SOL     OW18223   1.008   0.145   2.178
 5775SOL    HW118224   1.015   0.242   2.201
 5775SOL    HW218225   1.096   0.113   2.143
 5776SOL     OW18226   0.544   0.017   3.913
 5776SOL    HW118227   0.516   7.007   3.826
 5776SOL    HW218228   0.524   6.983   3.987
 5777SOL     OW18229   6.874   0.600   5.069
 5777SOL    HW118230   6.845   0.574   4.976
 5777SOL    HW218231   6.807   0.663   5.108
 5778SOL     OW18232   1.626   0.326   0.258
 5778SOL    HW118233   1.559   0.259   0.290
 5778SOL    HW218234   1.604   0.416   0.296
 5779SOL     OW18235   4.993   2.240   0.845
 5779SOL    HW118236   5.079   2.191   0.833
 5779SOL    HW218237   4.943   2.242   0.759
 5780SOL     OW18238   6.305   6.104   3.772
 5780SOL    HW118239   6.316   6.091   3.870
 5780SOL    HW218240   6.272   6.019   3.730
 5781SOL     OW18241   0.293   5.151   4.183
 5781SOL    HW118242   0.271   5.243   4.216
 5781SOL    HW218243   0.290   5.150   4.083
 5782SOL     OW18244   1.951   1.839   0.824
 5782SOL    HW118245   1.991   1.931   0.819
 5782SOL    HW218246   2.022   1.774   0.851
 5783SOL     OW18247   0.979   0.959   1.317
 5783SOL    HW118248   1.065   1.002   1.289
 5783SOL    HW218249   0.983   0.937   1.415
 5784SOL     OW18250   0.052   6.298   5.479
 5784SOL    HW118251   0.130   6.357   5.457
 5784SOL    HW218252   7.002   6.356   5.497
 5785SOL     OW18253   2.383   2.141   0.208
 5785SOL    HW118254   2.469   2.127   0.159
 5785SOL    HW218255   2.393   2.215   0.274
 5786SOL     OW18256   0.577   4.355   0.591
 5786SOL    HW118257   0.484   4.356   0.553
 5786SOL    HW218258   0.591   4.438   0.645
 5787SOL     OW18259   2.304   1.472   4.429
 5787SOL    HW118260   2.252   1.437   4.506
 5787SOL    HW218261   2.360   1.399   4.390
 5788SOL     OW18262   3.035   1.421   1.733
 5788SOL    HW118263   3.094   1.491   1.774
 5788SOL    HW218264   2.995   1.457   1.649
 5789SOL     OW18265   3.501   4.874   0.430
 5789SOL    HW118266   3.447   4.814   0.489
 5789SOL    HW218267   3.481   4.970   0.453
 5790SOL     OW18268   1.384   4.391   5.152
 5790SOL    HW118269   1.353   4.314   5.096
 5790SOL    HW218270   1.477   4.373   5.185
 5791SOL     OW18271   4.093   1.220   2.396
 5791SOL    HW118272   4.182   1.265   2.406
 5791SOL    HW218273   4.027   1.286   2.362
 5792SOL     OW18274   6.010   3.289   2.264
 5792SOL    HW118275   6.025   3.192   2.282
 5792SOL    HW218276   5.918   3.315   2.294
 5793SOL     OW18277   5.364   1.137   3.962
 5793SOL    HW118278   5.321   1.057   4.004
 5793SOL    HW218279   5.463   1.132   3.975
 5794SOL     OW18280   2.676   1.383   0.332
 5794SOL    HW118281   2.624   1.426   0.406
 5794SOL    HW218282   2.612   1.338   0.269
 5795SOL     OW18283   6.424   7.012   0.129
 5795SOL    HW118284   6.471   0.049   0.185
 5795SOL    HW218285   6.486   6.937   0.107
 5796SOL     OW18286   4.302   1.594   6.926
 5796SOL    HW118287   4.300   1.691   6.951
 5796SOL    HW218288   4.393   1.572   6.890
 5797SOL     OW18289   4.700   2.609   6.226
 5797SOL    HW118290   4.669   2.514   6.231
 5797SOL    HW218291   4.621   2.670   6.225
 5798SOL     OW18292   0.630   4.743   5.545
 5798SOL    HW118293   0.696   4.795   5.600
 5798SOL    HW218294   0.650   4.645   5.553
 5799SOL     OW18295   7.018   0.516   2.789
 5799SOL    HW118296   6.949   0.584   2.765
 5799SOL    HW218297   7.027   0.511   2.888
 5800SOL     OW18298   6.384   6.553   1.869
 5800SOL    HW118299   6.395   6.512   1.778
 5800SOL    HW218300   6.333   6.491   1.928
 5801SOL     OW18301   2.181   1.952   3.291
 5801SOL    HW118302   2.280   1.944   3.281
 5801SOL    HW218303   2.150   2.032   3.240
 5802SOL     OW18304   0.773   4.507   2.141
 5802SOL    HW118305   0.722   4.575   2.089
 5802SOL    HW218306   0.867   4.539   2.154
 5803SOL     OW18307   2.143   4.442   2.307
 5803SOL    HW118308   2.072   4.427   2.376
 5803SOL    HW218309   2.224   4.389   2.330
 5804SOL     OW18310   0.826   5.288   3.739
 5804SOL    HW118311   0.732   5.319   3.725
 5804SOL    HW218312   0.827   5.188   3.746
 5805SOL     OW18313   3.208   3.282   6.674
 5805SOL    HW118314   3.150   3.309   6.598
 5805SOL    HW218315   3.200   3.349   6.748
 5806SOL     OW18316   0.333   5.656   4.712
 5806SOL    HW118317   0.417   5.626   4.667
 5806SOL    HW218318   0.296   5.582   4.768
 5807SOL     OW18319   0.660   3.990   2.370
 5807SOL    HW118320   0.611   4.076   2.353
 5807SOL    HW218321   0.600   3.927   2.419
 5808SOL     OW18322   5.670   5.489   4.826
 5808SOL    HW118323   5.658   5.521   4.920
 5808SOL    HW218324   5.768   5.484   4.804
 5809SOL     OW18325   5.465   1.392   4.522
 5809SOL    HW118326   5.560   1.365   4.503
 5809SOL    HW218327   5.423   1.325   4.583
 5810SOL     OW18328   3.148   1.808   4.721
 5810SOL    HW118329   3.185   1.830   4.811
 5810SOL    HW218330   3.218   1.763   4.666
 5811SOL     OW18331   2.714   0.875   5.714
 5811SOL    HW118332   2.740   0.873   5.617
 5811SOL    HW218333   2.769   0.809   5.765
 5812SOL     OW18334   6.447   2.646   4.218
 5812SOL    HW118335   6.523   2.631   4.281
 5812SOL    HW218336   6.421   2.743   4.220
 5813SOL     OW18337   2.086   2.109   0.820
 5813SOL    HW118338   2.141   2.134   0.900
 5813SOL    HW218339   2.144   2.102   0.740
 5814SOL     OW18340   6.118   4.793   1.350
 5814SOL    HW118341   6.163   4.862   1.408
 5814SOL    HW218342   6.020   4.810   1.347
 5815SOL     OW18343   4.091   2.250   4.341
 5815SOL    HW118344   4.063   2.333   4.389
 5815SOL    HW218345   4.149   2.275   4.263
 5816SOL     OW18346   4.341   5.421   0.253
 5816SOL    HW118347   4.303   5.329   0.237
 5816SOL    HW218348   4.327   5.477   0.171
 5817SOL     OW18349   5.640   3.682   6.138
 5817SOL    HW118350   5.589   3.658   6.221
 5817SOL    HW218351   5.621   3.777   6.114
 5818SOL     OW18352   6.466   6.197   4.708
 5818SOL    HW118353   6.382   6.250   4.723
 5818SOL    HW218354   6.449   6.129   4.637
 5819SOL     OW18355   4.097   6.989   0.013
 5819SOL    HW118356   4.024   6.921   0.001
 5819SOL    HW218357   4.073   0.043   6.995
 5820SOL     OW18358   4.048   5.739   4.045
 5820SOL    HW118359   4.089   5.758   3.956
 5820SOL    HW218360   4.018   5.644   4.048
 5821SOL     OW18361   6.990   6.980   1.315
 5821SOL    HW118362   6.890   6.980   1.314
 5821SOL    HW218363   7.024   6.933   1.234
 5822SOL     OW18364   1.097   2.417   1.915
 5822SOL    HW118365   1.085   2.487   1.845
 5822SOL    HW218366   1.107   2.460   2.005
 5823SOL     OW18367   1.524   1.332   5.519
 5823SOL    HW118368   1.439   1.303   5.475
 5823SOL    HW218369   1.589   1.361   5.450
 5824SOL     OW18370   6.435   5.206   2.708
 5824SOL    HW118371   6.521   5.193   2.659
 5824SOL    HW218372   6.360   5.212   2.642
 5825SOL     OW18373   1.939   1.550   5.631
 5825SOL    HW118374   1.885   1.587   5.556
 5825SOL    HW218375   2.036   1.570   5.615
 5826SOL     OW18376   0.104   5.056   5.066
 5826SOL    HW118377   0.037   4.996   5.108
 5826SOL    HW218378   0.194   5.038   5.104
 5827SOL     OW18379   1.818   4.470   4.871
 5827SOL    HW118380   1.758   4.522   4.811
 5827SOL    HW218381   1.889   4.425   4.816
 5828SOL     OW18382   6.269   2.120   1.288
 5828SOL    HW118383   6.365   2.123   1.262
 5828SOL    HW218384   6.237   2.213   1.308
 5829SOL     OW18385   1.692   0.690   3.173
 5829SOL    HW118386   1.704   0.690   3.074
 5829SOL    HW218387   1.768   0.739   3.216
 5830SOL     OW18388   5.190   6.731   5.006
 5830SOL    HW118389   5.157   6.772   5.091
 5830SOL    HW218390   5.280   6.767   4.985
 5831SOL     OW18391   0.341   0.959   5.454
 5831SOL    HW118392   0.402   0.973   5.532
 5831SOL    HW218393   0.383   0.999   5.372
 5832SOL     OW18394   3.061   4.975   6.427
 5832SOL    HW118395   3.129   5.048   6.418
 5832SOL    HW218396   2.986   4.991   6.363
 5833SOL     OW18397   3.549   3.701   4.682
 5833SOL    HW118398   3.578   3.769   4.748
 5833SOL    HW218399   3.589   3.722   4.592
 5834SOL     OW18400   0.329   3.184   0.015
 5834SOL    HW118401   0.259   3.123   0.051
 5834SOL    HW218402   0.331   3.269   0.067
 5835SOL     OW18403   5.271   3.248   3.715
 5835SOL    HW118404   5.303   3.327   3.768
 5835SOL    HW218405   5.205   3.196   3.770
 5836SOL     OW18406   2.777   7.002   2.770
 5836SOL    HW118407   2.680   7.028   2.771
 5836SOL    HW218408   2.824   0.016   2.847
 5837SOL     OW18409   4.042   4.418   5.963
 5837SOL    HW118410   4.005   4.357   5.893
 5837SOL    HW218411   3.968   4.469   6.006
 5838SOL     OW18412   3.338   2.536   6.664
 5838SOL    HW118413   3.351   2.574   6.572
 5838SOL    HW218414   3.415   2.562   6.722
 5839SOL     OW18415   0.517   2.119   1.931
 5839SOL    HW118416   0.558   2.055   1.996
 5839SOL    HW218417   0.555   2.102   1.840
 5840SOL     OW18418   0.640   5.146   6.256
 5840SOL    HW118419   0.543   5.169   6.248
 5840SOL    HW218420   0.694   5.230   6.254
 5841SOL     OW18421   5.103   1.814   2.395
 5841SOL    HW118422   5.092   1.770   2.307
 5841SOL    HW218423   5.074   1.910   2.389
 5842SOL     OW18424   4.607   3.179   1.360
 5842SOL    HW118425   4.590   3.094   1.310
 5842SOL    HW218426   4.641   3.157   1.452
 5843SOL     OW18427   1.956   3.994   2.973
 5843SOL    HW118428   1.857   3.996   2.961
 5843SOL    HW218429   1.980   3.927   3.043
 5844SOL     OW18430   1.884   6.441   6.258
 5844SOL    HW118431   1.848   6.365   6.312
 5844SOL    HW218432   1.887   6.523   6.314
 5845SOL     OW18433   0.170   0.623   2.274
 5845SOL    HW118434   0.143   0.718   2.291
 5845SOL    HW218435   0.269   0.614   2.288
 5846SOL     OW18436   0.375   2.635   4.185
 5846SOL    HW118437   0.451   2.651   4.247
 5846SOL    HW218438   0.375   2.540   4.155
 5847SOL     OW18439   2.310   2.212   1.899
 5847SOL    HW118440   2.251   2.143   1.941
 5847SOL    HW218441   2.388   2.167   1.855
 5848SOL     OW18442   2.554   5.536   3.409
 5848SOL    HW118443   2.482   5.468   3.427
 5848SOL    HW218444   2.643   5.497   3.429
 5849SOL     OW18445   0.066   0.152   6.481
 5849SOL    HW118446   7.000   0.162   6.509
 5849SOL    HW218447   0.098   0.238   6.441
 5850SOL     OW18448   6.920   2.710   1.526
 5850SOL    HW118449   6.894   2.681   1.434
 5850SOL    HW218450   6.856   2.781   1.557
 5851SOL     OW18451   5.196   3.701   3.147
 5851SOL    HW118452   5.112   3.650   3.165
 5851SOL    HW218453   5.275   3.649   3.182
 5852SOL     OW18454   6.680   5.817   3.082
 5852SOL    HW118455   6.695   5.826   3.180
 5852SOL    HW218456   6.765   5.839   3.033
 5853SOL     OW18457   3.822   6.218   4.255
 5853SOL    HW118458   3.856   6.227   4.348
 5853SOL    HW218459   3.884   6.160   4.202
 5854SOL     OW18460   5.794   4.978   6.058
 5854SOL    HW118461   5.891   4.954   6.056
 5854SOL    HW218462   5.746   4.931   5.984
 5855SOL     OW18463   0.224   1.493   4.530
 5855SOL    HW118464   0.178   1.576   4.563
 5855SOL    HW218465   0.225   1.424   4.602
 5856SOL     OW18466   1.634   5.902   4.104
 5856SOL    HW118467   1.673   5.915   4.195
 5856SOL    HW218468   1.625   5.991   4.059
 5857SOL     OW18469   6.623   2.066   5.798
 5857SOL    HW118470   6.666   2.154   5.818
 5857SOL    HW218471   6.552   2.080   5.728
 5858SOL     OW18472   2.576   2.484   2.546
 5858SOL    HW118473   2.590   2.477   2.448
 5858SOL    HW218474   2.481   2.461   2.568
 5859SOL     OW18475   5.441   6.194   1.674
 5859SOL    HW118476   5.399   6.108   1.644
 5859SOL    HW218477   5.433   6.262   1.601
 5860SOL     OW18478   0.840   4.275   1.689
 5860SOL    HW118479   0.897   4.199   1.657
 5860SOL    HW218480   0.882   4.317   1.770
 5861SOL     OW18481   4.456   1.351   4.639
 5861SOL    HW118482   4.542   1.304   4.617
 5861SOL    HW218483   4.451   1.367   4.737
 5862SOL     OW18484   5.105   5.033   1.850
 5862SOL    HW118485   5.117   5.131   1.835
 5862SOL    HW218486   5.160   4.982   1.785
 5863SOL     OW18487   3.289   1.046   4.966
 5863SOL    HW118488   3.190   1.051   4.954
 5863SOL    HW218489   3.310   1.033   5.063
 5864SOL     OW18490   3.821   3.859   1.733
 5864SOL    HW118491   3.846   3.871   1.637
 5864SOL    HW218492   3.826   3.947   1.781
 5865SOL     OW18493   5.728   0.922   5.317
 5865SOL    HW118494   5.690   1.001   5.364
 5865SOL    HW218495   5.737   0.846   5.382
 5866SOL     OW18496   3.985   4.546   0.703
 5866SOL    HW118497   4.057   4.536   0.635
 5866SOL    HW218498   3.897   4.556   0.657
 5867SOL     OW18499   1.134   3.808   0.566
 5867SOL    HW118500   1.163   3.902   0.580
 5867SOL    HW218501   1.189   3.767   0.494
 5868SOL     OW18502   0.481   1.131   5.278
 5868SOL    HW118503   0.468   1.223   5.313
 5868SOL    HW218504   0.578   1.109   5.276
 5869SOL     OW18505   2.254   6.532   4.302
 5869SOL    HW118506   2.299   6.472   4.369
 5869SOL    HW218507   2.199   6.476   4.240
 5870SOL     OW18508   5.277   6.292   4.882
 5870SOL    HW118509   5.349   6.333   4.825
 5870SOL    HW218510   5.201   6.357   4.891
 5871SOL     OW18511   4.027   2.944   1.126
 5871SOL    HW118512   4.047   3.038   1.099
 5871SOL    HW218513   4.109   2.901   1.161
 5872SOL     OW18514   3.879   5.755   1.656
 5872SOL    HW118515   3.862   5.809   1.573
 5872SOL    HW218516   3.976   5.764   1.681
 5873SOL     OW18517   3.277   2.201   1.431
 5873SOL    HW118518   3.191   2.155   1.408
 5873SOL    HW218519   3.261   2.299   1.442
 5874SOL     OW18520   3.439   4.570   0.084
 5874SOL    HW118521   3.442   4.544   7.017
 5874SOL    HW218522   3.457   4.668   0.093
 5875SOL     OW18523   4.269   0.916   6.732
 5875SOL    HW118524   4.345   0.931   6.795
 5875SOL    HW218525   4.213   0.999   6.726
 5876SOL     OW18526   3.296   3.299   0.566
 5876SOL    HW118527   3.219   3.351   0.530
 5876SOL    HW218528   3.297   3.306   0.666
 5877SOL     OW18529   0.390   0.244   0.504
 5877SOL    HW118530   0.468   0.234   0.566
 5877SOL    HW218531   0.351   0.336   0.516
 5878SOL     OW18532   5.283   5.507   4.170
 5878SOL    HW118533   5.296   5.495   4.269
 5878SOL    HW218534   5.334   5.587   4.139
 5879SOL     OW18535   1.751   3.513   6.644
 5879SOL    HW118536   1.747   3.549   6.551
 5879SOL    HW218537   1.707   3.424   6.648
 5880SOL     OW18538   5.005   4.435   6.842
 5880SOL    HW118539   5.055   4.439   6.755
 5880SOL    HW218540   5.066   4.403   6.914
 5881SOL     OW18541   1.193   7.023   1.767
 5881SOL    HW118542   1.210   6.924   1.767
 5881SOL    HW218543   1.102   0.012   1.805
 5882SOL     OW18544   1.083   6.775   5.850
 5882SOL    HW118545   1.007   6.712   5.868
 5882SOL    HW218546   1.089   6.843   5.924
 5883SOL     OW18547   1.047   1.404   6.970
 5883SOL    HW118548   1.112   1.469   7.010
 5883SOL    HW218549   1.021   1.336   0.009
 5884SOL     OW18550   4.982   1.425   5.116
 5884SOL    HW118551   5.071   1.469   5.125
 5884SOL    HW218552   4.911   1.495   5.105
 5885SOL     OW18553   0.003   5.637   2.485
 5885SOL    HW118554   7.003   5.641   2.390
 5885SOL    HW218555   6.953   5.632   2.545
 5886SOL     OW18556   1.056   1.827   4.189
 5886SOL    HW118557   1.105   1.909   4.218
 5886SOL    HW218558   1.121   1.764   4.145
 5887SOL     OW18559   2.463   2.044   1.736
 5887SOL    HW118560   2.473   1.977   1.809
 5887SOL    HW218561   2.536   2.031   1.668
 5888SOL     OW18562   2.391   0.032   1.365
 5888SOL    HW118563   2.431   6.981   1.322
 5888SOL    HW218564   2.366   0.098   1.295
 5889SOL     OW18565   6.156   1.762   6.205
 5889SOL    HW118566   6.156   1.671   6.165
 5889SOL    HW218567   6.130   1.757   6.302
 5890SOL     OW18568   2.261   0.149   2.935
 5890SOL    HW118569   2.352   0.155   2.975
 5890SOL    HW218570   2.195   0.121   3.005
 5891SOL     OW18571   2.424   4.139   0.662
 5891SOL    HW118572   2.391   4.132   0.756
 5891SOL    HW218573   2.521   4.166   0.662
 5892SOL     OW18574   0.339   5.161   1.850
 5892SOL    HW118575   0.411   5.207   1.903
 5892SOL    HW218576   0.359   5.170   1.753
 5893SOL     OW18577   2.119   4.821   2.001
 5893SOL    HW118578   2.191   4.777   2.054
 5893SOL    HW218579   2.088   4.903   2.049
 5894SOL     OW18580   0.747   5.924   5.156
 5894SOL    HW118581   0.837   5.880   5.156
 5894SOL    HW218582   0.676   5.854   5.171
 5895SOL     OW18583   6.071   3.847   3.561
 5895SOL    HW118584   6.162   3.835   3.601
 5895SOL    HW218585   6.030   3.757   3.544
 5896SOL     OW18586   4.868   1.591   1.010
 5896SOL    HW118587   4.837   1.643   1.090
 5896SOL    HW218588   4.944   1.532   1.037
 5897SOL     OW18589   4.029   0.796   1.104
 5897SOL    HW118590   4.057   0.737   1.028
 5897SOL    HW218591   4.055   0.753   1.191
 5898SOL     OW18592   2.473   0.767   5.018
 5898SOL    HW118593   2.500   0.781   5.113
 5898SOL    HW218594   2.373   0.771   5.011
 5899SOL     OW18595   5.797   6.363   6.741
 5899SOL    HW118596   5.705   6.326   6.725
 5899SOL    HW218597   5.799   6.460   6.716
 5900SOL     OW18598   6.857   4.613   3.044
 5900SOL    HW118599   6.956   4.596   3.048
 5900SOL    HW218600   6.835   4.694   3.099
 5901SOL     OW18601   3.012   0.859   1.258
 5901SOL    HW118602   3.105   0.897   1.261
 5901SOL    HW218603   2.958   0.899   1.332
 5902SOL     OW18604   5.211   3.191   5.667
 5902SOL    HW118605   5.287   3.235   5.714
 5902SOL    HW218606   5.237   3.174   5.571
 5903SOL     OW18607   4.505   3.980   6.642
 5903SOL    HW118608   4.468   3.972   6.549
 5903SOL    HW218609   4.597   4.019   6.639
 5904SOL     OW18610   1.005   4.384   1.143
 5904SOL    HW118611   0.919   4.386   1.193
 5904SOL    HW218612   1.021   4.473   1.100
 5905SOL     OW18613   6.578   0.593   3.579
 5905SOL    HW118614   6.603   0.595   3.482
 5905SOL    HW218615   6.652   0.552   3.632
 5906SOL     OW18616   4.564   2.169   4.664
 5906SOL    HW118617   4.548   2.195   4.759
 5906SOL    HW218618   4.541   2.073   4.651
 5907SOL     OW18619   1.571   6.775   0.918
 5907SOL    HW118620   1.567   6.784   0.819
 5907SOL    HW218621   1.533   6.857   0.961
 5908SOL     OW18622   6.766   4.193   0.118
 5908SOL    HW118623   6.789   4.290   0.117
 5908SOL    HW218624   6.834   4.143   0.171
 5909SOL     OW18625   6.236   5.192   6.543
 5909SOL    HW118626   6.221   5.188   6.444
 5909SOL    HW218627   6.189   5.272   6.581
 5910SOL     OW18628   0.401   4.515   1.480
 5910SOL    HW118629   0.373   4.535   1.386
 5910SOL    HW218630   0.429   4.419   1.486
 5911SOL     OW18631   6.455   5.045   6.562
 5911SOL    HW118632   6.445   4.947   6.581
 5911SOL    HW218633   6.365   5.086   6.551
 5912SOL     OW18634   6.066   3.354   6.703
 5912SOL    HW118635   6.074   3.375   6.800
 5912SOL    HW218636   6.157   3.331   6.667
 5913SOL     OW18637   3.508   3.293   6.591
 5913SOL    HW118638   3.479   3.360   6.522
 5913SOL    HW218639   3.428   3.245   6.626
 5914SOL     OW18640   3.044   5.771   5.979
 5914SOL    HW118641   2.987   5.759   6.060
 5914SOL    HW218642   3.134   5.807   6.005
 5915SOL     OW18643   5.774   3.945   1.708
 5915SOL    HW118644   5.796   4.027   1.656
 5915SOL    HW218645   5.721   3.969   1.789
 5916SOL     OW18646   4.159   6.125   5.614
 5916SOL    HW118647   4.219   6.142   5.692
 5916SOL    HW218648   4.211   6.131   5.529
 5917SOL     OW18649   3.561   3.482   4.013
 5917SOL    HW118650   3.472   3.527   4.012
 5917SOL    HW218651   3.561   3.411   4.083
 5918SOL     OW18652   2.263   3.859   5.379
 5918SOL    HW118653   2.311   3.805   5.448
 5918SOL    HW218654   2.329   3.903   5.318
 5919SOL     OW18655   3.232   2.371   0.757
 5919SOL    HW118656   3.295   2.312   0.705
 5919SOL    HW218657   3.138   2.348   0.733
 5920SOL     OW18658   3.431   0.037   0.537
 5920SOL    HW118659   3.358   0.037   0.606
 5920SOL    HW218660   3.394   0.071   0.450
 5921SOL     OW18661   3.244   5.399   5.814
 5921SOL    HW118662   3.323   5.460   5.807
 5921SOL    HW218663   3.265   5.311   5.772
 5922SOL     OW18664   6.794   5.453   3.492
 5922SOL    HW118665   6.723   5.523   3.492
 5922SOL    HW218666   6.884   5.496   3.494
 5923SOL     OW18667   5.189   0.281   1.203
 5923SOL    HW118668   5.129   0.348   1.159
 5923SOL    HW218669   5.233   0.225   1.133
 5924SOL     OW18670   6.316   1.992   4.852
 5924SOL    HW118671   6.349   2.078   4.813
 5924SOL    HW218672   6.255   1.948   4.786
 5925SOL     OW18673   4.311   5.812   3.218
 5925SOL    HW118674   4.396   5.859   3.240
 5925SOL    HW218675   4.242   5.831   3.288
 5926SOL     OW18676   3.988   4.899   2.138
 5926SOL    HW118677   4.030   4.983   2.103
 5926SOL    HW218678   3.906   4.878   2.086
 5927SOL     OW18679   1.738   4.497   3.299
 5927SOL    HW118680   1.739   4.453   3.389
 5927SOL    HW218681   1.683   4.442   3.236
 5928SOL     OW18682   3.194   0.635   1.603
 5928SOL    HW118683   3.220   0.705   1.536
 5928SOL    HW218684   3.266   0.566   1.608
 5929SOL     OW18685   0.863   6.612   5.867
 5929SOL    HW118686   0.794   6.664   5.818
 5929SOL    HW218687   0.863   6.517   5.834
 5930SOL     OW18688   0.112   1.632   3.340
 5930SOL    HW118689   0.014   1.641   3.327
 5930SOL    HW218690   0.144   1.546   3.300
 5931SOL     OW18691   5.786   5.344   3.330
 5931SOL    HW118692   5.722   5.418   3.351
 5931SOL    HW218693   5.759   5.299   3.245
 5932SOL     OW18694   2.294   6.409   1.274
 5932SOL    HW118695   2.254   6.353   1.202
 5932SOL    HW218696   2.372   6.361   1.315
 5933SOL     OW18697   0.454   5.735   2.775
 5933SOL    HW118698   0.522   5.723   2.847
 5933SOL    HW218699   0.369   5.772   2.815
 5934SOL     OW18700   4.046   3.456   4.213
 5934SOL    HW118701   4.048   3.404   4.298
 5934SOL    HW218702   4.028   3.552   4.234
 5935SOL     OW18703   4.120   3.258   5.234
 5935SOL    HW118704   4.216   3.249   5.262
 5935SOL    HW218705   4.105   3.350   5.196
 5936SOL     OW18706   4.002   3.758   0.358
 5936SOL    HW118707   4.097   3.763   0.389
 5936SOL    HW218708   3.945   3.719   0.431
 5937SOL     OW18709   0.693   4.814   2.375
 5937SOL    HW118710   0.744   4.841   2.457
 5937SOL    HW218711   0.632   4.738   2.397
 5938SOL     OW18712   1.136   5.537   4.088
 5938SOL    HW118713   1.090   5.473   4.149
 5938SOL    HW218714   1.075   5.612   4.065
 5939SOL     OW18715   3.682   6.996   3.231
 5939SOL    HW118716   3.661   6.911   3.279
 5939SOL    HW218717   3.604   0.028   3.238
 5940SOL     OW18718   4.195   5.630   1.215
 5940SOL    HW118719   4.120   5.588   1.162
 5940SOL    HW218720   4.214   5.573   1.295
 5941SOL     OW18721   6.372   3.055   1.667
 5941SOL    HW118722   6.368   3.099   1.578
 5941SOL    HW218723   6.467   3.046   1.696
 5942SOL     OW18724   4.717   2.994   6.637
 5942SOL    HW118725   4.636   2.979   6.695
 5942SOL    HW218726   4.725   3.092   6.616
 5943SOL     OW18727   3.358   5.483   1.006
 5943SOL    HW118728   3.431   5.445   1.063
 5943SOL    HW218729   3.304   5.548   1.060
 5944SOL     OW18730   5.657   2.084   0.959
 5944SOL    HW118731   5.697   2.110   1.047
 5944SOL    HW218732   5.654   1.984   0.953
 5945SOL     OW18733   6.445   5.462   5.402
 5945SOL    HW118734   6.499   5.488   5.483
 5945SOL    HW218735   6.350   5.492   5.415
 5946SOL     OW18736   3.497   3.071   5.571
 5946SOL    HW118737   3.486   3.158   5.523
 5946SOL    HW218738   3.444   3.000   5.524
 5947SOL     OW18739   4.173   3.333   1.746
 5947SOL    HW118740   4.246   3.401   1.743
 5947SOL    HW218741   4.152   3.310   1.841
 5948SOL     OW18742   3.714   4.979   3.536
 5948SOL    HW118743   3.742   4.949   3.627
 5948SOL    HW218744   3.770   4.932   3.467
 5949SOL     OW18745   3.829   3.120   1.452
 5949SOL    HW118746   3.898   3.048   1.456
 5949SOL    HW218747   3.821   3.164   1.542
 5950SOL     OW18748   5.406   2.784   5.748
 5950SOL    HW118749   5.329   2.815   5.692
 5950SOL    HW218750   5.443   2.700   5.709
 5951SOL     OW18751   0.140   5.517   4.472
 5951SOL    HW118752   0.063   5.560   4.424
 5951SOL    HW218753   0.112   5.492   4.565
 5952SOL     OW18754   5.610   5.480   4.287
 5952SOL    HW118755   5.565   5.433   4.363
 5952SOL    HW218756   5.591   5.577   4.292
 5953SOL     OW18757   6.349   2.900   5.467
 5953SOL    HW118758   6.398   2.822   5.504
 5953SOL    HW218759   6.414   2.968   5.432
 5954SOL     OW18760   0.270   4.591   5.564
 5954SOL    HW118761   0.173   4.613   5.558
 5954SOL    HW218762   0.313   4.605   5.475
 5955SOL     OW18763   5.075   5.628   2.604
 5955SOL    HW118764   5.134   5.551   2.625
 5955SOL    HW218765   4.980   5.598   2.601
 5956SOL     OW18766   3.714   1.766   6.519
 5956SOL    HW118767   3.775   1.688   6.507
 5956SOL    HW218768   3.761   1.838   6.569
 5957SOL     OW18769   4.322   0.275   5.761
 5957SOL    HW118770   4.411   0.267   5.715
 5957SOL    HW218771   4.249   0.275   5.693
 5958SOL     OW18772   6.340   5.734   2.330
 5958SOL    HW118773   6.280   5.815   2.326
 5958SOL    HW218774   6.323   5.684   2.415
 5959SOL     OW18775   3.856   2.041   5.011
 5959SOL    HW118776   3.910   1.958   4.994
 5959SOL    HW218777   3.916   2.121   5.007
 5960SOL     OW18778   4.191   6.243   4.853
 5960SOL    HW118779   4.181   6.192   4.768
 5960SOL    HW218780   4.153   6.190   4.928
 5961SOL     OW18781   5.428   1.373   3.783
 5961SOL    HW118782   5.416   1.304   3.712
 5961SOL    HW218783   5.442   1.328   3.871
 5962SOL     OW18784   4.609   6.075   1.443
 5962SOL    HW118785   4.685   6.025   1.402
 5962SOL    HW218786   4.572   6.023   1.520
 5963SOL     OW18787   3.438   2.950   4.467
 5963SOL    HW118788   3.490   2.866   4.484
 5963SOL    HW218789   3.499   3.018   4.425
 5964SOL     OW18790   0.614   5.293   5.416
 5964SOL    HW118791   0.643   5.387   5.399
 5964SOL    HW218792   0.660   5.231   5.352
 5965SOL     OW18793   1.420   2.413   6.618
 5965SOL    HW118794   1.509   2.394   6.576
 5965SOL    HW218795   1.347   2.392   6.553
 5966SOL     OW18796   2.645   5.653   5.163
 5966SOL    HW118797   2.546   5.665   5.172
 5966SOL    HW218798   2.692   5.733   5.201
 5967SOL     OW18799   4.259   6.181   1.159
 5967SOL    HW118800   4.311   6.207   1.240
 5967SOL    HW218801   4.303   6.102   1.116
 5968SOL     OW18802   4.469   1.060   2.157
 5968SOL    HW118803   4.560   1.020   2.143
 5968SOL    HW218804   4.463   1.147   2.107
 5969SOL     OW18805   6.803   0.955   6.008
 5969SOL    HW118806   6.894   0.954   5.966
 5969SOL    HW218807   6.749   0.879   5.971
 5970SOL     OW18808   0.602   4.264   2.670
 5970SOL    HW118809   0.520   4.206   2.671
 5970SOL    HW218810   0.576   4.358   2.651
 5971SOL     OW18811   1.540   0.998   3.113
 5971SOL    HW118812   1.628   0.953   3.100
 5971SOL    HW218813   1.467   0.931   3.105
 5972SOL     OW18814   5.232   6.649   0.007
 5972SOL    HW118815   5.242   6.550   7.020
 5972SOL    HW218816   5.257   6.670   0.101
 5973SOL     OW18817   1.657   4.348   2.318
 5973SOL    HW118818   1.693   4.257   2.298
 5973SOL    HW218819   1.557   4.345   2.319
 5974SOL     OW18820   5.465   4.322   6.531
 5974SOL    HW118821   5.550   4.275   6.556
 5974SOL    HW218822   5.456   4.323   6.432
 5975SOL     OW18823   3.219   1.712   0.719
 5975SOL    HW118824   3.165   1.706   0.635
 5975SOL    HW218825   3.198   1.634   0.778
 5976SOL     OW18826   3.387   3.438   4.910
 5976SOL    HW118827   3.406   3.532   4.937
 5976SOL    HW218828   3.294   3.432   4.874
 5977SOL     OW18829   1.902   4.288   1.372
 5977SOL    HW118830   1.954   4.334   1.300
 5977SOL    HW218831   1.945   4.201   1.394
 5978SOL     OW18832   4.933   5.920   3.764
 5978SOL    HW118833   4.980   5.853   3.705
 5978SOL    HW218834   4.933   5.886   3.858
 5979SOL     OW18835   6.431   6.856   2.697
 5979SOL    HW118836   6.462   6.837   2.790
 5979SOL    HW218837   6.332   6.873   2.699
 5980SOL     OW18838   3.923   3.559   0.160
 5980SOL    HW118839   3.936   3.637   0.220
 5980SOL    HW218840   3.997   3.493   0.173
 5981SOL     OW18841   6.468   0.834   2.274
 5981SOL    HW118842   6.383   0.880   2.300
 5981SOL    HW218843   6.447   0.753   2.220
 5982SOL     OW18844   6.452   2.900   0.419
 5982SOL    HW118845   6.529   2.896   0.483
 5982SOL    HW218846   6.480   2.866   0.330
 5983SOL     OW18847   1.511   0.659   4.568
 5983SOL    HW118848   1.449   0.733   4.596
 5983SOL    HW218849   1.558   0.622   4.648
 5984SOL     OW18850   6.624   6.654   5.213
 5984SOL    HW118851   6.635   6.648   5.114
 5984SOL    HW218852   6.580   6.740   5.237
 5985SOL     OW18853   6.468   3.177   3.984
 5985SOL    HW118854   6.498   3.272   3.978
 5985SOL    HW218855   6.378   3.167   3.942
 5986SOL     OW18856   3.469   3.777   4.111
 5986SOL    HW118857   3.527   3.763   4.030
 5986SOL    HW218858   3.427   3.868   4.106
 5987SOL     OW18859   4.373   0.604   5.134
 5987SOL    HW118860   4.451   0.657   5.104
 5987SOL    HW218861   4.388   0.507   5.114
 5988SOL     OW18862   4.538   6.953   5.048
 5988SOL    HW118863   4.447   6.921   5.021
 5988SOL    HW218864   4.530   7.017   5.124
 5989SOL     OW18865   3.016   5.554   7.030
 5989SOL    HW118866   3.094   5.593   0.049
 5989SOL    HW218867   2.934   5.559   0.057
 5990SOL     OW18868   4.269   4.825   0.430
 5990SOL    HW118869   4.175   4.799   0.453
 5990SOL    HW218870   4.291   4.792   0.338
 5991SOL     OW18871   4.117   5.500   5.630
 5991SOL    HW118872   4.099   5.477   5.534
 5991SOL    HW218873   4.190   5.442   5.665
 5992SOL     OW18874   3.433   0.398   3.998
 5992SOL    HW118875   3.426   0.346   4.083
 5992SOL    HW218876   3.433   0.336   3.920
 5993SOL     OW18877   3.281   6.276   5.600
 5993SOL    HW118878   3.263   6.374   5.590
 5993SOL    HW218879   3.318   6.240   5.515
 5994SOL     OW18880   6.323   2.142   1.794
 5994SOL    HW118881   6.292   2.079   1.724
 5994SOL    HW218882   6.404   2.104   1.841
 5995SOL     OW18883   6.162   4.867   2.821
 5995SOL    HW118884   6.163   4.966   2.822
 5995SOL    HW218885   6.241   4.832   2.872
 5996SOL     OW18886   0.911   6.013   1.015
 5996SOL    HW118887   0.943   6.108   1.016
 5996SOL    HW218888   0.989   5.952   1.000
 5997SOL     OW18889   1.035   6.191   2.863
 5997SOL    HW118890   1.032   6.157   2.958
 5997SOL    HW218891   0.994   6.282   2.859
 5998SOL     OW18892   6.262   1.837   1.364
 5998SOL    HW118893   6.188   1.797   1.309
 5998SOL    HW218894   6.276   1.932   1.336
 5999SOL     OW18895   1.700   2.063   2.753
 5999SOL    HW118896   1.681   2.088   2.658
 5999SOL    HW218897   1.641   2.116   2.814
 6000SOL     OW18898   3.772   6.879   2.045
 6000SOL    HW118899   3.842   6.945   2.017
 6000SOL    HW218900   3.685   6.927   2.057
 6001SOL     OW18901   0.721   4.120   6.555
 6001SOL    HW118902   0.815   4.154   6.552
 6001SOL    HW218903   0.717   4.027   6.520
 6002SOL     OW18904   6.832   0.371   0.992
 6002SOL    HW118905   6.890   0.386   1.072
 6002SOL    HW218906   6.886   0.384   0.909
 6003SOL     OW18907   0.001   2.097   4.238
 6003SOL    HW118908   6.994   2.029   4.174
 6003SOL    HW218909   6.958   2.130   4.298
 6004SOL     OW18910   0.252   4.393   3.155
 6004SOL    HW118911   0.213   4.478   3.120
 6004SOL    HW218912   0.184   4.320   3.148
 6005SOL     OW18913   4.839   5.253   4.637
 6005SOL    HW118914   4.919   5.301   4.600
 6005SOL    HW218915   4.854   5.155   4.631
 6006SOL     OW18916   3.507   0.032   6.889
 6006SOL    HW118917   3.479   0.106   6.828
 6006SOL    HW218918   3.450   0.034   6.971
 6007SOL     OW18919   4.892   3.653   4.779
 6007SOL    HW118920   4.858   3.698   4.862
 6007SOL    HW218921   4.916   3.558   4.801
 6008SOL     OW18922   2.111   5.627   5.981
 6008SOL    HW118923   2.152   5.602   5.894
 6008SOL    HW218924   2.116   5.727   5.992
 6009SOL     OW18925   4.335   0.869   4.847
 6009SOL    HW118926   4.302   0.933   4.778
 6009SOL    HW218927   4.257   0.831   4.897
 6010SOL     OW18928   1.235   4.085   3.128
 6010SOL    HW118929   1.284   4.171   3.112
 6010SOL    HW218930   1.300   4.010   3.134
 6011SOL     OW18931   4.612   2.694   2.916
 6011SOL    HW118932   4.560   2.611   2.894
 6011SOL    HW218933   4.562   2.748   2.983
 6012SOL     OW18934   6.385   1.561   6.982
 6012SOL    HW118935   6.416   1.656   6.978
 6012SOL    HW218936   6.286   1.559   6.996
 6013SOL     OW18937   5.682   2.076   2.925
 6013SOL    HW118938   5.666   2.045   2.832
 6013SOL    HW218939   5.739   2.158   2.924
 6014SOL     OW18940   4.331   2.789   0.718
 6014SOL    HW118941   4.357   2.707   0.669
 6014SOL    HW218942   4.277   2.848   0.658
 6015SOL     OW18943   5.564   2.197   5.235
 6015SOL    HW118944   5.568   2.219   5.333
 6015SOL    HW218945   5.574   2.099   5.223
 6016SOL     OW18946   0.184   1.454   6.385
 6016SOL    HW118947   0.128   1.427   6.306
 6016SOL    HW218948   0.124   1.475   6.463
 6017SOL     OW18949   6.469   4.673   2.809
 6017SOL    HW118950   6.423   4.748   2.857
 6017SOL    HW218951   6.509   4.610   2.876
 6018SOL     OW18952   3.574   1.481   0.015
 6018SOL    HW118953   3.601   1.446   0.105
 6018SOL    HW218954   3.592   1.580   0.011
 6019SOL     OW18955   6.590   1.443   4.294
 6019SOL    HW118956   6.580   1.529   4.244
 6019SOL    HW218957   6.672   1.448   4.352
 6020SOL     OW18958   1.998   5.289   1.752
 6020SOL    HW118959   1.973   5.192   1.751
 6020SOL    HW218960   1.941   5.338   1.818
 6021SOL     OW18961   3.635   0.797   2.308
 6021SOL    HW118962   3.565   0.853   2.263
 6021SOL    HW218963   3.652   0.833   2.400
 6022SOL     OW18964   4.755   1.581   5.008
 6022SOL    HW118965   4.701   1.647   5.059
 6022SOL    HW218966   4.802   1.627   4.932
 6023SOL     OW18967   6.023   1.488   2.288
 6023SOL    HW118968   6.064   1.567   2.334
 6023SOL    HW218969   5.929   1.510   2.261
 6024SOL     OW18970   0.736   4.140   3.629
 6024SOL    HW118971   0.800   4.108   3.559
 6024SOL    HW218972   0.745   4.083   3.711
 6025SOL     OW18973   3.529   1.740   1.941
 6025SOL    HW118974   3.586   1.746   1.858
 6025SOL    HW218975   3.504   1.832   1.970
 6026SOL     OW18976   6.926   4.637   4.236
 6026SOL    HW118977   6.941   4.568   4.165
 6026SOL    HW218978   6.830   4.635   4.265
 6027SOL     OW18979   1.343   3.910   5.786
 6027SOL    HW118980   1.273   3.980   5.802
 6027SOL    HW218981   1.374   3.874   5.874
 6028SOL     OW18982   1.046   4.065   0.376
 6028SOL    HW118983   1.057   3.966   0.367
 6028SOL    HW218984   1.004   4.102   0.294
 6029SOL     OW18985   2.196   6.279   4.696
 6029SOL    HW118986   2.163   6.245   4.607
 6029SOL    HW218987   2.120   6.319   4.746
 6030SOL     OW18988   3.841   6.471   3.063
 6030SOL    HW118989   3.832   6.481   2.964
 6030SOL    HW218990   3.860   6.560   3.104
 6031SOL     OW18991   3.863   5.215   3.737
 6031SOL    HW118992   3.816   5.142   3.787
 6031SOL    HW218993   3.807   5.298   3.739
 6032SOL     OW18994   2.101   3.221   3.352
 6032SOL    HW118995   2.015   3.172   3.338
 6032SOL    HW218996   2.168   3.158   3.392
 6033SOL     OW18997   3.284   1.837   2.198
 6033SOL    HW118998   3.326   1.810   2.284
 6033SOL    HW218999   3.355   1.869   2.135
 6034SOL     OW19000   1.568   5.623   4.876
 6034SOL    HW119001   1.653   5.593   4.832
 6034SOL    HW219002   1.588   5.691   4.946
 6035SOL     OW19003   0.396   0.455   3.260
 6035SOL    HW119004   0.461   0.482   3.331
 6035SOL    HW219005   0.413   0.360   3.234
 6036SOL     OW19006   6.621   6.495   4.107
 6036SOL    HW119007   6.523   6.491   4.125
 6036SOL    HW219008   6.660   6.403   4.111
 6037SOL     OW19009   4.157   4.430   5.606
 6037SOL    HW119010   4.250   4.444   5.573
 6037SOL    HW219011   4.159   4.365   5.683
 6038SOL     OW19012   1.495   2.967   6.493
 6038SOL    HW119013   1.534   2.876   6.477
 6038SOL    HW219014   1.467   3.007   6.406
 6039SOL     OW19015   3.400   2.837   2.457
 6039SOL    HW119016   3.328   2.903   2.438
 6039SOL    HW219017   3.360   2.757   2.502
 6040SOL     OW19018   0.445   2.292   6.505
 6040SOL    HW119019   0.406   2.244   6.584
 6040SOL    HW219020   0.391   2.273   6.424
 6041SOL     OW19021   1.935   0.467   4.802
 6041SOL    HW119022   1.978   0.555   4.826
 6041SOL    HW219023   1.964   0.397   4.867
 6042SOL     OW19024   5.311   5.913   2.140
 6042SOL    HW119025   5.304   5.941   2.236
 6042SOL    HW219026   5.273   5.821   2.130
 6043SOL     OW19027   0.913   4.205   5.584
 6043SOL    HW119028   1.003   4.247   5.592
 6043SOL    HW219029   0.872   4.197   5.675
 6044SOL     OW19030   1.513   2.642   1.332
 6044SOL    HW119031   1.546   2.700   1.258
 6044SOL    HW219032   1.537   2.546   1.313
 6045SOL     OW19033   6.109   5.672   1.325
 6045SOL    HW119034   6.114   5.646   1.422
 6045SOL    HW219035   6.140   5.766   1.314
 6046SOL     OW19036   3.104   1.844   0.067
 6046SOL    HW119037   3.133   1.940   0.061
 6046SOL    HW219038   3.184   1.786   0.078
 6047SOL     OW19039   6.317   1.918   2.160
 6047SOL    HW119040   6.253   1.844   2.139
 6047SOL    HW219041   6.272   2.006   2.143
 6048SOL     OW19042   4.363   6.434   3.687
 6048SOL    HW119043   4.364   6.499   3.611
 6048SOL    HW219044   4.456   6.401   3.704
 6049SOL     OW19045   5.934   3.962   5.530
 6049SOL    HW119046   5.849   3.984   5.577
 6049SOL    HW219047   5.938   3.864   5.510
 6050SOL     OW19048   3.272   4.716   5.346
 6050SOL    HW119049   3.222   4.767   5.276
 6050SOL    HW219050   3.269   4.767   5.432
 6051SOL     OW19051   1.866   1.379   4.373
 6051SOL    HW119052   1.863   1.305   4.440
 6051SOL    HW219053   1.809   1.455   4.404
 6052SOL     OW19054   6.563   6.235   0.156
 6052SOL    HW119055   6.466   6.214   0.145
 6052SOL    HW219056   6.582   6.324   0.115
 6053SOL     OW19057   3.141   0.802   6.260
 6053SOL    HW119058   3.115   0.847   6.345
 6053SOL    HW219059   3.198   0.723   6.280
 6054SOL     OW19060   2.736   4.086   0.573
 6054SOL    HW119061   2.794   4.014   0.535
 6054SOL    HW219062   2.661   4.104   0.509
 6055SOL     OW19063   5.289   1.346   5.766
 6055SOL    HW119064   5.370   1.300   5.803
 6055SOL    HW219065   5.274   1.432   5.816
 6056SOL     OW19066   5.189   3.281   4.936
 6056SOL    HW119067   5.231   3.191   4.949
 6056SOL    HW219068   5.220   3.344   5.008
 6057SOL     OW19069   5.312   2.770   4.436
 6057SOL    HW119070   5.216   2.745   4.448
 6057SOL    HW219071   5.357   2.703   4.377
 6058SOL     OW19072   5.011   2.879   2.204
 6058SOL    HW119073   4.949   2.857   2.129
 6058SOL    HW219074   5.060   2.964   2.184
 6059SOL     OW19075   4.822   5.759   5.276
 6059SOL    HW119076   4.830   5.810   5.190
 6059SOL    HW219077   4.783   5.669   5.257
 6060SOL     OW19078   3.087   4.129   6.246
 6060SOL    HW119079   3.185   4.111   6.260
 6060SOL    HW219080   3.055   4.196   6.312
 6061SOL     OW19081   4.173   1.862   1.063
 6061SOL    HW119082   4.226   1.837   0.982
 6061SOL    HW219083   4.128   1.781   1.100
 6062SOL     OW19084   1.404   1.267   4.846
 6062SOL    HW119085   1.376   1.210   4.923
 6062SOL    HW219086   1.364   1.231   4.762
 6063SOL     OW19087   3.450   1.440   6.523
 6063SOL    HW119088   3.466   1.401   6.614
 6063SOL    HW219089   3.386   1.382   6.473
 6064SOL     OW19090   2.671   6.161   2.008
 6064SOL    HW119091   2.584   6.210   2.012
 6064SOL    HW219092   2.694   6.140   1.913
 6065SOL     OW19093   5.826   6.904   2.025
 6065SOL    HW119094   5.899   6.836   2.037
 6065SOL    HW219095   5.757   6.868   1.963
 6066SOL     OW19096   4.056   1.480   6.927
 6066SOL    HW119097   4.054   1.514   7.021
 6066SOL    HW219098   4.126   1.528   6.875
 6067SOL     OW19099   5.717   1.974   6.514
 6067SOL    HW119100   5.772   2.028   6.450
 6067SOL    HW219101   5.630   2.020   6.530
 6068SOL     OW19102   5.473   2.980   4.566
 6068SOL    HW119103   5.458   2.913   4.493
 6068SOL    HW219104   5.541   2.945   4.630
 6069SOL     OW19105   0.011   3.456   5.212
 6069SOL    HW119106   6.987   3.372   5.206
 6069SOL    HW219107   0.035   3.473   5.308
 6070SOL     OW19108   2.278   1.259   6.479
 6070SOL    HW119109   2.298   1.272   6.381
 6070SOL    HW219110   2.251   1.347   6.519
 6071SOL     OW19111   5.302   4.972   4.312
 6071SOL    HW119112   5.340   5.035   4.381
 6071SOL    HW219113   5.228   4.919   4.353
 6072SOL     OW19114   6.819   0.674   2.660
 6072SOL    HW119115   6.790   0.651   2.567
 6072SOL    HW219116   6.799   0.771   2.678
 6073SOL     OW19117   6.534   4.224   0.342
 6073SOL    HW119118   6.632   4.208   0.330
 6073SOL    HW219119   6.517   4.254   0.436
 6074SOL     OW19120   0.888   6.689   4.301
 6074SOL    HW119121   0.836   6.684   4.386
 6074SOL    HW219122   0.851   6.624   4.234
 6075SOL     OW19123   6.964   2.314   6.787
 6075SOL    HW119124   7.010   2.387   6.838
 6075SOL    HW219125   6.865   2.321   6.800
 6076SOL     OW19126   2.678   5.931   4.980
 6076SOL    HW119127   2.656   5.935   5.077
 6076SOL    HW219128   2.748   5.860   4.964
 6077SOL     OW19129   4.083   5.862   2.140
 6077SOL    HW119130   4.093   5.916   2.224
 6077SOL    HW219131   4.006   5.799   2.150
 6078SOL     OW19132   3.858   4.852   1.704
 6078SOL    HW119133   3.843   4.931   1.764
 6078SOL    HW219134   3.810   4.773   1.740
 6079SOL     OW19135   3.155   3.354   6.174
 6079SOL    HW119136   3.101   3.283   6.130
 6079SOL    HW219137   3.110   3.385   6.257
 6080SOL     OW19138   6.772   1.209   1.783
 6080SOL    HW119139   6.727   1.243   1.865
 6080SOL    HW219140   6.737   1.258   1.703
 6081SOL     OW19141   6.277   3.197   4.986
 6081SOL    HW119142   6.264   3.159   5.078
 6081SOL    HW219143   6.306   3.293   4.993
 6082SOL     OW19144   3.134   1.600   3.256
 6082SOL    HW119145   3.216   1.653   3.274
 6082SOL    HW219146   3.071   1.609   3.333
 6083SOL     OW19147   0.626   5.413   5.969
 6083SOL    HW119148   0.612   5.437   6.065
 6083SOL    HW219149   0.553   5.454   5.913
 6084SOL     OW19150   0.293   5.649   3.872
 6084SOL    HW119151   0.251   5.560   3.857
 6084SOL    HW219152   0.228   5.722   3.851
 6085SOL     OW19153   0.388   4.301   0.124
 6085SOL    HW119154   0.468   4.282   0.181
 6085SOL    HW219155   0.401   4.261   0.033
 6086SOL     OW19156   3.002   1.031   4.958
 6086SOL    HW119157   2.951   1.105   5.001
 6086SOL    HW219158   2.997   1.040   4.859
 6087SOL     OW19159   4.418   5.662   0.090
 6087SOL    HW119160   4.502   5.624   0.052
 6087SOL    HW219161   4.345   5.658   0.022
 6088SOL     OW19162   6.251   6.582   4.606
 6088SOL    HW119163   6.187   6.616   4.674
 6088SOL    HW219164   6.246   6.639   4.524
 6089SOL     OW19165   0.155   3.387   1.391
 6089SOL    HW119166   0.180   3.304   1.340
 6089SOL    HW219167   0.204   3.465   1.353
 6090SOL     OW19168   2.060   6.248   6.186
 6090SOL    HW119169   2.143   6.268   6.134
 6090SOL    HW219170   2.004   6.330   6.193
 6091SOL     OW19171   2.000   1.999   2.313
 6091SOL    HW119172   1.981   1.962   2.222
 6091SOL    HW219173   2.071   2.070   2.306
 6092SOL     OW19174   2.707   0.479   3.491
 6092SOL    HW119175   2.801   0.488   3.458
 6092SOL    HW219176   2.684   0.383   3.500
 6093SOL     OW19177   0.999   2.881   2.856
 6093SOL    HW119178   1.025   2.960   2.800
 6093SOL    HW219179   0.924   2.832   2.812
 6094SOL     OW19180   3.788   0.664   0.771
 6094SOL    HW119181   3.704   0.611   0.781
 6094SOL    HW219182   3.786   0.741   0.836
 6095SOL     OW19183   4.383   3.319   6.659
 6095SOL    HW119184   4.373   3.416   6.637
 6095SOL    HW219185   4.391   3.266   6.575
 6096SOL     OW19186   5.949   0.518   3.529
 6096SOL    HW119187   6.031   0.575   3.524
 6096SOL    HW219188   5.936   0.472   3.441
 6097SOL     OW19189   1.679   0.047   1.867
 6097SOL    HW119190   1.700   0.131   1.918
 6097SOL    HW219191   1.612   7.023   1.919
 6098SOL     OW19192   1.309   2.312   6.314
 6098SOL    HW119193   1.237   2.294   6.381
 6098SOL    HW219194   1.269   2.316   6.222
 6099SOL     OW19195   0.056   6.041   0.129
 6099SOL    HW119196   0.080   6.042   0.031
 6099SOL    HW219197   0.108   6.112   0.176
 6100SOL     OW19198   4.699   3.511   6.854
 6100SOL    HW119199   4.645   3.457   6.918
 6100SOL    HW219200   4.737   3.452   6.784
 6101SOL     OW19201   6.433   2.038   5.186
 6101SOL    HW119202   6.374   2.059   5.108
 6101SOL    HW219203   6.512   2.099   5.186
 6102SOL     OW19204   3.745   0.666   4.102
 6102SOL    HW119205   3.665   0.673   4.162
 6102SOL    HW219206   3.803   0.747   4.113
 6103SOL     OW19207   0.530   2.006   2.929
 6103SOL    HW119208   0.539   1.935   2.859
 6103SOL    HW219209   0.598   2.078   2.913
 6104SOL     OW19210   6.494   2.422   5.773
 6104SOL    HW119211   6.455   2.334   5.744
 6104SOL    HW219212   6.475   2.436   5.870
 6105SOL     OW19213   2.299   0.170   5.639
 6105SOL    HW119214   2.199   0.162   5.635
 6105SOL    HW219215   2.325   0.246   5.698
 6106SOL     OW19216   1.507   4.219   5.478
 6106SOL    HW119217   1.506   4.138   5.536
 6106SOL    HW219218   1.573   4.206   5.405
 6107SOL     OW19219   2.501   4.541   4.578
 6107SOL    HW119220   2.509   4.545   4.678
 6107SOL    HW219221   2.410   4.572   4.551
 6108SOL     OW19222   0.458   2.552   2.433
 6108SOL    HW119223   0.525   2.523   2.502
 6108SOL    HW219224   0.391   2.612   2.475
 6109SOL     OW19225   4.945   2.962   6.315
 6109SOL    HW119226   4.999   2.991   6.237
 6109SOL    HW219227   4.999   2.972   6.399
 6110SOL     OW19228   3.977   2.802   6.930
 6110SOL    HW119229   4.041   2.737   6.891
 6110SOL    HW219230   3.986   2.803   7.030
 6111SOL     OW19231   1.564   4.551   2.553
 6111SOL    HW119232   1.635   4.559   2.483
 6111SOL    HW219233   1.534   4.456   2.559
 6112SOL     OW19234   3.815   0.674   3.709
 6112SOL    HW119235   3.766   0.606   3.763
 6112SOL    HW219236   3.893   0.709   3.761
 6113SOL     OW19237   0.860   1.217   5.707
 6113SOL    HW119238   0.906   1.294   5.751
 6113SOL    HW219239   0.830   1.152   5.776
 6114SOL     OW19240   5.132   4.605   0.884
 6114SOL    HW119241   5.097   4.630   0.974
 6114SOL    HW219242   5.135   4.505   0.876
 6115SOL     OW19243   5.387   6.282   3.243
 6115SOL    HW119244   5.310   6.281   3.306
 6115SOL    HW219245   5.456   6.347   3.275
 6116SOL     OW19246   2.904   1.214   0.525
 6116SOL    HW119247   2.906   1.311   0.501
 6116SOL    HW219248   2.860   1.162   0.451
 6117SOL     OW19249   6.100   0.593   5.978
 6117SOL    HW119250   6.188   0.548   5.965
 6117SOL    HW219251   6.027   0.539   5.936
 6118SOL     OW19252   0.112   0.317   1.444
 6118SOL    HW119253   0.118   0.342   1.540
 6118SOL    HW219254   0.144   0.223   1.432
 6119SOL     OW19255   0.702   3.759   4.442
 6119SOL    HW119256   0.758   3.702   4.382
 6119SOL    HW219257   0.740   3.852   4.445
 6120SOL     OW19258   4.307   6.788   3.525
 6120SOL    HW119259   4.351   6.784   3.615
 6120SOL    HW219260   4.312   6.881   3.489
 6121SOL     OW19261   0.169   3.114   4.442
 6121SOL    HW119262   0.232   3.046   4.402
 6121SOL    HW219263   0.172   3.107   4.542
 6122SOL     OW19264   3.759   0.035   1.713
 6122SOL    HW119265   3.766   0.053   1.812
 6122SOL    HW219266   3.676   7.013   1.694
 6123SOL     OW19267   6.473   0.429   6.488
 6123SOL    HW119268   6.463   0.409   6.586
 6123SOL    HW219269   6.503   0.524   6.476
 6124SOL     OW19270   2.668   0.633   6.319
 6124SOL    HW119271   2.661   0.537   6.347
 6124SOL    HW219272   2.582   0.661   6.274
 6125SOL     OW19273   3.654   5.577   0.597
 6125SOL    HW119274   3.605   5.536   0.674
 6125SOL    HW219275   3.597   5.648   0.556
 6126SOL     OW19276   6.619   6.999   3.754
 6126SOL    HW119277   6.707   6.957   3.776
 6126SOL    HW219278   6.545   6.941   3.788
 6127SOL     OW19279   2.608   0.589   3.018
 6127SOL    HW119280   2.561   0.676   3.002
 6127SOL    HW219281   2.602   0.531   2.936
 6128SOL     OW19282   6.766   3.843   0.591
 6128SOL    HW119283   6.745   3.934   0.627
 6128SOL    HW219284   6.689   3.808   0.539
 6129SOL     OW19285   6.065   4.486   3.229
 6129SOL    HW119286   6.116   4.494   3.314
 6129SOL    HW219287   5.971   4.456   3.249
 6130SOL     OW19288   5.906   1.749   4.004
 6130SOL    HW119289   5.848   1.803   3.943
 6130SOL    HW219290   5.947   1.673   3.954
 6131SOL     OW19291   6.218   1.363   5.136
 6131SOL    HW119292   6.168   1.291   5.183
 6131SOL    HW219293   6.170   1.450   5.148
 6132SOL     OW19294   5.407   1.317   0.528
 6132SOL    HW119295   5.417   1.412   0.497
 6132SOL    HW219296   5.379   1.316   0.624
 6133SOL     OW19297   1.211   2.450   2.793
 6133SOL    HW119298   1.249   2.358   2.788
 6133SOL    HW219299   1.278   2.512   2.832
 6134SOL     OW19300   3.787   4.556   0.131
 6134SOL    HW119301   3.718   4.551   0.059
 6134SOL    HW219302   3.751   4.609   0.208
 6135SOL     OW19303   0.566   6.842   1.617
 6135SOL    HW119304   0.642   6.904   1.635
 6135SOL    HW219305   0.485   6.894   1.591
 6136SOL     OW19306   0.571   2.828   2.082
 6136SOL    HW119307   0.629   2.811   2.002
 6136SOL    HW219308   0.563   2.743   2.135
 6137SOL     OW19309   5.529   1.901   4.411
 6137SOL    HW119310   5.490   1.809   4.404
 6137SOL    HW219311   5.614   1.906   4.358
 6138SOL     OW19312   3.995   6.169   2.398
 6138SOL    HW119313   3.957   6.211   2.316
 6138SOL    HW219314   4.055   6.234   2.444
 6139SOL     OW19315   1.710   2.700   4.986
 6139SOL    HW119316   1.784   2.765   5.000
 6139SOL    HW219317   1.663   2.720   4.900
 6140SOL     OW19318   0.051   6.160   1.963
 6140SOL    HW119319   0.051   6.062   1.943
 6140SOL    HW219320   0.004   6.176   2.050
 6141SOL     OW19321   5.666   5.787   5.410
 6141SOL    HW119322   5.622   5.877   5.406
 6141SOL    HW219323   5.673   5.758   5.506
 6142SOL     OW19324   6.631   5.252   0.691
 6142SOL    HW119325   6.650   5.350   0.698
 6142SOL    HW219326   6.605   5.216   0.781
 6143SOL     OW19327   6.161   4.826   0.368
 6143SOL    HW119328   6.249   4.831   0.321
 6143SOL    HW219329   6.132   4.918   0.396
 6144SOL     OW19330   5.910   4.860   2.383
 6144SOL    HW119331   5.836   4.812   2.432
 6144SOL    HW219332   5.954   4.924   2.445
 6145SOL     OW19333   4.864   6.089   4.272
 6145SOL    HW119334   4.775   6.084   4.318
 6145SOL    HW219335   4.917   6.165   4.310
 6146SOL     OW19336   3.967   1.275   3.654
 6146SOL    HW119337   4.012   1.364   3.666
 6146SOL    HW219338   4.005   1.229   3.574
 6147SOL     OW19339   1.350   3.834   3.982
 6147SOL    HW119340   1.437   3.804   3.942
 6147SOL    HW219341   1.275   3.806   3.922
 6148SOL     OW19342   6.895   0.126   4.757
 6148SOL    HW119343   6.991   0.151   4.767
 6148SOL    HW219344   6.845   0.201   4.714
 6149SOL     OW19345   3.218   4.863   2.753
 6149SOL    HW119346   3.273   4.845   2.671
 6149SOL    HW219347   3.275   4.906   2.823
 6150SOL     OW19348   3.720   4.841   6.725
 6150SOL    HW119349   3.675   4.875   6.808
 6150SOL    HW219350   3.730   4.916   6.660
 6151SOL     OW19351   6.143   3.877   4.605
 6151SOL    HW119352   6.146   3.846   4.510
 6151SOL    HW219353   6.058   3.926   4.622
 6152SOL     OW19354   5.722   5.248   5.598
 6152SOL    HW119355   5.763   5.159   5.620
 6152SOL    HW219356   5.795   5.315   5.583
 6153SOL     OW19357   4.796   3.633   1.834
 6153SOL    HW119358   4.859   3.689   1.780
 6153SOL    HW219359   4.711   3.621   1.782
 6154SOL     OW19360   6.083   1.389   3.111
 6154SOL    HW119361   6.152   1.457   3.089
 6154SOL    HW219362   6.056   1.399   3.207
 6155SOL     OW19363   1.837   1.997   4.814
 6155SOL    HW119364   1.805   2.091   4.811
 6155SOL    HW219365   1.815   1.952   4.727
 6156SOL     OW19366   4.715   4.675   2.494
 6156SOL    HW119367   4.778   4.615   2.446
 6156SOL    HW219368   4.668   4.624   2.566
 6157SOL     OW19369   1.300   1.555   4.492
 6157SOL    HW119370   1.328   1.644   4.456
 6157SOL    HW219371   1.372   1.488   4.474
 6158SOL     OW19372   4.640   0.664   5.537
 6158SOL    HW119373   4.606   0.704   5.622
 6158SOL    HW219374   4.600   0.713   5.459
 6159SOL     OW19375   4.701   2.388   1.121
 6159SOL    HW119376   4.735   2.379   1.214
 6159SOL    HW219377   4.719   2.304   1.070
 6160SOL     OW19378   4.809   6.647   0.158
 6160SOL    HW119379   4.800   6.674   0.062
 6160SOL    HW219380   4.721   6.659   0.204
 6161SOL     OW19381   5.899   1.836   5.480
 6161SOL    HW119382   5.865   1.760   5.535
 6161SOL    HW219383   5.935   1.801   5.394
 6162SOL     OW19384   0.838   5.939   3.991
 6162SOL    HW119385   0.887   5.931   3.904
 6162SOL    HW219386   0.869   5.868   4.054
 6163SOL     OW19387   5.421   6.372   1.455
 6163SOL    HW119388   5.468   6.433   1.392
 6163SOL    HW219389   5.356   6.315   1.405
 6164SOL     OW19390   2.548   3.102   1.628
 6164SOL    HW119391   2.466   3.086   1.573
 6164SOL    HW219392   2.558   3.200   1.647
 6165SOL     OW19393   4.117   6.903   6.354
 6165SOL    HW119394   4.139   6.991   6.312
 6165SOL    HW219395   4.108   6.915   6.453
 6166SOL     OW19396   3.956   0.867   5.993
 6166SOL    HW119397   3.858   0.888   5.988
 6166SOL    HW219398   3.968   0.768   5.987
 6167SOL     OW19399   0.808   4.887   2.623
 6167SOL    HW119400   0.901   4.857   2.645
 6167SOL    HW219401   0.797   4.983   2.648
 6168SOL     OW19402   0.506   3.360   0.760
 6168SOL    HW119403   0.454   3.383   0.677
 6168SOL    HW219404   0.595   3.323   0.734
 6169SOL     OW19405   1.030   3.389   1.821
 6169SOL    HW119406   1.108   3.393   1.759
 6169SOL    HW219407   0.951   3.432   1.777
 6170SOL     OW19408   0.716   3.560   5.591
 6170SOL    HW119409   0.628   3.589   5.629
 6170SOL    HW219410   0.784   3.631   5.606
 6171SOL     OW19411   0.990   1.794   0.262
 6171SOL    HW119412   1.021   1.855   0.336
 6171SOL    HW219413   1.066   1.735   0.234
 6172SOL     OW19414   1.068   3.179   2.709
 6172SOL    HW119415   1.141   3.244   2.688
 6172SOL    HW219416   1.013   3.162   2.627
 6173SOL     OW19417   6.640   5.033   3.223
 6173SOL    HW119418   6.631   5.013   3.126
 6173SOL    HW219419   6.703   5.109   3.236
 6174SOL     OW19420   5.038   5.611   4.240
 6174SOL    HW119421   5.133   5.593   4.215
 6174SOL    HW219422   5.032   5.701   4.282
 6175SOL     OW19423   3.896   0.424   4.186
 6175SOL    HW119424   3.834   0.496   4.156
 6175SOL    HW219425   3.852   0.369   4.257
 6176SOL     OW19426   5.089   3.853   5.915
 6176SOL    HW119427   5.107   3.952   5.920
 6176SOL    HW219428   5.040   3.832   5.831
 6177SOL     OW19429   5.816   1.901   2.021
 6177SOL    HW119430   5.827   1.892   1.922
 6177SOL    HW219431   5.793   1.995   2.043
 6178SOL     OW19432   5.060   4.308   2.382
 6178SOL    HW119433   5.152   4.339   2.359
 6178SOL    HW219434   5.065   4.239   2.455
 6179SOL     OW19435   6.315   4.550   2.425
 6179SOL    HW119436   6.225   4.507   2.423
 6179SOL    HW219437   6.308   4.641   2.466
 6180SOL     OW19438   2.695   4.690   1.146
 6180SOL    HW119439   2.683   4.763   1.214
 6180SOL    HW219440   2.782   4.703   1.099
 6181SOL     OW19441   4.737   6.577   6.392
 6181SOL    HW119442   4.769   6.603   6.484
 6181SOL    HW219443   4.788   6.497   6.361
 6182SOL     OW19444   4.563   3.902   6.121
 6182SOL    HW119445   4.581   3.915   6.023
 6182SOL    HW219446   4.634   3.842   6.160
 6183SOL     OW19447   1.582   2.122   2.120
 6183SOL    HW119448   1.682   2.131   2.121
 6183SOL    HW219449   1.558   2.027   2.137
 6184SOL     OW19450   2.996   6.841   6.185
 6184SOL    HW119451   3.026   6.876   6.274
 6184SOL    HW219452   3.055   6.766   6.156
 6185SOL     OW19453   1.447   4.555   6.471
 6185SOL    HW119454   1.525   4.545   6.408
 6185SOL    HW219455   1.413   4.465   6.497
 6186SOL     OW19456   6.003   1.046   1.172
 6186SOL    HW119457   5.946   0.981   1.120
 6186SOL    HW219458   6.004   1.020   1.268
 6187SOL     OW19459   4.903   3.095   4.438
 6187SOL    HW119460   4.874   3.191   4.440
 6187SOL    HW219461   5.003   3.090   4.450
 6188SOL     OW19462   1.709   1.744   6.023
 6188SOL    HW119463   1.787   1.681   6.015
 6188SOL    HW219464   1.626   1.698   5.992
 6189SOL     OW19465   3.673   4.894   3.041
 6189SOL    HW119466   3.768   4.864   3.044
 6189SOL    HW219467   3.615   4.823   3.084
 6190SOL     OW19468   0.250   3.516   5.404
 6190SOL    HW119469   0.314   3.590   5.426
 6190SOL    HW219470   0.157   3.545   5.426
 6191SOL     OW19471   3.015   3.200   6.417
 6191SOL    HW119472   2.948   3.270   6.442
 6191SOL    HW219473   2.967   3.122   6.377
 6192SOL     OW19474   2.593   1.903   6.546
 6192SOL    HW119475   2.550   1.988   6.515
 6192SOL    HW219476   2.632   1.916   6.637
 6193SOL     OW19477   4.445   5.894   1.589
 6193SOL    HW119478   4.416   5.937   1.674
 6193SOL    HW219479   4.368   5.844   1.549
 6194SOL     OW19480   6.214   0.546   6.225
 6194SOL    HW119481   6.312   0.559   6.210
 6194SOL    HW219482   6.163   0.594   6.154
 6195SOL     OW19483   5.448   6.156   4.374
 6195SOL    HW119484   5.399   6.229   4.326
 6195SOL    HW219485   5.544   6.181   4.385
 6196SOL     OW19486   4.811   4.051   2.680
 6196SOL    HW119487   4.759   4.134   2.699
 6196SOL    HW219488   4.834   4.047   2.582
 6197SOL     OW19489   2.645   5.359   2.156
 6197SOL    HW119490   2.681   5.382   2.246
 6197SOL    HW219491   2.673   5.428   2.090
 6198SOL     OW19492   4.086   6.366   1.078
 6198SOL    HW119493   4.075   6.407   1.169
 6198SOL    HW219494   4.141   6.283   1.086
 6199SOL     OW19495   0.625   1.296   0.531
 6199SOL    HW119496   0.599   1.382   0.488
 6199SOL    HW219497   0.700   1.312   0.595
 6200SOL     OW19498   1.055   2.094   4.723
 6200SOL    HW119499   1.035   2.004   4.760
 6200SOL    HW219500   0.979   2.156   4.743
 6201SOL     OW19501   1.051   3.164   4.572
 6201SOL    HW119502   1.118   3.205   4.634
 6201SOL    HW219503   1.028   3.072   4.605
 6202SOL     OW19504   5.708   1.264   1.930
 6202SOL    HW119505   5.612   1.280   1.952
 6202SOL    HW219506   5.757   1.236   2.012
 6203SOL     OW19507   5.411   5.644   1.787
 6203SOL    HW119508   5.480   5.711   1.815
 6203SOL    HW219509   5.446   5.552   1.801
 6204SOL     OW19510   1.045   5.981   5.160
 6204SOL    HW119511   1.014   6.075   5.153
 6204SOL    HW219512   1.144   5.979   5.172
 6205SOL     OW19513   6.080   4.470   1.097
 6205SOL    HW119514   5.983   4.492   1.098
 6205SOL    HW219515   6.129   4.534   1.157
 6206SOL     OW19516   5.338   1.511   2.547
 6206SOL    HW119517   5.419   1.472   2.589
 6206SOL    HW219518   5.322   1.603   2.584
 6207SOL     OW19519   1.769   6.726   5.337
 6207SOL    HW119520   1.805   6.675   5.415
 6207SOL    HW219521   1.818   6.700   5.254
 6208SOL     OW19522   3.542   2.097   5.500
 6208SOL    HW119523   3.611   2.166   5.522
 6208SOL    HW219524   3.488   2.128   5.422
 6209SOL     OW19525   3.606   5.274   0.238
 6209SOL    HW119526   3.542   5.208   0.276
 6209SOL    HW219527   3.657   5.318   0.312
 6210SOL     OW19528   5.285   3.835   2.925
 6210SOL    HW119529   5.226   3.824   2.845
 6210SOL    HW219530   5.260   3.766   2.994
 6211SOL     OW19531   3.264   6.658   5.478
 6211SOL    HW119532   3.169   6.686   5.494
 6211SOL    HW219533   3.274   6.632   5.382
 6212SOL     OW19534   2.491   4.527   3.951
 6212SOL    HW119535   2.447   4.459   4.009
 6212SOL    HW219536   2.473   4.618   3.987
 6213SOL     OW19537   4.530   6.855   6.790
 6213SOL    HW119538   4.493   6.804   6.713
 6213SOL    HW219539   4.508   6.952   6.779
 6214SOL     OW19540   5.973   5.827   5.310
 6214SOL    HW119541   6.019   5.821   5.398
 6214SOL    HW219542   5.876   5.806   5.321
 6215SOL     OW19543   3.765   2.839   6.600
 6215SOL    HW119544   3.766   2.739   6.588
 6215SOL    HW219545   3.856   2.876   6.582
 6216SOL     OW19546   6.116   2.289   2.406
 6216SOL    HW119547   6.196   2.297   2.466
 6216SOL    HW219548   6.035   2.324   2.454
 6217SOL     OW19549   0.826   4.475   2.496
 6217SOL    HW119550   0.924   4.485   2.477
 6217SOL    HW219551   0.778   4.450   2.412
 6218SOL     OW19552   3.756   6.675   0.216
 6218SOL    HW119553   3.836   6.717   0.261
 6218SOL    HW219554   3.682   6.664   0.283
 6219SOL     OW19555   1.405   0.570   4.920
 6219SOL    HW119556   1.466   0.551   4.843
 6219SOL    HW219557   1.451   0.631   4.984
 6220SOL     OW19558   3.499   1.635   6.038
 6220SOL    HW119559   3.537   1.715   5.991
 6220SOL    HW219560   3.521   1.640   6.135
 6221SOL     OW19561   6.484   6.528   6.737
 6221SOL    HW119562   6.397   6.517   6.784
 6221SOL    HW219563   6.496   6.624   6.712
 6222SOL     OW19564   6.778   0.323   2.770
 6222SOL    HW119565   6.782   0.273   2.683
 6222SOL    HW219566   6.848   0.395   2.770
 6223SOL     OW19567   1.447   5.765   3.350
 6223SOL    HW119568   1.377   5.706   3.310
 6223SOL    HW219569   1.516   5.787   3.280
 6224SOL     OW19570   3.714   1.717   5.680
 6224SOL    HW119571   3.614   1.714   5.687
 6224SOL    HW219572   3.740   1.794   5.621
 6225SOL     OW19573   4.045   2.407   6.316
 6225SOL    HW119574   4.019   2.497   6.282
 6225SOL    HW219575   4.053   2.410   6.416
 6226SOL     OW19576   1.074   1.352   3.759
 6226SOL    HW119577   1.148   1.287   3.775
 6226SOL    HW219578   1.062   1.410   3.839
 6227SOL     OW19579   3.114   5.016   5.363
 6227SOL    HW119580   3.049   4.942   5.345
 6227SOL    HW219581   3.090   5.062   5.448
 6228SOL     OW19582   0.548   2.340   3.201
 6228SOL    HW119583   0.610   2.304   3.270
 6228SOL    HW219584   0.600   2.380   3.126
 6229SOL     OW19585   0.519   2.947   5.253
 6229SOL    HW119586   0.526   3.027   5.312
 6229SOL    HW219587   0.604   2.937   5.200
 6230SOL     OW19588   1.091   2.441   3.271
 6230SOL    HW119589   1.019   2.421   3.205
 6230SOL    HW219590   1.164   2.492   3.227
 6231SOL     OW19591   5.247   5.575   0.755
 6231SOL    HW119592   5.259   5.669   0.788
 6231SOL    HW219593   5.335   5.538   0.727
 6232SOL     OW19594   6.367   1.378   0.254
 6232SOL    HW119595   6.293   1.446   0.255
 6232SOL    HW219596   6.454   1.424   0.236
 6233SOL     OW19597   0.155   2.941   1.395
 6233SOL    HW119598   0.145   2.861   1.335
 6233SOL    HW219599   0.074   2.998   1.388
 6234SOL     OW19600   0.050   6.966   5.496
 6234SOL    HW119601   0.142   6.990   5.465
 6234SOL    HW219602   7.022   6.944   5.418
 6235SOL     OW19603   0.327   0.480   1.871
 6235SOL    HW119604   0.398   0.502   1.804
 6235SOL    HW219605   0.368   0.431   1.948
 6236SOL     OW19606   6.867   4.762   0.364
 6236SOL    HW119607   6.950   4.794   0.318
 6236SOL    HW219608   6.850   4.667   0.340
 6237SOL     OW19609   3.388   0.018   0.109
 6237SOL    HW119610   3.353   0.067   0.189
 6237SOL    HW219611   3.365   6.951   0.116
 6238SOL     OW19612   4.627   6.600   3.306
 6238SOL    HW119613   4.680   6.662   3.365
 6238SOL    HW219614   4.539   6.580   3.349
 6239SOL     OW19615   3.591   0.734   1.307
 6239SOL    HW119616   3.673   0.696   1.264
 6239SOL    HW219617   3.592   0.834   1.296
 6240SOL     OW19618   2.849   3.813   5.046
 6240SOL    HW119619   2.873   3.884   5.112
 6240SOL    HW219620   2.821   3.731   5.095
 6241SOL     OW19621   4.111   0.030   4.080
 6241SOL    HW119622   4.197   0.079   4.072
 6241SOL    HW219623   4.035   0.093   4.068
 6242SOL     OW19624   3.260   0.698   3.678
 6242SOL    HW119625   3.236   0.741   3.591
 6242SOL    HW219626   3.193   0.626   3.699
 6243SOL     OW19627   6.625   0.502   5.963
 6243SOL    HW119628   6.619   0.602   5.968
 6243SOL    HW219629   6.625   0.473   5.868
 6244SOL     OW19630   4.928   3.589   3.166
 6244SOL    HW119631   4.957   3.555   3.076
 6244SOL    HW219632   4.935   3.515   3.233
 6245SOL     OW19633   0.694   4.734   1.815
 6245SOL    HW119634   0.661   4.710   1.724
 6245SOL    HW219635   0.617   4.739   1.878
 6246SOL     OW19636   0.474   0.986   4.605
 6246SOL    HW119637   0.538   1.019   4.536
 6246SOL    HW219638   0.397   0.940   4.561
 6247SOL     OW19639   1.620   6.563   3.165
 6247SOL    HW119640   1.669   6.476   3.156
 6247SOL    HW219641   1.602   6.581   3.262
 6248SOL     OW19642   3.459   4.063   0.097
 6248SOL    HW119643   3.457   3.995   0.170
 6248SOL    HW219644   3.526   4.036   0.028
 6249SOL     OW19645   6.953   2.981   0.941
 6249SOL    HW119646   0.013   2.996   0.900
 6249SOL    HW219647   6.945   3.034   1.025
 6250SOL     OW19648   6.913   6.561   0.731
 6250SOL    HW119649   6.962   6.475   0.713
 6250SOL    HW219650   6.848   6.547   0.805
 6251SOL     OW19651   3.697   5.434   4.807
 6251SOL    HW119652   3.598   5.445   4.814
 6251SOL    HW219653   3.722   5.416   4.712
 6252SOL     OW19654   2.915   5.228   0.064
 6252SOL    HW119655   2.988   5.281   0.106
 6252SOL    HW219656   2.881   5.159   0.129
 6253SOL     OW19657   2.415   5.114   4.888
 6253SOL    HW119658   2.442   5.066   4.972
 6253SOL    HW219659   2.316   5.128   4.890
 6254SOL     OW19660   0.362   6.644   1.152
 6254SOL    HW119661   0.448   6.663   1.199
 6254SOL    HW219662   0.372   6.667   1.055
 6255SOL     OW19663   2.065   2.404   0.648
 6255SOL    HW119664   2.111   2.427   0.733
 6255SOL    HW219665   2.117   2.334   0.600
 6256SOL     OW19666   4.273   5.022   2.288
 6256SOL    HW119667   4.344   4.987   2.226
 6256SOL    HW219668   4.289   4.986   2.380
 6257SOL     OW19669   3.976   2.754   0.163
 6257SOL    HW119670   4.031   2.759   0.246
 6257SOL    HW219671   3.883   2.784   0.183
 6258SOL     OW19672   2.997   0.444   5.319
 6258SOL    HW119673   3.022   0.489   5.234
 6258SOL    HW219674   3.044   0.487   5.396
 6259SOL     OW19675   1.849   0.689   6.149
 6259SOL    HW119676   1.832   0.594   6.122
 6259SOL    HW219677   1.860   0.746   6.068
 6260SOL     OW19678   2.239   0.749   0.763
 6260SOL    HW119679   2.283   0.694   0.834
 6260SOL    HW219680   2.218   0.691   0.684
 6261SOL     OW19681   4.239   6.599   1.022
 6261SOL    HW119682   4.185   6.661   0.964
 6261SOL    HW219683   4.212   6.504   1.004
 6262SOL     OW19684   1.193   5.894   2.519
 6262SOL    HW119685   1.103   5.927   2.549
 6262SOL    HW219686   1.206   5.801   2.550
 6263SOL     OW19687   0.245   6.179   5.229
 6263SOL    HW119688   0.244   6.240   5.149
 6263SOL    HW219689   0.153   6.145   5.247
 6264SOL     OW19690   1.365   6.996   1.370
 6264SOL    HW119691   1.363   6.920   1.436
 6264SOL    HW219692   1.461   7.018   1.350
 6265SOL     OW19693   3.798   2.997   0.872
 6265SOL    HW119694   3.756   2.951   0.794
 6265SOL    HW219695   3.841   2.929   0.931
 6266SOL     OW19696   4.061   6.940   3.228
 6266SOL    HW119697   4.071   6.980   3.137
 6266SOL    HW219698   4.093   7.006   3.297
 6267SOL     OW19699   1.382   0.074   4.951
 6267SOL    HW119700   1.333   7.028   4.993
 6267SOL    HW219701   1.481   0.061   4.962
 6268SOL     OW19702   2.862   0.976   2.084
 6268SOL    HW119703   2.851   0.938   2.176
 6268SOL    HW219704   2.941   0.933   2.040
 6269SOL     OW19705   5.914   6.611   1.523
 6269SOL    HW119706   5.905   6.697   1.474
 6269SOL    HW219707   5.954   6.628   1.613
 6270SOL     OW19708   0.804   6.625   0.202
 6270SOL    HW119709   0.818   6.592   0.296
 6270SOL    HW219710   0.707   6.616   0.178
 6271SOL     OW19711   6.157   2.786   6.319
 6271SOL    HW119712   6.089   2.786   6.246
 6271SOL    HW219713   6.236   2.731   6.292
 6272SOL     OW19714   0.772   0.752   0.789
 6272SOL    HW119715   0.708   0.754   0.712
 6272SOL    HW219716   0.846   0.688   0.769
 6273SOL     OW19717   0.227   5.414   2.905
 6273SOL    HW119718   0.206   5.489   2.968
 6273SOL    HW219719   0.237   5.329   2.957
 6274SOL     OW19720   3.051   6.967   4.793
 6274SOL    HW119721   3.005   0.025   4.805
 6274SOL    HW219722   3.067   6.924   4.882
 6275SOL     OW19723   2.174   5.910   0.740
 6275SOL    HW119724   2.084   5.887   0.702
 6275SOL    HW219725   2.245   5.870   0.683
 6276SOL     OW19726   3.809   5.713   3.618
 6276SOL    HW119727   3.814   5.785   3.549
 6276SOL    HW219728   3.821   5.752   3.709
 6277SOL     OW19729   5.242   2.139   0.855
 6277SOL    HW119730   5.259   2.094   0.943
 6277SOL    HW219731   5.285   2.230   0.856
 6278SOL     OW19732   3.388   0.777   5.819
 6278SOL    HW119733   3.367   0.783   5.722
 6278SOL    HW219734   3.398   0.870   5.856
 6279SOL     OW19735   4.276   5.747   0.861
 6279SOL    HW119736   4.183   5.781   0.874
 6279SOL    HW219737   4.340   5.825   0.859
 6280SOL     OW19738   0.165   1.081   6.512
 6280SOL    HW119739   0.226   1.159   6.526
 6280SOL    HW219740   0.144   1.040   6.601
 6281SOL     OW19741   6.158   4.920   3.738
 6281SOL    HW119742   6.243   4.953   3.779
 6281SOL    HW219743   6.143   4.825   3.764
 6282SOL     OW19744   6.201   3.282   5.365
 6282SOL    HW119745   6.183   3.265   5.462
 6282SOL    HW219746   6.223   3.379   5.351
 6283SOL     OW19747   0.956   4.336   4.043
 6283SOL    HW119748   0.867   4.364   4.080
 6283SOL    HW219749   1.024   4.406   4.063
 6284SOL     OW19750   1.323   5.724   6.779
 6284SOL    HW119751   1.418   5.746   6.800
 6284SOL    HW219752   1.309   5.723   6.680
 6285SOL     OW19753   1.468   3.276   3.539
 6285SOL    HW119754   1.441   3.221   3.618
 6285SOL    HW219755   1.511   3.218   3.470
 6286SOL     OW19756   6.394   3.636   4.112
 6286SOL    HW119757   6.462   3.573   4.073
 6286SOL    HW219758   6.437   3.692   4.183
 6287SOL     OW19759   4.130   5.036   5.154
 6287SOL    HW119760   4.196   4.997   5.089
 6287SOL    HW219761   4.161   5.127   5.182
 6288SOL     OW19762   4.763   4.638   1.420
 6288SOL    HW119763   4.667   4.615   1.407
 6288SOL    HW219764   4.799   4.681   1.337
 6289SOL     OW19765   2.730   4.799   6.709
 6289SOL    HW119766   2.687   4.820   6.621
 6289SOL    HW219767   2.765   4.705   6.708
 6290SOL     OW19768   5.814   5.453   6.207
 6290SOL    HW119769   5.728   5.450   6.157
 6290SOL    HW219770   5.887   5.411   6.152
 6291SOL     OW19771   4.063   3.324   3.336
 6291SOL    HW119772   4.037   3.235   3.299
 6291SOL    HW219773   4.157   3.345   3.308
 6292SOL     OW19774   2.102   2.171   4.538
 6292SOL    HW119775   2.137   2.097   4.596
 6292SOL    HW219776   2.101   2.256   4.590
 6293SOL     OW19777   4.354   1.576   0.567
 6293SOL    HW119778   4.414   1.651   0.595
 6293SOL    HW219779   4.340   1.513   0.643
 6294SOL     OW19780   4.261   0.447   3.157
 6294SOL    HW119781   4.317   0.461   3.238
 6294SOL    HW219782   4.171   0.415   3.184
 6295SOL     OW19783   5.266   4.965   5.010
 6295SOL    HW119784   5.189   4.959   5.074
 6295SOL    HW219785   5.347   5.000   5.058
 6296SOL     OW19786   0.487   4.465   5.717
 6296SOL    HW119787   0.406   4.479   5.660
 6296SOL    HW219788   0.567   4.454   5.659
 6297SOL     OW19789   6.792   0.173   5.525
 6297SOL    HW119790   6.739   0.245   5.482
 6297SOL    HW219791   6.774   0.085   5.480
 6298SOL     OW19792   6.552   4.550   6.442
 6298SOL    HW119793   6.559   4.591   6.533
 6298SOL    HW219794   6.527   4.454   6.451
 6299SOL     OW19795   6.080   2.766   2.063
 6299SOL    HW119796   6.116   2.681   2.102
 6299SOL    HW219797   6.093   2.765   1.964
 6300SOL     OW19798   4.711   0.571   6.887
 6300SOL    HW119799   4.767   0.584   6.805
 6300SOL    HW219800   4.641   0.502   6.869
 6301SOL     OW19801   3.114   6.933   6.406
 6301SOL    HW119802   3.154   6.913   6.495
 6301SOL    HW219803   3.178   6.988   6.352
 6302SOL     OW19804   2.339   1.407   5.636
 6302SOL    HW119805   2.391   1.389   5.552
 6302SOL    HW219806   2.348   1.503   5.661
 6303SOL     OW19807   0.476   6.405   6.048
 6303SOL    HW119808   0.525   6.410   6.135
 6303SOL    HW219809   0.399   6.469   6.049
 6304SOL     OW19810   3.954   1.775   3.628
 6304SOL    HW119811   3.909   1.742   3.711
 6304SOL    HW219812   3.896   1.845   3.585
 6305SOL     OW19813   6.030   5.951   0.128
 6305SOL    HW119814   6.031   5.883   0.055
 6305SOL    HW219815   6.058   6.039   0.092
 6306SOL     OW19816   0.133   3.544   4.195
 6306SOL    HW119817   0.156   3.506   4.285
 6306SOL    HW219818   0.089   3.473   4.139
 6307SOL     OW19819   3.261   3.006   4.183
 6307SOL    HW119820   3.323   2.979   4.109
 6307SOL    HW219821   3.312   3.061   4.250
 6308SOL     OW19822   0.893   2.122   5.865
 6308SOL    HW119823   0.889   2.188   5.791
 6308SOL    HW219824   0.922   2.033   5.829
 6309SOL     OW19825   0.244   0.327   4.297
 6309SOL    HW119826   0.169   0.386   4.266
 6309SOL    HW219827   0.329   0.356   4.254
 6310SOL     OW19828   2.183   6.444   2.910
 6310SOL    HW119829   2.266   6.479   2.953
 6310SOL    HW219830   2.203   6.415   2.817
 6311SOL     OW19831   4.915   1.233   6.813
 6311SOL    HW119832   4.935   1.150   6.864
 6311SOL    HW219833   4.999   1.285   6.798
 6312SOL     OW19834   1.743   6.974   6.483
 6312SOL    HW119835   1.713   7.007   6.394
 6312SOL    HW219836   1.678   6.906   6.517
 6313SOL     OW19837   5.447   6.490   2.987
 6313SOL    HW119838   5.421   6.398   2.957
 6313SOL    HW219839   5.499   6.535   2.915
 6314SOL     OW19840   3.808   0.615   1.945
 6314SOL    HW119841   3.844   0.704   1.971
 6314SOL    HW219842   3.749   0.580   2.017
 6315SOL     OW19843   2.111   2.026   4.800
 6315SOL    HW119844   2.126   2.109   4.853
 6315SOL    HW219845   2.014   2.003   4.801
 6316SOL     OW19846   4.902   1.649   5.831
 6316SOL    HW119847   4.887   1.680   5.924
 6316SOL    HW219848   4.939   1.556   5.832
 6317SOL     OW19849   5.107   3.772   2.727
 6317SOL    HW119850   5.014   3.780   2.763
 6317SOL    HW219851   5.109   3.703   2.655
 6318SOL     OW19852   4.760   6.714   6.900
 6318SOL    HW119853   4.839   6.770   6.877
 6318SOL    HW219854   4.676   6.762   6.874
 6319SOL     OW19855   6.219   2.026   4.436
 6319SOL    HW119856   6.315   2.021   4.410
 6319SOL    HW219857   6.203   1.968   4.515
 6320SOL     OW19858   0.143   7.016   4.040
 6320SOL    HW119859   0.100   0.076   4.038
 6320SOL    HW219860   0.074   6.946   4.022
 6321SOL     OW19861   4.913   3.600   0.124
 6321SOL    HW119862   4.936   3.692   0.154
 6321SOL    HW219863   4.996   3.551   0.098
 6322SOL     OW19864   2.898   1.601   0.359
 6322SOL    HW119865   2.831   1.658   0.312
 6322SOL    HW219866   2.934   1.533   0.296
 6323SOL     OW19867   1.440   1.936   1.344
 6323SOL    HW119868   1.433   1.839   1.368
 6323SOL    HW219869   1.466   1.944   1.248
 6324SOL     OW19870   3.989   1.643   0.811
 6324SOL    HW119871   4.085   1.641   0.837
 6324SOL    HW219872   3.977   1.700   0.730
 6325SOL     OW19873   2.272   2.810   3.044
 6325SOL    HW119874   2.347   2.837   3.105
 6325SOL    HW219875   2.247   2.887   2.985
 6326SOL     OW19876   5.560   5.720   5.658
 6326SOL    HW119877   5.498   5.757   5.727
 6326SOL    HW219878   5.562   5.620   5.666
 6327SOL     OW19879   6.918   1.203   3.734
 6327SOL    HW119880   6.966   1.134   3.680
 6327SOL    HW219881   6.982   1.274   3.761
 6328SOL     OW19882   4.866   3.729   6.826
 6328SOL    HW119883   4.817   3.649   6.860
 6328SOL    HW219884   4.862   3.802   6.895
 6329SOL     OW19885   0.737   2.941   5.108
 6329SOL    HW119886   0.675   2.954   5.031
 6329SOL    HW219887   0.825   2.984   5.088
 6330SOL     OW19888   5.504   0.269   2.108
 6330SOL    HW119889   5.505   0.362   2.145
 6330SOL    HW219890   5.417   0.225   2.131
 6331SOL     OW19891   6.722   2.931   4.842
 6331SOL    HW119892   6.822   2.928   4.843
 6331SOL    HW219893   6.691   3.021   4.873
 6332SOL     OW19894   1.325   2.748   1.561
 6332SOL    HW119895   1.373   2.706   1.485
 6332SOL    HW219896   1.236   2.706   1.573
 6333SOL     OW19897   5.077   6.877   6.576
 6333SOL    HW119898   5.030   6.818   6.511
 6333SOL    HW219899   5.095   6.826   6.661
 6334SOL     OW19900   2.539   1.309   2.139
 6334SOL    HW119901   2.516   1.374   2.212
 6334SOL    HW219902   2.632   1.275   2.154
 6335SOL     OW19903   4.659   1.055   0.527
 6335SOL    HW119904   4.751   1.016   0.521
 6335SOL    HW219905   4.662   1.143   0.574
 6336SOL     OW19906   0.305   3.985   6.630
 6336SOL    HW119907   0.362   3.947   6.703
 6336SOL    HW219908   0.279   4.079   6.653
 6337SOL     OW19909   4.027   5.664   4.890
 6337SOL    HW119910   4.010   5.617   4.803
 6337SOL    HW219911   4.119   5.704   4.889
 6338SOL     OW19912   3.152   1.682   4.347
 6338SOL    HW119913   3.207   1.736   4.410
 6338SOL    HW219914   3.063   1.726   4.335
 6339SOL     OW19915   1.291   3.952   3.440
 6339SOL    HW119916   1.226   3.878   3.427
 6339SOL    HW219917   1.347   3.933   3.521
 6340SOL     OW19918   2.288   3.495   1.050
 6340SOL    HW119919   2.190   3.489   1.034
 6340SOL    HW219920   2.307   3.570   1.113
 6341SOL     OW19921   0.716   3.614   3.779
 6341SOL    HW119922   0.814   3.610   3.763
 6341SOL    HW219923   0.693   3.563   3.862
 6342SOL     OW19924   3.329   1.285   0.482
 6342SOL    HW119925   3.255   1.243   0.535
 6342SOL    HW219926   3.396   1.215   0.458
 6343SOL     OW19927   3.859   6.680   6.601
 6343SOL    HW119928   3.828   6.761   6.551
 6343SOL    HW219929   3.782   6.639   6.650
 6344SOL     OW19930   5.799   2.141   4.089
 6344SOL    HW119931   5.884   2.140   4.037
 6344SOL    HW219932   5.724   2.171   4.030
 6345SOL     OW19933   4.728   2.824   1.759
 6345SOL    HW119934   4.675   2.879   1.824
 6345SOL    HW219935   4.752   2.880   1.680
 6346SOL     OW19936   6.769   4.530   4.905
 6346SOL    HW119937   6.697   4.472   4.867
 6346SOL    HW219938   6.847   4.532   4.842
 6347SOL     OW19939   2.678   1.687   1.549
 6347SOL    HW119940   2.719   1.676   1.640
 6347SOL    HW219941   2.581   1.707   1.559
 6348SOL     OW19942   0.937   2.227   6.121
 6348SOL    HW119943   0.916   2.144   6.173
 6348SOL    HW219944   0.952   2.203   6.025
 6349SOL     OW19945   1.515   0.565   0.367
 6349SOL    HW119946   1.560   0.650   0.394
 6349SOL    HW219947   1.449   0.540   0.438
 6350SOL     OW19948   1.048   5.264   2.859
 6350SOL    HW119949   0.957   5.271   2.819
 6350SOL    HW219950   1.074   5.168   2.867
 6351SOL     OW19951   6.851   4.620   3.738
 6351SOL    HW119952   6.943   4.618   3.777
 6351SOL    HW219953   6.799   4.696   3.777
 6352SOL     OW19954   2.640   0.434   4.044
 6352SOL    HW119955   2.648   0.335   4.034
 6352SOL    HW219956   2.620   0.475   3.955
 6353SOL     OW19957   2.564   5.469   0.316
 6353SOL    HW119958   2.553   5.371   0.303
 6353SOL    HW219959   2.477   5.515   0.299
 6354SOL     OW19960   3.473   6.202   3.223
 6354SOL    HW119961   3.507   6.291   3.254
 6354SOL    HW219962   3.405   6.168   3.287
 6355SOL     OW19963   2.603   5.665   0.510
 6355SOL    HW119964   2.692   5.709   0.502
 6355SOL    HW219965   2.601   5.583   0.453
 6356SOL     OW19966   5.570   5.548   0.095
 6356SOL    HW119967   5.501   5.521   0.028
 6356SOL    HW219968   5.644   5.597   0.048
 6357SOL     OW19969   5.677   2.540   1.960
 6357SOL    HW119970   5.690   2.639   1.953
 6357SOL    HW219971   5.765   2.497   1.981
 6358SOL     OW19972   0.670   2.326   7.028
 6358SOL    HW119973   0.656   2.406   6.970
 6358SOL    HW219974   0.622   2.338   0.085
 6359SOL     OW19975   6.296   6.333   0.599
 6359SOL    HW119976   6.309   6.404   0.668
 6359SOL    HW219977   6.353   6.353   0.519
 6360SOL     OW19978   0.595   3.707   4.143
 6360SOL    HW119979   0.662   3.642   4.104
 6360SOL    HW219980   0.505   3.687   4.105
 6361SOL     OW19981   0.946   0.551   1.031
 6361SOL    HW119982   0.980   0.585   0.943
 6361SOL    HW219983   0.974   0.614   1.104
 6362SOL     OW19984   1.743   6.202   6.923
 6362SOL    HW119985   1.722   6.298   6.942
 6362SOL    HW219986   1.668   6.144   6.956
 6363SOL     OW19987   2.886   4.833   4.309
 6363SOL    HW119988   2.829   4.784   4.244
 6363SOL    HW219989   2.855   4.814   4.402
 6364SOL     OW19990   2.563   2.493   5.512
 6364SOL    HW119991   2.554   2.578   5.564
 6364SOL    HW219992   2.616   2.512   5.429
 6365SOL     OW19993   5.908   5.948   4.869
 6365SOL    HW119994   5.815   5.923   4.892
 6365SOL    HW219995   5.925   6.043   4.896
 6366SOL     OW19996   6.897   6.551   4.767
 6366SOL    HW119997   6.964   6.486   4.731
 6366SOL    HW219998   6.907   6.639   4.721
 6367SOL     OW19999   3.308   2.166   2.742
 6367SOL    HW120000   3.343   2.151   2.835
 6367SOL    HW220001   3.244   2.092   2.719
 6368SOL     OW20002   4.256   4.763   4.315
 6368SOL    HW120003   4.286   4.734   4.406
 6368SOL    HW220004   4.156   4.761   4.311
 6369SOL     OW20005   2.125   0.140   4.405
 6369SOL    HW120006   2.106   0.223   4.457
 6369SOL    HW220007   2.223   0.125   4.402
 6370SOL     OW20008   5.396   4.082   3.522
 6370SOL    HW120009   5.419   3.994   3.565
 6370SOL    HW220010   5.354   4.065   3.433
 6371SOL     OW20011   5.400   3.878   1.970
 6371SOL    HW120012   5.331   3.948   1.993
 6371SOL    HW220013   5.399   3.807   2.039
 6372SOL     OW20014   0.590   1.580   1.704
 6372SOL    HW120015   0.533   1.591   1.622
 6372SOL    HW220016   0.584   1.663   1.760
 6373SOL     OW20017   5.812   3.940   2.367
 6373SOL    HW120018   5.807   3.997   2.449
 6373SOL    HW220019   5.805   3.997   2.285
 6374SOL     OW20020   4.477   3.108   0.317
 6374SOL    HW120021   4.570   3.104   0.352
 6374SOL    HW220022   4.415   3.135   0.392
 6375SOL     OW20023   0.916   2.543   1.489
 6375SOL    HW120024   0.818   2.535   1.506
 6375SOL    HW220025   0.950   2.458   1.448
 6376SOL     OW20026   3.927   1.770   5.281
 6376SOL    HW120027   3.855   1.703   5.296
 6376SOL    HW220028   3.919   1.844   5.348
 6377SOL     OW20029   6.681   1.340   5.298
 6377SOL    HW120030   6.654   1.276   5.370
 6377SOL    HW220031   6.601   1.390   5.266
 6378SOL     OW20032   4.901   5.599   3.362
 6378SOL    HW120033   4.853   5.547   3.433
 6378SOL    HW220034   4.835   5.638   3.299
 6379SOL     OW20035   0.878   4.885   5.652
 6379SOL    HW120036   0.903   4.797   5.611
 6379SOL    HW220037   0.956   4.921   5.704
 6380SOL     OW20038   6.959   3.207   4.393
 6380SOL    HW120039   0.022   3.181   4.420
 6380SOL    HW220040   6.899   3.127   4.398
 6381SOL     OW20041   4.125   3.007   0.305
 6381SOL    HW120042   4.111   3.097   0.345
 6381SOL    HW220043   4.130   3.015   0.205
 6382SOL     OW20044   3.374   1.862   1.135
 6382SOL    HW120045   3.329   1.869   1.224
 6382SOL    HW220046   3.406   1.952   1.106
 6383SOL     OW20047   1.543   2.395   2.107
 6383SOL    HW120048   1.592   2.309   2.122
 6383SOL    HW220049   1.480   2.411   2.182
 6384SOL     OW20050   5.692   2.821   1.951
 6384SOL    HW120051   5.730   2.899   2.001
 6384SOL    HW220052   5.651   2.853   1.865
 6385SOL     OW20053   6.498   3.801   1.845
 6385SOL    HW120054   6.416   3.743   1.848
 6385SOL    HW220055   6.470   3.897   1.840
 6386SOL     OW20056   2.141   3.458   0.363
 6386SOL    HW120057   2.206   3.388   0.391
 6386SOL    HW220058   2.058   3.450   0.419
 6387SOL     OW20059   5.877   1.507   0.511
 6387SOL    HW120060   5.817   1.433   0.481
 6387SOL    HW220061   5.887   1.573   0.436
 6388SOL     OW20062   5.904   5.031   2.169
 6388SOL    HW120063   5.811   5.066   2.154
 6388SOL    HW220064   5.903   4.961   2.240
 6389SOL     OW20065   1.334   6.663   1.416
 6389SOL    HW120066   1.381   6.650   1.329
 6389SOL    HW220067   1.397   6.645   1.491
 6390SOL     OW20068   6.345   0.475   5.925
 6390SOL    HW120069   6.443   0.492   5.937
 6390SOL    HW220070   6.326   0.378   5.940
 6391SOL     OW20071   1.500   1.556   5.947
 6391SOL    HW120072   1.420   1.602   5.909
 6391SOL    HW220073   1.473   1.469   5.988
 6392SOL     OW20074   2.902   6.154   3.777
 6392SOL    HW120075   2.933   6.064   3.745
 6392SOL    HW220076   2.975   6.198   3.829
 6393SOL     OW20077   5.796   6.081   1.459
 6393SOL    HW120078   5.786   6.180   1.455
 6393SOL    HW220079   5.802   6.052   1.554
 6394SOL     OW20080   1.555   4.719   1.208
 6394SOL    HW120081   1.546   4.788   1.136
 6394SOL    HW220082   1.640   4.667   1.195
 6395SOL     OW20083   0.175   3.088   2.283
 6395SOL    HW120084   0.100   3.023   2.273
 6395SOL    HW220085   0.146   3.177   2.249
 6396SOL     OW20086   6.266   3.782   5.779
 6396SOL    HW120087   6.222   3.767   5.868
 6396SOL    HW220088   6.359   3.747   5.781
 6397SOL     OW20089   6.495   1.401   2.305
 6397SOL    HW120090   6.420   1.390   2.239
 6397SOL    HW220091   6.549   1.481   2.280
 6398SOL     OW20092   1.444   6.623   1.674
 6398SOL    HW120093   1.351   6.659   1.674
 6398SOL    HW220094   1.477   6.615   1.768
 6399SOL     OW20095   1.548   0.147   7.002
 6399SOL    HW120096   1.628   0.087   6.999
 6399SOL    HW220097   1.482   0.112   0.038
 6400SOL     OW20098   2.065   5.042   2.725
 6400SOL    HW120099   2.096   5.137   2.730
 6400SOL    HW220100   2.092   4.994   2.808
 6401SOL     OW20101   5.371   4.854   3.241
 6401SOL    HW120102   5.373   4.841   3.142
 6401SOL    HW220103   5.403   4.771   3.286
 6402SOL     OW20104   1.806   3.231   3.888
 6402SOL    HW120105   1.771   3.286   3.812
 6402SOL    HW220106   1.904   3.215   3.874
 6403SOL     OW20107   5.840   6.402   5.955
 6403SOL    HW120108   5.817   6.305   5.948
 6403SOL    HW220109   5.877   6.434   5.868
 6404SOL     OW20110   4.057   1.607   2.574
 6404SOL    HW120111   4.082   1.531   2.634
 6404SOL    HW220112   3.958   1.617   2.572
 6405SOL     OW20113   4.529   1.578   3.699
 6405SOL    HW120114   4.448   1.562   3.755
 6405SOL    HW220115   4.531   1.673   3.669
 6406SOL     OW20116   1.315   3.314   2.192
 6406SOL    HW120117   1.381   3.338   2.121
 6406SOL    HW220118   1.310   3.388   2.259
 6407SOL     OW20119   2.052   0.068   3.089
 6407SOL    HW120120   2.080   0.052   3.184
 6407SOL    HW220121   1.991   0.147   3.085
 6408SOL     OW20122   6.362   0.866   0.692
 6408SOL    HW120123   6.460   0.888   0.688
 6408SOL    HW220124   6.339   0.806   0.615
 6409SOL     OW20125   0.167   4.879   3.107
 6409SOL    HW120126   0.160   4.821   3.188
 6409SOL    HW220127   0.077   4.912   3.081
 6410SOL     OW20128   1.899   0.924   6.822
 6410SOL    HW120129   1.983   0.889   6.781
 6410SOL    HW220130   1.821   0.869   6.791
 6411SOL     OW20131   1.011   3.205   2.417
 6411SOL    HW120132   1.062   3.120   2.406
 6411SOL    HW220133   0.948   3.217   2.339
 6412SOL     OW20134   2.598   0.644   0.232
 6412SOL    HW120135   2.585   0.634   0.331
 6412SOL    HW220136   2.520   0.693   0.193
 6413SOL     OW20137   3.949   4.832   4.695
 6413SOL    HW120138   4.043   4.851   4.665
 6413SOL    HW220139   3.934   4.733   4.695
 6414SOL     OW20140   6.214   6.503   6.798
 6414SOL    HW120141   6.162   6.423   6.768
 6414SOL    HW220142   6.153   6.582   6.805
 6415SOL     OW20143   1.501   3.532   4.084
 6415SOL    HW120144   1.598   3.508   4.078
 6415SOL    HW220145   1.462   3.535   3.992
 6416SOL     OW20146   2.853   6.993   6.449
 6416SOL    HW120147   2.947   6.970   6.426
 6416SOL    HW220148   2.844   7.002   6.549
 6417SOL     OW20149   5.398   2.454   0.629
 6417SOL    HW120150   5.424   2.393   0.555
 6417SOL    HW220151   5.452   2.434   0.711
 6418SOL     OW20152   5.111   4.273   2.677
 6418SOL    HW120153   5.030   4.327   2.657
 6418SOL    HW220154   5.133   4.280   2.775
 6419SOL     OW20155   0.454   5.400   4.812
 6419SOL    HW120156   0.516   5.459   4.761
 6419SOL    HW220157   0.468   5.413   4.910
 6420SOL     OW20158   1.943   1.708   3.744
 6420SOL    HW120159   1.993   1.623   3.762
 6420SOL    HW220160   1.966   1.740   3.652
 6421SOL     OW20161   4.652   0.591   1.241
 6421SOL    HW120162   4.567   0.625   1.201
 6421SOL    HW220163   4.692   0.523   1.180
 6422SOL     OW20164   6.462   1.494   5.219
 6422SOL    HW120165   6.440   1.560   5.290
 6422SOL    HW220166   6.380   1.441   5.196
 6423SOL     OW20167   4.796   5.459   4.821
 6423SOL    HW120168   4.803   5.401   4.740
 6423SOL    HW220169   4.866   5.530   4.817
 6424SOL     OW20170   1.388   3.763   4.943
 6424SOL    HW120171   1.441   3.829   4.997
 6424SOL    HW220172   1.331   3.709   5.004
 6425SOL     OW20173   0.039   5.429   2.724
 6425SOL    HW120174   0.067   5.415   2.629
 6425SOL    HW220175   0.116   5.409   2.785
 6426SOL     OW20176   5.422   5.031   3.825
 6426SOL    HW120177   5.407   5.126   3.853
 6426SOL    HW220178   5.520   5.012   3.827
 6427SOL     OW20179   2.878   3.653   3.212
 6427SOL    HW120180   2.949   3.704   3.262
 6427SOL    HW220181   2.815   3.718   3.169
 6428SOL     OW20182   5.787   3.585   0.431
 6428SOL    HW120183   5.772   3.495   0.390
 6428SOL    HW220184   5.860   3.578   0.499
 6429SOL     OW20185   1.204   0.687   5.469
 6429SOL    HW120186   1.173   0.736   5.551
 6429SOL    HW220187   1.132   0.624   5.438
 6430SOL     OW20188   6.484   0.912   4.971
 6430SOL    HW120189   6.490   0.814   4.947
 6430SOL    HW220190   6.497   0.966   4.888
 6431SOL     OW20191   4.443   5.568   2.586
 6431SOL    HW120192   4.462   5.666   2.598
 6431SOL    HW220193   4.414   5.529   2.673
 6432SOL     OW20194   3.630   4.288   6.309
 6432SOL    HW120195   3.673   4.332   6.231
 6432SOL    HW220196   3.598   4.359   6.373
 6433SOL     OW20197   3.557   4.997   6.917
 6433SOL    HW120198   3.479   5.003   6.855
 6433SOL    HW220199   3.601   5.086   6.925
 6434SOL     OW20200   2.507   6.424   5.886
 6434SOL    HW120201   2.590   6.393   5.839
 6434SOL    HW220202   2.472   6.506   5.840
 6435SOL     OW20203   6.522   0.011   0.965
 6435SOL    HW120204   6.556   0.103   0.987
 6435SOL    HW220205   6.512   6.988   1.049
 6436SOL     OW20206   1.044   3.430   3.430
 6436SOL    HW120207   1.127   3.385   3.398
 6436SOL    HW220208   0.995   3.469   3.351
 6437SOL     OW20209   1.676   2.261   6.167
 6437SOL    HW120210   1.752   2.204   6.199
 6437SOL    HW220211   1.618   2.208   6.105
 6438SOL     OW20212   1.360   4.795   6.599
 6438SOL    HW120213   1.292   4.848   6.548
 6438SOL    HW220214   1.384   4.713   6.547
 6439SOL     OW20215   6.185   0.948   3.065
 6439SOL    HW120216   6.216   1.020   3.126
 6439SOL    HW220217   6.232   0.957   2.977
 6440SOL     OW20218   2.872   0.778   5.918
 6440SOL    HW120219   2.935   0.851   5.947
 6440SOL    HW220220   2.840   0.728   5.999
 6441SOL     OW20221   0.175   0.982   1.984
 6441SOL    HW120222   0.183   0.884   1.966
 6441SOL    HW220223   0.134   0.996   2.075
 6442SOL     OW20224   2.280   2.147   5.257
 6442SOL    HW120225   2.186   2.166   5.286
 6442SOL    HW220226   2.304   2.206   5.180
 6443SOL     OW20227   3.686   2.256   5.852
 6443SOL    HW120228   3.640   2.342   5.831
 6443SOL    HW220229   3.633   2.180   5.815
 6444SOL     OW20230   6.536   2.672   4.931
 6444SOL    HW120231   6.539   2.745   4.999
 6444SOL    HW220232   6.622   2.671   4.879
 6445SOL     OW20233   4.071   3.789   3.087
 6445SOL    HW120234   4.164   3.753   3.094
 6445SOL    HW220235   4.059   3.865   3.151
 6446SOL     OW20236   0.840   2.189   0.295
 6446SOL    HW120237   0.882   2.275   0.266
 6446SOL    HW220238   0.909   2.117   0.298
 6447SOL     OW20239   5.995   4.411   1.838
 6447SOL    HW120240   5.907   4.450   1.867
 6447SOL    HW220241   6.039   4.473   1.773
 6448SOL     OW20242   5.155   4.818   1.424
 6448SOL    HW120243   5.173   4.860   1.334
 6448SOL    HW220244   5.182   4.722   1.421
 6449SOL     OW20245   2.694   4.969   2.046
 6449SOL    HW120246   2.771   4.909   2.067
 6449SOL    HW220247   2.693   5.045   2.111
 6450SOL     OW20248   1.054   3.781   0.286
 6450SOL    HW120249   1.137   3.734   0.318
 6450SOL    HW220250   0.992   3.714   0.245
 6451SOL     OW20251   2.854   1.813   5.918
 6451SOL    HW120252   2.953   1.812   5.928
 6451SOL    HW220253   2.811   1.790   6.005
 6452SOL     OW20254   5.023   3.643   2.502
 6452SOL    HW120255   4.987   3.577   2.568
 6452SOL    HW220256   5.111   3.612   2.467
 6453SOL     OW20257   2.891   6.839   1.519
 6453SOL    HW120258   2.803   6.849   1.566
 6453SOL    HW220259   2.911   6.742   1.508
 6454SOL     OW20260   0.623   1.540   2.267
 6454SOL    HW120261   0.679   1.504   2.341
 6454SOL    HW220262   0.679   1.553   2.185
 6455SOL     OW20263   6.901   3.772   3.661
 6455SOL    HW120264   6.991   3.809   3.639
 6455SOL    HW220265   6.857   3.737   3.578
 6456SOL     OW20266   1.323   0.941   2.750
 6456SOL    HW120267   1.400   0.877   2.752
 6456SOL    HW220268   1.318   0.990   2.836
 6457SOL     OW20269   4.861   6.253   1.422
 6457SOL    HW120270   4.767   6.222   1.409
 6457SOL    HW220271   4.871   6.346   1.384
 6458SOL     OW20272   1.770   5.259   5.039
 6458SOL    HW120273   1.771   5.292   5.134
 6458SOL    HW220274   1.862   5.264   5.001
 6459SOL     OW20275   6.060   2.493   2.972
 6459SOL    HW120276   6.151   2.520   2.941
 6459SOL    HW220277   6.066   2.446   3.059
 6460SOL     OW20278   5.693   6.132   5.851
 6460SOL    HW120279   5.700   6.120   5.950
 6460SOL    HW220280   5.727   6.051   5.805
 6461SOL     OW20281   2.869   5.001   0.221
 6461SOL    HW120282   2.792   4.944   0.193
 6461SOL    HW220283   2.952   4.944   0.226
 6462SOL     OW20284   0.497   3.016   4.634
 6462SOL    HW120285   0.462   2.970   4.553
 6462SOL    HW220286   0.589   3.051   4.616
 6463SOL     OW20287   5.062   6.490   0.792
 6463SOL    HW120288   5.121   6.534   0.724
 6463SOL    HW220289   5.067   6.540   0.878
 6464SOL     OW20290   1.793   6.014   5.463
 6464SOL    HW120291   1.732   6.075   5.414
 6464SOL    HW220292   1.743   5.968   5.536
 6465SOL     OW20293   6.691   2.549   2.520
 6465SOL    HW120294   6.603   2.568   2.563
 6465SOL    HW220295   6.708   2.450   2.521
 6466SOL     OW20296   6.716   1.829   6.724
 6466SOL    HW120297   6.815   1.828   6.708
 6466SOL    HW220298   6.670   1.869   6.645
 6467SOL     OW20299   4.070   0.624   0.892
 6467SOL    HW120300   4.086   0.674   0.808
 6467SOL    HW220301   3.994   0.560   0.878
 6468SOL     OW20302   3.357   6.240   1.707
 6468SOL    HW120303   3.427   6.301   1.744
 6468SOL    HW220304   3.386   6.206   1.617
 6469SOL     OW20305   3.415   1.857   4.183
 6469SOL    HW120306   3.342   1.916   4.220
 6469SOL    HW220307   3.434   1.784   4.249
 6470SOL     OW20308   6.349   2.588   0.081
 6470SOL    HW120309   6.391   2.678   0.082
 6470SOL    HW220310   6.257   2.593   0.120
 6471SOL     OW20311   0.973   6.250   5.202
 6471SOL    HW120312   0.911   6.327   5.188
 6471SOL    HW220313   1.060   6.283   5.239
 6472SOL     OW20314   5.985   5.757   2.877
 6472SOL    HW120315   5.951   5.771   2.970
 6472SOL    HW220316   6.072   5.707   2.880
 6473SOL     OW20317   1.878   1.863   5.057
 6473SOL    HW120318   1.887   1.882   4.959
 6473SOL    HW220319   1.938   1.787   5.082
 6474SOL     OW20320   3.823   5.492   5.686
 6474SOL    HW120321   3.920   5.503   5.706
 6474SOL    HW220322   3.770   5.559   5.738
 6475SOL     OW20323   6.051   5.222   3.454
 6475SOL    HW120324   6.031   5.145   3.514
 6475SOL    HW220325   5.967   5.274   3.437
 6476SOL     OW20326   4.739   3.261   6.588
 6476SOL    HW120327   4.773   3.355   6.582
 6476SOL    HW220328   4.676   3.244   6.512
 6477SOL     OW20329   6.263   5.266   0.649
 6477SOL    HW120330   6.267   5.306   0.741
 6477SOL    HW220331   6.211   5.326   0.589
 6478SOL     OW20332   3.464   6.583   2.478
 6478SOL    HW120333   3.374   6.600   2.437
 6478SOL    HW220334   3.484   6.485   2.474
 6479SOL     OW20335   3.190   4.895   4.305
 6479SOL    HW120336   3.178   4.981   4.354
 6479SOL    HW220337   3.101   4.851   4.293
 6480SOL     OW20338   2.278   1.276   0.284
 6480SOL    HW120339   2.366   1.240   0.254
 6480SOL    HW220340   2.224   1.204   0.327
 6481SOL     OW20341   3.336   2.574   1.688
 6481SOL    HW120342   3.399   2.505   1.653
 6481SOL    HW220343   3.382   2.628   1.760
 6482SOL     OW20344   6.969   2.322   6.097
 6482SOL    HW120345   0.018   2.377   6.069
 6482SOL    HW220346   6.934   2.271   6.019
 6483SOL     OW20347   0.573   6.594   4.176
 6483SOL    HW120348   0.616   6.671   4.222
 6483SOL    HW220349   0.643   6.530   4.146
 6484SOL     OW20350   2.896   1.713   2.723
 6484SOL    HW120351   2.969   1.657   2.683
 6484SOL    HW220352   2.821   1.721   2.658
 6485SOL     OW20353   1.668   5.757   3.879
 6485SOL    HW120354   1.658   5.800   3.969
 6485SOL    HW220355   1.654   5.658   3.888
 6486SOL     OW20356   0.887   5.302   2.629
 6486SOL    HW120357   0.835   5.373   2.582
 6486SOL    HW220358   0.984   5.328   2.629
 6487SOL     OW20359   0.839   6.501   5.232
 6487SOL    HW120360   0.886   6.531   5.314
 6487SOL    HW220361   0.745   6.535   5.233
 6488SOL     OW20362   4.300   5.804   4.841
 6488SOL    HW120363   4.287   5.892   4.888
 6488SOL    HW220364   4.394   5.798   4.808
 6489SOL     OW20365   3.391   3.500   6.138
 6489SOL    HW120366   3.355   3.578   6.189
 6489SOL    HW220367   3.319   3.431   6.129
 6490SOL     OW20368   2.751   1.507   6.244
 6490SOL    HW120369   2.847   1.535   6.247
 6490SOL    HW220370   2.746   1.410   6.221
 6491SOL     OW20371   2.671   1.020   1.874
 6491SOL    HW120372   2.664   1.117   1.853
 6491SOL    HW220373   2.752   1.003   1.930
 6492SOL     OW20374   4.049   3.493   5.094
 6492SOL    HW120375   4.114   3.490   5.018
 6492SOL    HW220376   4.061   3.578   5.145
 6493SOL     OW20377   1.383   4.320   6.605
 6493SOL    HW120378   1.373   4.253   6.531
 6493SOL    HW220379   1.476   4.316   6.641
 6494SOL     OW20380   6.808   6.492   2.569
 6494SOL    HW120381   6.883   6.550   2.538
 6494SOL    HW220382   6.835   6.444   2.652
 6495SOL     OW20383   6.634   0.575   4.433
 6495SOL    HW120384   6.577   0.493   4.439
 6495SOL    HW220385   6.703   0.573   4.505
 6496SOL     OW20386   5.971   6.892   1.640
 6496SOL    HW120387   5.989   6.907   1.542
 6496SOL    HW220388   6.021   6.811   1.671
 6497SOL     OW20389   1.229   0.151   1.183
 6497SOL    HW120390   1.294   0.109   1.245
 6497SOL    HW220391   1.182   0.226   1.230
 6498SOL     OW20392   0.753   4.030   4.493
 6498SOL    HW120393   0.832   4.072   4.449
 6498SOL    HW220394   0.670   4.053   4.441
 6499SOL     OW20395   5.634   3.733   4.616
 6499SOL    HW120396   5.606   3.664   4.682
 6499SOL    HW220397   5.626   3.824   4.657
 6500SOL     OW20398   0.175   4.146   2.307
 6500SOL    HW120399   0.161   4.128   2.210
 6500SOL    HW220400   0.134   4.234   2.331
 6501SOL     OW20401   0.194   1.268   1.613
 6501SOL    HW120402   0.205   1.278   1.711
 6501SOL    HW220403   0.277   1.229   1.573
 6502SOL     OW20404   6.717   3.541   1.494
 6502SOL    HW120405   6.697   3.634   1.464
 6502SOL    HW220406   6.814   3.523   1.483
 6503SOL     OW20407   5.480   1.100   3.653
 6503SOL    HW120408   5.488   1.148   3.740
 6503SOL    HW220409   5.481   1.001   3.669
 6504SOL     OW20410   4.016   5.925   0.316
 6504SOL    HW120411   4.091   5.901   0.254
 6504SOL    HW220412   4.013   6.024   0.328
 6505SOL     OW20413   4.182   6.472   6.146
 6505SOL    HW120414   4.138   6.513   6.225
 6505SOL    HW220415   4.249   6.535   6.108
 6506SOL     OW20416   0.077   3.036   3.549
 6506SOL    HW120417   0.069   3.115   3.610
 6506SOL    HW220418   0.174   3.010   3.542
 6507SOL     OW20419   2.817   5.720   6.150
 6507SOL    HW120420   2.769   5.701   6.065
 6507SOL    HW220421   2.763   5.687   6.227
 6508SOL     OW20422   1.486   0.478   2.466
 6508SOL    HW120423   1.530   0.397   2.426
 6508SOL    HW220424   1.553   0.551   2.474
 6509SOL     OW20425   5.044   1.912   4.916
 6509SOL    HW120426   5.073   1.996   4.963
 6509SOL    HW220427   5.124   1.855   4.898
 6510SOL     OW20428   4.872   5.246   6.612
 6510SOL    HW120429   4.922   5.321   6.656
 6510SOL    HW220430   4.934   5.170   6.596
 6511SOL     OW20431   4.315   1.135   4.993
 6511SOL    HW120432   4.412   1.126   5.017
 6511SOL    HW220433   4.261   1.067   5.045
 6512SOL     OW20434   3.341   6.854   2.636
 6512SOL    HW120435   3.248   6.850   2.601
 6512SOL    HW220436   3.368   6.763   2.669
 6513SOL     OW20437   2.126   6.118   4.057
 6513SOL    HW120438   2.094   6.062   3.981
 6513SOL    HW220439   2.158   6.206   4.023
 6514SOL     OW20440   6.152   0.892   4.666
 6514SOL    HW120441   6.191   0.838   4.592
 6514SOL    HW220442   6.125   0.831   4.741
 6515SOL     OW20443   1.433   3.602   2.729
 6515SOL    HW120444   1.520   3.617   2.777
 6515SOL    HW220445   1.392   3.691   2.707
 6516SOL     OW20446   6.745   3.322   1.284
 6516SOL    HW120447   6.721   3.375   1.366
 6516SOL    HW220448   6.831   3.357   1.246
 6517SOL     OW20449   0.228   1.820   1.096
 6517SOL    HW120450   0.244   1.918   1.088
 6517SOL    HW220451   0.178   1.801   1.181
 6518SOL     OW20452   7.015   0.350   2.154
 6518SOL    HW120453   6.954   0.424   2.127
 6518SOL    HW220454   0.046   0.381   2.227
 6519SOL     OW20455   0.262   1.899   2.961
 6519SOL    HW120456   0.252   1.812   2.913
 6519SOL    HW220457   0.351   1.939   2.939
 6520SOL     OW20458   6.790   5.387   6.957
 6520SOL    HW120459   6.691   5.393   6.939
 6520SOL    HW220460   6.815   5.292   6.974
 6521SOL     OW20461   2.172   2.561   3.927
 6521SOL    HW120462   2.077   2.587   3.945
 6521SOL    HW220463   2.174   2.475   3.877
 6522SOL     OW20464   2.374   4.597   5.552
 6522SOL    HW120465   2.426   4.633   5.474
 6522SOL    HW220466   2.281   4.634   5.549
 6523SOL     OW20467   3.730   0.574   6.866
 6523SOL    HW120468   3.820   0.532   6.853
 6523SOL    HW220469   3.669   0.547   6.792
 6524SOL     OW20470   2.898   2.584   1.473
 6524SOL    HW120471   2.824   2.647   1.448
 6524SOL    HW220472   2.972   2.634   1.518
 6525SOL     OW20473   2.139   5.086   3.160
 6525SOL    HW120474   2.217   5.137   3.122
 6525SOL    HW220475   2.064   5.149   3.178
 6526SOL     OW20476   0.833   0.517   1.374
 6526SOL    HW120477   0.828   0.435   1.318
 6526SOL    HW220478   0.883   0.588   1.326
 6527SOL     OW20479   6.689   2.168   0.471
 6527SOL    HW120480   6.729   2.077   0.482
 6527SOL    HW220481   6.674   2.186   0.374
 6528SOL     OW20482   6.254   1.895   5.370
 6528SOL    HW120483   6.182   1.960   5.393
 6528SOL    HW220484   6.306   1.929   5.292
 6529SOL     OW20485   1.006   0.928   2.387
 6529SOL    HW120486   1.071   0.945   2.461
 6529SOL    HW220487   1.056   0.906   2.304
 6530SOL     OW20488   0.296   1.691   0.752
 6530SOL    HW120489   0.345   1.699   0.840
 6530SOL    HW220490   0.267   1.781   0.722
 6531SOL     OW20491   4.967   3.572   5.303
 6531SOL    HW120492   4.935   3.592   5.211
 6531SOL    HW220493   4.892   3.586   5.368
 6532SOL     OW20494   2.011   1.258   1.089
 6532SOL    HW120495   2.021   1.323   1.164
 6532SOL    HW220496   1.917   1.223   1.087
 6533SOL     OW20497   4.036   5.889   0.659
 6533SOL    HW120498   4.039   5.789   0.658
 6533SOL    HW220499   4.102   5.925   0.593
 6534SOL     OW20500   4.840   5.168   1.881
 6534SOL    HW120501   4.798   5.149   1.792
 6534SOL    HW220502   4.773   5.214   1.939
 6535SOL     OW20503   6.111   4.506   4.691
 6535SOL    HW120504   6.119   4.565   4.611
 6535SOL    HW220505   6.079   4.560   4.769
 6536SOL     OW20506   0.382   1.907   5.360
 6536SOL    HW120507   0.424   1.864   5.279
 6536SOL    HW220508   0.313   1.845   5.397
 6537SOL     OW20509   6.614   4.704   5.001
 6537SOL    HW120510   6.673   4.630   4.970
 6537SOL    HW220511   6.564   4.675   5.083
 6538SOL     OW20512   1.144   3.568   5.845
 6538SOL    HW120513   1.123   3.644   5.907
 6538SOL    HW220514   1.219   3.514   5.883
 6539SOL     OW20515   4.363   0.575   6.978
 6539SOL    HW120516   4.410   0.663   6.984
 6539SOL    HW220517   4.420   0.511   6.927
 6540SOL     OW20518   3.557   2.589   6.099
 6540SOL    HW120519   3.648   2.614   6.066
 6540SOL    HW220520   3.507   2.672   6.125
 6541SOL     OW20521   5.606   2.099   6.074
 6541SOL    HW120522   5.525   2.135   6.120
 6541SOL    HW220523   5.641   2.167   6.010
 6542SOL     OW20524   1.239   3.137   4.297
 6542SOL    HW120525   1.245   3.235   4.312
 6542SOL    HW220526   1.331   3.099   4.287
 6543SOL     OW20527   3.961   2.695   5.537
 6543SOL    HW120528   4.052   2.705   5.497
 6543SOL    HW220529   3.896   2.670   5.465
 6544SOL     OW20530   1.048   6.451   2.684
 6544SOL    HW120531   1.031   6.436   2.781
 6544SOL    HW220532   1.112   6.527   2.673
 6545SOL     OW20533   3.925   0.365   0.469
 6545SOL    HW120534   3.916   0.402   0.376
 6545SOL    HW220535   3.989   0.288   0.468
 6546SOL     OW20536   3.805   3.993   6.212
 6546SOL    HW120537   3.827   4.042   6.296
 6546SOL    HW220538   3.706   3.980   6.206
 6547SOL     OW20539   4.930   0.722   6.478
 6547SOL    HW120540   5.011   0.742   6.423
 6547SOL    HW220541   4.897   0.806   6.521
 6548SOL     OW20542   1.628   2.948   0.357
 6548SOL    HW120543   1.575   2.951   0.442
 6548SOL    HW220544   1.659   2.855   0.340
 6549SOL     OW20545   4.470   0.192   2.461
 6549SOL    HW120546   4.442   0.228   2.550
 6549SOL    HW220547   4.388   0.175   2.405
 6550SOL     OW20548   0.386   6.484   3.951
 6550SOL    HW120549   0.440   6.516   4.029
 6550SOL    HW220550   0.438   6.497   3.866
 6551SOL     OW20551   2.439   3.707   1.657
 6551SOL    HW120552   2.484   3.675   1.574
 6551SOL    HW220553   2.421   3.630   1.717
 6552SOL     OW20554   2.313   6.840   0.857
 6552SOL    HW120555   2.348   6.752   0.887
 6552SOL    HW220556   2.227   6.860   0.904
 6553SOL     OW20557   0.895   2.209   3.028
 6553SOL    HW120558   0.936   2.299   3.022
 6553SOL    HW220559   0.869   2.178   2.936
 6554SOL     OW20560   2.273   0.744   4.470
 6554SOL    HW120561   2.176   0.744   4.495
 6554SOL    HW220562   2.316   0.661   4.505
 6555SOL     OW20563   5.953   2.045   3.631
 6555SOL    HW120564   5.989   1.964   3.583
 6555SOL    HW220565   6.029   2.098   3.668
 6556SOL     OW20566   6.131   3.277   3.144
 6556SOL    HW120567   6.135   3.355   3.081
 6556SOL    HW220568   6.040   3.273   3.186
 6557SOL     OW20569   2.624   0.764   3.444
 6557SOL    HW120570   2.681   0.683   3.458
 6557SOL    HW220571   2.548   0.741   3.384
 6558SOL     OW20572   6.146   5.806   0.357
 6558SOL    HW120573   6.121   5.733   0.293
 6558SOL    HW220574   6.116   5.894   0.320
 6559SOL     OW20575   0.065   4.101   6.433
 6559SOL    HW120576   0.148   4.133   6.388
 6559SOL    HW220577   0.088   4.029   6.499
 6560SOL     OW20578   3.630   4.757   1.154
 6560SOL    HW120579   3.627   4.795   1.247
 6560SOL    HW220580   3.716   4.785   1.110
 6561SOL     OW20581   3.323   4.402   1.005
 6561SOL    HW120582   3.255   4.398   1.078
 6561SOL    HW220583   3.296   4.341   0.931
 6562SOL     OW20584   5.617   2.116   0.684
 6562SOL    HW120585   5.550   2.043   0.676
 6562SOL    HW220586   5.654   2.116   0.777
 6563SOL     OW20587   5.043   6.466   5.826
 6563SOL    HW120588   4.977   6.459   5.901
 6563SOL    HW220589   5.117   6.528   5.853
 6564SOL     OW20590   6.336   3.359   1.517
 6564SOL    HW120591   6.409   3.341   1.583
 6564SOL    HW220592   6.333   3.457   1.498
 6565SOL     OW20593   6.207   6.637   2.843
 6565SOL    HW120594   6.297   6.595   2.827
 6565SOL    HW220595   6.205   6.727   2.800
 6566SOL     OW20596   3.521   6.204   2.866
 6566SOL    HW120597   3.507   6.119   2.916
 6566SOL    HW220598   3.457   6.273   2.901
 6567SOL     OW20599   5.018   0.992   2.075
 6567SOL    HW120600   5.029   1.055   2.152
 6567SOL    HW220601   5.053   0.902   2.101
 6568SOL     OW20602   3.728   1.927   3.497
 6568SOL    HW120603   3.661   1.948   3.425
 6568SOL    HW220604   3.727   2.000   3.565
 6569SOL     OW20605   2.253   2.430   6.747
 6569SOL    HW120606   2.263   2.423   6.846
 6569SOL    HW220607   2.191   2.506   6.726
 6570SOL     OW20608   3.101   1.182   2.470
 6570SOL    HW120609   3.171   1.191   2.541
 6570SOL    HW220610   3.138   1.211   2.382
 6571SOL     OW20611   2.677   4.979   2.445
 6571SOL    HW120612   2.736   4.930   2.510
 6571SOL    HW220613   2.734   5.024   2.376
 6572SOL     OW20614   0.180   4.385   4.292
 6572SOL    HW120615   0.157   4.458   4.227
 6572SOL    HW220616   0.161   4.296   4.249
 6573SOL     OW20617   0.541   1.542   2.927
 6573SOL    HW120618   0.462   1.587   2.884
 6573SOL    HW220619   0.556   1.581   3.018
 6574SOL     OW20620   2.769   5.734   2.820
 6574SOL    HW120621   2.692   5.710   2.760
 6574SOL    HW220622   2.850   5.685   2.789
 6575SOL     OW20623   0.257   6.624   3.324
 6575SOL    HW120624   0.293   6.564   3.252
 6575SOL    HW220625   0.191   6.687   3.284
 6576SOL     OW20626   3.270   6.021   0.876
 6576SOL    HW120627   3.212   6.064   0.946
 6576SOL    HW220628   3.233   5.932   0.852
 6577SOL     OW20629   1.481   1.830   3.573
 6577SOL    HW120630   1.579   1.852   3.572
 6577SOL    HW220631   1.428   1.915   3.566
 6578SOL     OW20632   1.015   6.363   2.044
 6578SOL    HW120633   0.995   6.295   1.974
 6578SOL    HW220634   0.944   6.360   2.115
 6579SOL     OW20635   6.678   3.020   3.926
 6579SOL    HW120636   6.649   2.970   3.845
 6579SOL    HW220637   6.601   3.071   3.963
 6580SOL     OW20638   0.653   1.999   0.193
 6580SOL    HW120639   0.710   2.069   0.238
 6580SOL    HW220640   0.606   2.040   0.115
 6581SOL     OW20641   2.005   0.916   0.812
 6581SOL    HW120642   2.072   0.843   0.794
 6581SOL    HW220643   2.018   0.951   0.904
 6582SOL     OW20644   0.069   1.116   2.799
 6582SOL    HW120645   7.015   1.151   2.758
 6582SOL    HW220646   0.092   1.028   2.758
 6583SOL     OW20647   4.708   6.113   5.139
 6583SOL    HW120648   4.762   6.037   5.105
 6583SOL    HW220649   4.767   6.191   5.157
 6584SOL     OW20650   4.190   1.849   0.116
 6584SOL    HW120651   4.146   1.759   0.109
 6584SOL    HW220652   4.124   1.916   0.147
 6585SOL     OW20653   6.125   6.199   0.039
 6585SOL    HW120654   6.080   6.286   0.056
 6585SOL    HW220655   6.137   6.186   6.971
 6586SOL     OW20656   6.564   1.639   5.612
 6586SOL    HW120657   6.631   1.574   5.649
 6586SOL    HW220658   6.586   1.660   5.517
 6587SOL     OW20659   1.509   4.706   6.814
 6587SOL    HW120660   1.553   4.620   6.789
 6587SOL    HW220661   1.477   4.753   6.732
 6588SOL     OW20662   0.652   2.752   1.729
 6588SOL    HW120663   0.703   2.752   1.815
 6588SOL    HW220664   0.554   2.755   1.749
 6589SOL     OW20665   4.646   0.825   1.897
 6589SOL    HW120666   4.673   0.861   1.986
 6589SOL    HW220667   4.586   0.890   1.851
 6590SOL     OW20668   0.977   0.768   6.417
 6590SOL    HW120669   0.975   0.753   6.318
 6590SOL    HW220670   0.945   0.685   6.463
 6591SOL     OW20671   5.302   6.091   3.889
 6591SOL    HW120672   5.274   6.129   3.977
 6591SOL    HW220673   5.261   6.143   3.815
 6592SOL     OW20674   5.225   5.967   2.993
 6592SOL    HW120675   5.183   6.051   3.028
 6592SOL    HW220676   5.153   5.906   2.959
 6593SOL     OW20677   2.601   2.414   2.275
 6593SOL    HW120678   2.540   2.339   2.251
 6593SOL    HW220679   2.695   2.391   2.250
 6594SOL     OW20680   3.582   1.410   5.648
 6594SOL    HW120681   3.553   1.380   5.557
 6594SOL    HW220682   3.594   1.509   5.648
 6595SOL     OW20683   0.999   4.179   6.559
 6595SOL    HW120684   1.018   4.264   6.608
 6595SOL    HW220685   1.074   4.114   6.573
 6596SOL     OW20686   3.691   6.920   4.149
 6596SOL    HW120687   3.758   6.944   4.079
 6596SOL    HW220688   3.686   6.821   4.159
 6597SOL     OW20689   1.845   4.918   2.068
 6597SOL    HW120690   1.874   4.840   2.124
 6597SOL    HW220691   1.760   4.895   2.021
 6598SOL     OW20692   1.771   4.846   3.321
 6598SOL    HW120693   1.767   4.803   3.412
 6598SOL    HW220694   1.722   4.933   3.324
 6599SOL     OW20695   4.344   6.119   6.493
 6599SOL    HW120696   4.313   6.025   6.485
 6599SOL    HW220697   4.414   6.138   6.424
 6600SOL     OW20698   3.867   6.553   4.624
 6600SOL    HW120699   3.906   6.627   4.569
 6600SOL    HW220700   3.867   6.579   4.721
 6601SOL     OW20701   0.908   2.015   4.046
 6601SOL    HW120702   0.961   1.936   4.077
 6601SOL    HW220703   0.897   2.012   3.947
 6602SOL     OW20704   1.531   0.505   1.058
 6602SOL    HW120705   1.506   0.549   1.145
 6602SOL    HW220706   1.631   0.504   1.049
 6603SOL     OW20707   0.853   3.029   3.775
 6603SOL    HW120708   0.852   3.128   3.762
 6603SOL    HW220709   0.767   3.000   3.818
 6604SOL     OW20710   2.008   6.282   1.694
 6604SOL    HW120711   2.101   6.258   1.667
 6604SOL    HW220712   1.998   6.381   1.697
 6605SOL     OW20713   5.557   5.123   2.403
 6605SOL    HW120714   5.478   5.183   2.399
 6605SOL    HW220715   5.558   5.063   2.322
 6606SOL     OW20716   6.675   5.108   2.285
 6606SOL    HW120717   6.577   5.087   2.280
 6606SOL    HW220718   6.687   5.203   2.310
 6607SOL     OW20719   0.612   4.687   3.387
 6607SOL    HW120720   0.705   4.686   3.350
 6607SOL    HW220721   0.570   4.597   3.376
 6608SOL     OW20722   0.047   6.204   6.911
 6608SOL    HW120723   0.128   6.260   6.924
 6608SOL    HW220724   7.010   6.225   6.982
 6609SOL     OW20725   5.567   1.443   7.006
 6609SOL    HW120726   5.624   1.450   0.058
 6609SOL    HW220727   5.625   1.450   6.925
 6610SOL     OW20728   2.657   6.681   0.260
 6610SOL    HW120729   2.738   6.623   0.263
 6610SOL    HW220730   2.625   6.700   0.353
 6611SOL     OW20731   4.784   2.994   3.152
 6611SOL    HW120732   4.777   2.973   3.055
 6611SOL    HW220733   4.813   2.913   3.202
 6612SOL     OW20734   6.998   2.189   6.337
 6612SOL    HW120735   6.946   2.110   6.302
 6612SOL    HW220736   7.006   2.257   6.264
 6613SOL     OW20737   6.287   6.402   5.575
 6613SOL    HW120738   6.368   6.447   5.535
 6613SOL    HW220739   6.310   6.308   5.600
 6614SOL     OW20740   4.350   6.459   6.809
 6614SOL    HW120741   4.334   6.363   6.789
 6614SOL    HW220742   4.407   6.466   6.891
 6615SOL     OW20743   1.439   5.391   1.760
 6615SOL    HW120744   1.410   5.376   1.665
 6615SOL    HW220745   1.489   5.311   1.792
 6616SOL     OW20746   4.524   0.206   6.416
 6616SOL    HW120747   4.588   0.280   6.395
 6616SOL    HW220748   4.574   0.119   6.421
 6617SOL     OW20749   4.371   6.143   3.394
 6617SOL    HW120750   4.361   6.163   3.492
 6617SOL    HW220751   4.456   6.091   3.380
 6618SOL     OW20752   1.471   1.739   2.659
 6618SOL    HW120753   1.398   1.758   2.725
 6618SOL    HW220754   1.559   1.762   2.700
 6619SOL     OW20755   5.213   0.430   3.924
 6619SOL    HW120756   5.294   0.381   3.957
 6619SOL    HW220757   5.143   0.430   3.995
 6620SOL     OW20758   2.032   3.286   5.215
 6620SOL    HW120759   2.021   3.294   5.116
 6620SOL    HW220760   2.101   3.216   5.235
 6621SOL     OW20761   3.781   2.966   5.416
 6621SOL    HW120762   3.790   2.984   5.513
 6621SOL    HW220763   3.715   3.030   5.376
 6622SOL     OW20764   6.047   6.151   2.105
 6622SOL    HW120765   6.081   6.065   2.068
 6622SOL    HW220766   6.111   6.186   2.173
 6623SOL     OW20767   3.656   3.568   5.292
 6623SOL    HW120768   3.746   3.603   5.264
 6623SOL    HW220769   3.585   3.613   5.238
 6624SOL     OW20770   0.671   4.276   5.358
 6624SOL    HW120771   0.607   4.213   5.316
 6624SOL    HW220772   0.709   4.235   5.441
 6625SOL     OW20773   5.257   1.772   4.823
 6625SOL    HW120774   5.219   1.745   4.734
 6625SOL    HW220775   5.325   1.705   4.852
 6626SOL     OW20776   3.104   6.863   5.716
 6626SOL    HW120777   3.141   6.822   5.800
 6626SOL    HW220778   3.114   6.963   5.720
 6627SOL     OW20779   1.656   6.701   3.712
 6627SOL    HW120780   1.696   6.739   3.795
 6627SOL    HW220781   1.729   6.668   3.652
 6628SOL     OW20782   5.781   4.803   4.469
 6628SOL    HW120783   5.681   4.803   4.470
 6628SOL    HW220784   5.814   4.871   4.403
 6629SOL     OW20785   4.904   5.711   6.228
 6629SOL    HW120786   4.882   5.632   6.171
 6629SOL    HW220787   4.960   5.775   6.177
 6630SOL     OW20788   3.734   2.285   1.392
 6630SOL    HW120789   3.834   2.287   1.380
 6630SOL    HW220790   3.699   2.195   1.365
 6631SOL     OW20791   2.266   5.940   4.183
 6631SOL    HW120792   2.332   5.895   4.123
 6631SOL    HW220793   2.209   6.002   4.129
 6632SOL     OW20794   0.575   0.638   1.164
 6632SOL    HW120795   0.605   0.721   1.212
 6632SOL    HW220796   0.653   0.576   1.152
 6633SOL     OW20797   2.099   5.473   6.218
 6633SOL    HW120798   2.084   5.533   6.140
 6633SOL    HW220799   2.112   5.379   6.186
 6634SOL     OW20800   5.337   1.779   5.159
 6634SOL    HW120801   5.272   1.853   5.142
 6634SOL    HW220802   5.416   1.815   5.209
 6635SOL     OW20803   4.752   4.567   3.870
 6635SOL    HW120804   4.727   4.660   3.846
 6635SOL    HW220805   4.685   4.503   3.831
 6636SOL     OW20806   4.447   1.901   0.345
 6636SOL    HW120807   4.416   1.900   0.250
 6636SOL    HW220808   4.378   1.944   0.402
 6637SOL     OW20809   1.804   6.770   7.009
 6637SOL    HW120810   1.850   6.704   6.950
 6637SOL    HW220811   1.748   6.722   0.047
 6638SOL     OW20812   2.943   3.502   2.984
 6638SOL    HW120813   2.988   3.554   2.911
 6638SOL    HW220814   2.896   3.565   3.045
 6639SOL     OW20815   4.230   4.269   0.116
 6639SOL    HW120816   4.184   4.182   0.137
 6639SOL    HW220817   4.248   4.274   0.018
 6640SOL     OW20818   0.128   2.082   5.501
 6640SOL    HW120819   0.068   2.009   5.469
 6640SOL    HW220820   0.172   2.126   5.422
 6641SOL     OW20821   3.287   1.629   0.178
 6641SOL    HW120822   3.271   1.546   0.124
 6641SOL    HW220823   3.332   1.605   0.264
 6642SOL     OW20824   2.991   5.734   6.442
 6642SOL    HW120825   2.968   5.797   6.368
 6642SOL    HW220826   3.035   5.653   6.404
 6643SOL     OW20827   5.994   6.445   0.047
 6643SOL    HW120828   5.917   6.384   0.032
 6643SOL    HW220829   5.999   6.512   7.002
 6644SOL     OW20830   2.251   5.856   2.400
 6644SOL    HW120831   2.281   5.778   2.454
 6644SOL    HW220832   2.234   5.826   2.306
 6645SOL     OW20833   5.238   3.808   0.781
 6645SOL    HW120834   5.271   3.753   0.858
 6645SOL    HW220835   5.150   3.773   0.750
 6646SOL     OW20836   4.904   1.563   5.422
 6646SOL    HW120837   4.946   1.505   5.492
 6646SOL    HW220838   4.895   1.656   5.457
 6647SOL     OW20839   4.412   0.059   0.052
 6647SOL    HW120840   4.438   0.074   0.147
 6647SOL    HW220841   4.325   0.008   0.049
 6648SOL     OW20842   3.206   6.731   4.702
 6648SOL    HW120843   3.173   6.642   4.734
 6648SOL    HW220844   3.132   6.798   4.709
 6649SOL     OW20845   6.244   1.963   5.863
 6649SOL    HW120846   6.268   1.885   5.805
 6649SOL    HW220847   6.279   2.047   5.821
 6650SOL     OW20848   3.561   1.788   4.863
 6650SOL    HW120849   3.590   1.882   4.846
 6650SOL    HW220850   3.488   1.787   4.931
 6651SOL     OW20851   1.636   1.371   5.772
 6651SOL    HW120852   1.589   1.382   5.684
 6651SOL    HW220853   1.605   1.442   5.835
 6652SOL     OW20854   0.190   4.691   6.761
 6652SOL    HW120855   0.279   4.647   6.775
 6652SOL    HW220856   0.139   4.642   6.690
 6653SOL     OW20857   4.463   3.070   0.968
 6653SOL    HW120858   4.491   2.986   0.921
 6653SOL    HW220859   4.507   3.075   1.057
 6654SOL     OW20860   1.672   5.563   2.170
 6654SOL    HW120861   1.609   5.492   2.202
 6654SOL    HW220862   1.640   5.598   2.082
 6655SOL     OW20863   6.444   6.266   2.769
 6655SOL    HW120864   6.519   6.218   2.814
 6655SOL    HW220865   6.434   6.232   2.676
 6656SOL     OW20866   6.163   2.037   3.060
 6656SOL    HW120867   6.065   2.016   3.056
 6656SOL    HW220868   6.201   2.031   2.968
 6657SOL     OW20869   6.219   3.496   4.819
 6657SOL    HW120870   6.300   3.470   4.871
 6657SOL    HW220871   6.205   3.431   4.744
 6658SOL     OW20872   5.254   0.051   5.733
 6658SOL    HW120873   5.212   0.126   5.680
 6658SOL    HW220874   5.186   7.009   5.747
 6659SOL     OW20875   1.845   2.848   1.181
 6659SOL    HW120876   1.755   2.879   1.211
 6659SOL    HW220877   1.891   2.801   1.256
 6660SOL     OW20878   1.185   5.007   1.625
 6660SOL    HW120879   1.104   5.061   1.648
 6660SOL    HW220880   1.258   5.027   1.691
 6661SOL     OW20881   2.447   0.025   5.164
 6661SOL    HW120882   2.487   0.105   5.120
 6661SOL    HW220883   2.518   7.005   5.215
 6662SOL     OW20884   1.443   1.035   0.519
 6662SOL    HW120885   1.539   1.008   0.510
 6662SOL    HW220886   1.386   0.978   0.460
 6663SOL     OW20887   6.669   6.616   4.914
 6663SOL    HW120888   6.757   6.586   4.878
 6663SOL    HW220889   6.596   6.587   4.852
 6664SOL     OW20890   2.089   6.861   1.026
 6664SOL    HW120891   2.066   6.958   1.032
 6664SOL    HW220892   2.101   6.824   1.117
 6665SOL     OW20893   1.863   6.965   4.916
 6665SOL    HW120894   1.873   7.008   4.827
 6665SOL    HW220895   1.932   7.000   4.979
 6666SOL     OW20896   6.369   5.901   5.567
 6666SOL    HW120897   6.394   5.824   5.509
 6666SOL    HW220898   6.423   5.899   5.651
 6667SOL     OW20899   6.891   6.595   5.503
 6667SOL    HW120900   6.831   6.586   5.582
 6667SOL    HW220901   6.866   6.528   5.434
 6668SOL     OW20902   6.436   6.280   0.889
 6668SOL    HW120903   6.487   6.347   0.943
 6668SOL    HW220904   6.500   6.219   0.843
 6669SOL     OW20905   2.995   2.110   2.068
 6669SOL    HW120906   3.070   2.124   2.132
 6669SOL    HW220907   2.962   2.199   2.036
 6670SOL     OW20908   2.975   1.127   5.872
 6670SOL    HW120909   3.007   1.216   5.903
 6670SOL    HW220910   3.049   1.060   5.884
 6671SOL     OW20911   5.206   6.926   0.030
 6671SOL    HW120912   5.239   6.831   0.034
 6671SOL    HW220913   5.179   6.956   0.121
 6672SOL     OW20914   6.548   1.767   0.410
 6672SOL    HW120915   6.580   1.727   0.496
 6672SOL    HW220916   6.459   1.729   0.386
 6673SOL     OW20917   4.702   4.125   3.515
 6673SOL    HW120918   4.711   4.089   3.608
 6673SOL    HW220919   4.764   4.076   3.454
 6674SOL     OW20920   6.896   4.300   0.414
 6674SOL    HW120921   6.891   4.304   0.514
 6674SOL    HW220922   6.981   4.254   0.388
 6675SOL     OW20923   6.386   2.855   0.136
 6675SOL    HW120924   6.370   2.911   0.054
 6675SOL    HW220925   6.319   2.880   0.207
 6676SOL     OW20926   0.499   3.583   4.872
 6676SOL    HW120927   0.538   3.534   4.949
 6676SOL    HW220928   0.497   3.681   4.892
 6677SOL     OW20929   0.582   1.533   6.844
 6677SOL    HW120930   0.614   1.488   6.760
 6677SOL    HW220931   0.642   1.509   6.920
 6678SOL     OW20932   3.070   4.123   0.526
 6678SOL    HW120933   3.091   4.054   0.456
 6678SOL    HW220934   3.017   4.081   0.599
 6679SOL     OW20935   3.943   0.237   3.996
 6679SOL    HW120936   3.962   0.281   3.909
 6679SOL    HW220937   3.945   0.305   4.069
 6680SOL     OW20938   4.419   6.709   6.546
 6680SOL    HW120939   4.493   6.642   6.537
 6680SOL    HW220940   4.334   6.661   6.566
 6681SOL     OW20941   4.843   5.868   0.645
 6681SOL    HW120942   4.820   5.845   0.739
 6681SOL    HW220943   4.808   5.959   0.623
 6682SOL     OW20944   1.979   5.006   0.124
 6682SOL    HW120945   2.025   4.926   0.162
 6682SOL    HW220946   2.038   5.048   0.055
 6683SOL     OW20947   5.932   3.166   5.237
 6683SOL    HW120948   6.006   3.202   5.295
 6683SOL    HW220949   5.845   3.173   5.286
 6684SOL     OW20950   3.714   6.465   2.321
 6684SOL    HW120951   3.764   6.548   2.299
 6684SOL    HW220952   3.743   6.431   2.410
 6685SOL     OW20953   4.526   2.819   6.313
 6685SOL    HW120954   4.498   2.804   6.408
 6685SOL    HW220955   4.564   2.911   6.304
 6686SOL     OW20956   5.385   5.822   3.872
 6686SOL    HW120957   5.356   5.916   3.855
 6686SOL    HW220958   5.343   5.788   3.956
 6687SOL     OW20959   0.841   3.254   2.201
 6687SOL    HW120960   0.917   3.216   2.148
 6687SOL    HW220961   0.762   3.267   2.141
 6688SOL     OW20962   3.762   5.066   1.266
 6688SOL    HW120963   3.831   5.029   1.329
 6688SOL    HW220964   3.797   5.062   1.172
 6689SOL     OW20965   4.943   4.303   6.071
 6689SOL    HW120966   4.871   4.310   6.001
 6689SOL    HW220967   4.909   4.246   6.146
 6690SOL     OW20968   0.656   6.957   0.807
 6690SOL    HW120969   0.565   6.960   0.848
 6690SOL    HW220970   0.725   6.947   0.879
 6691SOL     OW20971   2.020   0.564   2.362
 6691SOL    HW120972   2.078   0.569   2.443
 6691SOL    HW220973   2.015   0.469   2.330
 6692SOL     OW20974   3.939   4.024   3.275
 6692SOL    HW120975   3.962   4.101   3.215
 6692SOL    HW220976   3.877   4.056   3.347
 6693SOL     OW20977   4.430   2.259   5.000
 6693SOL    HW120978   4.358   2.304   4.948
 6693SOL    HW220979   4.519   2.296   4.973
 6694SOL     OW20980   4.045   6.002   1.711
 6694SOL    HW120981   4.021   6.088   1.667
 6694SOL    HW220982   3.975   5.977   1.778
 6695SOL     OW20983   2.778   2.326   6.202
 6695SOL    HW120984   2.819   2.284   6.121
 6695SOL    HW220985   2.679   2.308   6.202
 6696SOL     OW20986   3.750   2.974   4.074
 6696SOL    HW120987   3.760   2.951   3.978
 6696SOL    HW220988   3.840   2.976   4.118
 6697SOL     OW20989   4.681   1.946   3.015
 6697SOL    HW120990   4.768   1.983   2.984
 6697SOL    HW220991   4.696   1.855   3.056
 6698SOL     OW20992   3.004   2.981   1.013
 6698SOL    HW120993   2.991   3.029   1.100
 6698SOL    HW220994   2.975   2.885   1.024
 6699SOL     OW20995   2.098   6.634   5.449
 6699SOL    HW120996   2.074   6.624   5.546
 6699SOL    HW220997   2.153   6.716   5.436
 6700SOL     OW20998   6.943   1.633   1.128
 6700SOL    HW120999   6.990   1.685   1.056
 6700SOL    HW221000   6.984   1.653   1.216
 6701SOL     OW21001   5.234   5.193   1.257
 6701SOL    HW121002   5.224   5.283   1.214
 6701SOL    HW221003   5.328   5.161   1.245
 6702SOL     OW21004   2.049   2.491   1.401
 6702SOL    HW121005   1.980   2.562   1.389
 6702SOL    HW221006   2.034   2.443   1.487
 6703SOL     OW21007   6.572   0.277   0.988
 6703SOL    HW121008   6.666   0.310   0.991
 6703SOL    HW221009   6.517   0.337   0.930
 6704SOL     OW21010   3.966   2.169   3.531
 6704SOL    HW121011   4.030   2.208   3.465
 6704SOL    HW221012   4.015   2.104   3.591
 6705SOL     OW21013   5.837   2.840   0.229
 6705SOL    HW121014   5.882   2.857   0.142
 6705SOL    HW221015   5.766   2.771   0.217
 6706SOL     OW21016   0.829   5.773   1.125
 6706SOL    HW121017   0.847   5.864   1.087
 6706SOL    HW221018   0.808   5.782   1.223
 6707SOL     OW21019   5.541   6.515   3.404
 6707SOL    HW121020   5.587   6.566   3.476
 6707SOL    HW221021   5.491   6.579   3.345
 6708SOL     OW21022   5.567   5.319   1.347
 6708SOL    HW121023   5.497   5.377   1.305
 6708SOL    HW221024   5.572   5.232   1.299
 6709SOL     OW21025   1.296   5.705   2.795
 6709SOL    HW121026   1.265   5.764   2.869
 6709SOL    HW221027   1.226   5.700   2.724
 6710SOL     OW21028   3.721   0.737   6.293
 6710SOL    HW121029   3.632   0.761   6.254
 6710SOL    HW221030   3.765   0.819   6.328
 6711SOL     OW21031   5.000   6.394   5.566
 6711SOL    HW121032   5.033   6.411   5.659
 6711SOL    HW221033   5.075   6.363   5.508
 6712SOL     OW21034   5.459   3.442   1.201
 6712SOL    HW121035   5.415   3.437   1.291
 6712SOL    HW221036   5.556   3.422   1.210
 6713SOL     OW21037   0.959   0.911   3.566
 6713SOL    HW121038   0.903   0.881   3.489
 6713SOL    HW221039   1.005   0.997   3.542
 6714SOL     OW21040   6.900   1.674   6.213
 6714SOL    HW121041   6.901   1.656   6.115
 6714SOL    HW221042   6.849   1.601   6.260
 6715SOL     OW21043   1.815   0.451   1.008
 6715SOL    HW121044   1.828   0.538   0.960
 6715SOL    HW221045   1.887   0.440   1.077
 6716SOL     OW21046   0.079   5.584   1.785
 6716SOL    HW121047   0.122   5.536   1.708
 6716SOL    HW221048   0.113   5.545   1.871
 6717SOL     OW21049   3.267   3.166   6.395
 6717SOL    HW121050   3.167   3.161   6.392
 6717SOL    HW221051   3.296   3.262   6.390
 6718SOL     OW21052   4.517   0.218   0.996
 6718SOL    HW121053   4.426   0.259   0.998
 6718SOL    HW221054   4.518   0.135   1.052
 6719SOL     OW21055   2.462   0.082   0.247
 6719SOL    HW121056   2.387   0.017   0.249
 6719SOL    HW221057   2.518   0.065   0.165
 6720SOL     OW21058   1.926   0.741   3.493
 6720SOL    HW121059   1.898   0.770   3.401
 6720SOL    HW221060   1.880   0.656   3.516
 6721SOL     OW21061   0.093   6.221   0.575
 6721SOL    HW121062   0.071   6.131   0.537
 6721SOL    HW221063   0.161   6.210   0.648
 6722SOL     OW21064   6.538   2.643   0.541
 6722SOL    HW121065   6.618   2.626   0.484
 6722SOL    HW221066   6.455   2.619   0.492
 6723SOL     OW21067   1.272   0.160   4.696
 6723SOL    HW121068   1.180   0.189   4.722
 6723SOL    HW221069   1.329   0.156   4.778
 6724SOL     OW21070   2.264   3.088   6.312
 6724SOL    HW121071   2.303   3.022   6.248
 6724SOL    HW221072   2.309   3.079   6.401
 6725SOL     OW21073   6.580   2.090   1.563
 6725SOL    HW121074   6.653   2.099   1.631
 6725SOL    HW221075   6.588   2.163   1.495
 6726SOL     OW21076   0.634   2.683   3.765
 6726SOL    HW121077   0.557   2.626   3.736
 6726SOL    HW221078   0.606   2.740   3.842
 6727SOL     OW21079   0.290   5.012   5.501
 6727SOL    HW121080   0.338   4.957   5.569
 6727SOL    HW221081   0.215   5.062   5.544
 6728SOL     OW21082   3.829   2.028   2.797
 6728SOL    HW121083   3.899   2.048   2.728
 6728SOL    HW221084   3.870   1.978   2.873
 6729SOL     OW21085   0.203   1.038   0.573
 6729SOL    HW121086   0.216   1.000   0.665
 6729SOL    HW221087   0.293   1.056   0.532
 6730SOL     OW21088   1.783   6.763   1.252
 6730SOL    HW121089   1.848   6.805   1.315
 6730SOL    HW221090   1.831   6.716   1.179
 6731SOL     OW21091   1.519   6.703   1.206
 6731SOL    HW121092   1.535   6.691   1.108
 6731SOL    HW221093   1.606   6.725   1.251
 6732SOL     OW21094   6.001   4.270   4.575
 6732SOL    HW121095   6.049   4.345   4.621
 6732SOL    HW221096   6.067   4.217   4.521
 6733SOL     OW21097   3.659   5.726   6.551
 6733SOL    HW121098   3.579   5.713   6.610
 6733SOL    HW221099   3.702   5.814   6.572
 6734SOL     OW21100   5.987   2.627   5.212
 6734SOL    HW121101   6.081   2.636   5.177
 6734SOL    HW221102   5.939   2.714   5.202
 6735SOL     OW21103   6.076   3.500   4.537
 6735SOL    HW121104   6.047   3.506   4.442
 6735SOL    HW221105   6.101   3.591   4.570
 6736SOL     OW21106   2.862   3.301   6.850
 6736SOL    HW121107   2.809   3.223   6.819
 6736SOL    HW221108   2.812   3.349   6.923
 6737SOL     OW21109   1.725   3.325   0.928
 6737SOL    HW121110   1.806   3.278   0.964
 6737SOL    HW221111   1.753   3.411   0.885
 6738SOL     OW21112   1.925   5.834   3.537
 6738SOL    HW121113   1.847   5.826   3.475
 6738SOL    HW221114   1.892   5.857   3.628
 6739SOL     OW21115   5.174   6.610   4.225
 6739SOL    HW121116   5.259   6.557   4.222
 6739SOL    HW221117   5.150   6.630   4.319
 6740SOL     OW21118   0.012   0.156   5.670
 6740SOL    HW121119   0.052   0.077   5.624
 6740SOL    HW221120   6.947   0.168   5.640
 6741SOL     OW21121   3.402   2.842   5.456
 6741SOL    HW121122   3.355   2.815   5.373
 6741SOL    HW221123   3.463   2.769   5.486
 6742SOL     OW21124   5.730   5.601   3.056
 6742SOL    HW121125   5.668   5.563   3.125
 6742SOL    HW221126   5.769   5.686   3.090
 6743SOL     OW21127   3.546   4.581   6.427
 6743SOL    HW121128   3.625   4.623   6.472
 6743SOL    HW221129   3.550   4.598   6.328
 6744SOL     OW21130   6.801   5.378   5.486
 6744SOL    HW121131   6.812   5.279   5.501
 6744SOL    HW221132   6.733   5.394   5.414
 6745SOL     OW21133   0.017   6.318   3.404
 6745SOL    HW121134   0.032   6.244   3.470
 6745SOL    HW221135   0.068   6.399   3.432
 6746SOL     OW21136   0.633   0.285   3.914
 6746SOL    HW121137   0.625   0.341   3.832
 6746SOL    HW221138   0.592   0.195   3.897
 6747SOL     OW21139   6.109   1.380   6.319
 6747SOL    HW121140   6.141   1.287   6.336
 6747SOL    HW221141   6.067   1.416   6.402
 6748SOL     OW21142   3.869   1.778   3.284
 6748SOL    HW121143   3.841   1.683   3.300
 6748SOL    HW221144   3.853   1.832   3.367
 6749SOL     OW21145   3.712   4.308   0.707
 6749SOL    HW121146   3.733   4.238   0.776
 6749SOL    HW221147   3.657   4.380   0.749
 6750SOL     OW21148   3.668   2.149   4.216
 6750SOL    HW121149   3.644   2.096   4.134
 6750SOL    HW221150   3.587   2.195   4.251
 6751SOL     OW21151   5.147   0.202   3.273
 6751SOL    HW121152   5.077   0.134   3.293
 6751SOL    HW221153   5.103   0.290   3.251
 6752SOL     OW21154   1.974   6.775   2.669
 6752SOL    HW121155   2.019   6.771   2.579
 6752SOL    HW221156   2.023   6.840   2.727
 6753SOL     OW21157   3.314   1.436   6.184
 6753SOL    HW121158   3.305   1.394   6.094
 6753SOL    HW221159   3.405   1.476   6.194
 6754SOL     OW21160   0.004   0.686   0.366
 6754SOL    HW121161   6.986   0.762   0.409
 6754SOL    HW221162   0.102   0.698   0.378
 6755SOL     OW21163   4.276   2.075   1.834
 6755SOL    HW121164   4.365   2.078   1.787
 6755SOL    HW221165   4.219   2.005   1.792
 6756SOL     OW21166   3.846   6.607   5.003
 6756SOL    HW121167   3.904   6.548   4.947
 6756SOL    HW221168   3.806   6.678   4.946
 6757SOL     OW21169   3.081   2.161   0.345
 6757SOL    HW121170   3.056   2.255   0.368
 6757SOL    HW221171   3.115   2.158   0.251
 6758SOL     OW21172   6.151   2.124   2.051
 6758SOL    HW121173   6.166   2.222   2.055
 6758SOL    HW221174   6.150   2.094   1.955
 6759SOL     OW21175   1.265   3.823   2.857
 6759SOL    HW121176   1.226   3.858   2.772
 6759SOL    HW221177   1.193   3.777   2.910
 6760SOL     OW21178   0.125   3.341   2.210
 6760SOL    HW121179   0.212   3.391   2.212
 6760SOL    HW221180   0.067   3.375   2.284
 6761SOL     OW21181   6.485   2.423   5.070
 6761SOL    HW121182   6.496   2.485   4.992
 6761SOL    HW221183   6.388   2.417   5.093
 6762SOL     OW21184   0.935   4.545   5.087
 6762SOL    HW121185   1.008   4.539   5.018
 6762SOL    HW221186   0.900   4.639   5.090
 6763SOL     OW21187   6.289   5.713   3.805
 6763SOL    HW121188   6.330   5.719   3.896
 6763SOL    HW221189   6.214   5.646   3.807
 6764SOL     OW21190   2.032   5.488   1.534
 6764SOL    HW121191   2.109   5.547   1.559
 6764SOL    HW221192   2.021   5.418   1.605
 6765SOL     OW21193   5.692   4.967   3.881
 6765SOL    HW121194   5.668   4.959   3.977
 6765SOL    HW221195   5.787   4.938   3.868
 6766SOL     OW21196   4.913   6.644   5.507
 6766SOL    HW121197   4.934   6.679   5.416
 6766SOL    HW221198   4.952   6.552   5.517
 6767SOL     OW21199   2.076   0.988   1.080
 6767SOL    HW121200   2.048   1.074   1.122
 6767SOL    HW221201   2.030   0.912   1.127
 6768SOL     OW21202   1.585   0.085   4.679
 6768SOL    HW121203   1.540   0.015   4.735
 6768SOL    HW221204   1.635   0.041   4.604
 6769SOL     OW21205   3.028   0.795   6.727
 6769SOL    HW121206   3.017   0.705   6.685
 6769SOL    HW221207   2.943   0.820   6.773
 6770SOL     OW21208   0.004   1.044   2.489
 6770SOL    HW121209   6.960   1.057   2.424
 6770SOL    HW221210   0.045   1.133   2.511
 6771SOL     OW21211   4.995   1.937   3.247
 6771SOL    HW121212   5.074   1.915   3.305
 6771SOL    HW221213   4.929   1.990   3.300
 6772SOL     OW21214   4.003   2.058   2.583
 6772SOL    HW121215   4.082   2.100   2.628
 6772SOL    HW221216   3.990   2.101   2.493
 6773SOL     OW21217   6.180   5.175   2.434
 6773SOL    HW121218   6.132   5.102   2.482
 6773SOL    HW221219   6.137   5.263   2.455
 6774SOL     OW21220   0.965   3.324   5.323
 6774SOL    HW121221   1.000   3.283   5.239
 6774SOL    HW221222   1.012   3.411   5.339
 6775SOL     OW21223   2.409   2.525   1.952
 6775SOL    HW121224   2.498   2.483   1.933
 6775SOL    HW221225   2.351   2.518   1.871
 6776SOL     OW21226   5.034   4.123   7.028
 6776SOL    HW121227   4.956   4.138   6.968
 6776SOL    HW221228   5.072   4.031   7.012
 6777SOL     OW21229   4.545   4.767   0.431
 6777SOL    HW121230   4.565   4.670   0.445
 6777SOL    HW221231   4.446   4.783   0.442
 6778SOL     OW21232   6.116   5.499   1.902
 6778SOL    HW121233   6.197   5.441   1.890
 6778SOL    HW221234   6.096   5.508   1.999
 6779SOL     OW21235   5.457   5.721   6.739
 6779SOL    HW121236   5.429   5.641   6.792
 6779SOL    HW221237   5.382   5.750   6.679
 6780SOL     OW21238   1.121   2.556   2.183
 6780SOL    HW121239   1.182   2.630   2.207
 6780SOL    HW221240   1.032   2.570   2.227
 6781SOL     OW21241   6.801   1.692   4.090
 6781SOL    HW121242   6.803   1.609   4.035
 6781SOL    HW221243   6.866   1.685   4.165
 6782SOL     OW21244   0.316   0.522   3.002
 6782SOL    HW121245   0.356   0.502   3.091
 6782SOL    HW221246   0.217   0.535   3.013
 6783SOL     OW21247   6.172   1.614   5.351
 6783SOL    HW121248   6.092   1.615   5.292
 6783SOL    HW221249   6.233   1.689   5.327
 6784SOL     OW21250   1.834   3.135   0.327
 6784SOL    HW121251   1.766   3.064   0.347
 6784SOL    HW221252   1.890   3.108   0.250
 6785SOL     OW21253   5.867   5.467   4.411
 6785SOL    HW121254   5.865   5.384   4.466
 6785SOL    HW221255   5.780   5.476   4.362
 6786SOL     OW21256   1.456   2.226   0.282
 6786SOL    HW121257   1.555   2.234   0.270
 6786SOL    HW221258   1.435   2.141   0.331
 6787SOL     OW21259   2.067   2.566   0.403
 6787SOL    HW121260   2.020   2.652   0.424
 6787SOL    HW221261   2.058   2.503   0.480
 6788SOL     OW21262   1.082   4.031   1.363
 6788SOL    HW121263   1.074   4.048   1.461
 6788SOL    HW221264   1.177   4.043   1.334
 6789SOL     OW21265   0.427   5.436   2.691
 6789SOL    HW121266   0.362   5.460   2.763
 6789SOL    HW221267   0.417   5.500   2.615
 6790SOL     OW21268   0.290   3.684   0.892
 6790SOL    HW121269   0.380   3.656   0.923
 6790SOL    HW221270   0.224   3.676   0.967
 6791SOL     OW21271   4.028   2.210   2.078
 6791SOL    HW121272   4.050   2.274   2.004
 6791SOL    HW221273   4.113   2.180   2.122
 6792SOL     OW21274   6.401   6.358   5.024
 6792SOL    HW121275   6.485   6.410   5.041
 6792SOL    HW221276   6.375   6.367   4.928
 6793SOL     OW21277   1.812   1.979   0.385
 6793SOL    HW121278   1.815   2.072   0.423
 6793SOL    HW221279   1.718   1.955   0.362
 6794SOL     OW21280   4.636   1.121   6.072
 6794SOL    HW121281   4.665   1.210   6.037
 6794SOL    HW221282   4.625   1.126   6.171
 6795SOL     OW21283   2.324   6.642   1.138
 6795SOL    HW121284   2.299   6.560   1.190
 6795SOL    HW221285   2.356   6.615   1.048
 6796SOL     OW21286   6.916   0.204   2.560
 6796SOL    HW121287   6.852   0.147   2.510
 6796SOL    HW221288   6.966   0.263   2.496
 6797SOL     OW21289   6.379   1.912   1.608
 6797SOL    HW121290   6.343   1.909   1.515
 6797SOL    HW221291   6.448   1.984   1.615
 6798SOL     OW21292   5.303   7.009   2.345
 6798SOL    HW121293   5.203   7.014   2.343
 6798SOL    HW221294   5.331   6.913   2.344
 6799SOL     OW21295   6.824   6.684   1.712
 6799SOL    HW121296   6.734   6.723   1.697
 6799SOL    HW221297   6.870   6.669   1.625
 6800SOL     OW21298   2.153   3.794   2.002
 6800SOL    HW121299   2.173   3.696   2.003
 6800SOL    HW221300   2.157   3.829   2.096
 6801SOL     OW21301   1.089   6.987   2.969
 6801SOL    HW121302   1.110   6.988   3.067
 6801SOL    HW221303   1.110   6.897   2.931
 6802SOL     OW21304   2.908   6.017   1.063
 6802SOL    HW121305   2.919   6.104   1.016
 6802SOL    HW221306   2.822   6.018   1.115
 6803SOL     OW21307   4.588   3.055   5.700
 6803SOL    HW121308   4.658   2.984   5.695
 6803SOL    HW221309   4.500   3.018   5.669
 6804SOL     OW21310   3.282   5.304   3.749
 6804SOL    HW121311   3.184   5.325   3.749
 6804SOL    HW221312   3.326   5.354   3.675
 6805SOL     OW21313   0.185   5.266   5.875
 6805SOL    HW121314   0.270   5.222   5.906
 6805SOL    HW221315   0.208   5.347   5.820
 6806SOL     OW21316   5.674   0.817   3.472
 6806SOL    HW121317   5.604   0.813   3.544
 6806SOL    HW221318   5.765   0.820   3.514
 6807SOL     OW21319   3.279   3.588   1.132
 6807SOL    HW121320   3.252   3.497   1.102
 6807SOL    HW221321   3.251   3.602   1.227
 6808SOL     OW21322   6.723   2.529   5.163
 6808SOL    HW121323   6.634   2.490   5.139
 6808SOL    HW221324   6.711   2.594   5.239
 6809SOL     OW21325   0.869   3.111   1.356
 6809SOL    HW121326   0.841   3.063   1.439
 6809SOL    HW221327   0.945   3.173   1.378
 6810SOL     OW21328   1.210   1.076   2.544
 6810SOL    HW121329   1.223   1.013   2.621
 6810SOL    HW221330   1.222   1.170   2.575
 6811SOL     OW21331   5.742   3.433   1.141
 6811SOL    HW121332   5.815   3.491   1.175
 6811SOL    HW221333   5.761   3.408   1.046
 6812SOL     OW21334   2.964   3.725   4.289
 6812SOL    HW121335   2.935   3.746   4.383
 6812SOL    HW221336   2.962   3.626   4.276
 6813SOL     OW21337   5.249   2.644   2.319
 6813SOL    HW121338   5.347   2.642   2.338
 6813SOL    HW221339   5.211   2.733   2.344
 6814SOL     OW21340   3.545   1.862   6.304
 6814SOL    HW121341   3.606   1.941   6.290
 6814SOL    HW221342   3.575   1.811   6.385
 6815SOL     OW21343   3.314   6.666   1.221
 6815SOL    HW121344   3.251   6.588   1.227
 6815SOL    HW221345   3.401   6.635   1.183
 6816SOL     OW21346   6.549   6.926   6.412
 6816SOL    HW121347   6.511   7.010   6.373
 6816SOL    HW221348   6.556   6.856   6.341
 6817SOL     OW21349   2.553   2.532   3.023
 6817SOL    HW121350   2.565   2.575   3.112
 6817SOL    HW221351   2.589   2.439   3.025
 6818SOL     OW21352   2.496   6.356   2.055
 6818SOL    HW121353   2.400   6.364   2.083
 6818SOL    HW221354   2.552   6.417   2.111
 6819SOL     OW21355   5.184   1.868   3.416
 6819SOL    HW121356   5.226   1.943   3.466
 6819SOL    HW221357   5.241   1.786   3.424
 6820SOL     OW21358   2.334   5.376   2.227
 6820SOL    HW121359   2.432   5.389   2.217
 6820SOL    HW221360   2.317   5.291   2.278
 6821SOL     OW21361   3.632   2.050   4.848
 6821SOL    HW121362   3.663   2.087   4.761
 6821SOL    HW221363   3.712   2.026   4.904
 6822SOL     OW21364   5.164   2.567   6.287
 6822SOL    HW121365   5.081   2.614   6.255
 6822SOL    HW221366   5.198   2.506   6.215
 6823SOL     OW21367   4.584   3.317   5.777
 6823SOL    HW121368   4.511   3.312   5.846
 6823SOL    HW221369   4.593   3.229   5.731
 6824SOL     OW21370   0.813   2.065   6.924
 6824SOL    HW121371   0.768   2.133   6.982
 6824SOL    HW221372   0.873   2.111   6.859
 6825SOL     OW21373   5.180   6.271   1.355
 6825SOL    HW121374   5.196   6.174   1.340
 6825SOL    HW221375   5.113   6.282   1.429
 6826SOL     OW21376   1.817   3.412   3.353
 6826SOL    HW121377   1.872   3.333   3.380
 6826SOL    HW221378   1.735   3.380   3.305
 6827SOL     OW21379   4.604   5.838   6.004
 6827SOL    HW121380   4.650   5.800   5.923
 6827SOL    HW221381   4.506   5.820   5.998
 6828SOL     OW21382   3.015   1.809   1.668
 6828SOL    HW121383   3.103   1.853   1.682
 6828SOL    HW221384   2.958   1.868   1.610
 6829SOL     OW21385   4.622   6.511   5.101
 6829SOL    HW121386   4.598   6.434   5.042
 6829SOL    HW221387   4.690   6.482   5.168
 6830SOL     OW21388   5.096   1.302   3.536
 6830SOL    HW121389   5.037   1.263   3.607
 6830SOL    HW221390   5.046   1.375   3.488
 6831SOL     OW21391   1.100   0.555   6.749
 6831SOL    HW121392   1.081   0.648   6.781
 6831SOL    HW221393   1.043   0.536   6.669
 6832SOL     OW21394   2.532   4.120   0.965
 6832SOL    HW121395   2.603   4.084   0.905
 6832SOL    HW221396   2.531   4.067   1.050
 6833SOL     OW21397   3.133   4.742   6.323
 6833SOL    HW121398   3.120   4.753   6.225
 6833SOL    HW221399   3.121   4.830   6.369
 6834SOL     OW21400   4.577   6.554   0.902
 6834SOL    HW121401   4.568   6.512   0.992
 6834SOL    HW221402   4.566   6.654   0.911
 6835SOL     OW21403   4.008   0.662   4.652
 6835SOL    HW121404   3.979   0.576   4.609
 6835SOL    HW221405   3.928   0.710   4.688
 6836SOL     OW21406   2.515   4.915   0.378
 6836SOL    HW121407   2.549   4.825   0.351
 6836SOL    HW221408   2.533   4.929   0.475
 6837SOL     OW21409   0.243   2.145   2.104
 6837SOL    HW121410   0.291   2.204   2.169
 6837SOL    HW221411   0.309   2.086   2.058
 6838SOL     OW21412   3.617   6.287   0.167
 6838SOL    HW121413   3.583   6.280   0.261
 6838SOL    HW221414   3.717   6.293   0.169
 6839SOL     OW21415   5.377   1.244   6.825
 6839SOL    HW121416   5.354   1.272   6.918
 6839SOL    HW221417   5.432   1.160   6.829
 6840SOL     OW21418   3.487   0.628   4.740
 6840SOL    HW121419   3.446   0.707   4.785
 6840SOL    HW221420   3.417   0.580   4.687
 6841SOL     OW21421   4.308   4.568   6.723
 6841SOL    HW121422   4.372   4.643   6.737
 6841SOL    HW221423   4.321   4.499   6.794
 6842SOL     OW21424   2.473   4.378   0.888
 6842SOL    HW121425   2.509   4.293   0.926
 6842SOL    HW221426   2.521   4.455   0.928
 6843SOL     OW21427   6.311   6.855   1.430
 6843SOL    HW121428   6.321   6.931   1.496
 6843SOL    HW221429   6.355   6.773   1.467
 6844SOL     OW21430   5.554   0.844   3.748
 6844SOL    HW121431   5.468   0.800   3.774
 6844SOL    HW221432   5.623   0.827   3.818
 6845SOL     OW21433   6.324   3.662   2.853
 6845SOL    HW121434   6.268   3.686   2.774
 6845SOL    HW221435   6.278   3.591   2.906
 6846SOL     OW21436   3.716   2.829   6.881
 6846SOL    HW121437   3.813   2.822   6.903
 6846SOL    HW221438   3.705   2.849   6.783
 6847SOL     OW21439   0.478   3.386   4.621
 6847SOL    HW121440   0.480   3.451   4.697
 6847SOL    HW221441   0.429   3.303   4.650
 6848SOL     OW21442   4.968   5.106   3.675
 6848SOL    HW121443   4.969   5.150   3.765
 6848SOL    HW221444   4.875   5.074   3.654
 6849SOL     OW21445   4.523   5.174   5.178
 6849SOL    HW121446   4.586   5.198   5.104
 6849SOL    HW221447   4.437   5.224   5.166
 6850SOL     OW21448   5.545   3.264   2.240
 6850SOL    HW121449   5.616   3.330   2.264
 6850SOL    HW221450   5.561   3.178   2.289
 6851SOL     OW21451   0.304   1.639   2.814
 6851SOL    HW121452   0.220   1.584   2.808
 6851SOL    HW221453   0.311   1.697   2.733
 6852SOL     OW21454   2.644   4.427   1.164
 6852SOL    HW121455   2.667   4.524   1.173
 6852SOL    HW221456   2.550   4.412   1.192
 6853SOL     OW21457   5.679   4.758   6.986
 6853SOL    HW121458   5.643   4.728   6.897
 6853SOL    HW221459   5.656   4.690   0.026
 6854SOL     OW21460   5.175   0.977   5.816
 6854SOL    HW121461   5.099   1.022   5.864
 6854SOL    HW221462   5.262   1.010   5.854
 6855SOL     OW21463   4.209   6.629   4.194
 6855SOL    HW121464   4.210   6.563   4.120
 6855SOL    HW221465   4.119   6.673   4.199
 6856SOL     OW21466   6.905   2.768   5.370
 6856SOL    HW121467   6.974   2.701   5.395
 6856SOL    HW221468   6.945   2.836   5.308
 6857SOL     OW21469   2.422   2.077   6.803
 6857SOL    HW121470   2.374   2.057   6.718
 6857SOL    HW221471   2.519   2.091   6.783
 6858SOL     OW21472   4.085   3.455   2.358
 6858SOL    HW121473   4.050   3.387   2.422
 6858SOL    HW221474   4.175   3.485   2.388
 6859SOL     OW21475   1.268   1.428   0.944
 6859SOL    HW121476   1.330   1.430   0.866
 6859SOL    HW221477   1.314   1.387   1.023
 6860SOL     OW21478   6.684   5.131   1.128
 6860SOL    HW121479   6.746   5.207   1.146
 6860SOL    HW221480   6.685   5.068   1.205
 6861SOL     OW21481   4.188   4.852   6.981
 6861SOL    HW121482   4.220   4.858   0.046
 6861SOL    HW221483   4.099   4.808   6.979
 6862SOL     OW21484   1.317   5.172   6.042
 6862SOL    HW121485   1.375   5.100   6.080
 6862SOL    HW221486   1.246   5.196   6.109
 6863SOL     OW21487   5.296   6.865   6.040
 6863SOL    HW121488   5.377   6.911   6.002
 6863SOL    HW221489   5.262   6.918   6.118
 6864SOL     OW21490   2.283   4.580   4.921
 6864SOL    HW121491   2.262   4.488   4.955
 6864SOL    HW221492   2.219   4.603   4.847
 6865SOL     OW21493   1.226   6.162   4.506
 6865SOL    HW121494   1.238   6.259   4.526
 6865SOL    HW221495   1.253   6.107   4.585
 6866SOL     OW21496   5.536   5.535   3.220
 6866SOL    HW121497   5.501   5.628   3.212
 6866SOL    HW221498   5.460   5.470   3.215
 6867SOL     OW21499   2.173   3.941   2.311
 6867SOL    HW121500   2.107   4.006   2.274
 6867SOL    HW221501   2.126   3.878   2.374
 6868SOL     OW21502   1.770   6.132   6.673
 6868SOL    HW121503   1.691   6.073   6.656
 6868SOL    HW221504   1.762   6.174   6.763
 6869SOL     OW21505   5.134   1.217   6.471
 6869SOL    HW121506   5.175   1.258   6.552
 6869SOL    HW221507   5.183   1.249   6.389
 6870SOL     OW21508   6.895   4.658   1.584
 6870SOL    HW121509   6.874   4.692   1.676
 6870SOL    HW221510   6.980   4.699   1.551
 6871SOL     OW21511   6.158   4.212   3.377
 6871SOL    HW121512   6.229   4.266   3.423
 6871SOL    HW221513   6.193   4.120   3.360
 6872SOL     OW21514   0.530   2.399   1.090
 6872SOL    HW121515   0.510   2.392   0.993
 6872SOL    HW221516   0.569   2.489   1.110
 6873SOL     OW21517   6.632   3.839   3.709
 6873SOL    HW121518   6.723   3.806   3.685
 6873SOL    HW221519   6.596   3.894   3.634
 6874SOL     OW21520   6.808   5.392   2.704
 6874SOL    HW121521   6.769   5.477   2.670
 6874SOL    HW221522   6.908   5.402   2.712
 6875SOL     OW21523   2.286   2.824   2.691
 6875SOL    HW121524   2.340   2.746   2.724
 6875SOL    HW221525   2.304   2.838   2.593
 6876SOL     OW21526   4.185   0.405   4.229
 6876SOL    HW121527   4.085   0.398   4.231
 6876SOL    HW221528   4.211   0.502   4.225
 6877SOL     OW21529   2.768   4.053   0.856
 6877SOL    HW121530   2.784   4.093   0.766
 6877SOL    HW221531   2.794   4.118   0.927
 6878SOL     OW21532   4.148   1.135   4.090
 6878SOL    HW121533   4.052   1.153   4.109
 6878SOL    HW221534   4.157   1.050   4.037
 6879SOL     OW21535   1.068   2.951   1.005
 6879SOL    HW121536   1.092   2.861   0.970
 6879SOL    HW221537   0.989   2.986   0.955
 6880SOL     OW21538   2.165   5.588   5.540
 6880SOL    HW121539   2.218   5.625   5.464
 6880SOL    HW221540   2.112   5.509   5.509
 6881SOL     OW21541   2.092   3.731   1.272
 6881SOL    HW121542   2.036   3.762   1.195
 6881SOL    HW221543   2.186   3.763   1.260
 6882SOL     OW21544   3.140   0.919   0.278
 6882SOL    HW121545   3.194   0.874   0.206
 6882SOL    HW221546   3.056   0.867   0.294
 6883SOL     OW21547   4.897   1.567   6.890
 6883SOL    HW121548   4.940   1.588   6.978
 6883SOL    HW221549   4.946   1.492   6.845
 6884SOL     OW21550   1.092   4.409   3.648
 6884SOL    HW121551   1.092   4.329   3.587
 6884SOL    HW221552   1.075   4.491   3.594
 6885SOL     OW21553   4.481   4.565   4.016
 6885SOL    HW121554   4.570   4.528   3.990
 6885SOL    HW221555   4.431   4.498   4.070
 6886SOL     OW21556   6.794   1.283   4.187
 6886SOL    HW121557   6.871   1.293   4.250
 6886SOL    HW221558   6.728   1.219   4.226
 6887SOL     OW21559   5.291   5.488   5.852
 6887SOL    HW121560   5.240   5.417   5.901
 6887SOL    HW221561   5.278   5.575   5.899
 6888SOL     OW21562   5.381   5.293   6.263
 6888SOL    HW121563   5.432   5.209   6.282
 6888SOL    HW221564   5.437   5.355   6.208
 6889SOL     OW21565   1.401   2.837   6.047
 6889SOL    HW121566   1.438   2.750   6.078
 6889SOL    HW221567   1.464   2.877   5.980
 6890SOL     OW21568   3.488   6.320   2.370
 6890SOL    HW121569   3.526   6.269   2.447
 6890SOL    HW221570   3.561   6.374   2.327
 6891SOL     OW21571   2.121   3.717   2.853
 6891SOL    HW121572   2.149   3.803   2.810
 6891SOL    HW221573   2.086   3.735   2.945
 6892SOL     OW21574   3.736   2.154   3.659
 6892SOL    HW121575   3.783   2.147   3.747
 6892SOL    HW221576   3.799   2.190   3.590
 6893SOL     OW21577   4.263   4.339   6.858
 6893SOL    HW121578   4.201   4.328   6.781
 6893SOL    HW221579   4.319   4.257   6.868
 6894SOL     OW21580   6.067   5.107   0.412
 6894SOL    HW121581   6.026   5.194   0.440
 6894SOL    HW221582   6.032   5.081   0.322
 6895SOL     OW21583   2.482   4.648   0.970
 6895SOL    HW121584   2.514   4.683   0.881
 6895SOL    HW221585   2.531   4.694   1.043
 6896SOL     OW21586   2.719   1.190   4.153
 6896SOL    HW121587   2.812   1.157   4.163
 6896SOL    HW221588   2.717   1.289   4.165
 6897SOL     OW21589   4.923   3.817   5.006
 6897SOL    HW121590   4.878   3.753   5.067
 6897SOL    HW221591   5.011   3.844   5.045
 6898SOL     OW21592   4.093   1.616   1.184
 6898SOL    HW121593   4.019   1.649   1.243
 6898SOL    HW221594   4.083   1.517   1.171
 6899SOL     OW21595   4.782   6.243   1.778
 6899SOL    HW121596   4.853   6.216   1.844
 6899SOL    HW221597   4.811   6.326   1.730
 6900SOL     OW21598   6.032   5.755   5.057
 6900SOL    HW121599   5.998   5.823   4.991
 6900SOL    HW221600   6.014   5.788   5.150
 6901SOL     OW21601   6.326   6.012   6.124
 6901SOL    HW121602   6.303   5.975   6.214
 6901SOL    HW221603   6.360   5.939   6.065
 6902SOL     OW21604   6.813   6.109   6.819
 6902SOL    HW121605   6.827   6.010   6.827
 6902SOL    HW221606   6.863   6.156   6.892
 6903SOL     OW21607   3.065   5.184   5.599
 6903SOL    HW121608   2.987   5.244   5.617
 6903SOL    HW221609   3.115   5.167   5.684
 6904SOL     OW21610   6.043   0.340   5.265
 6904SOL    HW121611   6.111   0.267   5.262
 6904SOL    HW221612   5.992   0.336   5.351
 6905SOL     OW21613   5.564   6.130   0.065
 6905SOL    HW121614   5.605   6.078   7.020
 6905SOL    HW221615   5.471   6.097   0.081
 6906SOL     OW21616   3.933   1.391   4.361
 6906SOL    HW121617   3.904   1.481   4.394
 6906SOL    HW221618   3.936   1.327   4.438
 6907SOL     OW21619   5.471   2.248   1.583
 6907SOL    HW121620   5.470   2.150   1.603
 6907SOL    HW221621   5.541   2.293   1.639
 6908SOL     OW21622   1.436   5.456   0.059
 6908SOL    HW121623   1.399   5.410   7.009
 6908SOL    HW221624   1.363   5.506   0.106
 6909SOL     OW21625   4.654   4.173   1.441
 6909SOL    HW121626   4.679   4.135   1.530
 6909SOL    HW221627   4.578   4.237   1.452
 6910SOL     OW21628   0.939   2.988   3.500
 6910SOL    HW121629   0.971   2.895   3.516
 6910SOL    HW221630   0.884   3.019   3.578
 6911SOL     OW21631   4.206   6.529   4.448
 6911SOL    HW121632   4.245   6.437   4.441
 6911SOL    HW221633   4.183   6.563   4.357
 6912SOL     OW21634   3.263   3.737   6.217
 6912SOL    HW121635   3.265   3.784   6.305
 6912SOL    HW221636   3.179   3.761   6.169
 6913SOL     OW21637   5.694   6.433   3.808
 6913SOL    HW121638   5.688   6.511   3.746
 6913SOL    HW221639   5.638   6.450   3.889
 6914SOL     OW21640   6.134   4.566   3.481
 6914SOL    HW121641   6.166   4.501   3.550
 6914SOL    HW221642   6.034   4.573   3.485
 6915SOL     OW21643   6.034   2.406   1.507
 6915SOL    HW121644   6.125   2.382   1.473
 6915SOL    HW221645   5.996   2.328   1.558
 6916SOL     OW21646   5.268   1.821   6.995
 6916SOL    HW121647   5.198   1.882   6.957
 6916SOL    HW221648   5.227   1.763   0.035
 6917SOL     OW21649   3.346   6.554   1.526
 6917SOL    HW121650   3.348   6.615   1.447
 6917SOL    HW221651   3.367   6.461   1.497
 6918SOL     OW21652   0.862   2.422   4.523
 6918SOL    HW121653   0.779   2.384   4.483
 6918SOL    HW221654   0.912   2.473   4.454
 6919SOL     OW21655   5.513   5.925   4.167
 6919SOL    HW121656   5.495   6.007   4.221
 6919SOL    HW221657   5.607   5.927   4.133
 6920SOL     OW21658   4.352   6.635   6.027
 6920SOL    HW121659   4.286   6.709   6.029
 6920SOL    HW221660   4.442   6.669   6.055
 6921SOL     OW21661   4.626   6.021   4.417
 6921SOL    HW121662   4.600   6.058   4.505
 6921SOL    HW221663   4.567   6.058   4.345
 6922SOL     OW21664   1.618   6.617   4.718
 6922SOL    HW121665   1.557   6.539   4.732
 6922SOL    HW221666   1.581   6.675   4.646
 6923SOL     OW21667   5.129   5.524   2.939
 6923SOL    HW121668   5.172   5.499   2.853
 6923SOL    HW221669   5.086   5.444   2.980
 6924SOL     OW21670   2.066   4.380   6.663
 6924SOL    HW121671   2.039   4.303   6.720
 6924SOL    HW221672   2.030   4.368   6.571
 6925SOL     OW21673   5.185   6.191   4.125
 6925SOL    HW121674   5.151   6.123   4.190
 6925SOL    HW221675   5.114   6.258   4.106
 6926SOL     OW21676   2.893   2.592   0.562
 6926SOL    HW121677   2.941   2.649   0.628
 6926SOL    HW221678   2.919   2.496   0.576
 6927SOL     OW21679   3.736   2.958   5.684
 6927SOL    HW121680   3.717   2.864   5.709
 6927SOL    HW221681   3.661   2.993   5.627
 6928SOL     OW21682   5.553   5.872   0.714
 6928SOL    HW121683   5.627   5.928   0.753
 6928SOL    HW221684   5.556   5.879   0.614
 6929SOL     OW21685   4.941   5.788   1.540
 6929SOL    HW121686   4.960   5.884   1.560
 6929SOL    HW221687   4.842   5.774   1.539
 6930SOL     OW21688   1.262   0.878   1.583
 6930SOL    HW121689   1.293   0.901   1.490
 6930SOL    HW221690   1.340   0.842   1.636
 6931SOL     OW21691   2.026   1.499   2.642
 6931SOL    HW121692   2.084   1.558   2.585
 6931SOL    HW221693   1.932   1.503   2.609
 6932SOL     OW21694   4.336   0.027   6.783
 6932SOL    HW121695   4.355   0.053   6.878
 6932SOL    HW221696   4.273   6.980   6.782
 6933SOL     OW21697   3.604   6.014   5.575
 6933SOL    HW121698   3.693   6.045   5.542
 6933SOL    HW221699   3.579   5.929   5.530
 6934SOL     OW21700   4.258   2.900   6.294
 6934SOL    HW121701   4.350   2.868   6.319
 6934SOL    HW221702   4.252   2.910   6.195
 6935SOL     OW21703   4.702   5.632   2.378
 6935SOL    HW121704   4.618   5.579   2.369
 6935SOL    HW221705   4.680   5.725   2.407
 6936SOL     OW21706   6.289   2.394   3.575
 6936SOL    HW121707   6.338   2.400   3.488
 6936SOL    HW221708   6.192   2.413   3.561
 6937SOL     OW21709   6.047   6.466   0.323
 6937SOL    HW121710   6.045   6.381   0.376
 6937SOL    HW221711   6.036   6.445   0.226
 6938SOL     OW21712   6.466   2.941   5.048
 6938SOL    HW121713   6.400   2.978   5.113
 6938SOL    HW221714   6.473   3.003   4.970
 6939SOL     OW21715   0.532   5.492   2.274
 6939SOL    HW121716   0.517   5.469   2.178
 6939SOL    HW221717   0.445   5.490   2.323
 6940SOL     OW21718   3.446   0.384   6.080
 6940SOL    HW121719   3.527   0.436   6.107
 6940SOL    HW221720   3.420   0.321   6.154
 6941SOL     OW21721   3.008   4.121   1.719
 6941SOL    HW121722   2.955   4.071   1.651
 6941SOL    HW221723   3.006   4.072   1.806
 6942SOL     OW21724   6.026   6.702   2.051
 6942SOL    HW121725   6.084   6.665   2.124
 6942SOL    HW221726   5.933   6.664   2.061
 6943SOL     OW21727   3.643   5.591   0.966
 6943SOL    HW121728   3.543   5.582   0.963
 6943SOL    HW221729   3.685   5.516   0.915
 6944SOL     OW21730   0.684   4.792   6.546
 6944SOL    HW121731   0.739   4.846   6.609
 6944SOL    HW221732   0.595   4.836   6.531
 6945SOL     OW21733   6.674   1.335   0.299
 6945SOL    HW121734   6.767   1.311   0.327
 6945SOL    HW221735   6.610   1.266   0.334
 6946SOL     OW21736   3.921   6.664   1.121
 6946SOL    HW121737   3.951   6.677   1.027
 6946SOL    HW221738   3.833   6.710   1.135
 6947SOL     OW21739   3.459   5.621   6.888
 6947SOL    HW121740   3.386   5.675   6.845
 6947SOL    HW221741   3.424   5.574   6.969
 6948SOL     OW21742   0.945   6.740   0.664
 6948SOL    HW121743   0.933   6.706   0.758
 6948SOL    HW221744   0.924   6.838   0.661
 6949SOL     OW21745   4.133   0.227   3.518
 6949SOL    HW121746   4.069   0.150   3.508
 6949SOL    HW221747   4.086   0.312   3.495
 6950SOL     OW21748   1.245   1.702   4.925
 6950SOL    HW121749   1.172   1.654   4.974
 6950SOL    HW221750   1.284   1.642   4.856
 6951SOL     OW21751   6.550   5.544   5.623
 6951SOL    HW121752   6.630   5.600   5.646
 6951SOL    HW221753   6.569   5.448   5.646
 6952SOL     OW21754   0.757   6.083   3.169
 6952SOL    HW121755   0.795   6.149   3.234
 6952SOL    HW221756   0.741   6.129   3.081
 6953SOL     OW21757   3.971   6.260   1.652
 6953SOL    HW121758   4.025   6.311   1.719
 6953SOL    HW221759   3.885   6.230   1.694
 6954SOL     OW21760   0.126   3.856   1.938
 6954SOL    HW121761   0.036   3.876   1.900
 6954SOL    HW221762   0.169   3.941   1.969
 6955SOL     OW21763   5.605   0.543   1.632
 6955SOL    HW121764   5.543   0.506   1.701
 6955SOL    HW221765   5.556   0.611   1.577
 6956SOL     OW21766   5.385   6.020   3.512
 6956SOL    HW121767   5.323   6.081   3.463
 6956SOL    HW221768   5.333   5.963   3.575
 6957SOL     OW21769   6.118   5.872   0.921
 6957SOL    HW121770   6.097   5.829   0.833
 6957SOL    HW221771   6.168   5.957   0.906
 6958SOL     OW21772   3.765   3.348   4.568
 6958SOL    HW121773   3.692   3.332   4.635
 6958SOL    HW221774   3.793   3.445   4.572
 6959SOL     OW21775   2.096   2.920   3.424
 6959SOL    HW121776   2.004   2.958   3.418
 6959SOL    HW221777   2.114   2.864   3.343
 6960SOL     OW21778   1.327   4.191   1.100
 6960SOL    HW121779   1.242   4.195   1.047
 6960SOL    HW221780   1.346   4.282   1.137
 6961SOL     OW21781   6.134   1.099   4.497
 6961SOL    HW121782   6.131   1.029   4.569
 6961SOL    HW221783   6.171   1.060   4.413
 6962SOL     OW21784   4.660   5.980   1.846
 6962SOL    HW121785   4.589   6.006   1.911
 6962SOL    HW221786   4.693   6.061   1.799
 6963SOL     OW21787   5.248   5.593   1.395
 6963SOL    HW121788   5.251   5.673   1.334
 6963SOL    HW221789   5.158   5.550   1.389
 6964SOL     OW21790   3.869   1.492   5.612
 6964SOL    HW121791   3.955   1.530   5.577
 6964SOL    HW221792   3.814   1.565   5.652
 6965SOL     OW21793   1.406   0.972   6.781
 6965SOL    HW121794   1.378   0.936   6.692
 6965SOL    HW221795   1.375   0.911   6.854
 6966SOL     OW21796   1.034   2.029   2.157
 6966SOL    HW121797   1.124   2.072   2.163
 6966SOL    HW221798   1.040   1.935   2.190
 6967SOL     OW21799   2.884   0.993   6.242
 6967SOL    HW121800   2.787   0.988   6.268
 6967SOL    HW221801   2.892   1.029   6.149
 6968SOL     OW21802   4.039   0.472   3.505
 6968SOL    HW121803   3.975   0.537   3.466
 6968SOL    HW221804   4.103   0.520   3.566
 6969SOL     OW21805   3.013   2.189   1.808
 6969SOL    HW121806   2.992   2.285   1.830
 6969SOL    HW221807   3.049   2.144   1.889
 6970SOL     OW21808   4.097   3.837   5.891
 6970SOL    HW121809   4.161   3.909   5.917
 6970SOL    HW221810   4.094   3.767   5.963
 6971SOL     OW21811   6.277   4.493   0.655
 6971SOL    HW121812   6.190   4.466   0.696
 6971SOL    HW221813   6.331   4.544   0.722
 6972SOL     OW21814   5.575   4.449   3.139
 6972SOL    HW121815   5.599   4.481   3.047
 6972SOL    HW221816   5.638   4.488   3.206
 6973SOL     OW21817   0.715   3.293   3.183
 6973SOL    HW121818   0.651   3.268   3.110
 6973SOL    HW221819   0.752   3.210   3.225
 6974SOL     OW21820   2.982   3.811   2.542
 6974SOL    HW121821   2.929   3.808   2.457
 6974SOL    HW221822   3.068   3.761   2.529
 6975SOL     OW21823   1.599   6.614   5.685
 6975SOL    HW121824   1.511   6.595   5.730
 6975SOL    HW221825   1.583   6.670   5.604
 6976SOL     OW21826   6.214   5.410   6.034
 6976SOL    HW121827   6.244   5.379   5.944
 6976SOL    HW221828   6.223   5.510   6.039
 6977SOL     OW21829   3.859   2.760   1.248
 6977SOL    HW121830   3.919   2.693   1.292
 6977SOL    HW221831   3.913   2.836   1.214
 6978SOL     OW21832   5.732   2.140   2.088
 6978SOL    HW121833   5.789   2.221   2.099
 6978SOL    HW221834   5.737   2.084   2.171
 6979SOL     OW21835   0.883   4.428   1.438
 6979SOL    HW121836   0.983   4.423   1.437
 6979SOL    HW221837   0.847   4.382   1.519
 6980SOL     OW21838   1.252   0.867   3.123
 6980SOL    HW121839   1.163   0.823   3.115
 6980SOL    HW221840   1.318   0.804   3.164
 6981SOL     OW21841   3.752   3.579   5.777
 6981SOL    HW121842   3.699   3.529   5.709
 6981SOL    HW221843   3.831   3.524   5.806
 6982SOL     OW21844   1.018   1.295   4.841
 6982SOL    HW121845   1.042   1.197   4.845
 6982SOL    HW221846   0.920   1.305   4.825
 6983SOL     OW21847   3.874   2.145   3.897
 6983SOL    HW121848   3.867   2.237   3.934
 6983SOL    HW221849   3.838   2.079   3.963
 6984SOL     OW21850   2.038   1.750   3.213
 6984SOL    HW121851   2.047   1.663   3.262
 6984SOL    HW221852   2.106   1.815   3.247
 6985SOL     OW21853   5.762   4.938   1.107
 6985SOL    HW121854   5.718   4.882   1.037
 6985SOL    HW221855   5.711   5.024   1.118
 6986SOL     OW21856   2.686   6.861   6.292
 6986SOL    HW121857   2.747   6.932   6.329
 6986SOL    HW221858   2.596   6.900   6.274
 6987SOL     OW21859   5.991   1.050   5.978
 6987SOL    HW121860   5.957   1.121   6.040
 6987SOL    HW221861   6.033   0.977   6.031
 6988SOL     OW21862   1.092   6.662   6.719
 6988SOL    HW121863   1.086   6.758   6.695
 6988SOL    HW221864   1.021   6.639   6.786
 6989SOL     OW21865   1.155   4.461   3.115
 6989SOL    HW121866   1.162   4.490   3.210
 6989SOL    HW221867   1.239   4.414   3.088
 6990SOL     OW21868   4.575   2.923   1.256
 6990SOL    HW121869   4.589   2.872   1.340
 6990SOL    HW221870   4.599   2.866   1.177
 6991SOL     OW21871   4.599   4.362   3.445
 6991SOL    HW121872   4.558   4.411   3.523
 6991SOL    HW221873   4.627   4.271   3.474
 6992SOL     OW21874   5.268   0.356   6.403
 6992SOL    HW121875   5.257   0.306   6.318
 6992SOL    HW221876   5.258   0.294   6.481
 6993SOL     OW21877   6.130   6.879   2.765
 6993SOL    HW121878   6.079   6.904   2.683
 6993SOL    HW221879   6.136   6.959   2.825
 6994SOL     OW21880   0.406   2.350   4.117
 6994SOL    HW121881   0.428   2.369   4.021
 6994SOL    HW221882   0.471   2.283   4.154
 6995SOL     OW21883   0.527   4.555   6.574
 6995SOL    HW121884   0.481   4.548   6.662
 6995SOL    HW221885   0.583   4.638   6.572
 6996SOL     OW21886   1.580   0.331   6.824
 6996SOL    HW121887   1.545   0.266   6.891
 6996SOL    HW221888   1.504   0.386   6.788
 6997SOL     OW21889   0.403   5.270   5.555
 6997SOL    HW121890   0.484   5.284   5.498
 6997SOL    HW221891   0.377   5.173   5.551
 6998SOL     OW21892   1.784   0.986   1.504
 6998SOL    HW121893   1.747   0.999   1.596
 6998SOL    HW221894   1.875   1.027   1.498
 6999SOL     OW21895   2.371   2.375   6.496
 6999SOL    HW121896   2.347   2.367   6.592
 6999SOL    HW221897   2.291   2.403   6.443
 7000SOL     OW21898   5.507   6.484   1.667
 7000SOL    HW121899   5.483   6.435   1.583
 7000SOL    HW221900   5.496   6.582   1.653
 7001SOL     OW21901   1.711   3.539   5.917
 7001SOL    HW121902   1.613   3.541   5.940
 7001SOL    HW221903   1.723   3.574   5.824
 7002SOL     OW21904   1.396   5.583   4.142
 7002SOL    HW121905   1.301   5.581   4.110
 7002SOL    HW221906   1.458   5.570   4.065
 7003SOL     OW21907   4.588   5.466   1.003
 7003SOL    HW121908   4.619   5.488   0.910
 7003SOL    HW221909   4.532   5.542   1.038
 7004SOL     OW21910   0.470   5.612   1.673
 7004SOL    HW121911   0.534   5.612   1.597
 7004SOL    HW221912   0.509   5.561   1.750
 7005SOL     OW21913   0.947   0.164   0.874
 7005SOL    HW121914   1.013   0.101   0.915
 7005SOL    HW221915   0.870   0.177   0.936
 7006SOL     OW21916   5.055   5.181   3.983
 7006SOL    HW121917   5.119   5.104   3.989
 7006SOL    HW221918   4.969   5.156   4.028
 7007SOL     OW21919   4.623   0.904   4.669
 7007SOL    HW121920   4.689   0.833   4.646
 7007SOL    HW221921   4.530   0.868   4.658
 7008SOL     OW21922   0.486   4.379   4.292
 7008SOL    HW121923   0.461   4.361   4.197
 7008SOL    HW221924   0.416   4.435   4.336
 7009SOL     OW21925   4.301   6.252   2.478
 7009SOL    HW121926   4.280   6.170   2.424
 7009SOL    HW221927   4.346   6.320   2.419
 7010SOL     OW21928   5.783   4.289   3.641
 7010SOL    HW121929   5.848   4.218   3.616
 7010SOL    HW221930   5.757   4.278   3.737
 7011SOL     OW21931   3.248   6.449   6.638
 7011SOL    HW121932   3.196   6.368   6.609
 7011SOL    HW221933   3.288   6.494   6.558
 7012SOL     OW21934   0.931   2.078   1.107
 7012SOL    HW121935   1.003   2.076   1.176
 7012SOL    HW221936   0.857   2.138   1.139
 7013SOL     OW21937   1.051   6.475   0.182
 7013SOL    HW121938   1.060   6.449   0.086
 7013SOL    HW221939   0.973   6.537   0.193
 7014SOL     OW21940   4.745   3.415   0.600
 7014SOL    HW121941   4.723   3.512   0.594
 7014SOL    HW221942   4.712   3.378   0.687
 7015SOL     OW21943   6.004   3.864   1.132
 7015SOL    HW121944   6.016   3.802   1.055
 7015SOL    HW221945   6.052   3.949   1.114
 7016SOL     OW21946   3.522   5.214   1.331
 7016SOL    HW121947   3.523   5.310   1.359
 7016SOL    HW221948   3.616   5.185   1.309
 7017SOL     OW21949   2.727   5.131   3.428
 7017SOL    HW121950   2.766   5.041   3.448
 7017SOL    HW221951   2.641   5.119   3.377
 7018SOL     OW21952   5.423   3.384   4.308
 7018SOL    HW121953   5.351   3.433   4.357
 7018SOL    HW221954   5.459   3.311   4.365
 7019SOL     OW21955   3.772   4.632   0.528
 7019SOL    HW121956   3.780   4.730   0.512
 7019SOL    HW221957   3.679   4.609   0.556
 7020SOL     OW21958   6.689   4.382   5.904
 7020SOL    HW121959   6.602   4.405   5.945
 7020SOL    HW221960   6.763   4.398   5.969
 7021SOL     OW21961   1.706   2.367   4.571
 7021SOL    HW121962   1.705   2.343   4.668
 7021SOL    HW221963   1.617   2.344   4.531
 7022SOL     OW21964   4.486   0.389   6.831
 7022SOL    HW121965   4.417   0.348   6.772
 7022SOL    HW221966   4.546   0.318   6.867
 7023SOL     OW21967   1.533   2.714   2.672
 7023SOL    HW121968   1.548   2.738   2.576
 7023SOL    HW221969   1.607   2.751   2.728
 7024SOL     OW21970   3.400   3.945   4.896
 7024SOL    HW121971   3.498   3.944   4.875
 7024SOL    HW221972   3.350   3.986   4.820
 7025SOL     OW21973   3.532   0.602   0.820
 7025SOL    HW121974   3.469   0.648   0.883
 7025SOL    HW221975   3.488   0.592   0.731
 7026SOL     OW21976   3.621   2.042   2.190
 7026SOL    HW121977   3.652   2.113   2.127
 7026SOL    HW221978   3.670   2.051   2.277
 7027SOL     OW21979   2.313   5.553   4.294
 7027SOL    HW121980   2.306   5.547   4.393
 7027SOL    HW221981   2.232   5.599   4.258
 7028SOL     OW21982   3.506   1.392   2.619
 7028SOL    HW121983   3.575   1.417   2.551
 7028SOL    HW221984   3.520   1.297   2.648
 7029SOL     OW21985   4.087   4.509   5.320
 7029SOL    HW121986   4.168   4.496   5.262
 7029SOL    HW221987   4.114   4.508   5.416
 7030SOL     OW21988   0.549   0.852   5.015
 7030SOL    HW121989   0.523   0.781   5.081
 7030SOL    HW221990   0.637   0.827   4.973
 7031SOL     OW21991   3.638   6.155   6.779
 7031SOL    HW121992   3.579   6.228   6.746
 7031SOL    HW221993   3.627   6.145   6.878
 7032SOL     OW21994   4.548   2.005   3.943
 7032SOL    HW121995   4.516   2.037   4.032
 7032SOL    HW221996   4.648   1.999   3.944
 7033SOL     OW21997   1.324   2.581   3.179
 7033SOL    HW121998   1.266   2.608   3.102
 7033SOL    HW221999   1.388   2.655   3.200
 7034SOL     OW22000   6.912   1.767   2.967
 7034SOL    HW122001   6.936   1.676   2.999
 7034SOL    HW222002   6.822   1.763   2.922
 7035SOL     OW22003   1.436   0.200   0.588
 7035SOL    HW122004   1.443   0.163   0.495
 7035SOL    HW222005   1.497   0.149   0.648
 7036SOL     OW22006   6.893   0.821   2.223
 7036SOL    HW122007   6.905   0.803   2.126
 7036SOL    HW222008   6.968   0.879   2.256
 7037SOL     OW22009   1.196   1.390   6.332
 7037SOL    HW122010   1.202   1.459   6.260
 7037SOL    HW222011   1.273   1.400   6.395
 7038SOL     OW22012   2.090   4.053   5.184
 7038SOL    HW122013   2.064   3.970   5.233
 7038SOL    HW222014   2.174   4.035   5.133
 7039SOL     OW22015   0.669   5.757   2.572
 7039SOL    HW122016   0.602   5.742   2.645
 7039SOL    HW222017   0.646   5.840   2.522
 7040SOL     OW22018   5.688   2.503   5.439
 7040SOL    HW122019   5.596   2.525   5.471
 7040SOL    HW222020   5.682   2.453   5.353
 7041SOL     OW22021   6.590   1.644   1.685
 7041SOL    HW122022   6.523   1.711   1.717
 7041SOL    HW222023   6.675   1.655   1.737
 7042SOL     OW22024   4.195   5.719   4.606
 7042SOL    HW122025   4.217   5.761   4.694
 7042SOL    HW222026   4.097   5.703   4.600
 7043SOL     OW22027   2.157   4.620   3.295
 7043SOL    HW122028   2.199   4.635   3.205
 7043SOL    HW222029   2.058   4.616   3.286
 7044SOL     OW22030   5.836   5.197   5.115
 7044SOL    HW122031   5.778   5.162   5.042
 7044SOL    HW222032   5.873   5.286   5.089
 7045SOL     OW22033   4.969   5.082   2.571
 7045SOL    HW122034   5.046   5.037   2.616
 7045SOL    HW222035   4.941   5.028   2.491
 7046SOL     OW22036   3.120   1.589   3.599
 7046SOL    HW122037   3.130   1.685   3.575
 7046SOL    HW222038   3.171   1.532   3.535
 7047SOL     OW22039   6.439   0.611   2.097
 7047SOL    HW122040   6.506   0.587   2.027
 7047SOL    HW222041   6.426   0.534   2.158
 7048SOL     OW22042   6.079   6.910   3.925
 7048SOL    HW122043   6.078   6.941   4.020
 7048SOL    HW222044   6.103   6.986   3.865
 7049SOL     OW22045   3.719   1.809   0.764
 7049SOL    HW122046   3.800   1.786   0.710
 7049SOL    HW222047   3.637   1.774   0.718
 7050SOL     OW22048   4.239   3.457   1.162
 7050SOL    HW122049   4.148   3.472   1.202
 7050SOL    HW222050   4.307   3.453   1.235
 7051SOL     OW22051   0.059   6.651   1.211
 7051SOL    HW122052   0.084   6.735   1.163
 7051SOL    HW222053   0.132   6.584   1.201
 7052SOL     OW22054   6.951   1.287   3.419
 7052SOL    HW122055   6.875   1.282   3.484
 7052SOL    HW222056   0.007   1.289   3.469
 7053SOL     OW22057   1.879   3.797   4.865
 7053SOL    HW122058   1.781   3.783   4.883
 7053SOL    HW222059   1.913   3.870   4.924
 7054SOL     OW22060   0.169   6.566   0.716
 7054SOL    HW122061   0.101   6.602   0.651
 7054SOL    HW222062   0.237   6.512   0.667
 7055SOL     OW22063   2.822   0.520   0.150
 7055SOL    HW122064   2.839   0.435   0.201
 7055SOL    HW222065   2.744   0.568   0.190
 7056SOL     OW22066   6.748   5.321   1.432
 7056SOL    HW122067   6.808   5.333   1.511
 7056SOL    HW222068   6.675   5.257   1.456
 7057SOL     OW22069   2.702   5.027   3.788
 7057SOL    HW122070   2.772   4.971   3.745
 7057SOL    HW222071   2.692   5.000   3.884
 7058SOL     OW22072   5.586   2.562   5.910
 7058SOL    HW122073   5.541   2.647   5.940
 7058SOL    HW222074   5.651   2.583   5.838
 7059SOL     OW22075   0.668   0.991   4.010
 7059SOL    HW122076   0.752   0.964   3.963
 7059SOL    HW222077   0.653   1.089   3.998
 7060SOL     OW22078   3.571   0.475   1.290
 7060SOL    HW122079   3.652   0.427   1.256
 7060SOL    HW222080   3.578   0.572   1.267
 7061SOL     OW22081   0.526   3.262   3.953
 7061SOL    HW122082   0.567   3.230   3.868
 7061SOL    HW222083   0.487   3.185   4.004
 7062SOL     OW22084   3.360   2.084   5.104
 7062SOL    HW122085   3.317   2.060   5.191
 7062SOL    HW222086   3.304   2.153   5.058
 7063SOL     OW22087   1.672   6.660   1.563
 7063SOL    HW122088   1.684   6.759   1.571
 7063SOL    HW222089   1.586   6.633   1.606
 7064SOL     OW22090   3.713   2.031   0.046
 7064SOL    HW122091   3.676   2.119   0.074
 7064SOL    HW222092   3.638   1.965   0.038
 7065SOL     OW22093   3.442   3.769   5.528
 7065SOL    HW122094   3.430   3.792   5.432
 7065SOL    HW222095   3.445   3.853   5.582
 7066SOL     OW22096   3.469   0.214   5.845
 7066SOL    HW122097   3.479   0.286   5.914
 7066SOL    HW222098   3.531   0.232   5.769
 7067SOL     OW22099   1.280   3.289   5.484
 7067SOL    HW122100   1.345   3.240   5.426
 7067SOL    HW222101   1.187   3.258   5.463
 7068SOL     OW22102   6.085   3.933   4.957
 7068SOL    HW122103   6.113   4.027   4.934
 7068SOL    HW222104   6.156   3.869   4.927
 7069SOL     OW22105   5.604   1.571   4.725
 7069SOL    HW122106   5.585   1.492   4.666
 7069SOL    HW222107   5.591   1.545   4.820
 7070SOL     OW22108   1.097   6.585   4.700
 7070SOL    HW122109   1.001   6.612   4.693
 7070SOL    HW222110   1.118   6.558   4.794
 7071SOL     OW22111   3.642   6.030   0.013
 7071SOL    HW122112   3.648   6.093   0.090
 7071SOL    HW222113   3.555   5.981   0.016
 7072SOL     OW22114   2.053   5.496   0.250
 7072SOL    HW122115   2.071   5.545   0.166
 7072SOL    HW222116   2.103   5.409   0.250
 7073SOL     OW22117   4.649   6.930   3.672
 7073SOL    HW122118   4.554   6.909   3.697
 7073SOL    HW222119   4.698   6.962   3.753
 7074SOL     OW22120   5.877   3.149   1.869
 7074SOL    HW122121   5.901   3.231   1.921
 7074SOL    HW222122   5.896   3.164   1.772
 7075SOL     OW22123   1.723   4.266   4.633
 7075SOL    HW122124   1.726   4.166   4.631
 7075SOL    HW222125   1.806   4.303   4.592
 7076SOL     OW22126   5.451   3.106   0.121
 7076SOL    HW122127   5.434   3.011   0.095
 7076SOL    HW222128   5.380   3.137   0.184
 7077SOL     OW22129   2.135   4.205   3.557
 7077SOL    HW122130   2.159   4.199   3.460
 7077SOL    HW222131   2.151   4.117   3.601
 7078SOL     OW22132   6.396   5.965   1.074
 7078SOL    HW122133   6.340   6.017   1.010
 7078SOL    HW222134   6.437   6.027   1.141
 7079SOL     OW22135   0.863   6.811   3.948
 7079SOL    HW122136   0.799   6.806   3.871
 7079SOL    HW222137   0.827   6.873   4.018
 7080SOL     OW22138   3.312   1.466   4.435
 7080SOL    HW122139   3.248   1.533   4.397
 7080SOL    HW222140   3.302   1.463   4.535
 7081SOL     OW22141   1.471   5.558   0.702
 7081SOL    HW122142   1.520   5.472   0.695
 7081SOL    HW222143   1.379   5.548   0.665
 7082SOL     OW22144   6.783   4.512   0.311
 7082SOL    HW122145   6.815   4.429   0.356
 7082SOL    HW222146   6.703   4.548   0.359
 7083SOL     OW22147   0.479   1.308   1.846
 7083SOL    HW122148   0.509   1.221   1.806
 7083SOL    HW222149   0.444   1.368   1.774
 7084SOL     OW22150   1.121   5.367   5.491
 7084SOL    HW122151   1.200   5.375   5.552
 7084SOL    HW222152   1.071   5.283   5.514
 7085SOL     OW22153   0.093   1.972   2.355
 7085SOL    HW122154   0.037   1.943   2.433
 7085SOL    HW222155   0.064   2.063   2.326
 7086SOL     OW22156   5.336   1.032   6.054
 7086SOL    HW122157   5.421   1.073   6.022
 7086SOL    HW222158   5.279   1.102   6.097
 7087SOL     OW22159   6.078   4.515   2.698
 7087SOL    HW122160   6.071   4.594   2.759
 7087SOL    HW222161   6.020   4.441   2.732
 7088SOL     OW22162   4.976   2.443   5.295
 7088SOL    HW122163   5.014   2.419   5.206
 7088SOL    HW222164   4.931   2.363   5.336
 7089SOL     OW22165   2.215   2.807   4.041
 7089SOL    HW122166   2.210   2.719   3.992
 7089SOL    HW222167   2.279   2.798   4.118
 7090SOL     OW22168   2.521   1.451   0.573
 7090SOL    HW122169   2.430   1.451   0.531
 7090SOL    HW222170   2.543   1.544   0.605
 7091SOL     OW22171   0.595   1.031   0.967
 7091SOL    HW122172   0.684   0.998   0.998
 7091SOL    HW222173   0.523   0.973   1.005
 7092SOL     OW22174   4.293   2.987   5.787
 7092SOL    HW122175   4.320   2.961   5.695
 7092SOL    HW222176   4.229   3.064   5.783
 7093SOL     OW22177   3.432   4.181   1.827
 7093SOL    HW122178   3.436   4.172   1.927
 7093SOL    HW222179   3.438   4.091   1.785
 7094SOL     OW22180   0.609   6.206   5.749
 7094SOL    HW122181   0.526   6.258   5.730
 7094SOL    HW222182   0.610   6.122   5.694
 7095SOL     OW22183   2.822   4.624   6.008
 7095SOL    HW122184   2.762   4.703   6.019
 7095SOL    HW222185   2.892   4.645   5.939
 7096SOL     OW22186   6.420   6.817   1.970
 7096SOL    HW122187   6.411   6.721   1.942
 7096SOL    HW222188   6.330   6.854   1.992
 7097SOL     OW22189   4.718   0.701   2.327
 7097SOL    HW122190   4.774   0.710   2.410
 7097SOL    HW222191   4.735   0.612   2.286
 7098SOL     OW22192   1.844   5.550   5.793
 7098SOL    HW122193   1.850   5.627   5.729
 7098SOL    HW222194   1.913   5.561   5.865
 7099SOL     OW22195   3.720   2.049   4.584
 7099SOL    HW122196   3.669   1.968   4.554
 7099SOL    HW222197   3.781   2.079   4.510
 7100SOL     OW22198   6.414   3.471   0.582
 7100SOL    HW122199   6.364   3.438   0.662
 7100SOL    HW222200   6.509   3.441   0.588
 7101SOL     OW22201   2.945   1.446   5.275
 7101SOL    HW122202   2.931   1.423   5.372
 7101SOL    HW222203   2.969   1.543   5.267
 7102SOL     OW22204   5.706   6.982   0.476
 7102SOL    HW122205   5.608   6.967   0.488
 7102SOL    HW222206   5.742   7.028   0.557
 7103SOL     OW22207   5.547   5.356   1.819
 7103SOL    HW122208   5.606   5.338   1.898
 7103SOL    HW222209   5.515   5.269   1.781
 7104SOL     OW22210   6.703   3.505   2.792
 7104SOL    HW122211   6.624   3.523   2.850
 7104SOL    HW222212   6.754   3.590   2.777
 7105SOL     OW22213   3.092   3.209   4.930
 7105SOL    HW122214   3.159   3.140   4.902
 7105SOL    HW222215   3.113   3.296   4.885
 7106SOL     OW22216   3.563   3.046   1.879
 7106SOL    HW122217   3.541   2.960   1.923
 7106SOL    HW222218   3.494   3.067   1.809
 7107SOL     OW22219   4.783   0.275   0.694
 7107SOL    HW122220   4.744   0.199   0.746
 7107SOL    HW222221   4.838   0.238   0.619
 7108SOL     OW22222   3.050   5.795   2.641
 7108SOL    HW122223   3.114   5.842   2.701
 7108SOL    HW222224   2.969   5.853   2.627
 7109SOL     OW22225   2.083   0.547   6.749
 7109SOL    HW122226   2.017   0.501   6.690
 7109SOL    HW222227   2.081   0.645   6.730
 7110SOL     OW22228   3.171   5.876   4.201
 7110SOL    HW122229   3.078   5.844   4.219
 7110SOL    HW222230   3.226   5.866   4.284
 7111SOL     OW22231   1.500   2.564   4.463
 7111SOL    HW122232   1.502   2.568   4.563
 7111SOL    HW222233   1.540   2.647   4.425
 7112SOL     OW22234   2.229   4.903   4.676
 7112SOL    HW122235   2.230   4.914   4.776
 7112SOL    HW222236   2.319   4.873   4.645
 7113SOL     OW22237   3.563   4.212   5.018
 7113SOL    HW122238   3.570   4.206   4.918
 7113SOL    HW222239   3.486   4.157   5.049
 7114SOL     OW22240   4.904   5.504   0.903
 7114SOL    HW122241   4.830   5.533   0.843
 7114SOL    HW222242   4.949   5.423   0.865
 7115SOL     OW22243   4.466   2.936   0.083
 7115SOL    HW122244   4.498   2.878   0.157
 7115SOL    HW222245   4.452   3.030   0.116
 7116SOL     OW22246   5.372   4.393   3.339
 7116SOL    HW122247   5.314   4.360   3.265
 7116SOL    HW222248   5.459   4.425   3.301
 7117SOL     OW22249   0.131   0.173   4.705
 7117SOL    HW122250   0.183   0.087   4.697
 7117SOL    HW222251   0.174   0.230   4.775
 7118SOL     OW22252   3.756   4.751   6.180
 7118SOL    HW122253   3.671   4.726   6.132
 7118SOL    HW222254   3.809   4.668   6.199
 7119SOL     OW22255   5.259   0.987   4.840
 7119SOL    HW122256   5.200   1.025   4.912
 7119SOL    HW222257   5.334   0.936   4.882
 7120SOL     OW22258   3.787   1.959   1.659
 7120SOL    HW122259   3.753   2.039   1.609
 7120SOL    HW222260   3.802   1.984   1.755
 7121SOL     OW22261   0.574   6.653   3.481
 7121SOL    HW122262   0.534   6.593   3.551
 7121SOL    HW222263   0.511   6.728   3.461
 7122SOL     OW22264   1.660   0.598   5.861
 7122SOL    HW122265   1.628   0.692   5.852
 7122SOL    HW222266   1.747   0.587   5.813
 7123SOL     OW22267   1.095   5.116   4.174
 7123SOL    HW122268   1.164   5.189   4.172
 7123SOL    HW222269   1.013   5.146   4.124
 7124SOL     OW22270   0.653   2.546   1.520
 7124SOL    HW122271   0.662   2.625   1.581
 7124SOL    HW222272   0.581   2.486   1.554
 7125SOL     OW22273   0.918   0.956   0.926
 7125SOL    HW122274   0.863   0.878   0.897
 7125SOL    HW222275   0.917   1.026   0.855
 7126SOL     OW22276   4.052   5.297   0.881
 7126SOL    HW122277   4.101   5.375   0.842
 7126SOL    HW222278   4.093   5.273   0.969
 7127SOL     OW22279   3.195   5.687   6.834
 7127SOL    HW122280   3.177   5.625   6.910
 7127SOL    HW222281   3.108   5.723   6.800
 7128SOL     OW22282   3.283   4.196   6.692
 7128SOL    HW122283   3.382   4.184   6.703
 7128SOL    HW222284   3.239   4.186   6.781
 7129SOL     OW22285   2.174   1.359   0.899
 7129SOL    HW122286   2.143   1.302   0.824
 7129SOL    HW222287   2.122   1.337   0.982
 7130SOL     OW22288   3.559   6.307   4.226
 7130SOL    HW122289   3.650   6.269   4.243
 7130SOL    HW222290   3.492   6.233   4.221
 7131SOL     OW22291   3.338   1.381   1.624
 7131SOL    HW122292   3.326   1.480   1.614
 7131SOL    HW222293   3.254   1.341   1.660
 7132SOL     OW22294   4.291   4.318   0.382
 7132SOL    HW122295   4.256   4.310   0.476
 7132SOL    HW222296   4.215   4.308   0.318
 7133SOL     OW22297   3.866   4.874   5.229
 7133SOL    HW122298   3.768   4.861   5.212
 7133SOL    HW222299   3.909   4.913   5.147
 7134SOL     OW22300   4.927   6.833   1.486
 7134SOL    HW122301   4.856   6.848   1.555
 7134SOL    HW222302   5.016   6.856   1.525
 7135SOL     OW22303   2.488   2.633   3.300
 7135SOL    HW122304   2.449   2.672   3.383
 7135SOL    HW222305   2.559   2.567   3.323
 7136SOL     OW22306   3.405   1.546   0.437
 7136SOL    HW122307   3.395   1.613   0.512
 7136SOL    HW222308   3.364   1.459   0.465
 7137SOL     OW22309   2.840   2.032   0.361
 7137SOL    HW122310   2.930   2.074   0.367
 7137SOL    HW222311   2.770   2.100   0.382
 7138SOL     OW22312   2.188   1.649   0.844
 7138SOL    HW122313   2.211   1.553   0.860
 7138SOL    HW222314   2.270   1.700   0.819
 7139SOL     OW22315   4.908   4.882   2.399
 7139SOL    HW122316   4.973   4.806   2.410
 7139SOL    HW222317   4.836   4.874   2.467
 7140SOL     OW22318   6.248   3.974   0.712
 7140SOL    HW122319   6.251   3.969   0.613
 7140SOL    HW222320   6.169   4.028   0.741
 7141SOL     OW22321   3.712   0.072   1.174
 7141SOL    HW122322   3.795   0.118   1.207
 7141SOL    HW222323   3.633   0.104   1.227
 7142SOL     OW22324   4.083   6.790   3.843
 7142SOL    HW122325   4.076   6.881   3.885
 7142SOL    HW222326   4.067   6.797   3.745
 7143SOL     OW22327   2.407   3.631   6.880
 7143SOL    HW122328   2.358   3.621   6.794
 7143SOL    HW222329   2.406   3.544   6.930
 7144SOL     OW22330   1.020   1.241   2.922
 7144SOL    HW122331   0.971   1.275   3.002
 7144SOL    HW222332   0.975   1.158   2.888
 7145SOL     OW22333   4.082   0.528   6.495
 7145SOL    HW122334   4.102   0.430   6.502
 7145SOL    HW222335   4.034   0.545   6.409
 7146SOL     OW22336   1.583   0.778   6.230
 7146SOL    HW122337   1.665   0.721   6.221
 7146SOL    HW222338   1.503   0.719   6.235
 7147SOL     OW22339   6.815   6.247   3.332
 7147SOL    HW122340   6.838   6.233   3.236
 7147SOL    HW222341   6.894   6.288   3.379
 7148SOL     OW22342   5.858   5.949   1.706
 7148SOL    HW122343   5.931   6.011   1.735
 7148SOL    HW222344   5.826   5.895   1.784
 7149SOL     OW22345   0.563   5.358   3.687
 7149SOL    HW122346   0.552   5.451   3.723
 7149SOL    HW222347   0.480   5.331   3.639
 7150SOL     OW22348   3.483   3.233   0.245
 7150SOL    HW122349   3.452   3.224   0.150
 7150SOL    HW222350   3.411   3.201   0.307
 7151SOL     OW22351   2.640   6.825   1.008
 7151SOL    HW122352   2.605   6.779   0.927
 7151SOL    HW222353   2.729   6.866   0.988
 7152SOL     OW22354   6.604   0.347   5.707
 7152SOL    HW122355   6.666   0.269   5.716
 7152SOL    HW222356   6.532   0.326   5.641
 7153SOL     OW22357   3.470   5.055   2.007
 7153SOL    HW122358   3.531   5.134   2.017
 7153SOL    HW222359   3.508   4.992   1.940
 7154SOL     OW22360   4.444   6.522   2.893
 7154SOL    HW122361   4.467   6.523   2.796
 7154SOL    HW222362   4.351   6.488   2.905
 7155SOL     OW22363   3.127   3.362   1.623
 7155SOL    HW122364   3.217   3.327   1.597
 7155SOL    HW222365   3.112   3.348   1.721
 7156SOL     OW22366   5.382   3.460   2.140
 7156SOL    HW122367   5.305   3.447   2.078
 7156SOL    HW222368   5.397   3.377   2.193
 7157SOL     OW22369   6.727   5.114   1.933
 7157SOL    HW122370   6.636   5.144   1.906
 7157SOL    HW222371   6.721   5.062   2.018
 7158SOL     OW22372   0.759   6.905   3.364
 7158SOL    HW122373   0.759   6.989   3.310
 7158SOL    HW222374   0.723   6.924   3.456
 7159SOL     OW22375   1.420   4.891   4.232
 7159SOL    HW122376   1.453   4.816   4.174
 7159SOL    HW222377   1.386   4.854   4.318
 7160SOL     OW22378   6.195   6.172   2.916
 7160SOL    HW122379   6.147   6.251   2.879
 7160SOL    HW222380   6.288   6.169   2.880
 7161SOL     OW22381   3.317   3.870   2.606
 7161SOL    HW122382   3.257   3.827   2.673
 7161SOL    HW222383   3.344   3.960   2.639
 7162SOL     OW22384   1.110   5.211   6.210
 7162SOL    HW122385   1.013   5.234   6.199
 7162SOL    HW222386   1.132   5.207   6.307
 7163SOL     OW22387   2.945   0.626   2.150
 7163SOL    HW122388   2.862   0.682   2.141
 7163SOL    HW222389   3.022   0.685   2.173
 7164SOL     OW22390   2.385   0.263   4.896
 7164SOL    HW122391   2.337   0.303   4.974
 7164SOL    HW222392   2.474   0.307   4.885
 7165SOL     OW22393   5.683   6.436   1.896
 7165SOL    HW122394   5.681   6.338   1.910
 7165SOL    HW222395   5.606   6.463   1.838
 7166SOL     OW22396   5.324   2.176   0.152
 7166SOL    HW122397   5.225   2.163   0.152
 7166SOL    HW222398   5.354   2.210   0.063
 7167SOL     OW22399   4.859   3.335   5.082
 7167SOL    HW122400   4.908   3.312   5.166
 7167SOL    HW222401   4.844   3.433   5.078
 7168SOL     OW22402   2.897   2.255   3.282
 7168SOL    HW122403   2.878   2.220   3.374
 7168SOL    HW222404   2.901   2.180   3.217
 7169SOL     OW22405   6.927   4.485   5.140
 7169SOL    HW122406   6.874   4.537   5.073
 7169SOL    HW222407   6.903   4.514   5.232
 7170SOL     OW22408   5.011   7.017   2.409
 7170SOL    HW122409   4.983   6.928   2.371
 7170SOL    HW222410   5.010   7.012   2.509
 7171SOL     OW22411   5.957   3.844   0.303
 7171SOL    HW122412   6.003   3.789   0.233
 7171SOL    HW222413   5.858   3.832   0.296
 7172SOL     OW22414   1.930   0.734   5.067
 7172SOL    HW122415   1.972   0.686   4.991
 7172SOL    HW222416   1.968   0.700   5.153
 7173SOL     OW22417   5.966   4.752   6.279
 7173SOL    HW122418   5.916   4.666   6.272
 7173SOL    HW222419   6.046   4.739   6.338
 7174SOL     OW22420   6.839   4.669   0.672
 7174SOL    HW122421   6.839   4.729   0.592
 7174SOL    HW222422   6.914   4.695   0.733
 7175SOL     OW22423   6.732   3.357   5.785
 7175SOL    HW122424   6.654   3.335   5.843
 7175SOL    HW222425   6.816   3.327   5.830
 7176SOL     OW22426   6.998   1.894   4.052
 7176SOL    HW122427   0.058   1.852   4.034
 7176SOL    HW222428   6.931   1.822   4.070
 7177SOL     OW22429   1.453   4.812   5.578
 7177SOL    HW122430   1.418   4.803   5.672
 7177SOL    HW222431   1.389   4.769   5.515
 7178SOL     OW22432   0.387   1.649   6.363
 7178SOL    HW122433   0.294   1.613   6.351
 7178SOL    HW222434   0.452   1.574   6.365
 7179SOL     OW22435   1.169   3.509   4.896
 7179SOL    HW122436   1.116   3.582   4.852
 7179SOL    HW222437   1.206   3.543   4.982
 7180SOL     OW22438   2.211   4.148   0.356
 7180SOL    HW122439   2.279   4.200   0.407
 7180SOL    HW222440   2.257   4.089   0.290
 7181SOL     OW22441   2.436   0.321   0.403
 7181SOL    HW122442   2.374   0.296   0.477
 7181SOL    HW222443   2.449   0.242   0.342
 7182SOL     OW22444   0.481   3.701   3.679
 7182SOL    HW122445   0.432   3.757   3.746
 7182SOL    HW222446   0.574   3.684   3.712
 7183SOL     OW22447   1.799   5.416   1.901
 7183SOL    HW122448   1.864   5.492   1.913
 7183SOL    HW222449   1.727   5.423   1.969
 7184SOL     OW22450   0.045   1.021   3.614
 7184SOL    HW122451   6.996   0.960   3.608
 7184SOL    HW222452   0.092   1.006   3.701
 7185SOL     OW22453   5.802   1.382   5.510
 7185SOL    HW122454   5.758   1.428   5.588
 7185SOL    HW222455   5.814   1.285   5.530
 7186SOL     OW22456   6.541   1.725   1.202
 7186SOL    HW122457   6.491   1.713   1.116
 7186SOL    HW222458   6.537   1.821   1.230
 7187SOL     OW22459   2.950   4.058   5.250
 7187SOL    HW122460   2.985   4.030   5.339
 7187SOL    HW222461   2.850   4.048   5.249
 7188SOL     OW22462   4.571   5.743   0.299
 7188SOL    HW122463   4.543   5.834   0.328
 7188SOL    HW222464   4.500   5.702   0.242
 7189SOL     OW22465   6.527   2.721   5.986
 7189SOL    HW122466   6.619   2.758   5.971
 7189SOL    HW222467   6.467   2.752   5.912
 7190SOL     OW22468   6.215   5.924   1.281
 7190SOL    HW122469   6.175   6.015   1.289
 7190SOL    HW222470   6.282   5.923   1.207
 7191SOL     OW22471   0.839   4.521   2.839
 7191SOL    HW122472   0.754   4.571   2.859
 7191SOL    HW222473   0.844   4.504   2.740
 7192SOL     OW22474   1.657   4.315   6.623
 7192SOL    HW122475   1.672   4.243   6.691
 7192SOL    HW222476   1.706   4.291   6.539
 7193SOL     OW22477   2.182   2.196   2.281
 7193SOL    HW122478   2.153   2.286   2.249
 7193SOL    HW222479   2.282   2.191   2.279
 7194SOL     OW22480   2.083   2.907   6.749
 7194SOL    HW122481   2.175   2.914   6.709
 7194SOL    HW222482   2.037   2.995   6.741
 7195SOL     OW22483   6.981   4.376   0.128
 7195SOL    HW122484   6.970   4.470   0.161
 7195SOL    HW222485   7.003   4.378   0.030
 7196SOL     OW22486   2.628   3.884   1.658
 7196SOL    HW122487   2.591   3.969   1.693
 7196SOL    HW222488   2.558   3.813   1.661
 7197SOL     OW22489   1.419   3.538   5.975
 7197SOL    HW122490   1.416   3.529   6.075
 7197SOL    HW222491   1.392   3.631   5.949
 7198SOL     OW22492   0.429   1.115   0.379
 7198SOL    HW122493   0.503   1.157   0.432
 7198SOL    HW222494   0.368   1.186   0.344
 7199SOL     OW22495   1.052   0.145   2.804
 7199SOL    HW122496   1.125   0.212   2.820
 7199SOL    HW222497   1.070   0.063   2.858
 7200SOL     OW22498   2.510   2.779   6.713
 7200SOL    HW122499   2.486   2.690   6.752
 7200SOL    HW222500   2.600   2.807   6.748
 7201SOL     OW22501   0.979   6.071   4.376
 7201SOL    HW122502   1.000   6.088   4.280
 7201SOL    HW222503   1.061   6.089   4.432
 7202SOL     OW22504   4.600   6.563   6.694
 7202SOL    HW122505   4.645   6.610   6.770
 7202SOL    HW222506   4.515   6.522   6.726
 7203SOL     OW22507   0.035   1.058   1.472
 7203SOL    HW122508   0.006   1.094   1.384
 7203SOL    HW222509   0.062   1.133   1.533
 7204SOL     OW22510   0.353   1.314   6.551
 7204SOL    HW122511   0.447   1.315   6.519
 7204SOL    HW222512   0.298   1.378   6.497
 7205SOL     OW22513   1.408   4.338   5.716
 7205SOL    HW122514   1.459   4.333   5.631
 7205SOL    HW222515   1.471   4.324   5.793
 7206SOL     OW22516   1.344   1.156   2.100
 7206SOL    HW122517   1.349   1.114   2.191
 7206SOL    HW222518   1.411   1.114   2.040
 7207SOL     OW22519   3.804   0.458   4.491
 7207SOL    HW122520   3.783   0.553   4.468
 7207SOL    HW222521   3.721   0.413   4.525
 7208SOL     OW22522   4.732   0.100   3.514
 7208SOL    HW122523   4.713   0.042   3.434
 7208SOL    HW222524   4.709   0.049   3.597
 7209SOL     OW22525   2.296   3.148   1.531
 7209SOL    HW122526   2.281   3.138   1.433
 7209SOL    HW222527   2.280   3.243   1.558
 7210SOL     OW22528   4.216   1.858   3.612
 7210SOL    HW122529   4.121   1.829   3.620
 7210SOL    HW222530   4.261   1.806   3.540
 7211SOL     OW22531   2.271   6.080   5.117
 7211SOL    HW122532   2.299   6.118   5.029
 7211SOL    HW222533   2.172   6.071   5.120
 7212SOL     OW22534   0.398   5.966   5.348
 7212SOL    HW122535   0.458   5.986   5.425
 7212SOL    HW222536   0.370   6.051   5.304
 7213SOL     OW22537   3.455   6.507   0.146
 7213SOL    HW122538   3.521   6.434   0.130
 7213SOL    HW222539   3.386   6.506   0.074
 7214SOL     OW22540   6.395   0.338   5.541
 7214SOL    HW122541   6.446   0.409   5.491
 7214SOL    HW222542   6.302   0.369   5.558
 7215SOL     OW22543   6.084   3.194   4.248
 7215SOL    HW122544   6.081   3.163   4.153
 7215SOL    HW222545   6.129   3.125   4.305
 7216SOL     OW22546   2.917   0.184   2.226
 7216SOL    HW122547   2.921   0.136   2.313
 7216SOL    HW222548   2.838   0.246   2.226
 7217SOL     OW22549   1.707   3.643   3.472
 7217SOL    HW122550   1.741   3.570   3.413
 7217SOL    HW222551   1.701   3.728   3.420
 7218SOL     OW22552   6.572   2.926   4.572
 7218SOL    HW122553   6.614   2.956   4.658
 7218SOL    HW222554   6.584   2.827   4.562
 7219SOL     OW22555   3.385   1.032   2.770
 7219SOL    HW122556   3.309   1.096   2.776
 7219SOL    HW222557   3.403   1.010   2.674
 7220SOL     OW22558   6.645   4.752   3.835
 7220SOL    HW122559   6.673   4.820   3.903
 7220SOL    HW222560   6.590   4.797   3.765
 7221SOL     OW22561   3.978   6.065   5.103
 7221SOL    HW122562   3.933   6.135   5.160
 7221SOL    HW222563   3.931   6.058   5.015
 7222SOL     OW22564   6.327   6.591   3.671
 7222SOL    HW122565   6.396   6.528   3.637
 7222SOL    HW222566   6.237   6.548   3.664
 7223SOL     OW22567   3.135   1.412   0.835
 7223SOL    HW122568   3.116   1.314   0.840
 7223SOL    HW222569   3.058   1.459   0.791
 7224SOL     OW22570   5.157   2.558   4.128
 7224SOL    HW122571   5.172   2.656   4.135
 7224SOL    HW222572   5.060   2.537   4.139
 7225SOL     OW22573   1.401   6.470   0.416
 7225SOL    HW122574   1.312   6.516   0.421
 7225SOL    HW222575   1.431   6.446   0.508
 7226SOL     OW22576   5.667   6.785   1.042
 7226SOL    HW122577   5.662   6.809   1.139
 7226SOL    HW222578   5.722   6.702   1.031
 7227SOL     OW22579   2.660   2.170   1.262
 7227SOL    HW122580   2.718   2.243   1.298
 7227SOL    HW222581   2.717   2.094   1.231
 7228SOL     OW22582   1.405   1.412   2.178
 7228SOL    HW122583   1.471   1.406   2.253
 7228SOL    HW222584   1.383   1.320   2.146
 7229SOL     OW22585   1.319   6.348   5.667
 7229SOL    HW122586   1.227   6.346   5.627
 7229SOL    HW222587   1.329   6.429   5.724
 7230SOL     OW22588   3.326   5.632   4.094
 7230SOL    HW122589   3.261   5.708   4.091
 7230SOL    HW222590   3.288   5.554   4.045
 7231SOL     OW22591   3.647   0.465   6.638
 7231SOL    HW122592   3.711   0.458   6.561
 7231SOL    HW222593   3.592   0.381   6.642
 7232SOL     OW22594   4.763   5.814   2.767
 7232SOL    HW122595   4.674   5.832   2.808
 7232SOL    HW222596   4.782   5.716   2.768
 7233SOL     OW22597   1.451   1.421   4.182
 7233SOL    HW122598   1.547   1.415   4.156
 7233SOL    HW222599   1.443   1.414   4.282
 7234SOL     OW22600   5.834   3.084   2.909
 7234SOL    HW122601   5.916   3.087   2.852
 7234SOL    HW222602   5.811   3.176   2.940
 7235SOL     OW22603   6.714   4.323   1.985
 7235SOL    HW122604   6.761   4.346   1.900
 7235SOL    HW222605   6.713   4.223   1.996
 7236SOL     OW22606   2.613   1.883   2.581
 7236SOL    HW122607   2.600   1.807   2.645
 7236SOL    HW222608   2.539   1.949   2.591
 7237SOL     OW22609   3.939   0.341   5.068
 7237SOL    HW122610   3.895   0.261   5.027
 7237SOL    HW222611   3.978   0.398   4.996
 7238SOL     OW22612   4.423   2.090   6.354
 7238SOL    HW122613   4.427   2.096   6.255
 7238SOL    HW222614   4.512   2.059   6.389
 7239SOL     OW22615   0.927   2.266   1.446
 7239SOL    HW122616   0.962   2.174   1.463
 7239SOL    HW222617   0.865   2.264   1.368
 7240SOL     OW22618   0.114   1.139   5.881
 7240SOL    HW122619   0.086   1.051   5.919
 7240SOL    HW222620   0.045   1.208   5.904
 7241SOL     OW22621   2.741   0.141   1.411
 7241SOL    HW122622   2.727   0.164   1.315
 7241SOL    HW222623   2.659   0.097   1.447
 7242SOL     OW22624   6.236   5.938   6.668
 7242SOL    HW122625   6.207   6.020   6.619
 7242SOL    HW222626   6.334   5.943   6.686
 7243SOL     OW22627   6.432   4.324   6.512
 7243SOL    HW122628   6.370   4.286   6.444
 7243SOL    HW222629   6.482   4.249   6.556
 7244SOL     OW22630   6.891   0.530   1.706
 7244SOL    HW122631   6.838   0.486   1.633
 7244SOL    HW222632   6.829   0.578   1.768
 7245SOL     OW22633   1.525   2.925   4.974
 7245SOL    HW122634   1.534   2.898   4.878
 7245SOL    HW222635   1.478   2.852   5.024
 7246SOL     OW22636   1.393   0.439   3.381
 7246SOL    HW122637   1.410   0.368   3.312
 7246SOL    HW222638   1.392   0.397   3.472
 7247SOL     OW22639   2.530   1.381   5.129
 7247SOL    HW122640   2.435   1.394   5.156
 7247SOL    HW222641   2.572   1.469   5.107
 7248SOL     OW22642   3.185   1.462   2.953
 7248SOL    HW122643   3.104   1.516   2.931
 7248SOL    HW222644   3.256   1.522   2.989
 7249SOL     OW22645   4.983   5.009   2.168
 7249SOL    HW122646   4.970   5.108   2.169
 7249SOL    HW222647   4.955   4.970   2.256
 7250SOL     OW22648   5.553   6.221   5.632
 7250SOL    HW122649   5.596   6.179   5.712
 7250SOL    HW222650   5.563   6.320   5.637
 7251SOL     OW22651   0.250   6.664   5.747
 7251SOL    HW122652   0.161   6.677   5.703
 7251SOL    HW222653   0.310   6.611   5.687
 7252SOL     OW22654   3.663   3.527   2.206
 7252SOL    HW122655   3.713   3.440   2.205
 7252SOL    HW222656   3.565   3.509   2.213
 7253SOL     OW22657   2.368   5.945   0.034
 7253SOL    HW122658   2.385   5.998   0.117
 7253SOL    HW222659   2.279   5.902   0.040
 7254SOL     OW22660   5.380   5.131   4.527
 7254SOL    HW122661   5.351   5.191   4.602
 7254SOL    HW222662   5.479   5.139   4.515
 7255SOL     OW22663   3.763   3.905   0.311
 7255SOL    HW122664   3.845   3.854   0.338
 7255SOL    HW222665   3.775   4.002   0.335
 7256SOL     OW22666   3.210   5.846   5.040
 7256SOL    HW122667   3.129   5.877   5.090
 7256SOL    HW222668   3.269   5.925   5.020
 7257SOL     OW22669   6.851   1.898   3.711
 7257SOL    HW122670   6.913   1.851   3.773
 7257SOL    HW222671   6.757   1.883   3.739
 7258SOL     OW22672   4.780   2.159   2.729
 7258SOL    HW122673   4.794   2.200   2.820
 7258SOL    HW222674   4.830   2.213   2.661
 7259SOL     OW22675   1.957   3.677   1.634
 7259SOL    HW122676   1.860   3.655   1.631
 7259SOL    HW222677   2.000   3.650   1.548
 7260SOL     OW22678   5.224   1.623   1.634
 7260SOL    HW122679   5.309   1.569   1.635
 7260SOL    HW222680   5.244   1.714   1.597
 7261SOL     OW22681   1.494   4.028   1.672
 7261SOL    HW122682   1.490   4.065   1.765
 7261SOL    HW222683   1.461   4.096   1.607
 7262SOL     OW22684   5.343   2.686   6.447
 7262SOL    HW122685   5.295   2.719   6.528
 7262SOL    HW222686   5.280   2.632   6.391
 7263SOL     OW22687   0.794   6.356   6.785
 7263SOL    HW122688   0.702   6.381   6.814
 7263SOL    HW222689   0.792   6.265   6.743
 7264SOL     OW22690   4.743   1.790   6.763
 7264SOL    HW122691   4.801   1.716   6.796
 7264SOL    HW222692   4.753   1.870   6.822
 7265SOL     OW22693   5.428   5.044   6.390
 7265SOL    HW122694   5.512   5.004   6.355
 7265SOL    HW222695   5.391   4.985   6.462
 7266SOL     OW22696   5.576   0.450   2.409
 7266SOL    HW122697   5.535   0.366   2.445
 7266SOL    HW222698   5.564   0.524   2.474
 7267SOL     OW22699   6.242   6.155   5.133
 7267SOL    HW122700   6.263   6.136   5.229
 7267SOL    HW222701   6.319   6.204   5.092
 7268SOL     OW22702   7.016   5.648   3.924
 7268SOL    HW122703   6.919   5.666   3.941
 7268SOL    HW222704   0.018   5.708   3.851
 7269SOL     OW22705   1.155   6.033   5.894
 7269SOL    HW122706   1.172   5.956   5.832
 7269SOL    HW222707   1.238   6.053   5.946
 7270SOL     OW22708   1.052   2.968   4.758
 7270SOL    HW122709   0.972   3.018   4.795
 7270SOL    HW222710   1.058   2.878   4.801
 7271SOL     OW22711   1.325   5.307   4.740
 7271SOL    HW122712   1.255   5.260   4.686
 7271SOL    HW222713   1.342   5.256   4.824
 7272SOL     OW22714   6.128   5.491   2.749
 7272SOL    HW122715   6.204   5.505   2.812
 7272SOL    HW222716   6.046   5.467   2.802
 7273SOL     OW22717   6.333   3.976   1.369
 7273SOL    HW122718   6.334   4.069   1.408
 7273SOL    HW222719   6.241   3.938   1.379
 7274SOL     OW22720   0.378   5.183   6.222
 7274SOL    HW122721   0.363   5.140   6.133
 7274SOL    HW222722   0.369   5.282   6.213
 7275SOL     OW22723   0.645   6.215   2.683
 7275SOL    HW122724   0.688   6.126   2.670
 7275SOL    HW222725   0.574   6.227   2.614
 7276SOL     OW22726   5.122   0.949   3.131
 7276SOL    HW122727   5.027   0.977   3.119
 7276SOL    HW222728   5.167   1.010   3.196
 7277SOL     OW22729   5.228   0.948   4.124
 7277SOL    HW122730   5.233   0.866   4.182
 7277SOL    HW222731   5.180   1.021   4.173
 7278SOL     OW22732   3.887   2.299   1.704
 7278SOL    HW122733   3.948   2.256   1.771
 7278SOL    HW222734   3.807   2.336   1.751
 7279SOL     OW22735   3.995   4.921   5.514
 7279SOL    HW122736   4.028   4.978   5.439
 7279SOL    HW222737   3.905   4.885   5.492
 7280SOL     OW22738   0.201   1.783   3.971
 7280SOL    HW122739   0.213   1.859   3.907
 7280SOL    HW222740   0.285   1.730   3.975
 7281SOL     OW22741   2.601   1.413   6.628
 7281SOL    HW122742   2.658   1.484   6.670
 7281SOL    HW222743   2.658   1.336   6.600
 7282SOL     OW22744   6.164   5.148   2.867
 7282SOL    HW122745   6.162   5.136   2.966
 7282SOL    HW222746   6.234   5.215   2.843
 7283SOL     OW22747   5.040   0.960   2.536
 7283SOL    HW122748   5.023   1.036   2.474
 7283SOL    HW222749   5.036   0.993   2.631
 7284SOL     OW22750   0.151   2.533   6.216
 7284SOL    HW122751   0.227   2.598   6.222
 7284SOL    HW222752   0.065   2.583   6.207
 7285SOL     OW22753   5.326   2.949   2.297
 7285SOL    HW122754   5.373   2.911   2.218
 7285SOL    HW222755   5.366   2.912   2.381
 7286SOL     OW22756   2.489   1.178   0.624
 7286SOL    HW122757   2.564   1.135   0.574
 7286SOL    HW222758   2.484   1.275   0.600
 7287SOL     OW22759   0.550   2.375   5.928
 7287SOL    HW122760   0.589   2.285   5.909
 7287SOL    HW222761   0.590   2.442   5.866
 7288SOL     OW22762   2.087   1.170   0.712
 7288SOL    HW122763   2.034   1.090   0.739
 7288SOL    HW222764   2.116   1.160   0.617
 7289SOL     OW22765   5.229   2.299   4.172
 7289SOL    HW122766   5.178   2.382   4.152
 7289SOL    HW222767   5.273   2.307   4.261
 7290SOL     OW22768   3.517   0.931   5.214
 7290SOL    HW122769   3.445   0.995   5.241
 7290SOL    HW222770   3.475   0.852   5.169
 7291SOL     OW22771   2.160   6.420   0.778
 7291SOL    HW122772   2.070   6.386   0.807
 7291SOL    HW222773   2.157   6.444   0.681
 7292SOL     OW22774   3.629   1.158   4.148
 7292SOL    HW122775   3.587   1.090   4.087
 7292SOL    HW222776   3.606   1.250   4.116
 7293SOL     OW22777   1.259   2.151   4.570
 7293SOL    HW122778   1.339   2.103   4.608
 7293SOL    HW222779   1.178   2.128   4.624
 7294SOL     OW22780   2.627   5.201   6.772
 7294SOL    HW122781   2.571   5.255   6.835
 7294SOL    HW222782   2.680   5.263   6.713
 7295SOL     OW22783   6.391   2.733   1.406
 7295SOL    HW122784   6.298   2.697   1.409
 7295SOL    HW222785   6.387   2.832   1.395
 7296SOL     OW22786   3.419   6.029   2.467
 7296SOL    HW122787   3.395   5.964   2.395
 7296SOL    HW222788   3.336   6.074   2.500
 7297SOL     OW22789   3.900   0.237   1.600
 7297SOL    HW122790   3.887   0.254   1.503
 7297SOL    HW222791   3.839   0.163   1.630
 7298SOL     OW22792   5.234   5.478   5.554
 7298SOL    HW122793   5.143   5.456   5.518
 7298SOL    HW222794   5.247   5.431   5.641
 7299SOL     OW22795   1.060   2.236   0.722
 7299SOL    HW122796   0.962   2.246   0.734
 7299SOL    HW222797   1.094   2.163   0.782
 7300SOL     OW22798   0.817   6.621   3.657
 7300SOL    HW122799   0.766   6.555   3.713
 7300SOL    HW222800   0.764   6.642   3.575
 7301SOL     OW22801   5.881   1.531   4.151
 7301SOL    HW122802   5.974   1.516   4.186
 7301SOL    HW222803   5.875   1.622   4.111
 7302SOL     OW22804   0.880   2.247   5.437
 7302SOL    HW122805   0.870   2.285   5.529
 7302SOL    HW222806   0.804   2.184   5.419
 7303SOL     OW22807   3.822   0.427   0.218
 7303SOL    HW122808   3.744   0.408   0.159
 7303SOL    HW222809   3.843   0.525   0.216
 7304SOL     OW22810   3.202   5.752   1.623
 7304SOL    HW122811   3.119   5.786   1.578
 7304SOL    HW222812   3.184   5.740   1.720
 7305SOL     OW22813   4.419   0.948   0.575
 7305SOL    HW122814   4.503   0.997   0.550
 7305SOL    HW222815   4.443   0.861   0.618
 7306SOL     OW22816   5.028   1.372   0.690
 7306SOL    HW122817   4.968   1.322   0.753
 7306SOL    HW222818   5.035   1.322   0.603
 7307SOL     OW22819   2.669   6.405   2.362
 7307SOL    HW122820   2.757   6.387   2.406
 7307SOL    HW222821   2.684   6.450   2.274
 7308SOL     OW22822   6.873   3.030   5.754
 7308SOL    HW122823   6.954   3.087   5.769
 7308SOL    HW222824   6.844   3.038   5.659
 7309SOL     OW22825   4.209   5.399   1.344
 7309SOL    HW122826   4.241   5.338   1.272
 7309SOL    HW222827   4.110   5.388   1.356
 7310SOL     OW22828   2.354   3.766   1.206
 7310SOL    HW122829   2.376   3.756   1.109
 7310SOL    HW222830   2.385   3.855   1.238
 7311SOL     OW22831   2.269   1.759   1.420
 7311SOL    HW122832   2.321   1.761   1.506
 7311SOL    HW222833   2.237   1.851   1.398
 7312SOL     OW22834   0.986   3.678   4.823
 7312SOL    HW122835   0.896   3.657   4.783
 7312SOL    HW222836   0.976   3.751   4.891
 7313SOL     OW22837   2.191   0.698   0.228
 7313SOL    HW122838   2.118   0.766   0.243
 7313SOL    HW222839   2.273   0.744   0.194
 7314SOL     OW22840   0.179   5.453   5.622
 7314SOL    HW122841   0.171   5.548   5.590
 7314SOL    HW222842   0.274   5.423   5.612
 7315SOL     OW22843   6.043   0.057   2.127
 7315SOL    HW122844   5.947   0.028   2.125
 7315SOL    HW222845   6.087   0.028   2.042
 7316SOL     OW22846   3.228   3.827   6.859
 7316SOL    HW122847   3.324   3.799   6.866
 7316SOL    HW222848   3.220   3.903   6.793
 7317SOL     OW22849   5.306   1.168   2.806
 7317SOL    HW122850   5.367   1.233   2.852
 7317SOL    HW222851   5.269   1.210   2.723
 7318SOL     OW22852   1.749   0.736   1.963
 7318SOL    HW122853   1.655   0.769   1.976
 7318SOL    HW222854   1.754   0.639   1.988
 7319SOL     OW22855   0.344   3.291   6.456
 7319SOL    HW122856   0.423   3.241   6.421
 7319SOL    HW222857   0.301   3.238   6.529
 7320SOL     OW22858   0.485   3.840   2.758
 7320SOL    HW122859   0.439   3.907   2.816
 7320SOL    HW222860   0.571   3.878   2.724
 7321SOL     OW22861   1.901   0.499   5.763
 7321SOL    HW122862   1.867   0.406   5.774
 7321SOL    HW222863   1.976   0.515   5.826
 7322SOL     OW22864   6.735   3.078   3.519
 7322SOL    HW122865   6.772   3.159   3.564
 7322SOL    HW222866   6.778   2.996   3.557
 7323SOL     OW22867   1.432   2.655   1.992
 7323SOL    HW122868   1.487   2.583   2.034
 7323SOL    HW222869   1.371   2.694   2.060
 7324SOL     OW22870   4.320   6.030   2.092
 7324SOL    HW122871   4.313   5.993   2.000
 7324SOL    HW222872   4.252   5.986   2.151
 7325SOL     OW22873   3.258   0.108   0.342
 7325SOL    HW122874   3.196   0.031   0.361
 7325SOL    HW222875   3.217   0.193   0.376
 7326SOL     OW22876   2.608   6.135   6.579
 7326SOL    HW122877   2.568   6.158   6.667
 7326SOL    HW222878   2.544   6.157   6.506
 7327SOL     OW22879   6.477   1.605   6.084
 7327SOL    HW122880   6.453   1.558   6.169
 7327SOL    HW222881   6.451   1.701   6.089
 7328SOL     OW22882   2.944   1.130   5.574
 7328SOL    HW122883   2.932   1.119   5.673
 7328SOL    HW222884   2.871   1.081   5.527
 7329SOL     OW22885   6.315   4.230   1.521
 7329SOL    HW122886   6.225   4.266   1.543
 7329SOL    HW222887   6.382   4.264   1.587
 7330SOL     OW22888   2.588   2.456   6.716
 7330SOL    HW122889   2.507   2.409   6.751
 7330SOL    HW222890   2.615   2.416   6.628
 7331SOL     OW22891   5.106   6.594   1.667
 7331SOL    HW122892   5.134   6.617   1.760
 7331SOL    HW222893   5.176   6.624   1.603
 7332SOL     OW22894   2.828   5.830   0.368
 7332SOL    HW122895   2.906   5.887   0.393
 7332SOL    HW222896   2.755   5.888   0.332
 7333SOL     OW22897   6.984   2.802   2.027
 7333SOL    HW122898   0.053   2.798   2.018
 7333SOL    HW222899   6.950   2.888   1.990
 7334SOL     OW22900   2.863   5.578   6.802
 7334SOL    HW122901   2.931   5.554   6.872
 7334SOL    HW222902   2.900   5.649   6.742
 7335SOL     OW22903   2.111   2.204   3.201
 7335SOL    HW122904   2.204   2.238   3.189
 7335SOL    HW222905   2.061   2.263   3.264
 7336SOL     OW22906   1.937   6.554   2.981
 7336SOL    HW122907   2.028   6.522   2.952
 7336SOL    HW222908   1.946   6.641   3.029
 7337SOL     OW22909   0.610   3.204   1.284
 7337SOL    HW122910   0.690   3.145   1.274
 7337SOL    HW222911   0.561   3.179   1.367
 7338SOL     OW22912   5.694   1.819   1.443
 7338SOL    HW122913   5.778   1.781   1.405
 7338SOL    HW222914   5.668   1.902   1.393
 7339SOL     OW22915   6.109   0.101   3.799
 7339SOL    HW122916   6.152   0.116   3.710
 7339SOL    HW222917   6.058   0.183   3.826
 7340SOL     OW22918   3.156   1.678   0.425
 7340SOL    HW122919   3.070   1.628   0.433
 7340SOL    HW222920   3.200   1.653   0.339
 7341SOL     OW22921   0.901   4.035   6.339
 7341SOL    HW122922   0.939   4.104   6.400
 7341SOL    HW222923   0.828   4.075   6.284
 7342SOL     OW22924   0.346   1.688   0.423
 7342SOL    HW122925   0.309   1.763   0.367
 7342SOL    HW222926   0.299   1.687   0.511
 7343SOL     OW22927   5.969   3.543   1.219
 7343SOL    HW122928   6.021   3.629   1.220
 7343SOL    HW222929   5.992   3.490   1.300
 7344SOL     OW22930   1.430   1.304   6.077
 7344SOL    HW122931   1.510   1.244   6.069
 7344SOL    HW222932   1.367   1.266   6.144
 7345SOL     OW22933   4.101   4.772   5.275
 7345SOL    HW122934   4.014   4.820   5.270
 7345SOL    HW222935   4.086   4.675   5.295
 7346SOL     OW22936   4.211   4.692   2.110
 7346SOL    HW122937   4.217   4.662   2.205
 7346SOL    HW222938   4.134   4.755   2.099
 7347SOL     OW22939   0.715   2.182   0.537
 7347SOL    HW122940   0.737   2.195   0.440
 7347SOL    HW222941   0.636   2.122   0.546
 7348SOL     OW22942   1.871   3.725   4.411
 7348SOL    HW122943   1.841   3.817   4.384
 7348SOL    HW222944   1.971   3.721   4.411
 7349SOL     OW22945   4.900   1.453   1.359
 7349SOL    HW122946   4.952   1.469   1.274
 7349SOL    HW222947   4.871   1.357   1.362
 7350SOL     OW22948   2.333   2.844   5.745
 7350SOL    HW122949   2.252   2.787   5.761
 7350SOL    HW222950   2.308   2.922   5.688
 7351SOL     OW22951   5.623   5.915   4.900
 7351SOL    HW122952   5.566   5.888   4.978
 7351SOL    HW222953   5.566   5.919   4.818
 7352SOL     OW22954   2.199   1.111   3.232
 7352SOL    HW122955   2.136   1.119   3.309
 7352SOL    HW222956   2.190   1.192   3.173
 7353SOL     OW22957   0.811   6.646   6.114
 7353SOL    HW122958   0.719   6.684   6.115
 7353SOL    HW222959   0.844   6.639   6.020
 7354SOL     OW22960   0.891   2.183   5.027
 7354SOL    HW122961   0.871   2.220   4.936
 7354SOL    HW222962   0.851   2.242   5.097
 7355SOL     OW22963   1.241   0.648   1.168
 7355SOL    HW122964   1.263   0.669   1.073
 7355SOL    HW222965   1.323   0.662   1.224
 7356SOL     OW22966   4.021   3.813   6.181
 7356SOL    HW122967   3.952   3.883   6.202
 7356SOL    HW222968   4.035   3.755   6.261
 7357SOL     OW22969   3.486   0.148   1.922
 7357SOL    HW122970   3.489   0.096   1.836
 7357SOL    HW222971   3.486   0.246   1.901
 7358SOL     OW22972   6.407   3.329   2.529
 7358SOL    HW122973   6.324   3.370   2.491
 7358SOL    HW222974   6.480   3.397   2.531
 7359SOL     OW22975   4.000   2.195   5.720
 7359SOL    HW122976   4.006   2.132   5.797
 7359SOL    HW222977   3.916   2.248   5.727
 7360SOL     OW22978   2.962   3.431   5.843
 7360SOL    HW122979   2.971   3.334   5.823
 7360SOL    HW222980   3.037   3.481   5.800
 7361SOL     OW22981   4.320   0.540   2.054
 7361SOL    HW122982   4.368   0.569   1.971
 7361SOL    HW222983   4.385   0.503   2.119
 7362SOL     OW22984   1.520   4.994   6.091
 7362SOL    HW122985   1.559   5.085   6.075
 7362SOL    HW222986   1.550   4.961   6.181
 7363SOL     OW22987   4.664   1.802   1.484
 7363SOL    HW122988   4.740   1.746   1.517
 7363SOL    HW222989   4.578   1.767   1.521
 7364SOL     OW22990   4.633   0.465   1.472
 7364SOL    HW122991   4.603   0.511   1.388
 7364SOL    HW222992   4.620   0.526   1.550
 7365SOL     OW22993   0.022   5.858   1.872
 7365SOL    HW122994   0.025   5.765   1.833
 7365SOL    HW222995   7.005   5.919   1.808
 7366SOL     OW22996   2.807   5.882   0.053
 7366SOL    HW122997   2.732   5.897   0.119
 7366SOL    HW222998   2.826   5.784   0.047
 7367SOL     OW22999   5.357   2.579   1.277
 7367SOL    HW123000   5.425   2.604   1.347
 7367SOL    HW223001   5.286   2.521   1.319
 7368SOL     OW23002   3.668   2.893   2.569
 7368SOL    HW123003   3.699   2.940   2.651
 7368SOL    HW223004   3.578   2.928   2.542
 7369SOL     OW23005   3.648   2.060   0.565
 7369SOL    HW123006   3.724   2.088   0.506
 7369SOL    HW223007   3.576   2.128   0.562
 7370SOL     OW23008   2.764   0.968   4.570
 7370SOL    HW123009   2.724   0.983   4.479
 7370SOL    HW223010   2.701   1.001   4.640
 7371SOL     OW23011   2.597   6.458   3.687
 7371SOL    HW123012   2.513   6.488   3.641
 7371SOL    HW223013   2.583   6.459   3.786
 7372SOL     OW23014   5.136   1.159   4.311
 7372SOL    HW123015   5.148   1.092   4.385
 7372SOL    HW223016   5.057   1.217   4.332
 7373SOL     OW23017   6.289   1.839   3.789
 7373SOL    HW123018   6.230   1.826   3.709
 7373SOL    HW223019   6.297   1.753   3.839
 7374SOL     OW23020   2.985   1.801   4.988
 7374SOL    HW123021   3.027   1.887   4.960
 7374SOL    HW223022   2.892   1.796   4.951
 7375SOL     OW23023   2.642   2.286   3.087
 7375SOL    HW123024   2.689   2.283   2.999
 7375SOL    HW223025   2.706   2.316   3.158
 7376SOL     OW23026   2.123   2.183   0.407
 7376SOL    HW123027   2.130   2.094   0.363
 7376SOL    HW223028   2.027   2.212   0.409
 7377SOL     OW23029   5.378   4.694   0.540
 7377SOL    HW123030   5.329   4.751   0.473
 7377SOL    HW223031   5.360   4.729   0.632
 7378SOL     OW23032   0.519   0.764   5.841
 7378SOL    HW123033   0.612   0.764   5.805
 7378SOL    HW223034   0.460   0.711   5.781
 7379SOL     OW23035   3.098   2.013   2.662
 7379SOL    HW123036   3.001   2.033   2.671
 7379SOL    HW223037   3.111   1.943   2.591
 7380SOL     OW23038   6.999   4.441   4.002
 7380SOL    HW123039   6.989   4.350   4.043
 7380SOL    HW223040   0.030   4.436   3.923
 7381SOL     OW23041   3.974   3.226   0.824
 7381SOL    HW123042   3.898   3.161   0.819
 7381SOL    HW223043   4.049   3.185   0.876
 7382SOL     OW23044   0.784   0.103   5.320
 7382SOL    HW123045   0.855   0.131   5.256
 7382SOL    HW223046   0.754   0.181   5.375
 7383SOL     OW23047   2.670   6.373   1.023
 7383SOL    HW123048   2.617   6.290   1.038
 7383SOL    HW223049   2.685   6.419   1.111
 7384SOL     OW23050   6.078   6.379   2.809
 7384SOL    HW123051   6.104   6.475   2.823
 7384SOL    HW223052   5.984   6.375   2.777
 7385SOL     OW23053   3.400   5.784   2.751
 7385SOL    HW123054   3.348   5.842   2.814
 7385SOL    HW223055   3.403   5.826   2.661
 7386SOL     OW23056   0.316   2.773   0.007
 7386SOL    HW123057   0.240   2.771   0.072
 7386SOL    HW223058   0.305   2.851   6.975
 7387SOL     OW23059   6.035   6.222   5.562
 7387SOL    HW123060   5.945   6.189   5.532
 7387SOL    HW223061   6.066   6.168   5.641
 7388SOL     OW23062   0.952   5.821   2.270
 7388SOL    HW123063   0.930   5.882   2.346
 7388SOL    HW223064   0.973   5.875   2.189
 7389SOL     OW23065   5.790   4.137   5.992
 7389SOL    HW123066   5.880   4.126   5.950
 7389SOL    HW223067   5.736   4.204   5.941
 7390SOL     OW23068   1.836   2.333   1.029
 7390SOL    HW123069   1.818   2.270   0.953
 7390SOL    HW223070   1.840   2.426   0.994
 7391SOL     OW23071   4.047   3.416   3.602
 7391SOL    HW123072   4.076   3.363   3.681
 7391SOL    HW223073   4.038   3.355   3.523
 7392SOL     OW23074   2.808   6.023   6.839
 7392SOL    HW123075   2.808   5.963   6.919
 7392SOL    HW223076   2.776   6.114   6.866
 7393SOL     OW23077   6.319   4.789   2.587
 7393SOL    HW123078   6.244   4.796   2.653
 7393SOL    HW223079   6.401   4.755   2.632
 7394SOL     OW23080   2.113   2.645   5.767
 7394SOL    HW123081   2.029   2.591   5.762
 7394SOL    HW223082   2.179   2.598   5.827
 7395SOL     OW23083   1.529   3.184   1.353
 7395SOL    HW123084   1.437   3.224   1.360
 7395SOL    HW223085   1.593   3.241   1.405
 7396SOL     OW23086   1.703   6.431   1.406
 7396SOL    HW123087   1.698   6.509   1.469
 7396SOL    HW223088   1.743   6.461   1.320
 7397SOL     OW23089   4.282   5.458   4.562
 7397SOL    HW123090   4.379   5.437   4.568
 7397SOL    HW223091   4.269   5.558   4.565
 7398SOL     OW23092   1.399   4.546   3.531
 7398SOL    HW123093   1.363   4.542   3.624
 7398SOL    HW223094   1.375   4.462   3.482
 7399SOL     OW23095   0.762   3.103   4.306
 7399SOL    HW123096   0.748   3.136   4.400
 7399SOL    HW223097   0.726   3.010   4.298
 7400SOL     OW23098   4.418   3.021   6.035
 7400SOL    HW123099   4.453   3.114   6.019
 7400SOL    HW223100   4.374   2.987   5.953
 7401SOL     OW23101   1.343   2.720   3.846
 7401SOL    HW123102   1.351   2.786   3.771
 7401SOL    HW223103   1.262   2.664   3.832
 7402SOL     OW23104   3.019   5.494   6.319
 7402SOL    HW123105   3.075   5.442   6.255
 7402SOL    HW223106   3.028   5.455   6.411
 7403SOL     OW23107   1.898   3.658   2.076
 7403SOL    HW123108   1.975   3.708   2.036
 7403SOL    HW223109   1.926   3.564   2.095
 7404SOL     OW23110   2.315   4.898   1.737
 7404SOL    HW123111   2.315   4.798   1.733
 7404SOL    HW223112   2.276   4.928   1.824
 7405SOL     OW23113   3.803   4.923   4.943
 7405SOL    HW123114   3.722   4.939   4.886
 7405SOL    HW223115   3.880   4.898   4.884
 7406SOL     OW23116   0.252   2.674   3.452
 7406SOL    HW123117   0.295   2.639   3.368
 7406SOL    HW223118   0.154   2.656   3.448
 7407SOL     OW23119   1.019   6.720   5.355
 7407SOL    HW123120   1.057   6.699   5.264
 7407SOL    HW223121   0.937   6.776   5.345
 7408SOL     OW23122   3.210   4.153   6.963
 7408SOL    HW123123   3.283   4.107   7.014
 7408SOL    HW223124   3.180   4.234   7.013
 7409SOL     OW23125   5.117   3.174   0.149
 7409SOL    HW123126   5.131   3.144   0.244
 7409SOL    HW223127   5.040   3.125   0.110
 7410SOL     OW23128   0.320   0.503   0.572
 7410SOL    HW123129   0.251   0.549   0.628
 7410SOL    HW223130   0.348   0.562   0.497
 7411SOL     OW23131   1.831   0.483   6.624
 7411SOL    HW123132   1.780   0.523   6.700
 7411SOL    HW223133   1.866   0.556   6.565
 7412SOL     OW23134   4.679   0.516   1.999
 7412SOL    HW123135   4.678   0.429   1.950
 7412SOL    HW223136   4.632   0.586   1.944
 7413SOL     OW23137   4.818   5.358   3.845
 7413SOL    HW123138   4.828   5.453   3.875
 7413SOL    HW223139   4.760   5.309   3.909
 7414SOL     OW23140   0.839   1.324   3.122
 7414SOL    HW123141   0.870   1.414   3.151
 7414SOL    HW223142   0.746   1.308   3.157
 7415SOL     OW23143   1.488   4.586   4.551
 7415SOL    HW123144   1.493   4.499   4.502
 7415SOL    HW223145   1.576   4.607   4.592
 7416SOL     OW23146   2.098   1.225   2.564
 7416SOL    HW123147   2.169   1.203   2.631
 7416SOL    HW223148   2.062   1.316   2.583
 7417SOL     OW23149   2.241   2.018   1.371
 7417SOL    HW123150   2.314   2.085   1.357
 7417SOL    HW223151   2.155   2.054   1.333
 7418SOL     OW23152   2.003   5.928   0.399
 7418SOL    HW123153   2.024   6.023   0.424
 7418SOL    HW223154   1.974   5.878   0.481
 7419SOL     OW23155   6.999   3.541   4.499
 7419SOL    HW123156   7.016   3.573   4.592
 7419SOL    HW223157   0.055   3.520   4.454
 7420SOL     OW23158   0.470   6.150   1.713
 7420SOL    HW123159   0.477   6.228   1.774
 7420SOL    HW223160   0.513   6.070   1.755
 7421SOL     OW23161   4.189   3.903   1.144
 7421SOL    HW123162   4.128   3.823   1.135
 7421SOL    HW223163   4.279   3.881   1.107
 7422SOL     OW23164   0.169   4.122   2.018
 7422SOL    HW123165   0.094   4.188   2.007
 7422SOL    HW223166   0.256   4.166   1.994
 7423SOL     OW23167   6.420   3.103   5.699
 7423SOL    HW123168   6.416   3.190   5.749
 7423SOL    HW223169   6.404   3.121   5.601
 7424SOL     OW23170   0.063   0.555   5.444
 7424SOL    HW123171   0.089   0.638   5.493
 7424SOL    HW223172   7.012   0.514   5.487
 7425SOL     OW23173   4.312   6.303   0.322
 7425SOL    HW123174   4.381   6.255   0.268
 7425SOL    HW223175   4.316   6.401   0.301
 7426SOL     OW23176   3.263   1.616   5.399
 7426SOL    HW123177   3.257   1.684   5.325
 7426SOL    HW223178   3.174   1.609   5.445
 7427SOL     OW23179   5.124   0.685   3.217
 7427SOL    HW123180   5.109   0.769   3.164
 7427SOL    HW223181   5.221   0.678   3.242
 7428SOL     OW23182   4.572   1.767   5.187
 7428SOL    HW123183   4.637   1.835   5.154
 7428SOL    HW223184   4.538   1.793   5.277
 7429SOL     OW23185   0.179   6.352   3.766
 7429SOL    HW123186   0.274   6.322   3.769
 7429SOL    HW223187   0.169   6.424   3.697
 7430SOL     OW23188   1.427   3.526   0.745
 7430SOL    HW123189   1.331   3.496   0.740
 7430SOL    HW223190   1.440   3.581   0.828
 7431SOL     OW23191   1.022   2.564   2.616
 7431SOL    HW123192   1.081   2.500   2.666
 7431SOL    HW223193   0.955   2.604   2.678
 7432SOL     OW23194   0.952   0.479   3.107
 7432SOL    HW123195   0.864   0.441   3.078
 7432SOL    HW223196   0.982   0.436   3.192
 7433SOL     OW23197   4.334   5.649   6.171
 7433SOL    HW123198   4.426   5.639   6.210
 7433SOL    HW223199   4.266   5.626   6.240
 7434SOL     OW23200   4.879   5.000   4.954
 7434SOL    HW123201   4.901   4.920   4.899
 7434SOL    HW223202   4.936   5.077   4.926
 7435SOL     OW23203   4.306   6.023   1.802
 7435SOL    HW123204   4.328   6.114   1.768
 7435SOL    HW223205   4.210   6.002   1.782
 7436SOL     OW23206   4.087   4.322   6.536
 7436SOL    HW123207   4.155   4.342   6.464
 7436SOL    HW223208   4.114   4.239   6.585
 7437SOL     OW23209   2.165   5.751   0.054
 7437SOL    HW123210   2.116   5.697   7.015
 7437SOL    HW223211   2.099   5.798   0.112
 7438SOL     OW23212   1.090   6.139   0.500
 7438SOL    HW123213   1.097   6.213   0.568
 7438SOL    HW223214   1.140   6.164   0.418
 7439SOL     OW23215   1.759   6.668   6.086
 7439SOL    HW123216   1.662   6.673   6.110
 7439SOL    HW223217   1.814   6.709   6.159
 7440SOL     OW23218   0.137   3.063   3.907
 7440SOL    HW123219   0.215   3.006   3.878
 7440SOL    HW223220   0.098   3.025   3.991
 7441SOL     OW23221   5.160   7.009   4.189
 7441SOL    HW123222   5.193   6.942   4.122
 7441SOL    HW223223   5.128   0.061   4.142
 7442SOL     OW23224   6.389   1.431   6.293
 7442SOL    HW123225   6.398   1.333   6.314
 7442SOL    HW223226   6.292   1.457   6.298
 7443SOL     OW23227   6.210   6.468   1.642
 7443SOL    HW123228   6.196   6.504   1.550
 7443SOL    HW223229   6.140   6.401   1.663
 7444SOL     OW23230   5.679   2.589   6.713
 7444SOL    HW123231   5.757   2.565   6.770
 7444SOL    HW223232   5.620   2.510   6.701
 7445SOL     OW23233   3.831   0.535   1.157
 7445SOL    HW123234   3.881   0.467   1.103
 7445SOL    HW223235   3.887   0.564   1.234
 7446SOL     OW23236   5.660   3.025   0.651
 7446SOL    HW123237   5.595   2.974   0.707
 7446SOL    HW223238   5.649   2.999   0.555
 7447SOL     OW23239   6.604   3.774   6.985
 7447SOL    HW123240   6.515   3.817   6.998
 7447SOL    HW223241   6.630   3.778   6.888
 7448SOL     OW23242   6.538   6.905   5.202
 7448SOL    HW123243   6.552   6.920   5.104
 7448SOL    HW223244   6.447   6.939   5.227
 7449SOL     OW23245   0.459   4.285   1.981
 7449SOL    HW123246   0.498   4.271   1.890
 7449SOL    HW223247   0.533   4.296   2.047
 7450SOL     OW23248   5.575   2.889   4.994
 7450SOL    HW123249   5.527   2.884   4.906
 7450SOL    HW223250   5.648   2.821   4.996
 7451SOL     OW23251   6.529   5.629   2.740
 7451SOL    HW123252   6.610   5.629   2.681
 7451SOL    HW223253   6.448   5.608   2.685
 7452SOL     OW23254   5.938   6.052   4.249
 7452SOL    HW123255   5.888   6.135   4.225
 7452SOL    HW223256   5.915   5.979   4.184
 7453SOL     OW23257   5.684   5.193   4.876
 7453SOL    HW123258   5.599   5.141   4.874
 7453SOL    HW223259   5.665   5.289   4.858
 7454SOL     OW23260   1.527   2.066   1.049
 7454SOL    HW123261   1.588   2.101   0.978
 7454SOL    HW223262   1.474   2.141   1.089
 7455SOL     OW23263   6.842   2.590   1.282
 7455SOL    HW123264   6.751   2.613   1.316
 7455SOL    HW223265   6.863   2.495   1.304
 7456SOL     OW23266   1.116   0.739   4.713
 7456SOL    HW123267   1.034   0.703   4.757
 7456SOL    HW223268   1.125   0.699   4.622
 7457SOL     OW23269   3.271   1.043   5.259
 7457SOL    HW123270   3.239   1.108   5.328
 7457SOL    HW223271   3.239   0.951   5.282
 7458SOL     OW23272   2.141   6.640   6.169
 7458SOL    HW123273   2.214   6.686   6.117
 7458SOL    HW223274   2.074   6.708   6.199
 7459SOL     OW23275   5.377   0.043   1.922
 7459SOL    HW123276   5.280   0.048   1.947
 7459SOL    HW223277   5.407   6.978   1.921
 7460SOL     OW23278   0.601   5.005   0.720
 7460SOL    HW123279   0.536   5.071   0.682
 7460SOL    HW223280   0.584   4.915   0.679
 7461SOL     OW23281   6.237   6.836   6.817
 7461SOL    HW123282   6.217   6.929   6.848
 7461SOL    HW223283   6.232   6.773   6.895
 7462SOL     OW23284   1.321   4.362   2.007
 7462SOL    HW123285   1.369   4.409   1.932
 7462SOL    HW223286   1.222   4.365   1.990
 7463SOL     OW23287   2.534   4.711   0.720
 7463SOL    HW123288   2.549   4.804   0.686
 7463SOL    HW223289   2.603   4.649   0.679
 7464SOL     OW23290   5.168   6.971   6.267
 7464SOL    HW123291   5.204   6.948   6.357
 7464SOL    HW223292   5.074   6.938   6.260
 7465SOL     OW23293   2.614   5.617   6.608
 7465SOL    HW123294   2.675   5.695   6.625
 7465SOL    HW223295   2.665   5.532   6.615
 7466SOL     OW23296   0.022   0.401   5.140
 7466SOL    HW123297   0.059   0.446   5.221
 7466SOL    HW223298   6.976   0.455   5.104
 7467SOL     OW23299   0.305   1.194   6.817
 7467SOL    HW123300   0.263   1.245   6.741
 7467SOL    HW223301   0.325   1.258   6.892
 7468SOL     OW23302   6.098   3.348   3.425
 7468SOL    HW123303   6.029   3.289   3.382
 7468SOL    HW223304   6.182   3.347   3.370
 7469SOL     OW23305   6.791   0.352   0.236
 7469SOL    HW123306   6.868   0.379   0.294
 7469SOL    HW223307   6.772   0.424   0.170
 7470SOL     OW23308   6.172   3.672   3.349
 7470SOL    HW123309   6.123   3.747   3.305
 7470SOL    HW223310   6.113   3.591   3.354
 7471SOL     OW23311   5.248   6.707   5.633
 7471SOL    HW123312   5.319   6.752   5.579
 7471SOL    HW223313   5.228   6.617   5.593
 7472SOL     OW23314   5.653   1.046   6.123
 7472SOL    HW123315   5.651   1.145   6.116
 7472SOL    HW223316   5.721   1.018   6.191
 7473SOL     OW23317   5.165   5.456   3.930
 7473SOL    HW123318   5.116   5.369   3.923
 7473SOL    HW223319   5.214   5.460   4.017
 7474SOL     OW23320   0.102   1.543   5.750
 7474SOL    HW123321   0.070   1.578   5.838
 7474SOL    HW223322   0.164   1.610   5.708
 7475SOL     OW23323   5.163   2.356   2.435
 7475SOL    HW123324   5.262   2.357   2.418
 7475SOL    HW223325   5.120   2.431   2.385
 7476SOL     OW23326   3.476   1.143   3.462
 7476SOL    HW123327   3.477   1.044   3.473
 7476SOL    HW223328   3.556   1.172   3.409
 7477SOL     OW23329   6.834   2.301   5.239
 7477SOL    HW123330   6.821   2.398   5.218
 7477SOL    HW223331   6.762   2.271   5.302
 7478SOL     OW23332   6.618   3.969   5.713
 7478SOL    HW123333   6.533   3.928   5.680
 7478SOL    HW223334   6.682   3.896   5.738
 7479SOL     OW23335   4.329   1.949   2.314
 7479SOL    HW123336   4.253   1.900   2.357
 7479SOL    HW223337   4.414   1.898   2.330
 7480SOL     OW23338   1.261   4.945   2.226
 7480SOL    HW123339   1.353   4.975   2.199
 7480SOL    HW223340   1.217   4.897   2.150
 7481SOL     OW23341   5.764   5.419   0.981
 7481SOL    HW123342   5.796   5.493   0.921
 7481SOL    HW223343   5.812   5.334   0.958
 7482SOL     OW23344   4.475   2.471   2.848
 7482SOL    HW123345   4.434   2.468   2.758
 7482SOL    HW223346   4.507   2.380   2.874
 7483SOL     OW23347   4.919   3.401   4.308
 7483SOL    HW123348   4.953   3.416   4.401
 7483SOL    HW223349   4.983   3.343   4.257
 7484SOL     OW23350   1.392   6.351   3.976
 7484SOL    HW123351   1.359   6.391   3.891
 7484SOL    HW223352   1.432   6.423   4.033
 7485SOL     OW23353   3.216   0.248   4.427
 7485SOL    HW123354   3.168   0.174   4.475
 7485SOL    HW223355   3.149   0.304   4.379
 7486SOL     OW23356   1.173   5.945   0.675
 7486SOL    HW123357   1.130   6.006   0.608
 7486SOL    HW223358   1.250   5.898   0.631
 7487SOL     OW23359   2.313   0.608   2.916
 7487SOL    HW123360   2.343   0.693   2.958
 7487SOL    HW223361   2.283   0.544   2.987
 7488SOL     OW23362   2.674   5.349   4.818
 7488SOL    HW123363   2.617   5.366   4.898
 7488SOL    HW223364   2.756   5.298   4.845
 7489SOL     OW23365   6.084   2.643   6.026
 7489SOL    HW123366   5.993   2.621   6.063
 7489SOL    HW223367   6.076   2.655   5.927
 7490SOL     OW23368   1.422   0.261   3.193
 7490SOL    HW123369   1.342   0.203   3.180
 7490SOL    HW223370   1.505   0.206   3.182
 7491SOL     OW23371   4.196   3.337   6.243
 7491SOL    HW123372   4.190   3.395   6.161
 7491SOL    HW223373   4.104   3.312   6.274
 7492SOL     OW23374   1.753   0.539   3.618
 7492SOL    HW123375   1.684   0.604   3.586
 7492SOL    HW223376   1.732   0.511   3.712
 7493SOL     OW23377   0.802   3.044   6.412
 7493SOL    HW123378   0.838   2.956   6.380
 7493SOL    HW223379   0.839   3.117   6.354
 7494SOL     OW23380   5.767   1.236   2.971
 7494SOL    HW123381   5.857   1.248   2.928
 7494SOL    HW223382   5.763   1.288   3.056
 7495SOL     OW23383   1.928   2.287   6.917
 7495SOL    HW123384   2.014   2.241   6.893
 7495SOL    HW223385   1.876   2.230   6.981
 7496SOL     OW23386   6.784   3.695   3.449
 7496SOL    HW123387   6.818   3.610   3.410
 7496SOL    HW223388   6.795   3.769   3.382
 7497SOL     OW23389   1.761   4.358   1.631
 7497SOL    HW123390   1.765   4.284   1.698
 7497SOL    HW223391   1.800   4.327   1.544
 7498SOL     OW23392   2.867   1.223   5.120
 7498SOL    HW123393   2.899   1.307   5.164
 7498SOL    HW223394   2.795   1.246   5.055
 7499SOL     OW23395   4.196   1.929   3.249
 7499SOL    HW123396   4.294   1.909   3.237
 7499SOL    HW223397   4.143   1.848   3.223
 7500SOL     OW23398   3.546   6.023   3.490
 7500SOL    HW123399   3.457   6.040   3.448
 7500SOL    HW223400   3.589   5.944   3.447
 7501SOL     OW23401   5.218   3.953   4.730
 7501SOL    HW123402   5.277   3.903   4.795
 7501SOL    HW223403   5.127   3.963   4.769
 7502SOL     OW23404   2.953   1.342   4.363
 7502SOL    HW123405   2.934   1.256   4.317
 7502SOL    HW223406   3.045   1.339   4.403
 7503SOL     OW23407   2.284   6.779   1.582
 7503SOL    HW123408   2.231   6.815   1.659
 7503SOL    HW223409   2.264   6.832   1.499
 7504SOL     OW23410   0.434   6.220   3.786
 7504SOL    HW123411   0.466   6.199   3.878
 7504SOL    HW223412   0.513   6.242   3.728
 7505SOL     OW23413   1.520   2.924   5.801
 7505SOL    HW123414   1.577   2.844   5.821
 7505SOL    HW223415   1.439   2.896   5.749
 7506SOL     OW23416   5.600   1.820   3.590
 7506SOL    HW123417   5.599   1.863   3.680
 7506SOL    HW223418   5.574   1.888   3.521
 7507SOL     OW23419   6.342   1.661   2.538
 7507SOL    HW123420   6.423   1.624   2.491
 7507SOL    HW223421   6.276   1.587   2.552
 7508SOL     OW23422   1.733   5.730   1.162
 7508SOL    HW123423   1.650   5.718   1.108
 7508SOL    HW223424   1.749   5.827   1.178
 7509SOL     OW23425   6.325   3.708   0.744
 7509SOL    HW123426   6.278   3.787   0.704
 7509SOL    HW223427   6.366   3.653   0.671
 7510SOL     OW23428   2.844   3.563   5.197
 7510SOL    HW123429   2.866   3.477   5.150
 7510SOL    HW223430   2.794   3.542   5.281
 7511SOL     OW23431   2.630   5.955   3.376
 7511SOL    HW123432   2.704   5.891   3.392
 7511SOL    HW223433   2.628   6.024   3.449
 7512SOL     OW23434   3.012   0.223   6.514
 7512SOL    HW123435   2.942   0.229   6.585
 7512SOL    HW223436   2.970   0.237   6.424
 7513SOL     OW23437   1.049   1.436   1.668
 7513SOL    HW123438   1.081   1.415   1.761
 7513SOL    HW223439   1.125   1.476   1.616
 7514SOL     OW23440   2.199   4.867   2.570
 7514SOL    HW123441   2.118   4.917   2.601
 7514SOL    HW223442   2.280   4.923   2.586
 7515SOL     OW23443   6.729   5.413   4.526
 7515SOL    HW123444   6.729   5.465   4.612
 7515SOL    HW223445   6.688   5.469   4.454
 7516SOL     OW23446   6.529   5.419   6.106
 7516SOL    HW123447   6.473   5.470   6.171
 7516SOL    HW223448   6.495   5.326   6.098
 7517SOL     OW23449   6.994   1.905   0.166
 7517SOL    HW123450   0.045   1.849   0.153
 7517SOL    HW223451   6.919   1.849   0.202
 7518SOL     OW23452   4.857   3.940   4.190
 7518SOL    HW123453   4.886   3.844   4.181
 7518SOL    HW223454   4.814   3.954   4.279
 7519SOL     OW23455   0.066   6.411   4.601
 7519SOL    HW123456   0.144   6.350   4.612
 7519SOL    HW223457   0.015   6.386   4.518
 7520SOL     OW23458   2.485   0.544   2.739
 7520SOL    HW123459   2.428   0.575   2.815
 7520SOL    HW223460   2.513   0.449   2.755
 7521SOL     OW23461   4.773   2.852   5.674
 7521SOL    HW123462   4.727   2.776   5.627
 7521SOL    HW223463   4.815   2.819   5.758
 7522SOL     OW23464   1.484   1.153   5.817
 7522SOL    HW123465   1.399   1.197   5.847
 7522SOL    HW223466   1.544   1.222   5.776
 7523SOL     OW23467   4.721   0.407   6.348
 7523SOL    HW123468   4.780   0.327   6.355
 7523SOL    HW223469   4.776   0.490   6.353
 7524SOL     OW23470   1.057   2.613   4.885
 7524SOL    HW123471   0.983   2.620   4.818
 7524SOL    HW223472   1.036   2.671   4.964
 7525SOL     OW23473   3.577   0.566   0.059
 7525SOL    HW123474   3.617   0.628   0.127
 7525SOL    HW223475   3.630   0.572   7.004
 7526SOL     OW23476   2.688   3.115   1.266
 7526SOL    HW123477   2.735   3.086   1.349
 7526SOL    HW223478   2.736   3.192   1.225
 7527SOL     OW23479   3.107   6.269   3.887
 7527SOL    HW123480   3.171   6.260   3.811
 7527SOL    HW223481   3.082   6.365   3.900
 7528SOL     OW23482   6.505   2.134   6.744
 7528SOL    HW123483   6.463   2.055   6.701
 7528SOL    HW223484   6.437   2.207   6.752
 7529SOL     OW23485   5.789   1.620   4.539
 7529SOL    HW123486   5.724   1.626   4.614
 7529SOL    HW223487   5.805   1.711   4.500
 7530SOL     OW23488   6.752   2.279   2.506
 7530SOL    HW123489   6.744   2.200   2.567
 7530SOL    HW223490   6.844   2.281   2.466
 7531SOL     OW23491   5.589   3.177   4.378
 7531SOL    HW123492   5.569   3.158   4.473
 7531SOL    HW223493   5.603   3.092   4.328
 7532SOL     OW23494   4.285   6.205   0.820
 7532SOL    HW123495   4.379   6.239   0.825
 7532SOL    HW223496   4.238   6.249   0.743
 7533SOL     OW23497   3.497   1.953   1.552
 7533SOL    HW123498   3.437   1.892   1.603
 7533SOL    HW223499   3.484   2.047   1.582
 7534SOL     OW23500   4.944   6.247   4.901
 7534SOL    HW123501   4.973   6.278   4.992
 7534SOL    HW223502   4.942   6.324   4.838
 7535SOL     OW23503   1.961   0.037   4.677
 7535SOL    HW123504   2.025   0.083   4.739
 7535SOL    HW223505   1.980   0.065   4.583
 7536SOL     OW23506   5.256   4.207   4.159
 7536SOL    HW123507   5.333   4.164   4.110
 7536SOL    HW223508   5.195   4.136   4.195
 7537SOL     OW23509   1.875   4.984   2.437
 7537SOL    HW123510   1.845   4.991   2.532
 7537SOL    HW223511   1.831   5.055   2.382
 7538SOL     OW23512   1.967   2.378   1.730
 7538SOL    HW123513   1.920   2.457   1.770
 7538SOL    HW223514   2.066   2.392   1.735
 7539SOL     OW23515   1.636   3.587   4.538
 7539SOL    HW123516   1.573   3.557   4.467
 7539SOL    HW223517   1.677   3.675   4.512
 7540SOL     OW23518   4.535   0.799   5.045
 7540SOL    HW123519   4.613   0.860   5.030
 7540SOL    HW223520   4.466   0.817   4.976
 7541SOL     OW23521   0.538   3.847   4.911
 7541SOL    HW123522   0.452   3.891   4.939
 7541SOL    HW223523   0.601   3.916   4.876
 7542SOL     OW23524   0.678   5.612   6.939
 7542SOL    HW123525   0.656   5.672   7.016
 7542SOL    HW223526   0.671   5.665   6.854
 7543SOL     OW23527   3.636   1.127   5.386
 7543SOL    HW123528   3.690   1.111   5.469
 7543SOL    HW223529   3.613   1.040   5.344
 7544SOL     OW23530   6.198   2.518   4.305
 7544SOL    HW123531   6.248   2.580   4.245
 7544SOL    HW223532   6.201   2.552   4.399
 7545SOL     OW23533   0.774   5.996   6.409
 7545SOL    HW123534   0.785   6.000   6.508
 7545SOL    HW223535   0.840   6.058   6.366
 7546SOL     OW23536   4.114   1.949   1.357
 7546SOL    HW123537   4.090   1.885   1.430
 7546SOL    HW223538   4.036   1.962   1.297
 7547SOL     OW23539   5.066   1.638   0.578
 7547SOL    HW123540   5.031   1.690   0.656
 7547SOL    HW223541   5.077   1.542   0.605
 7548SOL     OW23542   4.316   2.553   6.491
 7548SOL    HW123543   4.337   2.568   6.394
 7548SOL    HW223544   4.369   2.616   6.547
 7549SOL     OW23545   3.494   3.696   6.519
 7549SOL    HW123546   3.469   3.728   6.611
 7549SOL    HW223547   3.466   3.601   6.507
 7550SOL     OW23548   1.998   4.663   4.079
 7550SOL    HW123549   2.026   4.639   3.986
 7550SOL    HW223550   2.079   4.673   4.137
 7551SOL     OW23551   5.888   3.204   5.733
 7551SOL    HW123552   5.831   3.240   5.808
 7551SOL    HW223553   5.860   3.111   5.712
 7552SOL     OW23554   1.630   6.270   3.672
 7552SOL    HW123555   1.625   6.193   3.609
 7552SOL    HW223556   1.628   6.237   3.766
 7553SOL     OW23557   4.032   0.307   5.665
 7553SOL    HW123558   3.971   0.270   5.736
 7553SOL    HW223559   3.989   0.386   5.622
 7554SOL     OW23560   5.149   0.930   6.768
 7554SOL    HW123561   5.114   0.837   6.762
 7554SOL    HW223562   5.214   0.936   6.844
 7555SOL     OW23563   3.267   5.397   6.235
 7555SOL    HW123564   3.245   5.332   6.308
 7555SOL    HW223565   3.365   5.394   6.217
 7556SOL     OW23566   2.776   2.370   0.239
 7556SOL    HW123567   2.792   2.444   0.173
 7556SOL    HW223568   2.849   2.370   0.307
 7557SOL     OW23569   5.375   0.907   6.584
 7557SOL    HW123570   5.297   0.945   6.634
 7557SOL    HW223571   5.375   0.941   6.491
 7558SOL     OW23572   1.970   2.810   4.549
 7558SOL    HW123573   1.961   2.872   4.628
 7558SOL    HW223574   2.067   2.799   4.527
 7559SOL     OW23575   3.985   2.872   6.400
 7559SOL    HW123576   4.067   2.905   6.353
 7559SOL    HW223577   3.915   2.944   6.398
 7560SOL     OW23578   4.760   6.712   0.486
 7560SOL    HW123579   4.665   6.744   0.491
 7560SOL    HW223580   4.785   6.670   0.573
 7561SOL     OW23581   0.139   3.487   6.113
 7561SOL    HW123582   0.088   3.462   6.031
 7561SOL    HW223583   0.124   3.418   6.184
 7562SOL     OW23584   0.253   5.734   5.314
 7562SOL    HW123585   0.320   5.808   5.324
 7562SOL    HW223586   0.189   5.737   5.390
 7563SOL     OW23587   2.969   0.084   1.659
 7563SOL    HW123588   3.063   0.115   1.671
 7563SOL    HW223589   2.928   0.133   1.582
 7564SOL     OW23590   4.042   0.608   4.020
 7564SOL    HW123591   4.002   0.520   4.044
 7564SOL    HW223592   4.096   0.642   4.097
 7565SOL     OW23593   5.873   3.555   6.688
 7565SOL    HW123594   5.794   3.495   6.701
 7565SOL    HW223595   5.957   3.501   6.685
 7566SOL     OW23596   5.783   5.202   2.535
 7566SOL    HW123597   5.755   5.285   2.583
 7566SOL    HW223598   5.707   5.168   2.479
 7567SOL     OW23599   1.857   1.240   5.708
 7567SOL    HW123600   1.912   1.314   5.670
 7567SOL    HW223601   1.784   1.278   5.766
 7568SOL     OW23602   5.588   4.547   2.874
 7568SOL    HW123603   5.623   4.635   2.841
 7568SOL    HW223604   5.489   4.549   2.876
 7569SOL     OW23605   3.228   4.377   6.103
 7569SOL    HW123606   3.228   4.284   6.065
 7569SOL    HW223607   3.135   4.412   6.105
 7570SOL     OW23608   5.477   3.975   4.345
 7570SOL    HW123609   5.439   3.886   4.320
 7570SOL    HW223610   5.425   4.014   4.420
 7571SOL     OW23611   4.633   4.386   3.176
 7571SOL    HW123612   4.603   4.384   3.271
 7571SOL    HW223613   4.703   4.316   3.161
 7572SOL     OW23614   5.069   0.734   2.137
 7572SOL    HW123615   5.138   0.667   2.109
 7572SOL    HW223616   4.979   0.703   2.108
 7573SOL     OW23617   0.251   0.072   5.314
 7573SOL    HW123618   0.154   0.080   5.288
 7573SOL    HW223619   0.307   0.064   5.231
 7574SOL     OW23620   5.270   0.799   5.622
 7574SOL    HW123621   5.225   0.838   5.702
 7574SOL    HW223622   5.202   0.755   5.563
 7575SOL     OW23623   5.363   0.283   6.870
 7575SOL    HW123624   5.454   0.325   6.864
 7575SOL    HW223625   5.314   0.298   6.784
 7576SOL     OW23626   5.113   3.075   0.401
 7576SOL    HW123627   5.022   3.113   0.417
 7576SOL    HW223628   5.111   2.976   0.416
 7577SOL     OW23629   0.662   6.605   6.646
 7577SOL    HW123630   0.646   6.522   6.700
 7577SOL    HW223631   0.696   6.579   6.555
 7578SOL     OW23632   3.144   5.346   2.947
 7578SOL    HW123633   3.099   5.263   2.980
 7578SOL    HW223634   3.225   5.321   2.894
 7579SOL     OW23635   0.256   1.614   1.920
 7579SOL    HW123636   0.320   1.577   1.988
 7579SOL    HW223637   0.266   1.713   1.916
 7580SOL     OW23638   0.989   4.097   3.907
 7580SOL    HW123639   0.966   4.188   3.942
 7580SOL    HW223640   0.907   4.053   3.871
 7581SOL     OW23641   0.730   2.244   1.250
 7581SOL    HW123642   0.659   2.181   1.282
 7581SOL    HW223643   0.688   2.326   1.212
 7582SOL     OW23644   4.203   1.437   3.378
 7582SOL    HW123645   4.184   1.451   3.475
 7582SOL    HW223646   4.129   1.382   3.338
 7583SOL     OW23647   4.978   2.500   2.242
 7583SOL    HW123648   4.962   2.445   2.160
 7583SOL    HW223649   4.953   2.595   2.223
 7584SOL     OW23650   2.196   1.037   2.957
 7584SOL    HW123651   2.189   1.038   3.056
 7584SOL    HW223652   2.131   0.970   2.920
 7585SOL     OW23653   2.342   2.858   6.210
 7585SOL    HW123654   2.250   2.823   6.189
 7585SOL    HW223655   2.408   2.816   6.148
 7586SOL     OW23656   2.126   6.682   3.652
 7586SOL    HW123657   2.095   6.775   3.672
 7586SOL    HW223658   2.067   6.616   3.698
 7587SOL     OW23659   2.114   0.847   6.724
 7587SOL    HW123660   2.126   0.885   6.632
 7587SOL    HW223661   2.202   0.813   6.757
 7588SOL     OW23662   2.229   2.203   3.549
 7588SOL    HW123663   2.233   2.114   3.595
 7588SOL    HW223664   2.304   2.210   3.483
 7589SOL     OW23665   0.279   0.669   2.629
 7589SOL    HW123666   0.300   0.669   2.531
 7589SOL    HW223667   0.182   0.689   2.641
 7590SOL     OW23668   4.279   1.861   6.834
 7590SOL    HW123669   4.278   1.957   6.864
 7590SOL    HW223670   4.353   1.847   6.769
 7591SOL     OW23671   5.240   4.456   0.566
 7591SOL    HW123672   5.282   4.547   0.563
 7591SOL    HW223673   5.282   4.397   0.497
 7592SOL     OW23674   6.423   5.923   4.606
 7592SOL    HW123675   6.391   5.896   4.515
 7592SOL    HW223676   6.346   5.928   4.669
 7593SOL     OW23677   6.491   3.480   6.874
 7593SOL    HW123678   6.440   3.500   6.791
 7593SOL    HW223679   6.581   3.524   6.869
 7594SOL     OW23680   1.568   4.487   1.926
 7594SOL    HW123681   1.636   4.419   1.953
 7594SOL    HW223682   1.584   4.572   1.976
 7595SOL     OW23683   5.569   3.230   6.133
 7595SOL    HW123684   5.566   3.313   6.077
 7595SOL    HW223685   5.585   3.151   6.073
 7596SOL     OW23686   3.524   6.393   4.597
 7596SOL    HW123687   3.568   6.455   4.532
 7596SOL    HW223688   3.428   6.381   4.572
 7597SOL     OW23689   1.821   6.356   3.133
 7597SOL    HW123690   1.883   6.279   3.143
 7597SOL    HW223691   1.868   6.432   3.088
 7598SOL     OW23692   6.913   0.836   3.306
 7598SOL    HW123693   6.974   0.763   3.275
 7598SOL    HW223694   6.930   0.918   3.251
 7599SOL     OW23695   5.425   2.396   1.879
 7599SOL    HW123696   5.360   2.422   1.950
 7599SOL    HW223697   5.484   2.474   1.858
 7600SOL     OW23698   0.657   1.380   3.640
 7600SOL    HW123699   0.690   1.452   3.578
 7600SOL    HW223700   0.726   1.309   3.649
 7601SOL     OW23701   2.672   4.697   2.353
 7601SOL    HW123702   2.676   4.655   2.444
 7601SOL    HW223703   2.643   4.792   2.361
 7602SOL     OW23704   1.865   3.645   0.150
 7602SOL    HW123705   1.863   3.697   0.235
 7602SOL    HW223706   1.960   3.635   0.120
 7603SOL     OW23707   2.034   6.305   6.580
 7603SOL    HW123708   1.947   6.265   6.552
 7603SOL    HW223709   2.099   6.299   6.504
 7604SOL     OW23710   1.395   2.946   4.684
 7604SOL    HW123711   1.421   2.982   4.595
 7604SOL    HW223712   1.305   2.981   4.710
 7605SOL     OW23713   1.099   0.371   0.698
 7605SOL    HW123714   1.178   0.316   0.672
 7605SOL    HW223715   1.020   0.311   0.711
 7606SOL     OW23716   5.812   2.971   4.229
 7606SOL    HW123717   5.717   2.959   4.203
 7606SOL    HW223718   5.850   3.049   4.181
 7607SOL     OW23719   3.750   4.945   0.718
 7607SOL    HW123720   3.674   4.908   0.771
 7607SOL    HW223721   3.832   4.889   0.733
 7608SOL     OW23722   4.991   3.442   0.928
 7608SOL    HW123723   5.003   3.498   0.847
 7608SOL    HW223724   5.030   3.351   0.911
 7609SOL     OW23725   1.749   3.215   4.348
 7609SOL    HW123726   1.816   3.169   4.291
 7609SOL    HW223727   1.760   3.314   4.338
 7610SOL     OW23728   4.080   4.765   5.959
 7610SOL    HW123729   4.034   4.687   5.916
 7610SOL    HW223730   4.059   4.848   5.908
 7611SOL     OW23731   5.563   4.165   1.380
 7611SOL    HW123732   5.485   4.145   1.321
 7611SOL    HW223733   5.640   4.107   1.355
 7612SOL     OW23734   4.831   2.923   2.627
 7612SOL    HW123735   4.750   2.881   2.586
 7612SOL    HW223736   4.911   2.902   2.572
 7613SOL     OW23737   0.735   1.604   0.703
 7613SOL    HW123738   0.684   1.546   0.767
 7613SOL    HW223739   0.680   1.620   0.621
 7614SOL     OW23740   5.298   2.838   1.167
 7614SOL    HW123741   5.387   2.852   1.123
 7614SOL    HW223742   5.299   2.751   1.216
 7615SOL     OW23743   4.084   4.614   6.571
 7615SOL    HW123744   4.161   4.606   6.635
 7615SOL    HW223745   4.083   4.534   6.510
 7616SOL     OW23746   6.895   6.135   4.649
 7616SOL    HW123747   6.923   6.060   4.589
 7616SOL    HW223748   6.951   6.134   4.732
 7617SOL     OW23749   3.238   6.212   3.649
 7617SOL    HW123750   3.168   6.208   3.578
 7617SOL    HW223751   3.317   6.263   3.616
 7618SOL     OW23752   0.380   2.692   6.253
 7618SOL    HW123753   0.470   2.656   6.229
 7618SOL    HW223754   0.367   2.687   6.352
 7619SOL     OW23755   7.010   2.950   4.970
 7619SOL    HW123756   7.011   3.007   4.888
 7619SOL    HW223757   6.927   2.968   5.022
 7620SOL     OW23758   4.213   5.682   1.958
 7620SOL    HW123759   4.207   5.709   1.862
 7620SOL    HW223760   4.170   5.752   2.015
 7621SOL     OW23761   6.637   0.911   0.690
 7621SOL    HW123762   6.629   1.004   0.656
 7621SOL    HW223763   6.707   0.907   0.761
 7622SOL     OW23764   4.536   4.377   6.168
 7622SOL    HW123765   4.603   4.388   6.095
 7622SOL    HW223766   4.444   4.375   6.128
 7623SOL     OW23767   4.567   4.243   6.865
 7623SOL    HW123768   4.560   4.308   6.790
 7623SOL    HW223769   4.652   4.257   6.914
 7624SOL     OW23770   6.765   3.558   4.331
 7624SOL    HW123771   6.850   3.553   4.383
 7624SOL    HW223772   6.739   3.466   4.301
 7625SOL     OW23773   5.700   1.315   0.432
 7625SOL    HW123774   5.608   1.342   0.458
 7625SOL    HW223775   5.707   1.215   0.431
 7626SOL     OW23776   6.178   0.487   5.634
 7626SOL    HW123777   6.104   0.469   5.699
 7626SOL    HW223778   6.230   0.566   5.666
 7627SOL     OW23779   3.549   2.650   0.802
 7627SOL    HW123780   3.548   2.678   0.898
 7627SOL    HW223781   3.616   2.577   0.789
 7628SOL     OW23782   3.544   2.801   2.019
 7628SOL    HW123783   3.590   2.844   2.097
 7628SOL    HW223784   3.608   2.743   1.969
 7629SOL     OW23785   0.166   4.088   3.655
 7629SOL    HW123786   0.235   4.120   3.591
 7629SOL    HW223787   0.087   4.149   3.654
 7630SOL     OW23788   0.832   1.209   0.296
 7630SOL    HW123789   0.775   1.282   0.334
 7630SOL    HW223790   0.921   1.246   0.272
 7631SOL     OW23791   1.227   2.210   5.821
 7631SOL    HW123792   1.177   2.167   5.745
 7631SOL    HW223793   1.308   2.156   5.842
 7632SOL     OW23794   4.773   4.554   0.740
 7632SOL    HW123795   4.717   4.637   0.733
 7632SOL    HW223796   4.731   4.481   0.687
 7633SOL     OW23797   5.484   1.049   1.878
 7633SOL    HW123798   5.506   1.013   1.787
 7633SOL    HW223799   5.387   1.075   1.880
 7634SOL     OW23800   2.156   1.267   1.812
 7634SOL    HW123801   2.206   1.229   1.890
 7634SOL    HW223802   2.143   1.365   1.825
 7635SOL     OW23803   3.331   5.130   5.189
 7635SOL    HW123804   3.246   5.111   5.237
 7635SOL    HW223805   3.374   5.211   5.230
 7636SOL     OW23806   1.458   3.487   4.350
 7636SOL    HW123807   1.362   3.459   4.340
 7636SOL    HW223808   1.498   3.500   4.259
 7637SOL     OW23809   2.540   5.984   2.636
 7637SOL    HW123810   2.510   6.020   2.725
 7637SOL    HW223811   2.517   6.050   2.564
 7638SOL     OW23812   2.069   5.408   2.191
 7638SOL    HW123813   2.016   5.328   2.163
 7638SOL    HW223814   2.166   5.387   2.184
 7639SOL     OW23815   0.198   0.885   0.796
 7639SOL    HW123816   0.161   0.914   0.884
 7639SOL    HW223817   0.285   0.837   0.810
 7640SOL     OW23818   2.538   2.283   5.862
 7640SOL    HW123819   2.473   2.208   5.845
 7640SOL    HW223820   2.631   2.248   5.858
 7641SOL     OW23821   0.572   3.394   2.771
 7641SOL    HW123822   0.515   3.321   2.807
 7641SOL    HW223823   0.619   3.363   2.689
 7642SOL     OW23824   3.788   1.666   2.573
 7642SOL    HW123825   3.731   1.616   2.507
 7642SOL    HW223826   3.733   1.739   2.615
 7643SOL     OW23827   5.250   1.942   3.011
 7643SOL    HW123828   5.332   1.936   2.954
 7643SOL    HW223829   5.267   2.006   3.087
 7644SOL     OW23830   4.663   2.590   2.061
 7644SOL    HW123831   4.761   2.580   2.045
 7644SOL    HW223832   4.639   2.688   2.061
 7645SOL     OW23833   4.795   3.954   5.530
 7645SOL    HW123834   4.778   3.916   5.439
 7645SOL    HW223835   4.722   4.018   5.553
 7646SOL     OW23836   0.506   3.090   4.163
 7646SOL    HW123837   0.567   3.139   4.225
 7646SOL    HW223838   0.420   3.140   4.155
 7647SOL     OW23839   6.835   2.688   4.353
 7647SOL    HW123840   6.832   2.739   4.267
 7647SOL    HW223841   6.918   2.633   4.356
 7648SOL     OW23842   2.262   1.991   2.475
 7648SOL    HW123843   2.183   2.016   2.419
 7648SOL    HW223844   2.326   1.938   2.419
 7649SOL     OW23845   1.307   0.255   3.649
 7649SOL    HW123846   1.372   0.187   3.684
 7649SOL    HW223847   1.310   0.336   3.707
 7650SOL     OW23848   5.477   0.716   0.796
 7650SOL    HW123849   5.447   0.685   0.705
 7650SOL    HW223850   5.535   0.797   0.786
 7651SOL     OW23851   2.395   0.268   4.336
 7651SOL    HW123852   2.464   0.339   4.324
 7651SOL    HW223853   2.385   0.247   4.433
 7652SOL     OW23854   5.572   1.953   4.680
 7652SOL    HW123855   5.608   1.867   4.717
 7652SOL    HW223856   5.549   1.940   4.583
 7653SOL     OW23857   0.863   1.504   0.287
 7653SOL    HW123858   0.897   1.457   0.205
 7653SOL    HW223859   0.886   1.601   0.281
 7654SOL     OW23860   5.035   3.236   4.108
 7654SOL    HW123861   4.970   3.192   4.047
 7654SOL    HW223862   5.099   3.168   4.144
 7655SOL     OW23863   4.217   6.499   3.929
 7655SOL    HW123864   4.136   6.550   3.901
 7655SOL    HW223865   4.264   6.466   3.847
 7656SOL     OW23866   4.095   3.858   6.623
 7656SOL    HW123867   4.065   3.773   6.666
 7656SOL    HW223868   4.177   3.842   6.569
 7657SOL     OW23869   1.587   2.231   2.965
 7657SOL    HW123870   1.660   2.298   2.975
 7657SOL    HW223871   1.561   2.196   3.055
 7658SOL     OW23872   2.394   0.269   0.920
 7658SOL    HW123873   2.427   0.185   0.878
 7658SOL    HW223874   2.429   0.348   0.869
 7659SOL     OW23875   4.985   4.630   0.085
 7659SOL    HW123876   4.931   4.610   0.167
 7659SOL    HW223877   5.079   4.652   0.111
 7660SOL     OW23878   6.810   6.027   3.909
 7660SOL    HW123879   6.822   6.044   3.811
 7660SOL    HW223880   6.899   6.008   3.951
 7661SOL     OW23881   5.466   2.415   5.122
 7661SOL    HW123882   5.504   2.334   5.167
 7661SOL    HW223883   5.537   2.484   5.112
 7662SOL     OW23884   1.099   2.293   4.245
 7662SOL    HW123885   1.050   2.329   4.165
 7662SOL    HW223886   1.138   2.369   4.297
 7663SOL     OW23887   5.682   4.515   6.727
 7663SOL    HW123888   5.680   4.431   6.781
 7663SOL    HW223889   5.589   4.538   6.699
 7664SOL     OW23890   4.197   1.146   2.141
 7664SOL    HW123891   4.284   1.141   2.191
 7664SOL    HW223892   4.122   1.125   2.203
 7665SOL     OW23893   6.121   0.809   5.296
 7665SOL    HW123894   6.170   0.852   5.220
 7665SOL    HW223895   6.099   0.878   5.365
 7666SOL     OW23896   0.473   4.392   2.947
 7666SOL    HW123897   0.430   4.367   3.033
 7666SOL    HW223898   0.562   4.435   2.965
 7667SOL     OW23899   4.235   0.483   2.437
 7667SOL    HW123900   4.165   0.514   2.373
 7667SOL    HW223901   4.193   0.420   2.503
 7668SOL     OW23902   2.792   5.035   0.775
 7668SOL    HW123903   2.768   5.132   0.766
 7668SOL    HW223904   2.848   5.022   0.857
 7669SOL     OW23905   4.732   1.276   5.753
 7669SOL    HW123906   4.822   1.318   5.760
 7669SOL    HW223907   4.728   1.196   5.814
 7670SOL     OW23908   0.969   5.255   0.813
 7670SOL    HW123909   1.013   5.262   0.724
 7670SOL    HW223910   0.943   5.160   0.830
 7671SOL     OW23911   3.355   0.985   2.504
 7671SOL    HW123912   3.407   0.948   2.426
 7671SOL    HW223913   3.260   0.953   2.499
 7672SOL     OW23914   0.235   5.645   3.071
 7672SOL    HW123915   0.179   5.724   3.047
 7672SOL    HW223916   0.327   5.675   3.094
 7673SOL     OW23917   1.773   5.370   2.532
 7673SOL    HW123918   1.810   5.421   2.610
 7673SOL    HW223919   1.682   5.405   2.509
 7674SOL     OW23920   4.906   0.939   4.011
 7674SOL    HW123921   4.914   0.892   3.923
 7674SOL    HW223922   4.969   0.897   4.076
 7675SOL     OW23923   5.851   6.198   3.043
 7675SOL    HW123924   5.900   6.128   2.991
 7675SOL    HW223925   5.811   6.264   2.980
 7676SOL     OW23926   2.947   2.430   6.421
 7676SOL    HW123927   2.881   2.436   6.346
 7676SOL    HW223928   3.033   2.471   6.393
 7677SOL     OW23929   0.242   3.956   1.539
 7677SOL    HW123930   0.292   3.870   1.528
 7677SOL    HW223931   0.293   4.017   1.599
 7678SOL     OW23932   2.557   2.582   5.143
 7678SOL    HW123933   2.547   2.673   5.185
 7678SOL    HW223934   2.485   2.568   5.075
 7679SOL     OW23935   2.416   6.285   5.566
 7679SOL    HW123936   2.479   6.226   5.616
 7679SOL    HW223937   2.441   6.287   5.469
 7680SOL     OW23938   1.371   0.549   0.851
 7680SOL    HW123939   1.381   0.648   0.841
 7680SOL    HW223940   1.421   0.518   0.931
 7681SOL     OW23941   2.740   1.010   1.123
 7681SOL    HW123942   2.752   0.931   1.182
 7681SOL    HW223943   2.827   1.060   1.117
 7682SOL     OW23944   4.216   6.885   2.297
 7682SOL    HW123945   4.192   6.816   2.366
 7682SOL    HW223946   4.196   6.976   2.333
 7683SOL     OW23947   0.221   1.772   5.082
 7683SOL    HW123948   0.129   1.756   5.046
 7683SOL    HW223949   0.273   1.828   5.018
 7684SOL     OW23950   4.118   1.332   1.209
 7684SOL    HW123951   4.188   1.301   1.274
 7684SOL    HW223952   4.097   1.257   1.146
 7685SOL     OW23953   2.655   1.353   5.767
 7685SOL    HW123954   2.563   1.381   5.739
 7685SOL    HW223955   2.650   1.269   5.821
 7686SOL     OW23956   6.649   6.815   3.455
 7686SOL    HW123957   6.742   6.798   3.489
 7686SOL    HW223958   6.626   6.911   3.468
 7687SOL     OW23959   5.683   5.137   4.532
 7687SOL    HW123960   5.711   5.042   4.516
 7687SOL    HW223961   5.764   5.195   4.536
 7688SOL     OW23962   0.243   5.867   5.849
 7688SOL    HW123963   0.211   5.956   5.882
 7688SOL    HW223964   0.202   5.794   5.904
 7689SOL     OW23965   5.416   6.228   2.965
 7689SOL    HW123966   5.418   6.249   3.063
 7689SOL    HW223967   5.372   6.140   2.951
 7690SOL     OW23968   5.486   5.460   0.626
 7690SOL    HW123969   5.472   5.362   0.608
 7690SOL    HW223970   5.474   5.512   0.542
 7691SOL     OW23971   5.811   4.057   2.939
 7691SOL    HW123972   5.880   4.077   3.009
 7691SOL    HW223973   5.721   4.085   2.972
 7692SOL     OW23974   0.774   6.143   2.137
 7692SOL    HW123975   0.859   6.104   2.102
 7692SOL    HW223976   0.790   6.239   2.161
 7693SOL     OW23977   3.014   0.782   1.933
 7693SOL    HW123978   2.966   0.695   1.916
 7693SOL    HW223979   3.112   0.768   1.921
 7694SOL     OW23980   5.713   3.303   3.428
 7694SOL    HW123981   5.642   3.299   3.358
 7694SOL    HW223982   5.731   3.398   3.453
 7695SOL     OW23983   5.355   0.966   1.408
 7695SOL    HW123984   5.299   0.934   1.331
 7695SOL    HW223985   5.441   1.002   1.373
 7696SOL     OW23986   6.736   1.503   5.983
 7696SOL    HW123987   6.668   1.572   6.011
 7696SOL    HW223988   6.690   1.429   5.934
 7697SOL     OW23989   2.393   0.373   3.537
 7697SOL    HW123990   2.381   0.462   3.580
 7697SOL    HW223991   2.416   0.305   3.607
 7698SOL     OW23992   5.951   1.197   4.275
 7698SOL    HW123993   5.990   1.167   4.362
 7698SOL    HW223994   5.864   1.151   4.261
 7699SOL     OW23995   2.622   5.613   6.323
 7699SOL    HW123996   2.613   5.641   6.419
 7699SOL    HW223997   2.532   5.611   6.280
 7700SOL     OW23998   4.319   5.910   3.896
 7700SOL    HW123999   4.366   5.828   3.928
 7700SOL    HW224000   4.252   5.885   3.826
 7701SOL     OW24001   6.973   2.760   6.552
 7701SOL    HW124002   6.993   2.856   6.572
 7701SOL    HW224003   6.929   2.718   6.631
 7702SOL     OW24004   4.713   5.525   5.225
 7702SOL    HW124005   4.620   5.523   5.188
 7702SOL    HW224006   4.765   5.448   5.188
 7703SOL     OW24007   6.103   6.312   6.351
 7703SOL    HW124008   6.107   6.343   6.256
 7703SOL    HW224009   6.182   6.347   6.401
 7704SOL     OW24010   5.922   0.644   3.020
 7704SOL    HW124011   5.874   0.674   2.938
 7704SOL    HW224012   5.863   0.655   3.100
 7705SOL     OW24013   2.230   5.922   1.150
 7705SOL    HW124014   2.213   5.992   1.219
 7705SOL    HW224015   2.181   5.838   1.175
 7706SOL     OW24016   3.747   3.360   3.860
 7706SOL    HW124017   3.670   3.390   3.915
 7706SOL    HW224018   3.817   3.321   3.919
 7707SOL     OW24019   0.172   4.656   6.239
 7707SOL    HW124020   0.214   4.602   6.312
 7707SOL    HW224021   0.243   4.704   6.188
 7708SOL     OW24022   1.325   6.548   4.958
 7708SOL    HW124023   1.399   6.572   5.020
 7708SOL    HW224024   1.358   6.481   4.891
 7709SOL     OW24025   6.621   4.791   1.761
 7709SOL    HW124026   6.559   4.870   1.764
 7709SOL    HW224027   6.570   4.710   1.731
 7710SOL     OW24028   2.384   2.311   0.419
 7710SOL    HW124029   2.389   2.394   0.474
 7710SOL    HW224030   2.291   2.274   0.421
 7711SOL     OW24031   5.834   5.986   5.677
 7711SOL    HW124032   5.908   5.928   5.708
 7711SOL    HW224033   5.769   5.932   5.623
 7712SOL     OW24034   6.127   5.431   0.461
 7712SOL    HW124035   6.116   5.464   0.367
 7712SOL    HW224036   6.057   5.473   0.519
 7713SOL     OW24037   1.828   3.555   0.548
 7713SOL    HW124038   1.862   3.462   0.530
 7713SOL    HW224039   1.729   3.555   0.542
 7714SOL     OW24040   0.021   5.274   5.340
 7714SOL    HW124041   6.958   5.272   5.304
 7714SOL    HW224042   0.027   5.215   5.421
 7715SOL     OW24043   2.901   2.329   6.652
 7715SOL    HW124044   2.913   2.366   6.559
 7715SOL    HW224045   2.804   2.316   6.670
 7716SOL     OW24046   6.524   4.356   0.581
 7716SOL    HW124047   6.559   4.442   0.618
 7716SOL    HW224048   6.425   4.353   0.591
 7717SOL     OW24049   1.087   1.408   5.503
 7717SOL    HW124050   1.162   1.435   5.563
 7717SOL    HW224051   1.004   1.457   5.530
 7718SOL     OW24052   6.528   3.612   3.041
 7718SOL    HW124053   6.490   3.669   2.968
 7718SOL    HW224054   6.484   3.635   3.128
 7719SOL     OW24055   0.689   4.028   4.752
 7719SOL    HW124056   0.717   4.017   4.657
 7719SOL    HW224057   0.595   4.062   4.756
 7720SOL     OW24058   6.758   2.401   6.290
 7720SOL    HW124059   6.824   2.402   6.215
 7720SOL    HW224060   6.751   2.309   6.328
 7721SOL     OW24061   0.647   5.745   2.241
 7721SOL    HW124062   0.594   5.685   2.300
 7721SOL    HW224063   0.745   5.733   2.260
 7722SOL     OW24064   1.950   4.272   3.763
 7722SOL    HW124065   1.862   4.315   3.744
 7722SOL    HW224066   2.008   4.277   3.681
 7723SOL     OW24067   4.022   3.612   6.706
 7723SOL    HW124068   3.952   3.622   6.635
 7723SOL    HW224069   4.053   3.517   6.709
 7724SOL     OW24070   3.294   4.680   0.758
 7724SOL    HW124071   3.251   4.701   0.671
 7724SOL    HW224072   3.303   4.580   0.768
 7725SOL     OW24073   6.633   1.614   3.127
 7725SOL    HW124074   6.558   1.572   3.178
 7725SOL    HW224075   6.719   1.567   3.148
 7726SOL     OW24076   1.416   4.142   6.372
 7726SOL    HW124077   1.429   4.044   6.352
 7726SOL    HW224078   1.399   4.191   6.286
 7727SOL     OW24079   6.432   2.499   2.150
 7727SOL    HW124080   6.490   2.579   2.146
 7727SOL    HW224081   6.485   2.417   2.126
 7728SOL     OW24082   2.160   2.857   5.135
 7728SOL    HW124083   2.154   2.905   5.222
 7728SOL    HW224084   2.234   2.897   5.080
 7729SOL     OW24085   5.506   0.835   1.632
 7729SOL    HW124086   5.490   0.906   1.564
 7729SOL    HW224087   5.602   0.837   1.661
 7730SOL     OW24088   6.809   4.977   6.274
 7730SOL    HW124089   6.898   5.024   6.271
 7730SOL    HW224090   6.821   4.881   6.248
 7731SOL     OW24091   6.201   0.117   0.362
 7731SOL    HW124092   6.181   0.161   0.449
 7731SOL    HW224093   6.202   0.018   0.373
 7732SOL     OW24094   3.874   0.114   0.253
 7732SOL    HW124095   3.838   0.043   0.193
 7732SOL    HW224096   3.815   0.194   0.249
 7733SOL     OW24097   5.507   6.105   2.161
 7733SOL    HW124098   5.419   6.084   2.119
 7733SOL    HW224099   5.525   6.042   2.237
 7734SOL     OW24100   1.474   4.914   5.213
 7734SOL    HW124101   1.396   4.880   5.266
 7734SOL    HW224102   1.543   4.842   5.204
 7735SOL     OW24103   5.620   5.682   5.955
 7735SOL    HW124104   5.531   5.725   5.937
 7735SOL    HW224105   5.684   5.752   5.986
 7736SOL     OW24106   2.916   2.968   6.631
 7736SOL    HW124107   2.912   2.878   6.673
 7736SOL    HW224108   3.009   3.003   6.636
 7737SOL     OW24109   3.706   0.533   2.205
 7737SOL    HW124110   3.635   0.477   2.248
 7737SOL    HW224111   3.697   0.628   2.236
 7738SOL     OW24112   2.805   5.431   0.470
 7738SOL    HW124113   2.768   5.403   0.558
 7738SOL    HW224114   2.747   5.394   0.397
 7739SOL     OW24115   1.304   1.852   2.276
 7739SOL    HW124116   1.269   1.819   2.364
 7739SOL    HW224117   1.279   1.948   2.264
 7740SOL     OW24118   2.687   1.275   3.544
 7740SOL    HW124119   2.766   1.300   3.487
 7740SOL    HW224120   2.685   1.333   3.625
 7741SOL     OW24121   0.174   4.224   5.029
 7741SOL    HW124122   0.186   4.262   5.121
 7741SOL    HW224123   0.201   4.293   4.961
 7742SOL     OW24124   4.403   2.422   3.792
 7742SOL    HW124125   4.331   2.452   3.855
 7742SOL    HW224126   4.367   2.353   3.730
 7743SOL     OW24127   4.635   1.209   6.948
 7743SOL    HW124128   4.659   1.163   0.003
 7743SOL    HW224129   4.718   1.245   6.905
 7744SOL     OW24130   0.909   0.061   3.864
 7744SOL    HW124131   0.817   0.034   3.837
 7744SOL    HW224132   0.975   0.001   3.819
 7745SOL     OW24133   3.015   0.339   0.766
 7745SOL    HW124134   3.018   0.388   0.678
 7745SOL    HW224135   3.108   0.325   0.799
 7746SOL     OW24136   0.600   0.169   0.661
 7746SOL    HW124137   0.639   0.079   0.681
 7746SOL    HW224138   0.673   0.233   0.636
 7747SOL     OW24139   6.723   6.571   1.406
 7747SOL    HW124140   6.763   6.481   1.389
 7747SOL    HW224141   6.782   6.622   1.468
 7748SOL     OW24142   3.772   4.098   4.086
 7748SOL    HW124143   3.754   4.144   4.173
 7748SOL    HW224144   3.707   4.130   4.018
 7749SOL     OW24145   2.999   3.438   4.401
 7749SOL    HW124146   3.095   3.439   4.374
 7749SOL    HW224147   2.983   3.364   4.466
 7750SOL     OW24148   6.551   5.691   6.975
 7750SOL    HW124149   6.577   5.612   6.920
 7750SOL    HW224150   6.455   5.682   7.002
 7751SOL     OW24151   0.827   2.680   2.762
 7751SOL    HW124152   0.786   2.690   2.853
 7751SOL    HW224153   0.759   2.701   2.692
 7752SOL     OW24154   5.458   5.795   5.187
 7752SOL    HW124155   5.406   5.880   5.198
 7752SOL    HW224156   5.461   5.746   5.275
 7753SOL     OW24157   2.317   0.457   3.982
 7753SOL    HW124158   2.374   0.375   3.977
 7753SOL    HW224159   2.260   0.462   3.900
 7754SOL     OW24160   5.301   6.507   1.963
 7754SOL    HW124161   5.202   6.512   1.951
 7754SOL    HW224162   5.344   6.587   1.922
 7755SOL     OW24163   1.338   1.846   5.924
 7755SOL    HW124164   1.238   1.848   5.911
 7755SOL    HW224165   1.383   1.873   5.840
 7756SOL     OW24166   3.472   5.014   2.920
 7756SOL    HW124167   3.552   4.967   2.958
 7756SOL    HW224168   3.481   5.019   2.821
 7757SOL     OW24169   5.183   5.752   4.661
 7757SOL    HW124170   5.226   5.786   4.745
 7757SOL    HW224171   5.245   5.690   4.614
 7758SOL     OW24172   1.254   1.876   0.429
 7758SOL    HW124173   1.248   1.791   0.376
 7758SOL    HW224174   1.191   1.873   0.507
 7759SOL     OW24175   1.025   1.884   4.954
 7759SOL    HW124176   1.062   1.974   4.973
 7759SOL    HW224177   1.096   1.826   4.915
 7760SOL     OW24178   5.893   3.354   2.741
 7760SOL    HW124179   5.917   3.430   2.681
 7760SOL    HW224180   5.796   3.331   2.728
 7761SOL     OW24181   1.090   0.241   6.624
 7761SOL    HW124182   1.142   0.192   6.694
 7761SOL    HW224183   0.992   0.225   6.638
 7762SOL     OW24184   4.345   0.804   3.819
 7762SOL    HW124185   4.403   0.764   3.891
 7762SOL    HW224186   4.279   0.866   3.861
 7763SOL     OW24187   1.029   1.519   0.686
 7763SOL    HW124188   1.041   1.462   0.767
 7763SOL    HW224189   0.934   1.551   0.682
 7764SOL     OW24190   3.511   3.031   3.264
 7764SOL    HW124191   3.475   3.110   3.314
 7764SOL    HW224192   3.435   2.981   3.222
 7765SOL     OW24193   5.674   2.428   4.180
 7765SOL    HW124194   5.649   2.513   4.225
 7765SOL    HW224195   5.773   2.425   4.168
 7766SOL     OW24196   5.901   2.300   0.050
 7766SOL    HW124197   5.994   2.262   0.044
 7766SOL    HW224198   5.846   2.243   0.111
 7767SOL     OW24199   4.720   6.591   3.784
 7767SOL    HW124200   4.755   6.569   3.875
 7767SOL    HW224201   4.683   6.508   3.742
 7768SOL     OW24202   4.041   4.872   2.625
 7768SOL    HW124203   3.962   4.850   2.568
 7768SOL    HW224204   4.124   4.870   2.569
 7769SOL     OW24205   4.905   2.332   2.561
 7769SOL    HW124206   4.875   2.419   2.599
 7769SOL    HW224207   4.997   2.342   2.524
 7770SOL     OW24208   0.927   3.969   2.350
 7770SOL    HW124209   0.830   3.979   2.371
 7770SOL    HW224210   0.944   3.877   2.313
 7771SOL     OW24211   2.551   2.054   5.210
 7771SOL    HW124212   2.454   2.055   5.235
 7771SOL    HW224213   2.576   1.964   5.173
 7772SOL     OW24214   5.934   0.797   2.742
 7772SOL    HW124215   5.880   0.717   2.716
 7772SOL    HW224216   5.874   0.877   2.749
 7773SOL     OW24217   3.340   5.659   4.920
 7773SOL    HW124218   3.281   5.735   4.947
 7773SOL    HW224219   3.425   5.663   4.972
 7774SOL     OW24220   5.856   2.400   5.908
 7774SOL    HW124221   5.824   2.455   5.985
 7774SOL    HW224222   5.809   2.430   5.825
 7775SOL     OW24223   4.043   6.451   2.516
 7775SOL    HW124224   4.064   6.531   2.572
 7775SOL    HW224225   3.958   6.409   2.548
 7776SOL     OW24226   2.686   4.746   0.089
 7776SOL    HW124227   2.645   4.804   0.018
 7776SOL    HW224228   2.728   4.666   0.046
 7777SOL     OW24229   0.807   0.616   5.220
 7777SOL    HW124230   0.721   0.666   5.226
 7777SOL    HW224231   0.845   0.623   5.128
 7778SOL     OW24232   5.057   5.397   0.399
 7778SOL    HW124233   4.976   5.429   0.448
 7778SOL    HW224234   5.056   5.433   0.306
 7779SOL     OW24235   2.857   2.803   1.211
 7779SOL    HW124236   2.761   2.815   1.235
 7779SOL    HW224237   2.868   2.715   1.163
 7780SOL     OW24238   0.835   5.309   5.692
 7780SOL    HW124239   0.844   5.249   5.612
 7780SOL    HW224240   0.819   5.254   5.774
 7781SOL     OW24241   1.268   4.852   0.021
 7781SOL    HW124242   1.259   4.901   6.964
 7781SOL    HW224243   1.319   4.767   0.006
 7782SOL     OW24244   0.863   4.933   4.778
 7782SOL    HW124245   0.885   4.875   4.700
 7782SOL    HW224246   0.826   4.877   4.852
 7783SOL     OW24247   1.558   6.111   4.720
 7783SOL    HW124248   1.479   6.049   4.726
 7783SOL    HW224249   1.579   6.128   4.624
 7784SOL     OW24250   3.079   2.798   0.655
 7784SOL    HW124251   3.081   2.889   0.698
 7784SOL    HW224252   3.164   2.750   0.673
 7785SOL     OW24253   1.684   6.708   4.132
 7785SOL    HW124254   1.736   6.726   4.216
 7785SOL    HW224255   1.715   6.770   4.060
 7786SOL     OW24256   3.276   6.141   0.152
 7786SOL    HW124257   3.195   6.084   0.167
 7786SOL    HW224258   3.324   6.153   0.239
 7787SOL     OW24259   2.843   2.957   6.142
 7787SOL    HW124260   2.819   2.952   6.239
 7787SOL    HW224261   2.777   2.904   6.088
 7788SOL     OW24262   1.602   5.823   2.244
 7788SOL    HW124263   1.525   5.786   2.297
 7788SOL    HW224264   1.677   5.757   2.242
 7789SOL     OW24265   2.832   0.002   6.721
 7789SOL    HW124266   2.895   0.025   6.796
 7789SOL    HW224267   2.741   0.036   6.743
 7790SOL     OW24268   5.129   5.222   2.892
 7790SOL    HW124269   5.055   5.276   2.932
 7790SOL    HW224270   5.142   5.139   2.946
 7791SOL     OW24271   2.358   5.880   3.463
 7791SOL    HW124272   2.420   5.958   3.473
 7791SOL    HW224273   2.404   5.808   3.411
 7792SOL     OW24274   1.776   5.347   5.304
 7792SOL    HW124275   1.752   5.427   5.358
 7792SOL    HW224276   1.720   5.269   5.332
 7793SOL     OW24277   3.341   0.885   0.037
 7793SOL    HW124278   3.313   0.800   0.082
 7793SOL    HW224279   3.288   0.898   6.984
 7794SOL     OW24280   5.910   4.934   3.491
 7794SOL    HW124281   5.844   4.933   3.416
 7794SOL    HW224282   6.003   4.929   3.454
 7795SOL     OW24283   2.384   3.939   5.763
 7795SOL    HW124284   2.394   3.869   5.693
 7795SOL    HW224285   2.318   4.008   5.733
 7796SOL     OW24286   3.227   3.969   3.260
 7796SOL    HW124287   3.265   3.883   3.293
 7796SOL    HW224288   3.289   4.044   3.282
 7797SOL     OW24289   1.387   0.016   2.816
 7797SOL    HW124290   1.317   0.065   2.868
 7797SOL    HW224291   1.396   6.953   2.853
 7798SOL     OW24292   1.910   4.342   5.844
 7798SOL    HW124293   1.992   4.375   5.797
 7798SOL    HW224294   1.844   4.310   5.776
 7799SOL     OW24295   1.287   6.045   2.265
 7799SOL    HW124296   1.359   6.094   2.314
 7799SOL    HW224297   1.266   5.960   2.312
 7800SOL     OW24298   1.216   5.457   0.622
 7800SOL    HW124299   1.167   5.538   0.590
 7800SOL    HW224300   1.152   5.379   0.626
 7801SOL     OW24301   2.181   2.007   2.001
 7801SOL    HW124302   2.087   1.988   1.976
 7801SOL    HW224303   2.192   1.997   2.100
 7802SOL     OW24304   5.440   2.288   0.937
 7802SOL    HW124305   5.489   2.365   0.897
 7802SOL    HW224306   5.501   2.209   0.943
 7803SOL     OW24307   4.137   2.118   6.153
 7803SOL    HW124308   4.146   2.180   6.231
 7803SOL    HW224309   4.176   2.163   6.072
 7804SOL     OW24310   4.805   1.971   4.218
 7804SOL    HW124311   4.832   1.883   4.180
 7804SOL    HW224312   4.887   2.022   4.245
 7805SOL     OW24313   5.167   1.797   0.386
 7805SOL    HW124314   5.259   1.801   0.346
 7805SOL    HW224315   5.169   1.743   0.470
 7806SOL     OW24316   5.941   1.902   6.634
 7806SOL    HW124317   5.856   1.940   6.598
 7806SOL    HW224318   6.019   1.941   6.584
 7807SOL     OW24319   0.725   4.493   5.569
 7807SOL    HW124320   0.750   4.425   5.500
 7807SOL    HW224321   0.805   4.514   5.625
 7808SOL     OW24322   6.415   2.912   4.212
 7808SOL    HW124323   6.453   2.965   4.136
 7808SOL    HW224324   6.427   2.963   4.297
 7809SOL     OW24325   2.108   5.701   4.175
 7809SOL    HW124326   2.035   5.701   4.244
 7809SOL    HW224327   2.136   5.795   4.158
 7810SOL     OW24328   3.523   0.461   4.968
 7810SOL    HW124329   3.590   0.528   4.999
 7810SOL    HW224330   3.470   0.500   4.893
 7811SOL     OW24331   0.910   5.570   2.917
 7811SOL    HW124332   0.815   5.591   2.895
 7811SOL    HW224333   0.940   5.493   2.861
 7812SOL     OW24334   1.089   2.373   3.568
 7812SOL    HW124335   1.032   2.293   3.586
 7812SOL    HW224336   1.059   2.418   3.484
 7813SOL     OW24337   4.116   2.390   6.593
 7813SOL    HW124338   4.199   2.442   6.572
 7813SOL    HW224339   4.141   2.307   6.643
 7814SOL     OW24340   7.009   2.840   3.368
 7814SOL    HW124341   7.007   2.765   3.433
 7814SOL    HW224342   0.016   2.922   3.411
 7815SOL     OW24343   4.820   0.304   5.972
 7815SOL    HW124344   4.860   0.271   6.057
 7815SOL    HW224345   4.805   0.403   5.978
 7816SOL     OW24346   1.595   1.938   6.611
 7816SOL    HW124347   1.694   1.926   6.607
 7816SOL    HW224348   1.571   2.028   6.575
 7817SOL     OW24349   5.516   4.329   3.600
 7817SOL    HW124350   5.471   4.261   3.543
 7817SOL    HW224351   5.610   4.299   3.620
 7818SOL     OW24352   4.754   0.645   3.060
 7818SOL    HW124353   4.836   0.590   3.041
 7818SOL    HW224354   4.750   0.721   2.996
 7819SOL     OW24355   6.894   3.210   1.647
 7819SOL    HW124356   6.900   3.302   1.609
 7819SOL    HW224357   6.954   3.203   1.727
 7820SOL     OW24358   1.340   2.271   4.924
 7820SOL    HW124359   1.330   2.369   4.943
 7820SOL    HW224360   1.315   2.253   4.830
 7821SOL     OW24361   5.486   6.462   0.836
 7821SOL    HW124362   5.427   6.542   0.839
 7821SOL    HW224363   5.504   6.429   0.929
 7822SOL     OW24364   0.826   1.591   5.619
 7822SOL    HW124365   0.897   1.632   5.562
 7822SOL    HW224366   0.743   1.576   5.564
 7823SOL     OW24367   2.635   3.780   5.309
 7823SOL    HW124368   2.578   3.710   5.267
 7823SOL    HW224369   2.599   3.870   5.287
 7824SOL     OW24370   5.642   1.159   3.885
 7824SOL    HW124371   5.698   1.081   3.855
 7824SOL    HW224372   5.699   1.221   3.940
 7825SOL     OW24373   1.611   2.952   1.254
 7825SOL    HW124374   1.527   2.912   1.218
 7825SOL    HW224375   1.588   3.019   1.325
 7826SOL     OW24376   6.316   1.211   1.435
 7826SOL    HW124377   6.363   1.225   1.348
 7826SOL    HW224378   6.246   1.281   1.447
 7827SOL     OW24379   1.795   5.123   1.272
 7827SOL    HW124380   1.825   5.124   1.367
 7827SOL    HW224381   1.822   5.036   1.230
 7828SOL     OW24382   0.822   4.397   6.944
 7828SOL    HW124383   0.767   4.319   6.914
 7828SOL    HW224384   0.919   4.374   6.934
 7829SOL     OW24385   2.341   3.909   1.475
 7829SOL    HW124386   2.243   3.929   1.471
 7829SOL    HW224387   2.357   3.835   1.540
 7830SOL     OW24388   2.693   4.791   5.200
 7830SOL    HW124389   2.749   4.754   5.126
 7830SOL    HW224390   2.749   4.800   5.283
 7831SOL     OW24391   2.220   6.623   1.993
 7831SOL    HW124392   2.194   6.532   2.026
 7831SOL    HW224393   2.146   6.662   1.939
 7832SOL     OW24394   5.768   0.736   3.231
 7832SOL    HW124395   5.735   0.771   3.319
 7832SOL    HW224396   5.693   0.735   3.165
 7833SOL     OW24397   0.615   1.163   6.163
 7833SOL    HW124398   0.532   1.160   6.107
 7833SOL    HW224399   0.656   1.072   6.166
 7834SOL     OW24400   0.008   1.550   3.696
 7834SOL    HW124401   0.076   1.487   3.731
 7834SOL    HW224402   0.053   1.625   3.647
 7835SOL     OW24403   3.416   2.278   5.331
 7835SOL    HW124404   3.501   2.326   5.310
 7835SOL    HW224405   3.341   2.319   5.279
 7836SOL     OW24406   3.255   2.960   5.084
 7836SOL    HW124407   3.271   2.952   4.985
 7836SOL    HW224408   3.322   3.023   5.123
 7837SOL     OW24409   5.241   5.000   6.967
 7837SOL    HW124410   5.144   5.026   6.975
 7837SOL    HW224411   5.260   4.975   6.872
 7838SOL     OW24412   4.064   6.878   1.209
 7838SOL    HW124413   4.024   6.787   1.203
 7838SOL    HW224414   4.040   6.931   1.128
 7839SOL     OW24415   5.778   4.180   5.394
 7839SOL    HW124416   5.832   4.096   5.403
 7839SOL    HW224417   5.719   4.174   5.313
 7840SOL     OW24418   6.246   3.219   3.838
 7840SOL    HW124419   6.285   3.305   3.806
 7840SOL    HW224420   6.146   3.223   3.833
 7841SOL     OW24421   3.415   1.934   6.073
 7841SOL    HW124422   3.494   1.913   6.016
 7841SOL    HW224423   3.427   1.893   6.163
 7842SOL     OW24424   3.030   2.228   2.917
 7842SOL    HW124425   3.071   2.182   2.995
 7842SOL    HW224426   3.101   2.248   2.849
 7843SOL     OW24427   0.820   6.291   3.368
 7843SOL    HW124428   0.793   6.377   3.323
 7843SOL    HW224429   0.920   6.284   3.370
 7844SOL     OW24430   3.663   0.424   2.922
 7844SOL    HW124431   3.576   0.378   2.940
 7844SOL    HW224432   3.675   0.499   2.987
 7845SOL     OW24433   5.538   1.732   2.648
 7845SOL    HW124434   5.616   1.712   2.588
 7845SOL    HW224435   5.520   1.830   2.647
 7846SOL     OW24436   0.313   1.873   1.616
 7846SOL    HW124437   0.369   1.947   1.579
 7846SOL    HW224438   0.269   1.823   1.541
 7847SOL     OW24439   6.973   1.114   3.218
 7847SOL    HW124440   6.969   1.175   3.297
 7847SOL    HW224441   6.929   1.157   3.139
 7848SOL     OW24442   3.020   4.385   0.405
 7848SOL    HW124443   3.016   4.291   0.440
 7848SOL    HW224444   3.063   4.444   0.473
 7849SOL     OW24445   6.533   4.530   4.669
 7849SOL    HW124446   6.467   4.491   4.733
 7849SOL    HW224447   6.491   4.541   4.580
 7850SOL     OW24448   0.276   1.389   4.294
 7850SOL    HW124449   0.336   1.324   4.340
 7850SOL    HW224450   0.232   1.448   4.362
 7851SOL     OW24451   6.654   1.429   1.555
 7851SOL    HW124452   6.637   1.503   1.621
 7851SOL    HW224453   6.567   1.398   1.517
 7852SOL     OW24454   3.271   1.795   6.387
 7852SOL    HW124455   3.368   1.816   6.395
 7852SOL    HW224456   3.234   1.771   6.477
 7853SOL     OW24457   5.139   2.576   1.842
 7853SOL    HW124458   5.080   2.525   1.781
 7853SOL    HW224459   5.168   2.517   1.918
 7854SOL     OW24460   3.500   3.776   6.783
 7854SOL    HW124461   3.535   3.729   6.863
 7854SOL    HW224462   3.527   3.872   6.786
 7855SOL     OW24463   4.720   6.953   4.322
 7855SOL    HW124464   4.682   6.865   4.350
 7855SOL    HW224465   4.649   7.023   4.329
 7856SOL     OW24466   6.791   5.757   5.070
 7856SOL    HW124467   6.691   5.767   5.069
 7856SOL    HW224468   6.825   5.780   5.161
 7857SOL     OW24469   4.844   2.515   0.021
 7857SOL    HW124470   4.789   2.434   7.030
 7857SOL    HW224471   4.823   2.545   0.115
 7858SOL     OW24472   6.115   6.604   4.117
 7858SOL    HW124473   6.073   6.535   4.058
 7858SOL    HW224474   6.096   6.695   4.080
 7859SOL     OW24475   4.245   2.766   6.023
 7859SOL    HW124476   4.171   2.833   6.031
 7859SOL    HW224477   4.323   2.808   5.977
 7860SOL     OW24478   4.137   0.704   3.648
 7860SOL    HW124479   4.222   0.753   3.670
 7860SOL    HW224480   4.077   0.763   3.595
 7861SOL     OW24481   3.697   4.619   1.529
 7861SOL    HW124482   3.667   4.624   1.625
 7861SOL    HW224483   3.703   4.711   1.491
 7862SOL     OW24484   1.950   4.621   1.969
 7862SOL    HW124485   1.937   4.593   1.874
 7862SOL    HW224486   2.028   4.682   1.976
 7863SOL     OW24487   0.330   4.407   4.666
 7863SOL    HW124488   0.350   4.480   4.601
 7863SOL    HW224489   0.232   4.390   4.670
 7864SOL     OW24490   0.690   5.546   5.341
 7864SOL    HW124491   0.708   5.599   5.424
 7864SOL    HW224492   0.776   5.534   5.291
 7865SOL     OW24493   6.381   6.184   4.052
 7865SOL    HW124494   6.478   6.167   4.067
 7865SOL    HW224495   6.359   6.278   4.078
 7866SOL     OW24496   0.826   1.778   6.113
 7866SOL    HW124497   0.745   1.796   6.170
 7866SOL    HW224498   0.802   1.713   6.041
 7867SOL     OW24499   5.945   6.059   3.265
 7867SOL    HW124500   5.913   6.087   3.355
 7867SOL    HW224501   5.879   6.088   3.196
 7868SOL     OW24502   5.022   6.585   1.931
 7868SOL    HW124503   5.000   6.683   1.930
 7868SOL    HW224504   4.958   6.537   1.991
 7869SOL     OW24505   5.304   3.733   0.012
 7869SOL    HW124506   5.322   3.826   0.045
 7869SOL    HW224507   5.287   3.673   0.090
 7870SOL     OW24508   4.689   5.825   4.249
 7870SOL    HW124509   4.670   5.897   4.317
 7870SOL    HW224510   4.728   5.745   4.296
 7871SOL     OW24511   4.684   1.989   1.998
 7871SOL    HW124512   4.612   1.958   1.935
 7871SOL    HW224513   4.669   2.086   2.020
 7872SOL     OW24514   2.033   3.360   2.975
 7872SOL    HW124515   1.949   3.374   3.029
 7872SOL    HW224516   2.099   3.431   2.998
 7873SOL     OW24517   5.529   6.709   6.331
 7873SOL    HW124518   5.604   6.770   6.357
 7873SOL    HW224519   5.566   6.634   6.276
 7874SOL     OW24520   4.764   2.597   0.269
 7874SOL    HW124521   4.824   2.542   0.328
 7874SOL    HW224522   4.670   2.587   0.300
 7875SOL     OW24523   4.482   3.026   6.804
 7875SOL    HW124524   4.485   2.990   6.897
 7875SOL    HW224525   4.508   3.123   6.806
 7876SOL     OW24526   1.525   6.875   3.586
 7876SOL    HW124527   1.431   6.840   3.582
 7876SOL    HW224528   1.583   6.808   3.632
 7877SOL     OW24529   0.829   1.824   2.736
 7877SOL    HW124530   0.897   1.802   2.806
 7877SOL    HW224531   0.870   1.812   2.646
 7878SOL     OW24532   4.713   4.258   4.540
 7878SOL    HW124533   4.699   4.317   4.619
 7878SOL    HW224534   4.726   4.163   4.570
 7879SOL     OW24535   4.078   5.461   3.241
 7879SOL    HW124536   4.073   5.389   3.172
 7879SOL    HW224537   4.063   5.550   3.198
 7880SOL     OW24538   2.136   3.886   1.737
 7880SOL    HW124539   2.163   3.825   1.812
 7880SOL    HW224540   2.063   3.844   1.684
 7881SOL     OW24541   6.077   4.896   4.910
 7881SOL    HW124542   6.001   4.947   4.870
 7881SOL    HW224543   6.153   4.958   4.928
 7882SOL     OW24544   1.604   3.398   2.375
 7882SOL    HW124545   1.566   3.326   2.433
 7882SOL    HW224546   1.530   3.460   2.347
 7883SOL     OW24547   1.172   0.387   0.360
 7883SOL    HW124548   1.210   0.405   0.451
 7883SOL    HW224549   1.117   0.304   0.364
 7884SOL     OW24550   2.170   3.922   4.281
 7884SOL    HW124551   2.116   3.992   4.328
 7884SOL    HW224552   2.121   3.892   4.199
 7885SOL     OW24553   6.222   5.620   1.012
 7885SOL    HW124554   6.181   5.611   1.103
 7885SOL    HW224555   6.207   5.713   0.978
 7886SOL     OW24556   3.785   4.945   0.112
 7886SOL    HW124557   3.821   4.864   0.066
 7886SOL    HW224558   3.775   5.020   0.045
 7887SOL     OW24559   3.264   2.350   5.549
 7887SOL    HW124560   3.306   2.287   5.483
 7887SOL    HW224561   3.209   2.418   5.501
 7888SOL     OW24562   6.504   0.560   5.394
 7888SOL    HW124563   6.512   0.618   5.475
 7888SOL    HW224564   6.424   0.589   5.341
 7889SOL     OW24565   1.379   4.371   1.304
 7889SOL    HW124566   1.477   4.364   1.282
 7889SOL    HW224567   1.341   4.451   1.258
 7890SOL     OW24568   1.712   2.752   2.887
 7890SOL    HW124569   1.695   2.677   2.949
 7890SOL    HW224570   1.798   2.736   2.837
 7891SOL     OW24571   1.713   3.381   3.672
 7891SOL    HW124572   1.619   3.351   3.661
 7891SOL    HW224573   1.757   3.389   3.583
 7892SOL     OW24574   2.414   1.428   4.042
 7892SOL    HW124575   2.441   1.524   4.050
 7892SOL    HW224576   2.488   1.375   4.002
 7893SOL     OW24577   6.800   6.121   2.655
 7893SOL    HW124578   6.738   6.050   2.689
 7893SOL    HW224579   6.810   6.193   2.723
 7894SOL     OW24580   3.284   0.365   0.827
 7894SOL    HW124581   3.301   0.292   0.893
 7894SOL    HW224582   3.347   0.441   0.844
 7895SOL     OW24583   6.296   1.010   5.596
 7895SOL    HW124584   6.340   1.081   5.650
 7895SOL    HW224585   6.332   1.011   5.503
 7896SOL     OW24586   4.935   3.870   0.182
 7896SOL    HW124587   4.860   3.932   0.160
 7896SOL    HW224588   5.019   3.923   0.194
 7897SOL     OW24589   2.540   4.175   0.124
 7897SOL    HW124590   2.583   4.150   0.038
 7897SOL    HW224591   2.446   4.141   0.126
 7898SOL     OW24592   4.872   1.798   3.617
 7898SOL    HW124593   4.928   1.817   3.697
 7898SOL    HW224594   4.901   1.712   3.575
 7899SOL     OW24595   5.906   0.864   0.741
 7899SOL    HW124596   5.903   0.835   0.836
 7899SOL    HW224597   5.815   0.895   0.713
 7900SOL     OW24598   1.533   5.486   1.453
 7900SOL    HW124599   1.446   5.436   1.457
 7900SOL    HW224600   1.514   5.584   1.450
 7901SOL     OW24601   5.116   1.398   6.747
 7901SOL    HW124602   5.132   1.495   6.729
 7901SOL    HW224603   5.196   1.360   6.793
 7902SOL     OW24604   5.260   6.018   1.313
 7902SOL    HW124605   5.184   6.035   1.250
 7902SOL    HW224606   5.295   5.925   1.298
 7903SOL     OW24607   5.994   1.141   0.769
 7903SOL    HW124608   5.970   1.044   0.765
 7903SOL    HW224609   6.039   1.167   0.683
 7904SOL     OW24610   5.840   6.408   3.215
 7904SOL    HW124611   5.834   6.360   3.302
 7904SOL    HW224612   5.853   6.342   3.141
 7905SOL     OW24613   4.734   2.767   0.539
 7905SOL    HW124614   4.809   2.707   0.566
 7905SOL    HW224615   4.668   2.717   0.483
 7906SOL     OW24616   0.236   5.425   0.672
 7906SOL    HW124617   0.139   5.403   0.666
 7906SOL    HW224618   0.248   5.510   0.724
 7907SOL     OW24619   5.615   2.582   3.424
 7907SOL    HW124620   5.676   2.595   3.502
 7907SOL    HW224621   5.661   2.529   3.353
 7908SOL     OW24622   0.590   1.960   5.641
 7908SOL    HW124623   0.613   1.892   5.571
 7908SOL    HW224624   0.504   1.935   5.685
 7909SOL     OW24625   5.596   3.700   4.969
 7909SOL    HW124626   5.680   3.724   4.920
 7909SOL    HW224627   5.552   3.783   5.004
 7910SOL     OW24628   2.720   3.528   5.691
 7910SOL    HW124629   2.748   3.622   5.674
 7910SOL    HW224630   2.778   3.487   5.761
 7911SOL     OW24631   1.637   3.079   6.782
 7911SOL    HW124632   1.630   3.138   6.863
 7911SOL    HW224633   1.545   3.053   6.752
 7912SOL     OW24634   6.755   5.022   0.430
 7912SOL    HW124635   6.776   4.926   0.412
 7912SOL    HW224636   6.807   5.080   0.367
 7913SOL     OW24637   1.147   5.098   1.051
 7913SOL    HW124638   1.153   5.141   1.141
 7913SOL    HW224639   1.066   5.040   1.047
 7914SOL     OW24640   6.959   4.356   6.444
 7914SOL    HW124641   6.877   4.343   6.388
 7914SOL    HW224642   7.005   4.268   6.457
 7915SOL     OW24643   4.727   2.851   2.261
 7915SOL    HW124644   4.791   2.920   2.296
 7915SOL    HW224645   4.715   2.864   2.162
 7916SOL     OW24646   0.171   3.900   5.741
 7916SOL    HW124647   0.113   3.824   5.768
 7916SOL    HW224648   0.119   3.965   5.685
 7917SOL     OW24649   3.586   3.860   3.384
 7917SOL    HW124650   3.522   3.822   3.318
 7917SOL    HW224651   3.680   3.834   3.360
 7918SOL     OW24652   0.433   1.617   0.009
 7918SOL    HW124653   0.487   1.669   0.075
 7918SOL    HW224654   0.482   1.614   6.951
 7919SOL     OW24655   1.622   4.604   2.870
 7919SOL    HW124656   1.544   4.546   2.848
 7919SOL    HW224657   1.611   4.643   2.961
 7920SOL     OW24658   0.489   5.276   0.706
 7920SOL    HW124659   0.419   5.334   0.664
 7920SOL    HW224660   0.551   5.332   0.760
 7921SOL     OW24661   4.427   6.525   0.629
 7921SOL    HW124662   4.487   6.466   0.683
 7921SOL    HW224663   4.334   6.521   0.667
 7922SOL     OW24664   6.856   6.251   0.050
 7922SOL    HW124665   6.771   6.303   0.039
 7922SOL    HW224666   6.893   6.266   0.142
 7923SOL     OW24667   3.144   0.933   2.208
 7923SOL    HW124668   3.129   0.911   2.305
 7923SOL    HW224669   3.178   0.852   2.161
 7924SOL     OW24670   4.197   6.550   2.303
 7924SOL    HW124671   4.269   6.487   2.275
 7924SOL    HW224672   4.141   6.507   2.374
 7925SOL     OW24673   0.609   1.839   6.269
 7925SOL    HW124674   0.560   1.907   6.215
 7925SOL    HW224675   0.543   1.775   6.310
 7926SOL     OW24676   5.171   1.350   5.519
 7926SOL    HW124677   5.223   1.345   5.604
 7926SOL    HW224678   5.206   1.425   5.463
 7927SOL     OW24679   4.105   5.291   4.204
 7927SOL    HW124680   4.198   5.311   4.175
 7927SOL    HW224681   4.096   5.194   4.226
 7928SOL     OW24682   1.550   2.337   4.281
 7928SOL    HW124683   1.467   2.357   4.228
 7928SOL    HW224684   1.560   2.405   4.354
 7929SOL     OW24685   3.828   3.856   5.817
 7929SOL    HW124686   3.790   3.769   5.784
 7929SOL    HW224687   3.923   3.841   5.845
 7930SOL     OW24688   4.269   5.659   4.173
 7930SOL    HW124689   4.281   5.691   4.267
 7930SOL    HW224690   4.183   5.695   4.136
 7931SOL     OW24691   1.548   1.994   6.121
 7931SOL    HW124692   1.468   1.994   6.061
 7931SOL    HW224693   1.606   1.916   6.098
 7932SOL     OW24694   2.721   6.495   6.725
 7932SOL    HW124695   2.645   6.513   6.663
 7932SOL    HW224696   2.758   6.582   6.758
 7933SOL     OW24697   0.317   5.994   6.878
 7933SOL    HW124698   0.331   5.900   6.909
 7933SOL    HW224699   0.245   5.997   6.809
 7934SOL     OW24700   2.301   4.743   0.421
 7934SOL    HW124701   2.361   4.682   0.370
 7934SOL    HW224702   2.334   4.837   0.414
 7935SOL     OW24703   5.634   6.545   0.245
 7935SOL    HW124704   5.656   6.449   0.232
 7935SOL    HW224705   5.657   6.573   0.339
 7936SOL     OW24706   3.910   5.112   2.750
 7936SOL    HW124707   3.897   5.056   2.669
 7936SOL    HW224708   3.837   5.180   2.756
 7937SOL     OW24709   6.381   0.325   3.924
 7937SOL    HW124710   6.339   0.269   3.853
 7937SOL    HW224711   6.479   0.304   3.929
 7938SOL     OW24712   6.242   5.302   5.129
 7938SOL    HW124713   6.334   5.300   5.166
 7938SOL    HW224714   6.175   5.305   5.203
 7939SOL     OW24715   1.005   2.745   5.686
 7939SOL    HW124716   0.935   2.734   5.757
 7939SOL    HW224717   0.960   2.756   5.597
 7940SOL     OW24718   1.844   3.625   2.818
 7940SOL    HW124719   1.781   3.682   2.766
 7940SOL    HW224720   1.929   3.675   2.834
 7941SOL     OW24721   6.594   6.559   0.597
 7941SOL    HW124722   6.661   6.625   0.565
 7941SOL    HW224723   6.608   6.542   0.695
 7942SOL     OW24724   6.600   5.452   2.947
 7942SOL    HW124725   6.696   5.425   2.944
 7942SOL    HW224726   6.586   5.533   2.891
 7943SOL     OW24727   5.863   3.312   0.190
 7943SOL    HW124728   5.903   3.274   0.274
 7943SOL    HW224729   5.765   3.324   0.202
 7944SOL     OW24730   0.500   3.183   1.558
 7944SOL    HW124731   0.413   3.214   1.595
 7944SOL    HW224732   0.575   3.223   1.610
 7945SOL     OW24733   5.314   6.238   1.911
 7945SOL    HW124734   5.301   6.335   1.933
 7945SOL    HW224735   5.396   6.227   1.855
 7946SOL     OW24736   2.173   1.630   5.523
 7946SOL    HW124737   2.223   1.650   5.607
 7946SOL    HW224738   2.223   1.665   5.444
 7947SOL     OW24739   3.609   2.280   6.188
 7947SOL    HW124740   3.524   2.233   6.211
 7947SOL    HW224741   3.593   2.342   6.111
 7948SOL     OW24742   0.365   6.138   1.028
 7948SOL    HW124743   0.309   6.056   1.041
 7948SOL    HW224744   0.305   6.217   1.016
 7949SOL     OW24745   4.675   4.315   4.274
 7949SOL    HW124746   4.689   4.286   4.368
 7949SOL    HW224747   4.610   4.391   4.272
 7950SOL     OW24748   5.572   5.001   4.139
 7950SOL    HW124749   5.604   5.096   4.136
 7950SOL    HW224750   5.570   4.970   4.234
 7951SOL     OW24751   1.651   3.758   1.182
 7951SOL    HW124752   1.611   3.735   1.270
 7951SOL    HW224753   1.741   3.716   1.173
 7952SOL     OW24754   1.125   3.286   6.870
 7952SOL    HW124755   1.113   3.285   6.771
 7952SOL    HW224756   1.079   3.366   6.909
 7953SOL     OW24757   1.676   2.951   3.164
 7953SOL    HW124758   1.620   2.869   3.156
 7953SOL    HW224759   1.746   2.951   3.093
 7954SOL     OW24760   4.661   4.506   5.229
 7954SOL    HW124761   4.756   4.534   5.239
 7954SOL    HW224762   4.645   4.424   5.283
 7955SOL     OW24763   1.458   0.076   6.737
 7955SOL    HW124764   1.371   0.101   6.778
 7955SOL    HW224765   1.532   0.093   6.802
 7956SOL     OW24766   3.205   5.928   2.882
 7956SOL    HW124767   3.226   6.025   2.871
 7956SOL    HW224768   3.193   5.908   2.979
 7957SOL     OW24769   1.950   1.413   0.636
 7957SOL    HW124770   2.011   1.492   0.634
 7957SOL    HW224771   2.002   1.331   0.662
 7958SOL     OW24772   3.007   5.470   4.248
 7958SOL    HW124773   2.908   5.470   4.262
 7958SOL    HW224774   3.033   5.390   4.193
 7959SOL     OW24775   4.219   5.825   1.426
 7959SOL    HW124776   4.219   5.923   1.406
 7959SOL    HW224777   4.215   5.773   1.340
 7960SOL     OW24778   3.964   1.839   0.633
 7960SOL    HW124779   3.938   1.935   0.620
 7960SOL    HW224780   4.006   1.804   0.549
 7961SOL     OW24781   0.851   6.417   0.803
 7961SOL    HW124782   0.834   6.406   0.705
 7961SOL    HW224783   0.808   6.502   0.835
 7962SOL     OW24784   1.920   0.355   0.416
 7962SOL    HW124785   2.013   0.387   0.399
 7962SOL    HW224786   1.893   0.290   0.345
 7963SOL     OW24787   0.341   0.760   3.644
 7963SOL    HW124788   0.359   0.818   3.723
 7963SOL    HW224789   0.399   0.789   3.567
 7964SOL     OW24790   6.986   5.073   3.237
 7964SOL    HW124791   6.955   5.076   3.332
 7964SOL    HW224792   6.918   5.026   3.181
 7965SOL     OW24793   3.595   2.936   0.048
 7965SOL    HW124794   3.653   2.878   7.021
 7965SOL    HW224795   3.592   3.028   0.010
 7966SOL     OW24796   0.598   2.991   5.853
 7966SOL    HW124797   0.654   2.916   5.817
 7966SOL    HW224798   0.591   2.983   5.952
 7967SOL     OW24799   2.757   5.965   4.278
 7967SOL    HW124800   2.726   5.914   4.358
 7967SOL    HW224801   2.767   6.061   4.302
 7968SOL     OW24802   2.439   2.233   3.367
 7968SOL    HW124803   2.449   2.313   3.308
 7968SOL    HW224804   2.443   2.150   3.311
 7969SOL     OW24805   4.460   6.847   1.784
 7969SOL    HW124806   4.417   6.907   1.717
 7969SOL    HW224807   4.397   6.832   1.860
 7970SOL     OW24808   0.594   3.299   3.443
 7970SOL    HW124809   0.540   3.219   3.417
 7970SOL    HW224810   0.661   3.318   3.371
 7971SOL     OW24811   4.284   1.472   0.803
 7971SOL    HW124812   4.321   1.510   0.888
 7971SOL    HW224813   4.223   1.396   0.824
 7972SOL     OW24814   1.309   3.777   1.518
 7972SOL    HW124815   1.307   3.875   1.541
 7972SOL    HW224816   1.238   3.729   1.570
 7973SOL     OW24817   4.861   4.244   3.090
 7973SOL    HW124818   4.844   4.167   3.029
 7973SOL    HW224819   4.954   4.237   3.127
 7974SOL     OW24820   5.667   1.006   5.066
 7974SOL    HW124821   5.703   0.967   5.152
 7974SOL    HW224822   5.581   1.053   5.084
 7975SOL     OW24823   6.054   0.237   2.531
 7975SOL    HW124824   5.998   0.248   2.449
 7975SOL    HW224825   6.027   0.305   2.599
 7976SOL     OW24826   0.590   0.668   6.404
 7976SOL    HW124827   0.527   0.615   6.462
 7976SOL    HW224828   0.546   0.754   6.378
 7977SOL     OW24829   5.011   5.447   1.334
 7977SOL    HW124830   5.009   5.367   1.395
 7977SOL    HW224831   4.919   5.483   1.322
 7978SOL     OW24832   5.509   3.624   6.375
 7978SOL    HW124833   5.412   3.606   6.355
 7978SOL    HW224834   5.553   3.539   6.404
 7979SOL     OW24835   3.734   0.569   5.116
 7979SOL    HW124836   3.824   0.529   5.097
 7979SOL    HW224837   3.689   0.515   5.187
 7980SOL     OW24838   2.777   5.602   0.182
 7980SOL    HW124839   2.780   5.673   0.252
 7980SOL    HW224840   2.729   5.522   0.218
 7981SOL     OW24841   0.450   5.655   2.042
 7981SOL    HW124842   0.517   5.678   2.113
 7981SOL    HW224843   0.413   5.740   2.004
 7982SOL     OW24844   0.362   1.343   0.009
 7982SOL    HW124845   0.318   1.318   0.095
 7982SOL    HW224846   0.383   1.440   0.009
 7983SOL     OW24847   5.826   1.895   2.636
 7983SOL    HW124848   5.752   1.931   2.579
 7983SOL    HW224849   5.904   1.957   2.633
 7984SOL     OW24850   1.606   1.628   1.967
 7984SOL    HW124851   1.569   1.719   1.987
 7984SOL    HW224852   1.705   1.632   1.963
 7985SOL     OW24853   2.422   6.225   4.036
 7985SOL    HW124854   2.513   6.223   3.995
 7985SOL    HW224855   2.394   6.132   4.061
 7986SOL     OW24856   3.074   0.537   7.022
 7986SOL    HW124857   3.045   0.587   6.940
 7986SOL    HW224858   3.005   0.549   0.063
 7987SOL     OW24859   1.374   3.386   6.940
 7987SOL    HW124860   1.325   3.472   6.932
 7987SOL    HW224861   1.312   3.310   6.918
 7988SOL     OW24862   1.672   2.034   4.171
 7988SOL    HW124863   1.727   2.079   4.242
 7988SOL    HW224864   1.718   1.951   4.141
 7989SOL     OW24865   3.275   2.558   5.355
 7989SOL    HW124866   3.185   2.570   5.398
 7989SOL    HW224867   3.265   2.507   5.270
 7990SOL     OW24868   6.402   4.307   3.490
 7990SOL    HW124869   6.448   4.396   3.482
 7990SOL    HW224870   6.404   4.276   3.585
 7991SOL     OW24871   6.704   1.116   4.612
 7991SOL    HW124872   6.791   1.067   4.606
 7991SOL    HW224873   6.704   1.173   4.695
 7992SOL     OW24874   1.662   6.294   1.065
 7992SOL    HW124875   1.588   6.287   1.132
 7992SOL    HW224876   1.647   6.373   1.006
 7993SOL     OW24877   1.489   6.133   6.592
 7993SOL    HW124878   1.428   6.130   6.672
 7993SOL    HW224879   1.466   6.058   6.531
 7994SOL     OW24880   4.957   6.755   2.876
 7994SOL    HW124881   5.006   6.677   2.839
 7994SOL    HW224882   4.932   6.737   2.971
 7995SOL     OW24883   4.273   5.274   3.556
 7995SOL    HW124884   4.187   5.321   3.536
 7995SOL    HW224885   4.267   5.231   3.646
 7996SOL     OW24886   2.982   0.253   4.967
 7996SOL    HW124887   3.052   0.255   4.896
 7996SOL    HW224888   2.985   0.339   5.019
 7997SOL     OW24889   7.020   1.257   0.928
 7997SOL    HW124890   0.088   1.269   0.944
 7997SOL    HW224891   7.003   1.166   0.889
 7998SOL     OW24892   3.706   5.516   1.297
 7998SOL    HW124893   3.680   5.550   1.387
 7998SOL    HW224894   3.698   5.591   1.230
 7999SOL     OW24895   1.449   0.083   6.141
 7999SOL    HW124896   1.429   0.042   6.230
 7999SOL    HW224897   1.367   0.128   6.106
 8000SOL     OW24898   5.120   0.507   0.883
 8000SOL    HW124899   5.086   0.498   0.977
 8000SOL    HW224900   5.220   0.499   0.883
 8001SOL     OW24901   3.446   5.712   1.308
 8001SOL    HW124902   3.463   5.683   1.402
 8001SOL    HW224903   3.530   5.746   1.268
 8002SOL     OW24904   0.586   2.376   5.554
 8002SOL    HW124905   0.499   2.349   5.596
 8002SOL    HW224906   0.614   2.305   5.488
 8003SOL     OW24907   2.572   4.594   2.654
 8003SOL    HW124908   2.544   4.686   2.683
 8003SOL    HW224909   2.662   4.573   2.693
 8004SOL     OW24910   1.855   3.868   3.625
 8004SOL    HW124911   1.803   3.859   3.540
 8004SOL    HW224912   1.892   3.778   3.650
 8005SOL     OW24913   3.088   1.559   2.582
 8005SOL    HW124914   3.088   1.464   2.616
 8005SOL    HW224915   3.073   1.559   2.484
 8006SOL     OW24916   2.623   0.018   0.044
 8006SOL    HW124917   2.666   0.096   7.028
 8006SOL    HW224918   2.594   6.982   7.005
 8007SOL     OW24919   0.567   0.549   4.331
 8007SOL    HW124920   0.589   0.475   4.268
 8007SOL    HW224921   0.583   0.519   4.426
 8008SOL     OW24922   4.249   6.579   5.778
 8008SOL    HW124923   4.311   6.560   5.854
 8008SOL    HW224924   4.269   6.515   5.703
 8009SOL     OW24925   6.016   0.423   2.739
 8009SOL    HW124926   5.960   0.360   2.793
 8009SOL    HW224927   6.064   0.486   2.800
 8010SOL     OW24928   1.225   1.146   0.687
 8010SOL    HW124929   1.141   1.105   0.652
 8010SOL    HW224930   1.301   1.083   0.675
 8011SOL     OW24931   3.293   2.550   1.116
 8011SOL    HW124932   3.334   2.547   1.207
 8011SOL    HW224933   3.205   2.503   1.118
 8012SOL     OW24934   2.234   5.667   1.462
 8012SOL    HW124935   2.329   5.670   1.431
 8012SOL    HW224936   2.176   5.629   1.390
 8013SOL     OW24937   0.965   4.501   4.301
 8013SOL    HW124938   0.880   4.525   4.254
 8013SOL    HW224939   1.043   4.520   4.242
 8014SOL     OW24940   0.732   6.203   5.433
 8014SOL    HW124941   0.800   6.147   5.385
 8014SOL    HW224942   0.769   6.294   5.450
 8015SOL     OW24943   3.260   1.422   7.007
 8015SOL    HW124944   3.231   1.332   0.008
 8015SOL    HW224945   3.359   1.432   7.022
 8016SOL     OW24946   4.692   0.195   6.943
 8016SOL    HW124947   4.654   0.112   6.984
 8016SOL    HW224948   4.787   0.205   6.971
 8017SOL     OW24949   6.463   5.997   0.303
 8017SOL    HW124950   6.498   5.990   0.209
 8017SOL    HW224951   6.482   5.911   0.351
 8018SOL     OW24952   3.524   2.483   5.825
 8018SOL    HW124953   3.450   2.493   5.759
 8018SOL    HW224954   3.490   2.498   5.918
 8019SOL     OW24955   2.367   3.868   6.986
 8019SOL    HW124956   2.400   3.784   6.944
 8019SOL    HW224957   2.370   3.943   6.919
 8020SOL     OW24958   6.797   5.695   0.633
 8020SOL    HW124959   6.742   5.778   0.645
 8020SOL    HW224960   6.881   5.717   0.583
 8021SOL     OW24961   1.064   2.012   1.334
 8021SOL    HW124962   1.127   2.070   1.385
 8021SOL    HW224963   1.099   1.918   1.332
 8022SOL     OW24964   4.192   0.037   2.708
 8022SOL    HW124965   4.281   0.079   2.725
 8022SOL    HW224966   4.192   6.973   2.744
 8023SOL     OW24967   5.733   5.141   3.146
 8023SOL    HW124968   5.722   5.156   3.047
 8023SOL    HW224969   5.644   5.126   3.188
 8024SOL     OW24970   3.410   5.139   0.393
 8024SOL    HW124971   3.348   5.213   0.420
 8024SOL    HW224972   3.366   5.083   0.323
 8025SOL     OW24973   2.447   5.745   6.883
 8025SOL    HW124974   2.517   5.685   6.920
 8025SOL    HW224975   2.405   5.797   6.956
 8026SOL     OW24976   0.888   4.620   6.806
 8026SOL    HW124977   0.840   4.567   6.875
 8026SOL    HW224978   0.845   4.606   6.717
 8027SOL     OW24979   4.180   1.858   5.220
 8027SOL    HW124980   4.084   1.831   5.224
 8027SOL    HW224981   4.224   1.814   5.142
 8028SOL     OW24982   2.597   4.941   5.470
 8028SOL    HW124983   2.531   4.866   5.480
 8028SOL    HW224984   2.685   4.904   5.442
 8029SOL     OW24985   5.184   3.443   0.029
 8029SOL    HW124986   5.161   3.347   0.047
 8029SOL    HW224987   5.255   3.448   6.989
 8030SOL     OW24988   4.727   4.066   0.178
 8030SOL    HW124989   4.779   4.140   0.221
 8030SOL    HW224990   4.630   4.085   0.187
 8031SOL     OW24991   4.693   6.262   2.779
 8031SOL    HW124992   4.609   6.312   2.758
 8031SOL    HW224993   4.688   6.171   2.738
 8032SOL     OW24994   5.476   4.427   5.921
 8032SOL    HW124995   5.445   4.332   5.912
 8032SOL    HW224996   5.575   4.431   5.906
 8033SOL     OW24997   5.114   3.818   6.514
 8033SOL    HW124998   5.014   3.826   6.518
 8033SOL    HW224999   5.147   3.773   6.597
 8034SOL     OW25000   6.687   1.082   5.161
 8034SOL    HW125001   6.673   1.176   5.193
 8034SOL    HW225002   6.769   1.078   5.104
 8035SOL     OW25003   4.900   0.975   5.416
 8035SOL    HW125004   4.979   1.026   5.450
 8035SOL    HW225005   4.909   0.878   5.441
 8036SOL     OW25006   0.475   4.216   2.364
 8036SOL    HW125007   0.472   4.257   2.455
 8036SOL    HW225008   0.382   4.209   2.328
 8037SOL     OW25009   1.727   3.240   1.583
 8037SOL    HW125010   1.712   3.293   1.667
 8037SOL    HW225011   1.790   3.166   1.601
 8038SOL     OW25012   4.799   0.844   2.844
 8038SOL    HW125013   4.741   0.856   2.763
 8038SOL    HW225014   4.847   0.929   2.863
 8039SOL     OW25015   1.024   0.550   3.827
 8039SOL    HW125016   1.018   0.472   3.765
 8039SOL    HW225017   0.937   0.562   3.874
 8040SOL     OW25018   1.392   6.076   0.983
 8040SOL    HW125019   1.299   6.042   0.966
 8040SOL    HW225020   1.449   6.001   1.017
 8041SOL     OW25021   3.039   1.841   2.045
 8041SOL    HW125022   3.119   1.810   2.096
 8041SOL    HW225023   3.038   1.941   2.043
 8042SOL     OW25024   3.515   3.179   3.774
 8042SOL    HW125025   3.593   3.242   3.772
 8042SOL    HW225026   3.435   3.227   3.810
 8043SOL     OW25027   3.515   6.969   2.087
 8043SOL    HW125028   3.499   6.996   2.182
 8043SOL    HW225029   3.489   0.015   2.027
 8044SOL     OW25030   3.726   3.470   0.363
 8044SOL    HW125031   3.767   3.381   0.346
 8044SOL    HW225032   3.749   3.532   0.288
 8045SOL     OW25033   5.639   0.284   1.071
 8045SOL    HW125034   5.570   0.334   1.123
 8045SOL    HW225035   5.667   0.203   1.121
 8046SOL     OW25036   6.792   5.210   0.169
 8046SOL    HW125037   6.738   5.137   0.126
 8046SOL    HW225038   6.733   5.287   0.191
 8047SOL     OW25039   3.838   5.224   4.649
 8047SOL    HW125040   3.905   5.276   4.595
 8047SOL    HW225041   3.869   5.218   4.743
 8048SOL     OW25042   5.522   0.827   6.024
 8048SOL    HW125043   5.436   0.873   6.001
 8048SOL    HW225044   5.581   0.890   6.074
 8049SOL     OW25045   1.735   0.277   0.777
 8049SOL    HW125046   1.777   0.326   0.853
 8049SOL    HW225047   1.635   0.284   0.784
 8050SOL     OW25048   1.294   4.049   2.212
 8050SOL    HW125049   1.388   4.037   2.179
 8050SOL    HW225050   1.256   3.961   2.239
 8051SOL     OW25051   4.594   5.926   3.191
 8051SOL    HW125052   4.614   6.016   3.152
 8051SOL    HW225053   4.595   5.932   3.291
 8052SOL     OW25054   4.153   1.651   2.197
 8052SOL    HW125055   4.128   1.688   2.286
 8052SOL    HW225056   4.233   1.701   2.161
 8053SOL     OW25057   3.839   3.763   3.339
 8053SOL    HW125058   3.868   3.724   3.427
 8053SOL    HW225059   3.914   3.814   3.298
 8054SOL     OW25060   5.338   0.236   4.344
 8054SOL    HW125061   5.300   0.170   4.279
 8054SOL    HW225062   5.340   0.195   4.436
 8055SOL     OW25063   6.847   0.622   6.269
 8055SOL    HW125064   6.774   0.626   6.337
 8055SOL    HW225065   6.917   0.690   6.291
 8056SOL     OW25066   4.521   1.973   4.219
 8056SOL    HW125067   4.620   1.981   4.206
 8056SOL    HW225068   4.503   1.912   4.296
 8057SOL     OW25069   2.694   2.435   3.354
 8057SOL    HW125070   2.688   2.432   3.454
 8057SOL    HW225071   2.779   2.391   3.325
 8058SOL     OW25072   4.424   0.399   2.914
 8058SOL    HW125073   4.468   0.488   2.905
 8058SOL    HW225074   4.376   0.395   3.002
 8059SOL     OW25075   4.714   2.706   4.812
 8059SOL    HW125076   4.640   2.682   4.749
 8059SOL    HW225077   4.741   2.801   4.798
 8060SOL     OW25078   0.584   2.387   4.410
 8060SOL    HW125079   0.567   2.317   4.340
 8060SOL    HW225080   0.559   2.351   4.500
 8061SOL     OW25081   6.686   6.947   1.540
 8061SOL    HW125082   6.622   6.895   1.596
 8061SOL    HW225083   6.730   7.018   1.595
 8062SOL     OW25084   2.764   4.807   4.555
 8062SOL    HW125085   2.757   4.827   4.653
 8062SOL    HW225086   2.733   4.713   4.539
 8063SOL     OW25087   1.070   2.658   0.641
 8063SOL    HW125088   1.024   2.658   0.552
 8063SOL    HW225089   1.034   2.583   0.697
 8064SOL     OW25090   0.061   4.975   0.987
 8064SOL    HW125091   0.081   5.015   1.076
 8064SOL    HW225092   0.101   5.031   0.915
 8065SOL     OW25093   4.470   6.389   4.029
 8065SOL    HW125094   4.452   6.293   4.007
 8065SOL    HW225095   4.400   6.446   3.985
 8066SOL     OW25096   0.950   1.979   6.225
 8066SOL    HW125097   1.048   1.998   6.222
 8066SOL    HW225098   0.927   1.909   6.157
 8067SOL     OW25099   4.666   3.150   1.640
 8067SOL    HW125100   4.634   3.100   1.720
 8067SOL    HW225101   4.623   3.240   1.636
 8068SOL     OW25102   5.821   4.538   0.315
 8068SOL    HW125103   5.760   4.528   0.236
 8068SOL    HW225104   5.903   4.588   0.287
 8069SOL     OW25105   2.069   5.679   1.212
 8069SOL    HW125106   1.983   5.657   1.257
 8069SOL    HW225107   2.129   5.599   1.214
 8070SOL     OW25108   3.030   3.029   0.328
 8070SOL    HW125109   2.959   3.041   0.258
 8070SOL    HW225110   3.062   2.935   0.327
 8071SOL     OW25111   2.963   6.098   4.944
 8071SOL    HW125112   2.913   6.031   4.890
 8071SOL    HW225113   2.992   6.056   5.031
 8072SOL     OW25114   3.431   0.662   6.842
 8072SOL    HW125115   3.375   0.588   6.805
 8072SOL    HW225116   3.439   0.651   6.941
 8073SOL     OW25117   4.292   5.771   5.936
 8073SOL    HW125118   4.297   5.718   6.020
 8073SOL    HW225119   4.247   5.859   5.955
 8074SOL     OW25120   3.361   2.544   0.174
 8074SOL    HW125121   3.283   2.497   0.131
 8074SOL    HW225122   3.347   2.643   0.167
 8075SOL     OW25123   6.764   1.012   1.082
 8075SOL    HW125124   6.761   1.065   1.167
 8075SOL    HW225125   6.694   1.046   1.019
 8076SOL     OW25126   5.502   2.354   5.746
 8076SOL    HW125127   5.432   2.319   5.808
 8076SOL    HW225128   5.562   2.417   5.795
 8077SOL     OW25129   1.577   5.153   1.800
 8077SOL    HW125130   1.646   5.201   1.746
 8077SOL    HW225131   1.531   5.086   1.742
 8078SOL     OW25132   6.051   1.397   0.241
 8078SOL    HW125133   6.022   1.443   0.325
 8078SOL    HW225134   6.023   1.301   0.244
 8079SOL     OW25135   5.382   1.595   3.393
 8079SOL    HW125136   5.335   1.518   3.435
 8079SOL    HW225137   5.480   1.587   3.409
 8080SOL     OW25138   0.186   3.851   0.091
 8080SOL    HW125139   0.149   3.943   0.097
 8080SOL    HW225140   0.286   3.856   0.087
 8081SOL     OW25141   4.987   0.260   4.431
 8081SOL    HW125142   4.949   0.239   4.521
 8081SOL    HW225143   4.947   0.199   4.363
 8082SOL     OW25144   6.296   0.939   1.483
 8082SOL    HW125145   6.299   1.037   1.467
 8082SOL    HW225146   6.365   0.913   1.550
 8083SOL     OW25147   5.454   3.779   2.637
 8083SOL    HW125148   5.504   3.860   2.666
 8083SOL    HW225149   5.384   3.805   2.570
 8084SOL     OW25150   5.429   0.054   0.611
 8084SOL    HW125151   5.458   0.006   0.693
 8084SOL    HW225152   5.501   0.118   0.582
 8085SOL     OW25153   6.320   0.220   2.675
 8085SOL    HW125154   6.232   0.216   2.627
 8085SOL    HW225155   6.309   0.187   2.768
 8086SOL     OW25156   4.948   1.209   3.982
 8086SOL    HW125157   4.891   1.269   4.037
 8086SOL    HW225158   4.919   1.114   3.994
 8087SOL     OW25159   2.705   2.119   0.948
 8087SOL    HW125160   2.731   2.056   0.874
 8087SOL    HW225161   2.751   2.090   1.032
 8088SOL     OW25162   5.565   1.969   1.284
 8088SOL    HW125163   5.482   1.934   1.328
 8088SOL    HW225164   5.563   2.069   1.283
 8089SOL     OW25165   5.178   2.928   0.678
 8089SOL    HW125166   5.151   3.024   0.671
 8089SOL    HW225167   5.174   2.898   0.773
 8090SOL     OW25168   4.148   2.554   6.898
 8090SOL    HW125169   4.162   2.494   6.819
 8090SOL    HW225170   4.235   2.596   6.924
 8091SOL     OW25171   2.632   3.641   0.054
 8091SOL    HW125172   2.549   3.670   0.006
 8091SOL    HW225173   2.612   3.628   0.151
 8092SOL     OW25174   1.170   2.116   5.065
 8092SOL    HW125175   1.209   2.197   5.021
 8092SOL    HW225176   1.072   2.131   5.080
 8093SOL     OW25177   4.732   5.722   1.812
 8093SOL    HW125178   4.681   5.719   1.726
 8093SOL    HW225179   4.731   5.815   1.849
 8094SOL     OW25180   2.041   4.145   4.383
 8094SOL    HW125181   1.948   4.122   4.352
 8094SOL    HW225182   2.050   4.121   4.480
 8095SOL     OW25183   5.757   4.296   4.490
 8095SOL    HW125184   5.751   4.311   4.391
 8095SOL    HW225185   5.853   4.283   4.515
 8096SOL     OW25186   3.267   5.384   3.999
 8096SOL    HW125187   3.275   5.335   3.912
 8096SOL    HW225188   3.194   5.343   4.053
 8097SOL     OW25189   5.088   6.940   3.200
 8097SOL    HW125190   5.103   6.913   3.295
 8097SOL    HW225191   5.019   6.880   3.159
 8098SOL     OW25192   2.442   6.728   4.046
 8098SOL    HW125193   2.530   6.754   4.085
 8098SOL    HW225194   2.378   6.805   4.054
 8099SOL     OW25195   5.627   0.322   3.750
 8099SOL    HW125196   5.640   0.228   3.718
 8099SOL    HW225197   5.636   0.385   3.672
 8100SOL     OW25198   0.001   6.656   6.758
 8100SOL    HW125199   7.026   6.722   6.683
 8100SOL    HW225200   6.957   6.589   6.749
 8101SOL     OW25201   2.090   0.238   3.985
 8101SOL    HW125202   2.037   0.269   4.064
 8101SOL    HW225203   2.184   0.268   3.994
 8102SOL     OW25204   1.140   4.835   4.878
 8102SOL    HW125205   1.054   4.882   4.859
 8102SOL    HW225206   1.146   4.814   4.976
 8103SOL     OW25207   4.332   0.527   0.471
 8103SOL    HW125208   4.256   0.569   0.521
 8103SOL    HW225209   4.304   0.511   0.376
 8104SOL     OW25210   2.594   6.306   6.122
 8104SOL    HW125211   2.679   6.350   6.153
 8104SOL    HW225212   2.555   6.358   6.046
 8105SOL     OW25213   1.964   2.166   2.823
 8105SOL    HW125214   2.026   2.093   2.855
 8105SOL    HW225215   1.885   2.124   2.777
 8106SOL     OW25216   2.521   5.653   3.655
 8106SOL    HW125217   2.502   5.635   3.558
 8106SOL    HW225218   2.446   5.704   3.695
 8107SOL     OW25219   1.328   5.853   4.953
 8107SOL    HW125220   1.260   5.784   4.929
 8107SOL    HW225221   1.406   5.809   4.997
 8108SOL     OW25222   5.795   3.236   5.022
 8108SOL    HW125223   5.835   3.325   5.003
 8108SOL    HW225224   5.852   3.188   5.089
 8109SOL     OW25225   1.043   3.815   3.995
 8109SOL    HW125226   1.002   3.897   3.954
 8109SOL    HW225227   1.033   3.819   4.094
 8110SOL     OW25228   3.355   6.334   1.218
 8110SOL    HW125229   3.435   6.378   1.258
 8110SOL    HW225230   3.326   6.258   1.277
 8111SOL     OW25231   4.118   0.566   5.328
 8111SOL    HW125232   4.192   0.629   5.304
 8111SOL    HW225233   4.157   0.477   5.353
 8112SOL     OW25234   1.527   1.404   4.445
 8112SOL    HW125235   1.607   1.463   4.451
 8112SOL    HW225236   1.552   1.312   4.474
 8113SOL     OW25237   3.113   3.479   0.436
 8113SOL    HW125238   3.125   3.547   0.507
 8113SOL    HW225239   3.020   3.443   0.438
 8114SOL     OW25240   1.974   3.289   1.310
 8114SOL    HW125241   1.983   3.380   1.352
 8114SOL    HW225242   1.930   3.227   1.375
 8115SOL     OW25243   4.135   1.281   1.777
 8115SOL    HW125244   4.136   1.300   1.875
 8115SOL    HW225245   4.080   1.350   1.730
 8116SOL     OW25246   5.071   0.489   4.882
 8116SOL    HW125247   5.144   0.537   4.931
 8116SOL    HW225248   5.110   0.439   4.806
 8117SOL     OW25249   2.192   1.389   4.662
 8117SOL    HW125250   2.292   1.391   4.656
 8117SOL    HW225251   2.165   1.313   4.722
 8118SOL     OW25252   6.655   3.225   6.035
 8118SOL    HW125253   6.742   3.217   6.084
 8118SOL    HW225254   6.615   3.315   6.054
 8119SOL     OW25255   6.182   5.544   4.994
 8119SOL    HW125256   6.144   5.624   5.041
 8119SOL    HW225257   6.204   5.473   5.061
 8120SOL     OW25258   3.183   4.607   6.793
 8120SOL    HW125259   3.197   4.596   6.695
 8120SOL    HW225260   3.089   4.637   6.810
 8121SOL     OW25261   0.003   4.908   2.629
 8121SOL    HW125262   6.979   4.845   2.686
 8121SOL    HW225263   6.971   4.962   2.572
 8122SOL     OW25264   1.063   5.642   2.624
 8122SOL    HW125265   0.977   5.659   2.575
 8122SOL    HW225266   1.107   5.560   2.587
 8123SOL     OW25267   0.153   0.031   6.759
 8123SOL    HW125268   0.084   0.040   6.831
 8123SOL    HW225269   0.125   0.087   6.680
 8124SOL     OW25270   0.020   6.455   0.964
 8124SOL    HW125271   0.087   6.512   0.916
 8124SOL    HW225272   7.007   6.392   0.899
 8125SOL     OW25273   1.067   6.747   2.871
 8125SOL    HW125274   1.034   6.752   2.777
 8125SOL    HW225275   0.989   6.744   2.934
 8126SOL     OW25276   6.349   3.867   2.337
 8126SOL    HW125277   6.423   3.802   2.323
 8126SOL    HW225278   6.266   3.835   2.290
 8127SOL     OW25279   2.261   6.124   0.891
 8127SOL    HW125280   2.223   6.207   0.850
 8127SOL    HW225281   2.216   6.044   0.852
 8128SOL     OW25282   2.692   2.989   0.946
 8128SOL    HW125283   2.752   2.985   1.026
 8128SOL    HW225284   2.605   2.946   0.968
 8129SOL     OW25285   4.209   1.622   5.880
 8129SOL    HW125286   4.230   1.552   5.812
 8129SOL    HW225287   4.269   1.611   5.959
 8130SOL     OW25288   0.383   4.833   6.191
 8130SOL    HW125289   0.354   4.925   6.164
 8130SOL    HW225290   0.483   4.828   6.187
 8131SOL     OW25291   2.654   0.528   1.076
 8131SOL    HW125292   2.678   0.564   1.167
 8131SOL    HW225293   2.729   0.472   1.041
 8132SOL     OW25294   5.463   6.352   6.309
 8132SOL    HW125295   5.384   6.374   6.252
 8132SOL    HW225296   5.545   6.395   6.271
 8133SOL     OW25297   3.502   4.915   1.680
 8133SOL    HW125298   3.553   4.846   1.731
 8133SOL    HW225299   3.411   4.880   1.657
 8134SOL     OW25300   1.019   1.527   4.480
 8134SOL    HW125301   1.000   1.430   4.476
 8134SOL    HW225302   1.118   1.542   4.478
 8135SOL     OW25303   2.480   5.328   1.279
 8135SOL    HW125304   2.571   5.323   1.238
 8135SOL    HW225305   2.487   5.316   1.378
 8136SOL     OW25306   4.682   4.313   2.781
 8136SOL    HW125307   4.754   4.369   2.740
 8136SOL    HW225308   4.634   4.366   2.851
 8137SOL     OW25309   2.108   1.357   4.155
 8137SOL    HW125310   2.205   1.377   4.150
 8137SOL    HW225311   2.082   1.342   4.250
 8138SOL     OW25312   5.349   2.277   0.406
 8138SOL    HW125313   5.309   2.218   0.476
 8138SOL    HW225314   5.321   2.245   0.315
 8139SOL     OW25315   1.981   2.338   3.421
 8139SOL    HW125316   2.066   2.288   3.440
 8139SOL    HW225317   1.903   2.277   3.435
 8140SOL     OW25318   3.607   0.016   0.861
 8140SOL    HW125319   3.679   0.063   0.809
 8140SOL    HW225320   3.567   6.974   0.804
 8141SOL     OW25321   4.602   6.836   5.557
 8141SOL    HW125322   4.567   6.778   5.482
 8141SOL    HW225323   4.661   6.781   5.616
 8142SOL     OW25324   1.937   4.894   0.582
 8142SOL    HW125325   1.972   4.957   0.513
 8142SOL    HW225326   1.888   4.945   0.652
 8143SOL     OW25327   5.205   5.022   0.901
 8143SOL    HW125328   5.177   5.116   0.884
 8143SOL    HW225329   5.275   4.996   0.834
 8144SOL     OW25330   0.776   5.704   5.554
 8144SOL    HW125331   0.765   5.746   5.644
 8144SOL    HW225332   0.872   5.682   5.539
 8145SOL     OW25333   5.497   5.213   0.911
 8145SOL    HW125334   5.589   5.253   0.915
 8145SOL    HW225335   5.464   5.217   0.817
 8146SOL     OW25336   5.660   0.504   5.761
 8146SOL    HW125337   5.632   0.476   5.669
 8146SOL    HW225338   5.760   0.514   5.763
 8147SOL     OW25339   6.896   0.635   0.869
 8147SOL    HW125340   6.929   0.607   0.779
 8147SOL    HW225341   6.797   0.649   0.865
 8148SOL     OW25342   4.218   5.207   6.544
 8148SOL    HW125343   4.230   5.149   6.624
 8148SOL    HW225344   4.290   5.276   6.542
 8149SOL     OW25345   1.676   6.666   2.932
 8149SOL    HW125346   1.661   6.640   3.027
 8149SOL    HW225347   1.770   6.646   2.906
 8150SOL     OW25348   0.886   3.954   0.976
 8150SOL    HW125349   0.817   4.006   0.926
 8150SOL    HW225350   0.974   4.000   0.969
 8151SOL     OW25351   5.405   5.159   3.568
 8151SOL    HW125352   5.379   5.118   3.655
 8151SOL    HW225353   5.452   5.246   3.584
 8152SOL     OW25354   6.365   3.307   3.295
 8152SOL    HW125355   6.292   3.263   3.242
 8152SOL    HW225356   6.443   3.326   3.237
 8153SOL     OW25357   1.123   1.465   2.805
 8153SOL    HW125358   1.203   1.478   2.863
 8153SOL    HW225359   1.077   1.379   2.830
 8154SOL     OW25360   3.770   6.384   2.592
 8154SOL    HW125361   3.798   6.444   2.667
 8154SOL    HW225362   3.729   6.301   2.631
 8155SOL     OW25363   1.572   3.971   2.153
 8155SOL    HW125364   1.650   3.986   2.091
 8155SOL    HW225365   1.565   3.874   2.175
 8156SOL     OW25366   4.721   6.120   0.922
 8156SOL    HW125367   4.700   6.029   0.885
 8156SOL    HW225368   4.807   6.153   0.882
 8157SOL     OW25369   6.149   4.526   6.144
 8157SOL    HW125370   6.164   4.590   6.069
 8157SOL    HW225371   6.107   4.442   6.109
 8158SOL     OW25372   5.241   4.327   0.020
 8158SOL    HW125373   5.194   4.239   0.022
 8158SOL    HW225374   5.224   4.375   0.107
 8159SOL     OW25375   2.964   5.600   4.658
 8159SOL    HW125376   2.934   5.616   4.752
 8159SOL    HW225377   2.996   5.506   4.649
 8160SOL     OW25378   4.849   0.304   3.789
 8160SOL    HW125379   4.934   0.319   3.738
 8160SOL    HW225380   4.777   0.362   3.752
 8161SOL     OW25381   5.730   3.917   6.426
 8161SOL    HW125382   5.812   3.903   6.483
 8161SOL    HW225383   5.649   3.907   6.483
 8162SOL     OW25384   6.549   5.467   6.764
 8162SOL    HW125385   6.608   5.467   6.683
 8162SOL    HW225386   6.519   5.374   6.783
 8163SOL     OW25387   2.500   4.345   5.642
 8163SOL    HW125388   2.578   4.328   5.582
 8163SOL    HW225389   2.451   4.426   5.610
 8164SOL     OW25390   4.266   1.515   0.334
 8164SOL    HW125391   4.259   1.417   0.319
 8164SOL    HW225392   4.321   1.533   0.416
 8165SOL     OW25393   6.619   3.890   6.221
 8165SOL    HW125394   6.640   3.825   6.294
 8165SOL    HW225395   6.538   3.943   6.246
 8166SOL     OW25396   1.402   0.687   3.247
 8166SOL    HW125397   1.377   0.608   3.303
 8166SOL    HW225398   1.497   0.712   3.266
 8167SOL     OW25399   0.384   0.938   3.196
 8167SOL    HW125400   0.321   1.015   3.183
 8167SOL    HW225401   0.393   0.888   3.110
 8168SOL     OW25402   2.669   0.405   1.772
 8168SOL    HW125403   2.732   0.344   1.820
 8168SOL    HW225404   2.713   0.437   1.688
 8169SOL     OW25405   4.301   2.610   0.460
 8169SOL    HW125406   4.248   2.525   0.462
 8169SOL    HW225407   4.241   2.687   0.438
 8170SOL     OW25408   6.597   4.582   1.546
 8170SOL    HW125409   6.544   4.600   1.464
 8170SOL    HW225410   6.695   4.591   1.526
 8171SOL     OW25411   2.171   0.935   6.435
 8171SOL    HW125412   2.255   0.964   6.481
 8171SOL    HW225413   2.116   1.016   6.414
 8172SOL     OW25414   6.768   1.905   1.824
 8172SOL    HW125415   6.744   1.994   1.784
 8172SOL    HW225416   6.860   1.910   1.864
 8173SOL     OW25417   5.404   1.842   2.134
 8173SOL    HW125418   5.467   1.915   2.111
 8173SOL    HW225419   5.454   1.767   2.178
 8174SOL     OW25420   0.641   6.839   2.693
 8174SOL    HW125421   0.620   6.930   2.657
 8174SOL    HW225422   0.602   6.769   2.632
 8175SOL     OW25423   0.245   3.131   4.713
 8175SOL    HW125424   0.328   3.083   4.685
 8175SOL    HW225425   0.265   3.188   4.793
 8176SOL     OW25426   2.380   4.803   1.269
 8176SOL    HW125427   2.455   4.760   1.320
 8176SOL    HW225428   2.343   4.878   1.324
 8177SOL     OW25429   4.997   0.727   3.769
 8177SOL    HW125430   4.966   0.653   3.829
 8177SOL    HW225431   5.019   0.689   3.679
 8178SOL     OW25432   3.031   6.770   0.921
 8178SOL    HW125433   2.999   6.728   1.007
 8178SOL    HW225434   3.112   6.825   0.939
 8179SOL     OW25435   5.453   1.145   5.232
 8179SOL    HW125436   5.533   1.194   5.267
 8179SOL    HW225437   5.374   1.207   5.232
 8180SOL     OW25438   6.244   0.639   6.479
 8180SOL    HW125439   6.228   0.611   6.384
 8180SOL    HW225440   6.221   0.564   6.540
 8181SOL     OW25441   1.756   1.333   0.794
 8181SOL    HW125442   1.692   1.408   0.807
 8181SOL    HW225443   1.840   1.367   0.752
 8182SOL     OW25444   2.935   3.227   5.417
 8182SOL    HW125445   3.010   3.182   5.464
 8182SOL    HW225446   2.914   3.179   5.332
 8183SOL     OW25447   6.599   1.979   4.581
 8183SOL    HW125448   6.553   2.019   4.660
 8183SOL    HW225449   6.570   2.028   4.498
 8184SOL     OW25450   0.364   6.862   0.299
 8184SOL    HW125451   0.278   6.885   0.345
 8184SOL    HW225452   0.378   6.763   0.303
 8185SOL     OW25453   1.860   0.148   0.197
 8185SOL    HW125454   1.878   0.097   0.112
 8185SOL    HW225455   1.783   0.210   0.183
 8186SOL     OW25456   2.912   4.264   5.916
 8186SOL    HW125457   2.814   4.283   5.903
 8186SOL    HW225458   2.947   4.321   5.990
 8187SOL     OW25459   2.033   1.233   4.827
 8187SOL    HW125460   2.022   1.158   4.893
 8187SOL    HW225461   1.998   1.318   4.867
 8188SOL     OW25462   4.940   3.403   3.797
 8188SOL    HW125463   4.988   3.441   3.876
 8188SOL    HW225464   4.930   3.304   3.809
 8189SOL     OW25465   5.213   4.787   2.914
 8189SOL    HW125466   5.293   4.845   2.927
 8189SOL    HW225467   5.243   4.693   2.896
 8190SOL     OW25468   4.845   3.812   3.895
 8190SOL    HW125469   4.777   3.823   3.967
 8190SOL    HW225470   4.924   3.762   3.931
 8191SOL     OW25471   3.338   5.290   2.749
 8191SOL    HW125472   3.388   5.350   2.686
 8191SOL    HW225473   3.274   5.233   2.697
 8192SOL     OW25474   2.304   5.603   2.024
 8192SOL    HW125475   2.308   5.536   1.950
 8192SOL    HW225476   2.303   5.555   2.112
 8193SOL     OW25477   6.287   5.575   5.722
 8193SOL    HW125478   6.378   5.558   5.683
 8193SOL    HW225479   6.218   5.566   5.651
 8194SOL     OW25480   5.090   0.505   1.410
 8194SOL    HW125481   5.181   0.533   1.381
 8194SOL    HW225482   5.095   0.461   1.500
 8195SOL     OW25483   6.776   0.101   3.276
 8195SOL    HW125484   6.760   0.043   3.197
 8195SOL    HW225485   6.734   0.191   3.262
 8196SOL     OW25486   3.907   6.194   6.979
 8196SOL    HW125487   3.828   6.142   6.945
 8196SOL    HW225488   3.877   6.257   0.021
 8197SOL     OW25489   3.299   0.942   0.497
 8197SOL    HW125490   3.252   0.925   0.410
 8197SOL    HW225491   3.397   0.951   0.480
 8198SOL     OW25492   3.340   6.595   2.732
 8198SOL    HW125493   3.361   6.544   2.816
 8198SOL    HW225494   3.389   6.553   2.655
 8199SOL     OW25495   5.689   2.995   5.901
 8199SOL    HW125496   5.662   2.988   5.805
 8199SOL    HW225497   5.786   2.970   5.910
 8200SOL     OW25498   5.802   4.163   1.538
 8200SOL    HW125499   5.851   4.180   1.452
 8200SOL    HW225500   5.767   4.250   1.573
 8201SOL     OW25501   5.893   0.750   5.124
 8201SOL    HW125502   5.964   0.784   5.186
 8201SOL    HW225503   5.808   0.799   5.140
 8202SOL     OW25504   0.537   5.616   3.759
 8202SOL    HW125505   0.541   5.682   3.683
 8202SOL    HW225506   0.448   5.624   3.804
 8203SOL     OW25507   3.117   2.436   6.821
 8203SOL    HW125508   3.195   2.453   6.761
 8203SOL    HW225509   3.032   2.447   6.770
 8204SOL     OW25510   3.925   4.750   6.951
 8204SOL    HW125511   3.911   4.668   7.007
 8204SOL    HW225512   3.888   4.735   6.859
 8205SOL     OW25513   0.359   4.782   6.990
 8205SOL    HW125514   0.281   4.783   6.927
 8205SOL    HW225515   0.338   4.723   0.038
 8206SOL     OW25516   4.833   2.058   0.215
 8206SOL    HW125517   4.759   2.120   0.240
 8206SOL    HW225518   4.830   1.976   0.272
 8207SOL     OW25519   3.036   3.194   4.585
 8207SOL    HW125520   2.993   3.179   4.674
 8207SOL    HW225521   3.065   3.107   4.547
 8208SOL     OW25522   0.994   0.701   1.235
 8208SOL    HW125523   1.090   0.678   1.221
 8208SOL    HW225524   0.985   0.799   1.252
 8209SOL     OW25525   0.389   1.596   4.825
 8209SOL    HW125526   0.390   1.696   4.827
 8209SOL    HW225527   0.441   1.564   4.745
 8210SOL     OW25528   2.506   1.943   0.456
 8210SOL    HW125529   2.587   1.995   0.426
 8210SOL    HW225530   2.426   2.003   0.454
 8211SOL     OW25531   3.881   4.474   1.384
 8211SOL    HW125532   3.845   4.447   1.295
 8211SOL    HW225533   3.812   4.525   1.434
 8212SOL     OW25534   1.954   2.424   2.258
 8212SOL    HW125535   1.931   2.474   2.341
 8212SOL    HW225536   2.033   2.465   2.214
 8213SOL     OW25537   6.449   4.426   1.960
 8213SOL    HW125538   6.428   4.487   2.036
 8213SOL    HW225539   6.533   4.376   1.980
 8214SOL     OW25540   5.749   5.390   3.846
 8214SOL    HW125541   5.786   5.454   3.914
 8214SOL    HW225542   5.824   5.336   3.807
 8215SOL     OW25543   3.020   5.495   5.946
 8215SOL    HW125544   3.107   5.456   5.918
 8215SOL    HW225545   3.035   5.587   5.983
 8216SOL     OW25546   5.230   4.966   4.015
 8216SOL    HW125547   5.314   4.961   3.960
 8216SOL    HW225548   5.255   4.970   4.112
 8217SOL     OW25549   1.462   4.628   0.404
 8217SOL    HW125550   1.517   4.585   0.476
 8217SOL    HW225551   1.523   4.669   0.336
 8218SOL     OW25552   0.131   6.712   6.272
 8218SOL    HW125553   0.041   6.672   6.253
 8218SOL    HW225554   0.124   6.811   6.268
 8219SOL     OW25555   4.593   2.875   0.827
 8219SOL    HW125556   4.650   2.795   0.808
 8219SOL    HW225557   4.498   2.854   0.803
 8220SOL     OW25558   3.986   3.111   3.193
 8220SOL    HW125559   3.942   3.028   3.159
 8220SOL    HW225560   4.062   3.136   3.132
 8221SOL     OW25561   5.437   6.482   4.203
 8221SOL    HW125562   5.461   6.403   4.148
 8221SOL    HW225563   5.446   6.565   4.147
 8222SOL     OW25564   5.578   1.307   1.452
 8222SOL    HW125565   5.615   1.252   1.527
 8222SOL    HW225566   5.556   1.248   1.375
 8223SOL     OW25567   1.082   4.729   5.833
 8223SOL    HW125568   1.170   4.681   5.833
 8223SOL    HW225569   1.055   4.748   5.927
 8224SOL     OW25570   6.450   1.086   2.563
 8224SOL    HW125571   6.421   1.182   2.565
 8224SOL    HW225572   6.391   1.036   2.499
 8225SOL     OW25573   3.147   1.171   0.154
 8225SOL    HW125574   3.121   1.094   0.212
 8225SOL    HW225575   3.244   1.165   0.132
 8226SOL     OW25576   4.120   0.013   1.409
 8226SOL    HW125577   4.090   6.968   1.349
 8226SOL    HW225578   4.060   0.017   1.489
 8227SOL     OW25579   6.778   2.071   3.008
 8227SOL    HW125580   6.869   2.112   2.998
 8227SOL    HW225581   6.787   1.972   3.020
 8228SOL     OW25582   6.485   2.398   5.495
 8228SOL    HW125583   6.520   2.457   5.568
 8228SOL    HW225584   6.543   2.316   5.487
 8229SOL     OW25585   4.118   3.260   0.388
 8229SOL    HW125586   4.152   3.353   0.380
 8229SOL    HW225587   4.022   3.256   0.358
 8230SOL     OW25588   4.420   0.008   5.548
 8230SOL    HW125589   4.474   6.954   5.561
 8230SOL    HW225590   4.471   0.086   5.585
 8231SOL     OW25591   3.539   4.818   0.840
 8231SOL    HW125592   3.455   4.815   0.786
 8231SOL    HW225593   3.517   4.839   0.935
 8232SOL     OW25594   4.797   1.086   1.861
 8232SOL    HW125595   4.816   1.182   1.843
 8232SOL    HW225596   4.881   1.038   1.886
 8233SOL     OW25597   1.504   6.364   6.401
 8233SOL    HW125598   1.444   6.438   6.432
 8233SOL    HW225599   1.469   6.277   6.435
 8234SOL     OW25600   2.940   4.224   6.653
 8234SOL    HW125601   2.862   4.193   6.599
 8234SOL    HW225602   3.017   4.244   6.593
 8235SOL     OW25603   0.464   3.585   0.197
 8235SOL    HW125604   0.516   3.503   0.220
 8235SOL    HW225605   0.437   3.632   0.282
 8236SOL     OW25606   0.504   4.757   0.625
 8236SOL    HW125607   0.421   4.704   0.642
 8236SOL    HW225608   0.552   4.720   0.546
 8237SOL     OW25609   4.204   6.706   4.674
 8237SOL    HW125610   4.160   6.691   4.586
 8237SOL    HW225611   4.139   6.749   4.737
 8238SOL     OW25612   0.916   5.403   6.543
 8238SOL    HW125613   0.855   5.331   6.511
 8238SOL    HW225614   0.970   5.439   6.467
 8239SOL     OW25615   6.498   1.321   5.993
 8239SOL    HW125616   6.466   1.414   5.981
 8239SOL    HW225617   6.433   1.270   6.050
 8240SOL     OW25618   3.602   4.108   2.507
 8240SOL    HW125619   3.608   4.131   2.410
 8240SOL    HW225620   3.681   4.053   2.533
 8241SOL     OW25621   4.023   0.225   6.014
 8241SOL    HW125622   4.081   0.264   5.942
 8241SOL    HW225623   3.933   0.269   6.013
 8242SOL     OW25624   0.195   4.897   5.957
 8242SOL    HW125625   0.096   4.893   5.965
 8242SOL    HW225626   0.228   4.823   5.898
 8243SOL     OW25627   0.581   2.418   0.618
 8243SOL    HW125628   0.604   2.505   0.576
 8243SOL    HW225629   0.642   2.347   0.584
 8244SOL     OW25630   0.033   0.669   4.727
 8244SOL    HW125631   0.069   0.750   4.773
 8244SOL    HW225632   7.020   0.609   4.794
 8245SOL     OW25633   4.194   2.086   3.000
 8245SOL    HW125634   4.149   2.092   3.089
 8245SOL    HW225635   4.203   1.990   2.974
 8246SOL     OW25636   1.145   2.806   5.945
 8246SOL    HW125637   1.129   2.850   5.857
 8246SOL    HW225638   1.234   2.833   5.980
 8247SOL     OW25639   1.259   6.994   2.587
 8247SOL    HW125640   1.286   7.021   2.679
 8247SOL    HW225641   1.330   6.937   2.547
 8248SOL     OW25642   6.033   4.997   4.598
 8248SOL    HW125643   5.957   4.981   4.661
 8248SOL    HW225644   6.113   4.946   4.629
 8249SOL     OW25645   2.032   2.887   5.654
 8249SOL    HW125646   2.072   2.806   5.696
 8249SOL    HW225647   1.949   2.914   5.704
 8250SOL     OW25648   3.008   3.925   1.907
 8250SOL    HW125649   3.073   3.851   1.887
 8250SOL    HW225650   3.042   3.979   1.984
 8251SOL     OW25651   5.319   3.748   4.261
 8251SOL    HW125652   5.300   3.675   4.328
 8251SOL    HW225653   5.257   3.825   4.278
 8252SOL     OW25654   2.866   1.380   5.555
 8252SOL    HW125655   2.894   1.287   5.533
 8252SOL    HW225656   2.807   1.378   5.636
 8253SOL     OW25657   4.267   4.940   5.402
 8253SOL    HW125658   4.215   4.903   5.325
 8253SOL    HW225659   4.207   4.953   5.481
 8254SOL     OW25660   4.606   4.737   4.994
 8254SOL    HW125661   4.585   4.780   4.906
 8254SOL    HW225662   4.668   4.660   4.979
 8255SOL     OW25663   2.169   0.184   4.770
 8255SOL    HW125664   2.241   0.230   4.822
 8255SOL    HW225665   2.208   0.144   4.687
 8256SOL     OW25666   0.012   6.939   2.210
 8256SOL    HW125667   0.072   6.893   2.145
 8256SOL    HW225668   0.045   6.922   2.303
 8257SOL     OW25669   5.704   3.755   3.147
 8257SOL    HW125670   5.664   3.767   3.237
 8257SOL    HW225671   5.656   3.814   3.081
 8258SOL     OW25672   5.710   1.920   0.252
 8258SOL    HW125673   5.795   1.964   0.281
 8258SOL    HW225674   5.670   1.870   0.330
 8259SOL     OW25675   3.847   1.684   3.862
 8259SOL    HW125676   3.875   1.594   3.895
 8259SOL    HW225677   3.753   1.703   3.889
 8260SOL     OW25678   2.638   6.743   1.753
 8260SOL    HW125679   2.606   6.718   1.661
 8260SOL    HW225680   2.660   6.840   1.756
 8261SOL     OW25681   5.891   0.213   1.828
 8261SOL    HW125682   5.802   0.168   1.816
 8261SOL    HW225683   5.949   0.155   1.885
 8262SOL     OW25684   0.353   3.401   0.545
 8262SOL    HW125685   0.363   3.317   0.490
 8262SOL    HW225686   0.260   3.437   0.533
 8263SOL     OW25687   0.627   2.494   6.493
 8263SOL    HW125688   0.565   2.417   6.504
 8263SOL    HW225689   0.608   2.541   6.407
 8264SOL     OW25690   2.708   6.705   2.435
 8264SOL    HW125691   2.733   6.683   2.529
 8264SOL    HW225692   2.775   6.664   2.372
 8265SOL     OW25693   0.141   0.215   1.081
 8265SOL    HW125694   0.165   0.308   1.053
 8265SOL    HW225695   0.156   0.153   1.005
 8266SOL     OW25696   1.995   1.145   3.425
 8266SOL    HW125697   1.939   1.132   3.343
 8266SOL    HW225698   1.941   1.193   3.495
 8267SOL     OW25699   1.670   2.803   1.538
 8267SOL    HW125700   1.638   2.799   1.633
 8267SOL    HW225701   1.592   2.799   1.476
 8268SOL     OW25702   1.719   6.312   6.079
 8268SOL    HW125703   1.759   6.393   6.122
 8268SOL    HW225704   1.789   6.241   6.072
 8269SOL     OW25705   4.449   1.708   2.111
 8269SOL    HW125706   4.455   1.787   2.172
 8269SOL    HW225707   4.504   1.633   2.149
 8270SOL     OW25708   2.711   6.401   5.426
 8270SOL    HW125709   2.791   6.455   5.399
 8270SOL    HW225710   2.634   6.424   5.367
 8271SOL     OW25711   0.476   0.213   3.164
 8271SOL    HW125712   0.481   0.121   3.202
 8271SOL    HW225713   0.411   0.213   3.088
 8272SOL     OW25714   5.625   2.030   2.453
 8272SOL    HW125715   5.528   2.021   2.430
 8272SOL    HW225716   5.679   1.975   2.389
 8273SOL     OW25717   2.836   0.718   6.984
 8273SOL    HW125718   2.802   0.646   0.014
 8273SOL    HW225719   2.814   0.695   6.889
 8274SOL     OW25720   5.027   4.761   4.211
 8274SOL    HW125721   4.997   4.849   4.248
 8274SOL    HW225722   4.947   4.705   4.188
 8275SOL     OW25723   5.545   1.129   5.851
 8275SOL    HW125724   5.628   1.183   5.861
 8275SOL    HW225725   5.563   1.052   5.789
 8276SOL     OW25726   0.443   2.493   3.601
 8276SOL    HW125727   0.516   2.435   3.567
 8276SOL    HW225728   0.379   2.513   3.526
 8277SOL     OW25729   6.867   5.969   6.120
 8277SOL    HW125730   6.869   6.061   6.158
 8277SOL    HW225731   6.827   5.906   6.186
 8278SOL     OW25732   2.742   2.267   5.630
 8278SOL    HW125733   2.719   2.177   5.594
 8278SOL    HW225734   2.697   2.337   5.575
 8279SOL     OW25735   1.327   6.992   4.500
 8279SOL    HW125736   1.305   0.025   4.574
 8279SOL    HW225737   1.242   6.961   4.457
 8280SOL     OW25738   2.597   3.467   0.714
 8280SOL    HW125739   2.565   3.407   0.788
 8280SOL    HW225740   2.697   3.462   0.708
 8281SOL     OW25741   3.145   4.509   1.728
 8281SOL    HW125742   3.187   4.423   1.697
 8281SOL    HW225743   3.052   4.491   1.760
 8282SOL     OW25744   4.585   3.730   6.664
 8282SOL    HW125745   4.539   3.817   6.681
 8282SOL    HW225746   4.623   3.696   6.750
 8283SOL     OW25747   1.620   5.490   6.097
 8283SOL    HW125748   1.553   5.502   6.170
 8283SOL    HW225749   1.660   5.579   6.073
 8284SOL     OW25750   1.070   3.722   0.988
 8284SOL    HW125751   1.132   3.750   1.061
 8284SOL    HW225752   0.979   3.760   1.003
 8285SOL     OW25753   3.231   4.080   4.699
 8285SOL    HW125754   3.190   4.034   4.620
 8285SOL    HW225755   3.160   4.105   4.764
 8286SOL     OW25756   5.801   2.196   6.343
 8286SOL    HW125757   5.858   2.278   6.336
 8286SOL    HW225758   5.777   2.164   6.252
 8287SOL     OW25759   1.914   5.535   4.519
 8287SOL    HW125760   1.850   5.467   4.483
 8287SOL    HW225761   1.928   5.607   4.451
 8288SOL     OW25762   3.245   2.038   1.693
 8288SOL    HW125763   3.329   2.065   1.740
 8288SOL    HW225764   3.176   2.110   1.704
 8289SOL     OW25765   0.515   5.750   0.826
 8289SOL    HW125766   0.562   5.682   0.881
 8289SOL    HW225767   0.528   5.841   0.867
 8290SOL     OW25768   5.946   1.446   1.218
 8290SOL    HW125769   5.873   1.443   1.287
 8290SOL    HW225770   5.922   1.387   1.141
 8291SOL     OW25771   5.081   6.479   4.985
 8291SOL    HW125772   5.029   6.497   4.902
 8291SOL    HW225773   5.125   6.563   5.016
 8292SOL     OW25774   2.802   6.711   7.011
 8292SOL    HW125775   2.779   6.714   6.914
 8292SOL    HW225776   2.745   6.776   0.031
 8293SOL     OW25777   3.194   5.764   0.642
 8293SOL    HW125778   3.291   5.760   0.617
 8293SOL    HW225779   3.180   5.713   0.727
 8294SOL     OW25780   5.984   3.598   5.499
 8294SOL    HW125781   5.968   3.649   5.583
 8294SOL    HW225782   5.926   3.516   5.498
 8295SOL     OW25783   5.244   5.658   2.037
 8295SOL    HW125784   5.285   5.583   2.088
 8295SOL    HW225785   5.300   5.679   1.957
 8296SOL     OW25786   1.265   4.558   6.717
 8296SOL    HW125787   1.312   4.636   6.758
 8296SOL    HW225788   1.329   4.508   6.659
 8297SOL     OW25789   6.669   3.130   2.593
 8297SOL    HW125790   6.652   3.148   2.496
 8297SOL    HW225791   6.672   3.032   2.608
 8298SOL     OW25792   6.351   1.421   1.775
 8298SOL    HW125793   6.432   1.469   1.808
 8298SOL    HW225794   6.379   1.341   1.722
 8299SOL     OW25795   6.613   2.570   1.825
 8299SOL    HW125796   6.593   2.662   1.858
 8299SOL    HW225797   6.581   2.561   1.730
 8300SOL     OW25798   0.413   5.977   4.578
 8300SOL    HW125799   0.365   5.895   4.546
 8300SOL    HW225800   0.469   5.954   4.658
 8301SOL     OW25801   3.832   1.773   1.020
 8301SOL    HW125802   3.892   1.696   1.043
 8301SOL    HW225803   3.808   1.769   0.923
 8302SOL     OW25804   5.740   6.897   6.779
 8302SOL    HW125805   5.756   6.959   6.702
 8302SOL    HW225806   5.710   6.950   6.859
 8303SOL     OW25807   6.821   0.851   3.550
 8303SOL    HW125808   6.753   0.920   3.527
 8303SOL    HW225809   6.867   0.821   3.466
 8304SOL     OW25810   0.089   3.397   0.888
 8304SOL    HW125811   0.176   3.364   0.925
 8304SOL    HW225812   0.106   3.451   0.806
 8305SOL     OW25813   4.993   5.341   4.216
 8305SOL    HW125814   5.010   5.440   4.223
 8305SOL    HW225815   5.028   5.307   4.129
 8306SOL     OW25816   6.130   2.510   5.481
 8306SOL    HW125817   6.184   2.503   5.565
 8306SOL    HW225818   6.102   2.605   5.467
 8307SOL     OW25819   3.511   5.512   1.761
 8307SOL    HW125820   3.523   5.587   1.826
 8307SOL    HW225821   3.440   5.450   1.794
 8308SOL     OW25822   3.346   5.565   1.541
 8308SOL    HW125823   3.291   5.638   1.580
 8308SOL    HW225824   3.399   5.521   1.612
 8309SOL     OW25825   6.771   5.145   4.156
 8309SOL    HW125826   6.815   5.235   4.163
 8309SOL    HW225827   6.780   5.097   4.243
 8310SOL     OW25828   6.917   5.002   0.696
 8310SOL    HW125829   6.868   4.998   0.783
 8310SOL    HW225830   6.852   4.993   0.621
 8311SOL     OW25831   0.706   1.667   4.607
 8311SOL    HW125832   0.791   1.614   4.602
 8311SOL    HW225833   0.628   1.605   4.601
 8312SOL     OW25834   4.892   0.396   0.379
 8312SOL    HW125835   4.796   0.412   0.359
 8312SOL    HW225836   4.905   0.299   0.401
 8313SOL     OW25837   5.291   0.154   0.992
 8313SOL    HW125838   5.373   0.132   0.939
 8313SOL    HW225839   5.224   0.199   0.932
 8314SOL     OW25840   4.861   0.651   0.504
 8314SOL    HW125841   4.902   0.561   0.494
 8314SOL    HW225842   4.765   0.648   0.476
 8315SOL     OW25843   4.278   2.718   1.560
 8315SOL    HW125844   4.214   2.672   1.622
 8315SOL    HW225845   4.318   2.797   1.606
 8316SOL     OW25846   1.221   2.230   1.764
 8316SOL    HW125847   1.176   2.302   1.817
 8316SOL    HW225848   1.319   2.233   1.781
 8317SOL     OW25849   1.975   2.699   2.760
 8317SOL    HW125850   2.042   2.772   2.768
 8317SOL    HW225851   2.022   2.611   2.754
 8318SOL     OW25852   4.502   1.440   4.941
 8318SOL    HW125853   4.570   1.512   4.927
 8318SOL    HW225854   4.546   1.360   4.982
 8319SOL     OW25855   2.153   1.690   0.181
 8319SOL    HW125856   2.220   1.626   0.144
 8319SOL    HW225857   2.179   1.784   0.160
 8320SOL     OW25858   3.146   3.453   2.227
 8320SOL    HW125859   3.056   3.446   2.270
 8320SOL    HW225860   3.144   3.522   2.155
 8321SOL     OW25861   6.583   0.193   6.376
 8321SOL    HW125862   6.553   0.268   6.434
 8321SOL    HW225863   6.561   0.214   6.281
 8322SOL     OW25864   6.790   6.817   1.028
 8322SOL    HW125865   6.781   6.722   1.059
 8322SOL    HW225866   6.766   6.879   1.103
 8323SOL     OW25867   5.228   5.397   2.693
 8323SOL    HW125868   5.211   5.313   2.745
 8323SOL    HW225869   5.251   5.373   2.598
 8324SOL     OW25870   5.897   6.689   1.177
 8324SOL    HW125871   5.930   6.717   1.087
 8324SOL    HW225872   5.940   6.747   1.247
 8325SOL     OW25873   2.404   3.705   5.571
 8325SOL    HW125874   2.420   3.636   5.500
 8325SOL    HW225875   2.481   3.706   5.635
 8326SOL     OW25876   5.211   3.686   5.557
 8326SOL    HW125877   5.196   3.604   5.502
 8326SOL    HW225878   5.128   3.742   5.557
 8327SOL     OW25879   6.471   1.172   6.419
 8327SOL    HW125880   6.430   1.107   6.355
 8327SOL    HW225881   6.427   1.163   6.508
 8328SOL     OW25882   2.620   6.069   6.000
 8328SOL    HW125883   2.625   6.160   6.041
 8328SOL    HW225884   2.712   6.029   5.998
 8329SOL     OW25885   0.890   3.011   5.859
 8329SOL    HW125886   0.817   3.079   5.868
 8329SOL    HW225887   0.977   3.058   5.846
 8330SOL     OW25888   2.694   0.977   0.054
 8330SOL    HW125889   2.753   1.041   0.103
 8330SOL    HW225890   2.749   0.905   0.013
 8331SOL     OW25891   3.285   1.376   1.341
 8331SOL    HW125892   3.185   1.382   1.340
 8331SOL    HW225893   3.317   1.369   1.435
 8332SOL     OW25894   4.599   5.238   2.335
 8332SOL    HW125895   4.507   5.253   2.370
 8332SOL    HW225896   4.604   5.148   2.290
 8333SOL     OW25897   0.034   6.373   5.984
 8333SOL    HW125898   0.104   6.441   5.960
 8333SOL    HW225899   6.979   6.421   6.008
 8334SOL     OW25900   4.096   0.912   3.923
 8334SOL    HW125901   4.081   0.814   3.939
 8334SOL    HW225902   4.012   0.953   3.888
 8335SOL     OW25903   5.732   6.649   0.014
 8335SOL    HW125904   5.651   6.618   6.993
 8335SOL    HW225905   5.728   6.613   0.107
 8336SOL     OW25906   6.900   5.014   2.968
 8336SOL    HW125907   6.927   4.954   2.892
 8336SOL    HW225908   6.902   5.109   2.938
 8337SOL     OW25909   2.253   6.139   2.474
 8337SOL    HW125910   2.345   6.174   2.491
 8337SOL    HW225911   2.257   6.040   2.464
 8338SOL     OW25912   3.175   5.677   1.916
 8338SOL    HW125913   3.242   5.725   1.973
 8338SOL    HW225914   3.086   5.723   1.924
 8339SOL     OW25915   5.920   0.585   1.049
 8339SOL    HW125916   5.884   0.514   0.989
 8339SOL    HW225917   5.949   0.545   1.135
 8340SOL     OW25918   4.874   2.723   1.417
 8340SOL    HW125919   4.931   2.670   1.479
 8340SOL    HW225920   4.782   2.732   1.455
 8341SOL     OW25921   2.826   6.331   0.330
 8341SOL    HW125922   2.730   6.337   0.302
 8341SOL    HW225923   2.877   6.409   0.295
 8342SOL     OW25924   4.337   6.421   1.532
 8342SOL    HW125925   4.253   6.462   1.569
 8342SOL    HW225926   4.407   6.491   1.524
 8343SOL     OW25927   1.624   5.981   5.660
 8343SOL    HW125928   1.591   5.905   5.717
 8343SOL    HW225929   1.628   6.064   5.715
 8344SOL     OW25930   4.529   6.503   4.272
 8344SOL    HW125931   4.504   6.450   4.190
 8344SOL    HW225932   4.452   6.561   4.299
 8345SOL     OW25933   4.486   1.573   2.818
 8345SOL    HW125934   4.546   1.652   2.831
 8345SOL    HW225935   4.498   1.510   2.895
 8346SOL     OW25936   3.172   4.893   0.904
 8346SOL    HW125937   3.239   4.891   0.978
 8346SOL    HW225938   3.197   4.824   0.835
 8347SOL     OW25939   3.154   5.401   4.591
 8347SOL    HW125940   3.187   5.438   4.504
 8347SOL    HW225941   3.220   5.424   4.664
 8348SOL     OW25942   2.330   0.340   2.482
 8348SOL    HW125943   2.285   0.282   2.413
 8348SOL    HW225944   2.425   0.313   2.492
 8349SOL     OW25945   5.964   6.244   1.689
 8349SOL    HW125946   5.892   6.275   1.628
 8349SOL    HW225947   5.972   6.306   1.766
 8350SOL     OW25948   4.045   6.764   5.814
 8350SOL    HW125949   3.983   6.696   5.854
 8350SOL    HW225950   4.131   6.720   5.789
 8351SOL     OW25951   5.198   4.895   4.618
 8351SOL    HW125952   5.190   4.835   4.698
 8351SOL    HW225953   5.289   4.935   4.616
 8352SOL     OW25954   0.800   0.083   3.168
 8352SOL    HW125955   0.783   0.063   3.072
 8352SOL    HW225956   0.857   0.165   3.175
 8353SOL     OW25957   6.943   3.058   1.413
 8353SOL    HW125958   6.909   3.112   1.490
 8353SOL    HW225959   6.911   3.099   1.328
 8354SOL     OW25960   3.801   6.994   6.173
 8354SOL    HW125961   3.793   6.894   6.177
 8354SOL    HW225962   3.888   7.022   6.214
 8355SOL     OW25963   2.873   0.797   6.429
 8355SOL    HW125964   2.888   0.866   6.358
 8355SOL    HW225965   2.791   0.744   6.407
 8356SOL     OW25966   0.921   6.313   1.080
 8356SOL    HW125967   0.875   6.396   1.112
 8356SOL    HW225968   0.935   6.320   0.981
 8357SOL     OW25969   4.369   0.006   4.701
 8357SOL    HW125970   4.341   0.090   4.749
 8357SOL    HW225971   4.421   6.978   4.764
 8358SOL     OW25972   1.121   4.343   5.683
 8358SOL    HW125973   1.219   4.356   5.695
 8358SOL    HW225974   1.073   4.371   5.766
 8359SOL     OW25975   2.908   0.999   5.279
 8359SOL    HW125976   2.972   1.072   5.258
 8359SOL    HW225977   2.843   0.988   5.204
 8360SOL     OW25978   3.006   5.927   1.538
 8360SOL    HW125979   3.066   5.939   1.459
 8360SOL    HW225980   3.001   6.012   1.590
 8361SOL     OW25981   3.331   0.581   2.697
 8361SOL    HW125982   3.283   0.626   2.773
 8361SOL    HW225983   3.424   0.617   2.690
 8362SOL     OW25984   4.077   2.214   0.323
 8362SOL    HW125985   4.071   2.288   0.390
 8362SOL    HW225986   3.987   2.174   0.309
 8363SOL     OW25987   6.821   2.664   6.333
 8363SOL    HW125988   6.784   2.572   6.343
 8363SOL    HW225989   6.896   2.678   6.398
 8364SOL     OW25990   1.014   3.052   3.084
 8364SOL    HW125991   1.022   2.991   3.004
 8364SOL    HW225992   1.064   3.137   3.066
 8365SOL     OW25993   2.399   4.030   1.824
 8365SOL    HW125994   2.414   3.991   1.915
 8365SOL    HW225995   2.319   3.986   1.783
 8366SOL     OW25996   1.983   5.641   1.944
 8366SOL    HW125997   1.946   5.667   2.033
 8366SOL    HW225998   2.082   5.630   1.950
 8367SOL     OW25999   4.201   6.214   3.657
 8367SOL    HW126000   4.245   6.303   3.663
 8367SOL    HW226001   4.169   6.186   3.748
 8368SOL     OW26002   2.449   6.197   6.860
 8368SOL    HW126003   2.437   6.110   6.907
 8368SOL    HW226004   2.393   6.199   6.777
 8369SOL     OW26005   2.245   6.715   6.536
 8369SOL    HW126006   2.326   6.711   6.594
 8369SOL    HW226007   2.163   6.701   6.592
 8370SOL     OW26008   2.902   1.862   5.658
 8370SOL    HW126009   2.971   1.931   5.635
 8370SOL    HW226010   2.859   1.885   5.745
 8371SOL     OW26011   2.014   3.914   0.751
 8371SOL    HW126012   2.105   3.889   0.784
 8371SOL    HW226013   2.006   4.014   0.745
 8372SOL     OW26014   0.513   5.321   2.008
 8372SOL    HW126015   0.569   5.378   1.948
 8372SOL    HW226016   0.572   5.254   2.054
 8373SOL     OW26017   1.569   0.123   3.634
 8373SOL    HW126018   1.637   0.159   3.570
 8373SOL    HW226019   1.554   0.026   3.616
 8374SOL     OW26020   6.897   1.006   5.695
 8374SOL    HW126021   6.953   1.046   5.623
 8374SOL    HW226022   6.957   0.969   5.766
 8375SOL     OW26023   3.582   6.883   5.032
 8375SOL    HW126024   3.616   6.960   5.086
 8375SOL    HW226025   3.494   6.852   5.069
 8376SOL     OW26026   1.423   0.683   4.155
 8376SOL    HW126027   1.422   0.610   4.224
 8376SOL    HW226028   1.517   0.711   4.137
 8377SOL     OW26029   5.003   6.058   1.562
 8377SOL    HW126030   4.951   6.120   1.503
 8377SOL    HW226031   5.049   6.111   1.633
 8378SOL     OW26032   4.400   5.048   2.709
 8378SOL    HW126033   4.498   5.065   2.718
 8378SOL    HW226034   4.369   4.993   2.787
 8379SOL     OW26035   5.860   2.269   1.117
 8379SOL    HW126036   5.812   2.299   1.200
 8379SOL    HW226037   5.908   2.347   1.077
 8380SOL     OW26038   0.090   0.372   2.430
 8380SOL    HW126039   0.173   0.426   2.416
 8380SOL    HW226040   0.076   0.356   2.527
 8381SOL     OW26041   7.022   2.972   5.255
 8381SOL    HW126042   0.046   2.957   5.172
 8381SOL    HW226043   0.045   3.024   5.321
 8382SOL     OW26044   2.616   0.756   2.606
 8382SOL    HW126045   2.561   0.771   2.523
 8382SOL    HW226046   2.582   0.676   2.655
 8383SOL     OW26047   2.372   6.929   5.647
 8383SOL    HW126048   2.357   7.027   5.629
 8383SOL    HW226049   2.306   6.897   5.714
 8384SOL     OW26050   6.883   0.901   0.835
 8384SOL    HW126051   6.847   0.943   0.918
 8384SOL    HW226052   6.910   0.807   0.854
 8385SOL     OW26053   6.423   1.413   1.061
 8385SOL    HW126054   6.478   1.439   1.141
 8385SOL    HW226055   6.347   1.355   1.091
 8386SOL     OW26056   1.305   4.986   1.914
 8386SOL    HW126057   1.264   5.037   1.989
 8386SOL    HW226058   1.260   4.897   1.905
 8387SOL     OW26059   1.582   1.373   2.380
 8387SOL    HW126060   1.627   1.439   2.439
 8387SOL    HW226061   1.640   1.291   2.371
 8388SOL     OW26062   2.516   6.345   0.724
 8388SOL    HW126063   2.611   6.327   0.702
 8388SOL    HW226064   2.481   6.273   0.784
 8389SOL     OW26065   6.992   2.850   2.821
 8389SOL    HW126066   7.004   2.797   2.905
 8389SOL    HW226067   6.914   2.912   2.833
 8390SOL     OW26068   4.182   1.294   6.035
 8390SOL    HW126069   4.193   1.303   6.134
 8390SOL    HW226070   4.201   1.200   6.007
 8391SOL     OW26071   6.292   4.830   1.064
 8391SOL    HW126072   6.253   4.738   1.056
 8391SOL    HW226073   6.231   4.896   1.021
 8392SOL     OW26074   6.428   3.605   4.520
 8392SOL    HW126075   6.351   3.635   4.463
 8392SOL    HW226076   6.466   3.521   4.483
 8393SOL     OW26077   0.094   0.027   3.119
 8393SOL    HW126078   0.071   0.101   3.183
 8393SOL    HW226079   0.023   0.022   3.048
 8394SOL     OW26080   6.253   2.289   0.932
 8394SOL    HW126081   6.194   2.210   0.921
 8394SOL    HW226082   6.211   2.369   0.889
 8395SOL     OW26083   2.946   6.955   5.296
 8395SOL    HW126084   2.872   6.927   5.235
 8395SOL    HW226085   2.928   0.016   5.333
 8396SOL     OW26086   4.832   5.749   3.116
 8396SOL    HW126087   4.891   5.797   3.050
 8396SOL    HW226088   4.762   5.812   3.150
 8397SOL     OW26089   1.352   0.987   2.318
 8397SOL    HW126090   1.306   1.005   2.405
 8397SOL    HW226091   1.420   0.915   2.331
 8398SOL     OW26092   3.984   2.015   5.927
 8398SOL    HW126093   4.021   2.054   6.011
 8398SOL    HW226094   3.884   2.020   5.929
 8399SOL     OW26095   5.466   0.127   6.617
 8399SOL    HW126096   5.402   0.077   6.559
 8399SOL    HW226097   5.441   0.115   6.713
 8400SOL     OW26098   1.931   0.810   4.286
 8400SOL    HW126099   1.958   0.727   4.237
 8400SOL    HW226100   1.904   0.880   4.219
 8401SOL     OW26101   2.091   1.166   5.148
 8401SOL    HW126102   2.085   1.244   5.211
 8401SOL    HW226103   2.181   1.123   5.157
 8402SOL     OW26104   4.934   1.683   6.338
 8402SOL    HW126105   4.894   1.592   6.352
 8402SOL    HW226106   4.934   1.732   6.425
 8403SOL     OW26107   6.815   3.332   4.609
 8403SOL    HW126108   6.849   3.292   4.525
 8403SOL    HW226109   6.891   3.370   4.662
 8404SOL     OW26110   3.651   6.608   6.003
 8404SOL    HW126111   3.728   6.597   5.940
 8404SOL    HW226112   3.687   6.630   6.094
 8405SOL     OW26113   2.086   1.361   5.351
 8405SOL    HW126114   2.125   1.404   5.433
 8405SOL    HW226115   2.004   1.411   5.323
 8406SOL     OW26116   3.938   0.882   0.391
 8406SOL    HW126117   4.030   0.847   0.372
 8406SOL    HW226118   3.920   0.875   0.490
 8407SOL     OW26119   3.390   6.463   3.278
 8407SOL    HW126120   3.294   6.479   3.253
 8407SOL    HW226121   3.395   6.445   3.376
 8408SOL     OW26122   5.648   3.741   1.213
 8408SOL    HW126123   5.699   3.731   1.128
 8408SOL    HW226124   5.687   3.680   1.282
 8409SOL     OW26125   5.144   1.700   2.881
 8409SOL    HW126126   5.121   1.780   2.936
 8409SOL    HW226127   5.219   1.650   2.924
 8410SOL     OW26128   5.818   0.693   1.688
 8410SOL    HW126129   5.881   0.646   1.750
 8410SOL    HW226130   5.738   0.637   1.672
 8411SOL     OW26131   0.771   5.185   0.089
 8411SOL    HW126132   0.732   5.116   0.150
 8411SOL    HW226133   0.698   5.241   0.050
 8412SOL     OW26134   4.003   2.309   1.402
 8412SOL    HW126135   3.989   2.266   1.491
 8412SOL    HW226136   4.095   2.290   1.368
 8413SOL     OW26137   4.447   5.910   6.755
 8413SOL    HW126138   4.456   5.816   6.788
 8413SOL    HW226139   4.371   5.917   6.691
 8414SOL     OW26140   3.754   6.506   3.667
 8414SOL    HW126141   3.713   6.421   3.701
 8414SOL    HW226142   3.815   6.485   3.591
 8415SOL     OW26143   0.572   5.829   3.959
 8415SOL    HW126144   0.578   5.749   3.900
 8415SOL    HW226145   0.664   5.864   3.977
 8416SOL     OW26146   5.988   2.786   2.936
 8416SOL    HW126147   5.940   2.843   3.002
 8416SOL    HW226148   6.070   2.747   2.979
 8417SOL     OW26149   1.089   3.361   5.663
 8417SOL    HW126150   1.109   3.441   5.720
 8417SOL    HW226151   1.173   3.329   5.620
 8418SOL     OW26152   5.985   5.192   0.923
 8418SOL    HW126153   6.019   5.133   0.996
 8418SOL    HW226154   6.050   5.267   0.908
 8419SOL     OW26155   5.724   0.026   1.682
 8419SOL    HW126156   5.804   7.009   1.645
 8419SOL    HW226157   5.707   0.109   1.629
 8420SOL     OW26158   4.281   6.908   0.721
 8420SOL    HW126159   4.216   6.851   0.770
 8420SOL    HW226160   4.237   6.994   0.694
 8421SOL     OW26161   3.411   5.895   0.001
 8421SOL    HW126162   3.335   5.840   0.036
 8421SOL    HW226163   3.405   5.900   6.931
 8422SOL     OW26164   4.195   1.412   2.040
 8422SOL    HW126165   4.163   1.496   2.083
 8422SOL    HW226166   4.189   1.337   2.106
 8423SOL     OW26167   3.243   5.126   5.808
 8423SOL    HW126168   3.272   5.147   5.901
 8423SOL    HW226169   3.285   5.040   5.778
 8424SOL     OW26170   1.834   2.190   2.154
 8424SOL    HW126171   1.880   2.125   2.214
 8424SOL    HW226172   1.877   2.280   2.163
 8425SOL     OW26173   4.551   4.603   5.967
 8425SOL    HW126174   4.536   4.517   5.919
 8425SOL    HW226175   4.463   4.639   5.998
 8426SOL     OW26176   3.906   3.384   3.080
 8426SOL    HW126177   3.919   3.336   3.167
 8426SOL    HW226178   3.877   3.478   3.099
 8427SOL     OW26179   3.552   3.854   3.656
 8427SOL    HW126180   3.550   3.953   3.673
 8427SOL    HW226181   3.554   3.837   3.558
 8428SOL     OW26182   0.571   6.132   1.446
 8428SOL    HW126183   0.516   6.067   1.393
 8428SOL    HW226184   0.532   6.142   1.538
 8429SOL     OW26185   1.982   6.315   4.878
 8429SOL    HW126186   1.929   6.330   4.795
 8429SOL    HW226187   1.922   6.285   4.952
 8430SOL     OW26188   3.627   5.233   3.483
 8430SOL    HW126189   3.621   5.282   3.570
 8430SOL    HW226190   3.645   5.136   3.500
 8431SOL     OW26191   4.076   3.702   0.764
 8431SOL    HW126192   4.063   3.800   0.747
 8431SOL    HW226193   4.065   3.652   0.678
 8432SOL     OW26194   5.911   6.376   5.234
 8432SOL    HW126195   5.984   6.441   5.258
 8432SOL    HW226196   5.901   6.309   5.308
 8433SOL     OW26197   4.774   3.087   0.789
 8433SOL    HW126198   4.735   3.002   0.823
 8433SOL    HW226199   4.705   3.159   0.792
 8434SOL     OW26200   2.855   0.125   4.712
 8434SOL    HW126201   2.811   0.176   4.787
 8434SOL    HW226202   2.906   0.189   4.655
 8435SOL     OW26203   5.845   0.915   1.845
 8435SOL    HW126204   5.822   0.851   1.772
 8435SOL    HW226205   5.889   0.996   1.807
 8436SOL     OW26206   3.035   6.244   3.462
 8436SOL    HW126207   3.014   6.147   3.454
 8436SOL    HW226208   2.961   6.291   3.509
 8437SOL     OW26209   2.074   1.095   4.055
 8437SOL    HW126210   2.162   1.054   4.076
 8437SOL    HW226211   2.068   1.186   4.098
 8438SOL     OW26212   2.143   3.959   2.770
 8438SOL    HW126213   2.071   3.976   2.838
 8438SOL    HW226214   2.185   4.047   2.745
 8439SOL     OW26215   5.856   4.953   2.818
 8439SOL    HW126216   5.847   5.050   2.843
 8439SOL    HW226217   5.943   4.918   2.852
 8440SOL     OW26218   2.056   1.488   3.899
 8440SOL    HW126219   2.052   1.448   3.991
 8440SOL    HW226220   2.129   1.556   3.895
 8441SOL     OW26221   5.223   0.214   0.567
 8441SOL    HW126222   5.285   0.140   0.593
 8441SOL    HW226223   5.269   0.274   0.502
 8442SOL     OW26224   3.586   2.569   5.439
 8442SOL    HW126225   3.489   2.556   5.462
 8442SOL    HW226226   3.619   2.489   5.390
 8443SOL     OW26227   2.372   4.371   3.656
 8443SOL    HW126228   2.383   4.387   3.754
 8443SOL    HW226229   2.288   4.319   3.640
 8444SOL     OW26230   3.269   6.365   4.438
 8444SOL    HW126231   3.343   6.333   4.379
 8444SOL    HW226232   3.182   6.328   4.404
 8445SOL     OW26233   2.939   0.475   1.590
 8445SOL    HW126234   3.013   0.539   1.571
 8445SOL    HW226235   2.961   0.420   1.671
 8446SOL     OW26236   5.766   5.897   6.053
 8446SOL    HW126237   5.737   5.884   6.148
 8446SOL    HW226238   5.864   5.919   6.050
 8447SOL     OW26239   4.554   1.682   2.538
 8447SOL    HW126240   4.560   1.742   2.618
 8447SOL    HW226241   4.561   1.736   2.455
 8448SOL     OW26242   4.164   6.250   4.422
 8448SOL    HW126243   4.155   6.235   4.324
 8448SOL    HW226244   4.080   6.292   4.457
 8449SOL     OW26245   6.852   3.351   3.525
 8449SOL    HW126246   6.944   3.312   3.522
 8449SOL    HW226247   6.829   3.391   3.436
 8450SOL     OW26248   0.839   0.153   1.416
 8450SOL    HW126249   0.921   0.182   1.466
 8450SOL    HW226250   0.838   0.196   1.326
 8451SOL     OW26251   3.740   1.742   0.277
 8451SOL    HW126252   3.752   1.644   0.293
 8451SOL    HW226253   3.662   1.776   0.329
 8452SOL     OW26254   6.445   2.066   3.721
 8452SOL    HW126255   6.439   1.976   3.764
 8452SOL    HW226256   6.476   2.056   3.627
 8453SOL     OW26257   0.423   4.911   0.323
 8453SOL    HW126258   0.365   4.956   0.255
 8453SOL    HW226259   0.395   4.815   0.332
 8454SOL     OW26260   7.006   6.133   1.595
 8454SOL    HW126261   6.948   6.060   1.630
 8454SOL    HW226262   0.069   6.122   1.631
 8455SOL     OW26263   6.819   1.620   1.883
 8455SOL    HW126264   6.905   1.594   1.839
 8455SOL    HW226265   6.804   1.718   1.872
 8456SOL     OW26266   3.884   6.098   3.236
 8456SOL    HW126267   3.864   6.130   3.143
 8456SOL    HW226268   3.910   6.175   3.293
 8457SOL     OW26269   0.498   0.092   4.638
 8457SOL    HW126270   0.491   0.091   4.538
 8457SOL    HW226271   0.499   7.028   4.673
 8458SOL     OW26272   2.796   0.660   0.555
 8458SOL    HW126273   2.709   0.613   0.549
 8458SOL    HW226274   2.789   0.735   0.621
 8459SOL     OW26275   2.948   5.724   2.146
 8459SOL    HW126276   3.024   5.659   2.155
 8459SOL    HW226277   2.982   5.817   2.165
 8460SOL     OW26278   3.938   4.243   5.328
 8460SOL    HW126279   3.977   4.334   5.336
 8460SOL    HW226280   3.913   4.225   5.232
 8461SOL     OW26281   0.709   3.949   5.253
 8461SOL    HW126282   0.784   3.945   5.319
 8461SOL    HW226283   0.739   3.998   5.171
 8462SOL     OW26284   2.028   2.196   6.589
 8462SOL    HW126285   2.084   2.190   6.671
 8462SOL    HW226286   2.026   2.290   6.555
 8463SOL     OW26287   0.205   0.083   1.337
 8463SOL    HW126288   0.128   0.020   1.326
 8463SOL    HW226289   0.217   0.137   1.254
 8464SOL     OW26290   5.852   4.368   4.178
 8464SOL    HW126291   5.915   4.443   4.201
 8464SOL    HW226292   5.896   4.281   4.199
 8465SOL     OW26293   0.632   3.087   0.662
 8465SOL    HW126294   0.726   3.116   0.646
 8465SOL    HW226295   0.587   3.070   0.574
 8466SOL     OW26296   0.567   0.341   4.177
 8466SOL    HW126297   0.567   0.329   4.078
 8466SOL    HW226298   0.645   0.293   4.217
 8467SOL     OW26299   3.341   6.525   0.561
 8467SOL    HW126300   3.331   6.475   0.474
 8467SOL    HW226301   3.390   6.468   0.626
 8468SOL     OW26302   3.923   1.938   0.190
 8468SOL    HW126303   3.869   1.974   0.114
 8468SOL    HW226304   3.894   1.844   0.210
 8469SOL     OW26305   3.872   1.947   6.650
 8469SOL    HW126306   3.839   2.015   6.715
 8469SOL    HW226307   3.897   1.992   6.564
 8470SOL     OW26308   1.115   3.512   0.054
 8470SOL    HW126309   1.031   3.552   0.091
 8470SOL    HW226310   1.168   3.583   0.008
 8471SOL     OW26311   3.310   1.375   3.481
 8471SOL    HW126312   3.251   1.380   3.400
 8471SOL    HW226313   3.363   1.290   3.479
 8472SOL     OW26314   0.162   0.399   4.885
 8472SOL    HW126315   0.093   0.413   4.957
 8472SOL    HW226316   0.189   0.488   4.848
 8473SOL     OW26317   5.902   4.972   6.442
 8473SOL    HW126318   5.922   4.887   6.392
 8473SOL    HW226319   5.936   5.050   6.389
 8474SOL     OW26320   3.213   3.115   2.395
 8474SOL    HW126321   3.161   3.200   2.382
 8474SOL    HW226322   3.284   3.109   2.325
 8475SOL     OW26323   0.274   1.870   3.239
 8475SOL    HW126324   0.271   1.879   3.140
 8475SOL    HW226325   0.227   1.786   3.267
 8476SOL     OW26326   6.480   1.144   1.237
 8476SOL    HW126327   6.575   1.170   1.255
 8476SOL    HW226328   6.473   1.044   1.235
 8477SOL     OW26329   4.026   6.595   2.096
 8477SOL    HW126330   4.112   6.575   2.142
 8477SOL    HW226331   3.963   6.638   2.160
 8478SOL     OW26332   1.251   0.712   6.086
 8478SOL    HW126333   1.320   0.780   6.063
 8478SOL    HW226334   1.286   0.651   6.157
 8479SOL     OW26335   6.380   2.447   1.172
 8479SOL    HW126336   6.365   2.374   1.105
 8479SOL    HW226337   6.431   2.522   1.129
 8480SOL     OW26338   3.973   1.195   7.012
 8480SOL    HW126339   4.009   1.137   6.939
 8480SOL    HW226340   4.004   1.289   6.997
 8481SOL     OW26341   4.798   2.306   3.766
 8481SOL    HW126342   4.742   2.325   3.847
 8481SOL    HW226343   4.739   2.272   3.692
 8482SOL     OW26344   4.019   6.746   2.927
 8482SOL    HW126345   4.109   6.785   2.943
 8482SOL    HW226346   3.949   6.809   2.961
 8483SOL     OW26347   3.819   5.789   2.404
 8483SOL    HW126348   3.842   5.848   2.481
 8483SOL    HW226349   3.740   5.733   2.427
 8484SOL     OW26350   0.620   5.502   2.918
 8484SOL    HW126351   0.666   5.418   2.947
 8484SOL    HW226352   0.567   5.483   2.835
 8485SOL     OW26353   3.369   3.447   6.866
 8485SOL    HW126354   3.445   3.428   6.803
 8485SOL    HW226355   3.400   3.511   6.936
 8486SOL     OW26356   4.895   1.132   2.821
 8486SOL    HW126357   4.987   1.095   2.806
 8486SOL    HW226358   4.880   1.145   2.919
 8487SOL     OW26359   6.075   1.101   6.364
 8487SOL    HW126360   6.144   1.029   6.379
 8487SOL    HW226361   5.986   1.058   6.347
 8488SOL     OW26362   5.811   4.550   5.144
 8488SOL    HW126363   5.863   4.635   5.150
 8488SOL    HW226364   5.859   4.485   5.085
 8489SOL     OW26365   6.353   0.746   0.945
 8489SOL    HW126366   6.310   0.791   0.867
 8489SOL    HW226367   6.297   0.669   0.976
 8490SOL     OW26368   3.998   6.755   4.449
 8490SOL    HW126369   3.990   6.791   4.356
 8490SOL    HW226370   4.010   6.830   4.513
 8491SOL     OW26371   1.975   0.117   1.039
 8491SOL    HW126372   2.006   0.203   1.000
 8491SOL    HW226373   1.889   0.132   1.088
 8492SOL     OW26374   4.083   4.053   6.819
 8492SOL    HW126375   4.102   4.039   6.722
 8492SOL    HW226376   4.170   4.060   6.869
 8493SOL     OW26377   2.642   1.987   6.235
 8493SOL    HW126378   2.712   2.009   6.303
 8493SOL    HW226379   2.661   2.036   6.150
 8494SOL     OW26380   2.797   4.629   0.619
 8494SOL    HW126381   2.871   4.650   0.683
 8494SOL    HW226382   2.797   4.698   0.546
 8495SOL     OW26383   6.457   4.333   0.869
 8495SOL    HW126384   6.476   4.379   0.956
 8495SOL    HW226385   6.513   4.374   0.797
 8496SOL     OW26386   0.656   2.018   1.702
 8496SOL    HW126387   0.714   1.968   1.638
 8496SOL    HW226388   0.708   2.093   1.742
 8497SOL     OW26389   6.605   0.927   3.837
 8497SOL    HW126390   6.667   0.986   3.888
 8497SOL    HW226391   6.656   0.879   3.766
 8498SOL     OW26392   0.239   6.008   2.640
 8498SOL    HW126393   0.227   6.047   2.549
 8498SOL    HW226394   0.255   6.081   2.706
 8499SOL     OW26395   2.426   5.403   7.018
 8499SOL    HW126396   2.470   5.492   7.002
 8499SOL    HW226397   2.495   5.339   0.022
 8500SOL     OW26398   2.233   0.219   5.259
 8500SOL    HW126399   2.271   0.132   5.228
 8500SOL    HW226400   2.301   0.267   5.315
 8501SOL     OW26401   0.592   2.693   6.983
 8501SOL    HW126402   0.663   2.754   7.018
 8501SOL    HW226403   0.504   2.720   7.019
 8502SOL     OW26404   1.486   4.747   1.467
 8502SOL    HW126405   1.391   4.777   1.464
 8502SOL    HW226406   1.514   4.718   1.375
 8503SOL     OW26407   1.196   6.483   3.500
 8503SOL    HW126408   1.161   6.569   3.538
 8503SOL    HW226409   1.295   6.488   3.493
 8504SOL     OW26410   2.627   5.592   3.142
 8504SOL    HW126411   2.589   5.589   3.235
 8504SOL    HW226412   2.560   5.633   3.081
 8505SOL     OW26413   4.849   3.768   3.631
 8505SOL    HW126414   4.852   3.770   3.730
 8505SOL    HW226415   4.841   3.673   3.600
 8506SOL     OW26416   6.234   0.845   0.026
 8506SOL    HW126417   6.276   0.910   6.992
 8506SOL    HW226418   6.294   0.767   0.038
 8507SOL     OW26419   3.433   1.097   5.583
 8507SOL    HW126420   3.394   1.148   5.660
 8507SOL    HW226421   3.475   1.160   5.518
 8508SOL     OW26422   6.951   2.540   4.999
 8508SOL    HW126423   7.025   2.592   5.041
 8508SOL    HW226424   6.867   2.552   5.052
 8509SOL     OW26425   4.865   2.072   3.483
 8509SOL    HW126426   4.808   2.136   3.534
 8509SOL    HW226427   4.872   1.985   3.534
 8510SOL     OW26428   5.314   3.965   3.283
 8510SOL    HW126429   5.277   3.874   3.267
 8510SOL    HW226430   5.302   4.021   3.201
 8511SOL     OW26431   6.028   3.675   2.000
 8511SOL    HW126432   5.933   3.704   2.011
 8511SOL    HW226433   6.060   3.697   1.908
 8512SOL     OW26434   3.230   1.960   0.879
 8512SOL    HW126435   3.227   1.920   0.787
 8512SOL    HW226436   3.317   1.938   0.922
 8513SOL     OW26437   4.749   4.075   1.676
 8513SOL    HW126438   4.776   4.113   1.764
 8513SOL    HW226439   4.828   4.029   1.634
 8514SOL     OW26440   3.060   2.143   4.105
 8514SOL    HW126441   3.053   2.048   4.073
 8514SOL    HW226442   3.133   2.149   4.173
 8515SOL     OW26443   5.908   1.667   6.781
 8515SOL    HW126444   5.922   1.691   6.877
 8515SOL    HW226445   5.923   1.747   6.724
 8516SOL     OW26446   6.872   1.447   1.360
 8516SOL    HW126447   6.801   1.443   1.431
 8516SOL    HW226448   6.830   1.473   1.273
 8517SOL     OW26449   1.735   3.241   6.606
 8517SOL    HW126450   1.716   3.176   6.680
 8517SOL    HW226451   1.757   3.191   6.522
 8518SOL     OW26452   4.816   4.590   6.329
 8518SOL    HW126453   4.848   4.599   6.234
 8518SOL    HW226454   4.811   4.680   6.371
 8519SOL     OW26455   1.388   4.184   1.496
 8519SOL    HW126456   1.391   4.232   1.409
 8519SOL    HW226457   1.405   4.248   1.571
 8520SOL     OW26458   3.587   3.605   6.978
 8520SOL    HW126459   3.582   3.667   0.026
 8520SOL    HW226460   3.630   3.520   7.006
 8521SOL     OW26461   2.231   4.860   5.873
 8521SOL    HW126462   2.220   4.866   5.973
 8521SOL    HW226463   2.287   4.780   5.851
 8522SOL     OW26464   1.563   5.949   1.287
 8522SOL    HW126465   1.540   6.046   1.276
 8522SOL    HW226466   1.660   5.941   1.308
 8523SOL     OW26467   2.086   6.272   6.845
 8523SOL    HW126468   2.182   6.244   6.838
 8523SOL    HW226469   2.053   6.300   6.755
 8524SOL     OW26470   0.539   2.613   5.425
 8524SOL    HW126471   0.460   2.591   5.367
 8524SOL    HW226472   0.564   2.533   5.479
 8525SOL     OW26473   6.097   4.020   1.617
 8525SOL    HW126474   6.107   4.001   1.714
 8525SOL    HW226475   6.011   4.067   1.600
 8526SOL     OW26476   4.069   6.547   6.874
 8526SOL    HW126477   4.146   6.500   6.831
 8526SOL    HW226478   3.989   6.541   6.815
 8527SOL     OW26479   2.791   0.981   6.660
 8527SOL    HW126480   2.806   1.079   6.652
 8527SOL    HW226481   2.833   0.935   6.581
 8528SOL     OW26482   3.999   0.760   6.979
 8528SOL    HW126483   3.916   0.810   7.005
 8528SOL    HW226484   3.985   0.717   6.889
 8529SOL     OW26485   1.238   6.932   0.770
 8529SOL    HW126486   1.333   6.948   0.797
 8529SOL    HW226487   1.178   6.944   0.850
 8530SOL     OW26488   3.970   4.264   5.760
 8530SOL    HW126489   4.014   4.191   5.707
 8530SOL    HW226490   3.902   4.310   5.702
 8531SOL     OW26491   6.420   5.020   2.435
 8531SOL    HW126492   6.401   4.930   2.475
 8531SOL    HW226493   6.343   5.081   2.450
 8532SOL     OW26494   4.338   5.012   4.656
 8532SOL    HW126495   4.280   5.006   4.738
 8532SOL    HW226496   4.422   5.062   4.679
 8533SOL     OW26497   1.678   6.476   0.341
 8533SOL    HW126498   1.597   6.512   0.387
 8533SOL    HW226499   1.759   6.523   0.376
 8534SOL     OW26500   6.095   2.541   4.568
 8534SOL    HW126501   6.122   2.621   4.622
 8534SOL    HW226502   6.012   2.562   4.516
 8535SOL     OW26503   6.334   0.997   3.554
 8535SOL    HW126504   6.243   0.987   3.514
 8535SOL    HW226505   6.361   0.912   3.599
 8536SOL     OW26506   0.053   2.369   4.621
 8536SOL    HW126507   0.068   2.463   4.649
 8536SOL    HW226508   6.987   2.356   4.596
 8537SOL     OW26509   5.636   0.511   2.866
 8537SOL    HW126510   5.682   0.534   2.780
 8537SOL    HW226511   5.628   0.594   2.922
 8538SOL     OW26512   0.919   0.975   0.395
 8538SOL    HW126513   0.876   1.063   0.373
 8538SOL    HW226514   0.944   0.927   0.311
 8539SOL     OW26515   6.287   1.195   2.821
 8539SOL    HW126516   6.303   1.222   2.916
 8539SOL    HW226517   6.368   1.149   2.785
 8540SOL     OW26518   5.021   0.419   6.210
 8540SOL    HW126519   5.093   0.481   6.241
 8540SOL    HW226520   4.958   0.469   6.150
 8541SOL     OW26521   2.716   1.478   4.136
 8541SOL    HW126522   2.805   1.520   4.158
 8541SOL    HW226523   2.651   1.550   4.110
 8542SOL     OW26524   3.978   4.834   6.477
 8542SOL    HW126525   4.027   4.773   6.539
 8542SOL    HW226526   3.968   4.790   6.388
 8543SOL     OW26527   2.493   1.636   1.087
 8543SOL    HW126528   2.528   1.560   1.032
 8543SOL    HW226529   2.433   1.601   1.158
 8544SOL     OW26530   5.848   3.046   3.871
 8544SOL    HW126531   5.805   3.065   3.783
 8544SOL    HW226532   5.915   3.117   3.892
 8545SOL     OW26533   4.803   0.095   4.701
 8545SOL    HW126534   4.782   0.135   4.791
 8545SOL    HW226535   4.834   0.001   4.713
 8546SOL     OW26536   6.121   1.833   4.132
 8546SOL    HW126537   6.196   1.770   4.110
 8546SOL    HW226538   6.038   1.803   4.086
 8547SOL     OW26539   1.921   6.681   6.407
 8547SOL    HW126540   1.899   6.763   6.353
 8547SOL    HW226541   1.852   6.668   6.478
 8548SOL     OW26542   6.152   2.414   5.777
 8548SOL    HW126543   6.204   2.386   5.858
 8548SOL    HW226544   6.060   2.441   5.805
 8549SOL     OW26545   1.383   2.950   4.003
 8549SOL    HW126546   1.378   2.856   3.970
 8549SOL    HW226547   1.298   2.998   3.983
 8550SOL     OW26548   1.763   4.310   0.287
 8550SOL    HW126549   1.787   4.402   0.318
 8550SOL    HW226550   1.771   4.246   0.364
 8551SOL     OW26551   3.660   4.046   6.457
 8551SOL    HW126552   3.575   3.994   6.465
 8551SOL    HW226553   3.649   4.116   6.386
 8552SOL     OW26554   2.468   0.227   3.767
 8552SOL    HW126555   2.507   0.245   3.857
 8552SOL    HW226556   2.437   0.132   3.762
 8553SOL     OW26557   4.502   4.607   6.409
 8553SOL    HW126558   4.550   4.693   6.427
 8553SOL    HW226559   4.557   4.550   6.348
 8554SOL     OW26560   0.673   5.026   0.276
 8554SOL    HW126561   0.707   5.083   0.351
 8554SOL    HW226562   0.600   4.967   0.310
 8555SOL     OW26563   1.556   0.788   2.260
 8555SOL    HW126564   1.604   0.728   2.324
 8555SOL    HW226565   1.614   0.864   2.234
 8556SOL     OW26566   1.113   6.645   5.114
 8556SOL    HW126567   1.176   6.611   5.045
 8556SOL    HW226568   1.052   6.713   5.073
 8557SOL     OW26569   5.752   0.026   2.765
 8557SOL    HW126570   5.727   0.018   2.668
 8557SOL    HW226571   5.683   7.011   2.821
 8558SOL     OW26572   3.074   5.228   3.461
 8558SOL    HW126573   3.055   5.136   3.426
 8558SOL    HW226574   3.112   5.284   3.388
 8559SOL     OW26575   6.567   0.433   2.379
 8559SOL    HW126576   6.558   0.419   2.477
 8559SOL    HW226577   6.636   0.503   2.362
 8560SOL     OW26578   6.966   6.245   2.205
 8560SOL    HW126579   0.025   6.289   2.220
 8560SOL    HW226580   6.904   6.310   2.160
 8561SOL     OW26581   3.274   0.715   2.118
 8561SOL    HW126582   3.276   0.638   2.182
 8561SOL    HW226583   3.309   0.686   2.029
 8562SOL     OW26584   3.826   6.051   5.451
 8562SOL    HW126585   3.841   6.145   5.422
 8562SOL    HW226586   3.802   5.995   5.372
 8563SOL     OW26587   2.851   4.366   0.206
 8563SOL    HW126588   2.921   4.382   0.275
 8563SOL    HW226589   2.761   4.387   0.245
 8564SOL     OW26590   3.181   1.234   4.012
 8564SOL    HW126591   3.142   1.324   3.992
 8564SOL    HW226592   3.252   1.212   3.945
 8565SOL     OW26593   4.440   5.696   1.075
 8565SOL    HW126594   4.392   5.701   0.987
 8565SOL    HW226595   4.374   5.684   1.149
 8566SOL     OW26596   1.169   0.413   1.310
 8566SOL    HW126597   1.151   0.451   1.400
 8566SOL    HW226598   1.223   0.477   1.256
 8567SOL     OW26599   6.977   1.902   2.572
 8567SOL    HW126600   7.014   1.924   2.663
 8567SOL    HW226601   6.891   1.952   2.558
 8568SOL     OW26602   5.605   1.303   6.219
 8568SOL    HW126603   5.522   1.357   6.206
 8568SOL    HW226604   5.681   1.348   6.174
 8569SOL     OW26605   5.202   1.610   5.813
 8569SOL    HW126606   5.260   1.658   5.879
 8569SOL    HW226607   5.112   1.654   5.809
 8570SOL     OW26608   0.993   2.719   5.353
 8570SOL    HW126609   0.909   2.710   5.408
 8570SOL    HW226610   1.054   2.642   5.372
 8571SOL     OW26611   1.576   5.247   5.663
 8571SOL    HW126612   1.500   5.205   5.615
 8571SOL    HW226613   1.543   5.290   5.747
 8572SOL     OW26614   3.336   5.302   6.666
 8572SOL    HW126615   3.433   5.323   6.678
 8572SOL    HW226616   3.288   5.382   6.630
 8573SOL     OW26617   3.498   6.409   5.883
 8573SOL    HW126618   3.536   6.481   5.940
 8573SOL    HW226619   3.416   6.442   5.836
 8574SOL     OW26620   6.885   5.473   5.729
 8574SOL    HW126621   6.889   5.432   5.638
 8574SOL    HW226622   6.896   5.572   5.722
 8575SOL     OW26623   3.046   2.568   5.529
 8575SOL    HW126624   2.988   2.551   5.608
 8575SOL    HW226625   2.996   2.623   5.462
 8576SOL     OW26626   1.808   5.809   0.080
 8576SOL    HW126627   1.881   5.817   0.012
 8576SOL    HW226628   1.739   5.744   0.048
 8577SOL     OW26629   0.445   6.195   4.328
 8577SOL    HW126630   0.532   6.197   4.376
 8577SOL    HW226631   0.379   6.142   4.382
 8578SOL     OW26632   5.479   0.984   4.481
 8578SOL    HW126633   5.396   0.930   4.496
 8578SOL    HW226634   5.474   1.030   4.393
 8579SOL     OW26635   1.280   0.289   2.899
 8579SOL    HW126636   1.294   0.370   2.842
 8579SOL    HW226637   1.326   0.300   2.986
 8580SOL     OW26638   2.579   6.441   2.785
 8580SOL    HW126639   2.504   6.496   2.749
 8580SOL    HW226640   2.660   6.453   2.727
 8581SOL     OW26641   3.502   3.350   1.751
 8581SOL    HW126642   3.415   3.326   1.794
 8581SOL    HW226643   3.562   3.394   1.819
 8582SOL     OW26644   4.245   4.725   2.733
 8582SOL    HW126645   4.161   4.770   2.705
 8582SOL    HW226646   4.281   4.769   2.815
 8583SOL     OW26647   5.580   0.299   4.776
 8583SOL    HW126648   5.636   0.258   4.848
 8583SOL    HW226649   5.589   0.246   4.692
 8584SOL     OW26650   0.531   3.752   5.995
 8584SOL    HW126651   0.483   3.668   6.018
 8584SOL    HW226652   0.572   3.743   5.904
 8585SOL     OW26653   0.953   6.205   6.016
 8585SOL    HW126654   0.918   6.257   5.939
 8585SOL    HW226655   1.037   6.157   5.988
 8586SOL     OW26656   3.186   0.300   3.331
 8586SOL    HW126657   3.174   0.375   3.267
 8586SOL    HW226658   3.122   0.311   3.407
 8587SOL     OW26659   1.890   0.177   2.805
 8587SOL    HW126660   1.937   0.165   2.717
 8587SOL    HW226661   1.815   0.111   2.810
 8588SOL     OW26662   2.515   0.543   0.507
 8588SOL    HW126663   2.475   0.468   0.454
 8588SOL    HW226664   2.508   0.521   0.605
 8589SOL     OW26665   5.235   2.547   4.767
 8589SOL    HW126666   5.333   2.529   4.763
 8589SOL    HW226667   5.186   2.462   4.788
 8590SOL     OW26668   6.633   6.641   3.868
 8590SOL    HW126669   6.626   6.584   3.950
 8590SOL    HW226670   6.563   6.712   3.871
 8591SOL     OW26671   0.438   4.915   6.514
 8591SOL    HW126672   0.367   4.883   6.452
 8591SOL    HW226673   0.398   4.940   6.602
 8592SOL     OW26674   0.395   3.050   6.616
 8592SOL    HW126675   0.434   3.061   6.525
 8592SOL    HW226676   0.440   2.974   6.664
 8593SOL     OW26677   1.968   0.491   1.792
 8593SOL    HW126678   1.910   0.432   1.735
 8593SOL    HW226679   1.918   0.574   1.815
 8594SOL     OW26680   3.471   3.031   5.260
 8594SOL    HW126681   3.464   2.967   5.337
 8594SOL    HW226682   3.523   3.112   5.288
 8595SOL     OW26683   1.665   2.561   3.056
 8595SOL    HW126684   1.657   2.560   3.156
 8595SOL    HW226685   1.729   2.490   3.027
 8596SOL     OW26686   6.281   5.300   3.306
 8596SOL    HW126687   6.309   5.208   3.278
 8596SOL    HW226688   6.210   5.294   3.376
 8597SOL     OW26689   4.429   1.082   1.046
 8597SOL    HW126690   4.420   1.095   1.145
 8597SOL    HW226691   4.410   0.987   1.022
 8598SOL     OW26692   0.050   6.023   0.817
 8598SOL    HW126693   0.089   5.958   0.752
 8598SOL    HW226694   7.022   5.974   0.882
 8599SOL     OW26695   0.948   2.340   4.033
 8599SOL    HW126696   0.926   2.416   3.973
 8599SOL    HW226697   0.872   2.275   4.034
 8600SOL     OW26698   5.458   5.004   5.727
 8600SOL    HW126699   5.465   5.063   5.646
 8600SOL    HW226700   5.362   4.986   5.746
 8601SOL     OW26701   0.655   0.388   5.169
 8601SOL    HW126702   0.715   0.459   5.207
 8601SOL    HW226703   0.566   0.428   5.147
 8602SOL     OW26704   3.180   5.613   3.509
 8602SOL    HW126705   3.183   5.693   3.569
 8602SOL    HW226706   3.117   5.631   3.433
 8603SOL     OW26707   4.001   5.255   0.413
 8603SOL    HW126708   3.909   5.295   0.418
 8603SOL    HW226709   4.002   5.167   0.459
 8604SOL     OW26710   0.952   3.411   3.973
 8604SOL    HW126711   1.012   3.485   4.002
 8604SOL    HW226712   0.951   3.339   4.042
 8605SOL     OW26713   3.251   5.134   4.420
 8605SOL    HW126714   3.176   5.200   4.418
 8605SOL    HW226715   3.338   5.182   4.432
 8606SOL     OW26716   1.507   3.882   6.295
 8606SOL    HW126717   1.522   3.864   6.392
 8606SOL    HW226718   1.595   3.885   6.248
 8607SOL     OW26719   3.675   5.857   0.753
 8607SOL    HW126720   3.712   5.801   0.826
 8607SOL    HW226721   3.709   5.825   0.665
 8608SOL     OW26722   4.649   4.883   3.152
 8608SOL    HW126723   4.561   4.913   3.189
 8608SOL    HW226724   4.694   4.824   3.218
 8609SOL     OW26725   5.311   1.139   3.242
 8609SOL    HW126726   5.401   1.109   3.210
 8609SOL    HW226727   5.297   1.235   3.218
 8610SOL     OW26728   1.639   1.836   2.456
 8610SOL    HW126729   1.591   1.791   2.531
 8610SOL    HW226730   1.719   1.885   2.492
 8611SOL     OW26731   2.280   2.085   4.213
 8611SOL    HW126732   2.339   2.153   4.257
 8611SOL    HW226733   2.200   2.131   4.173
 8612SOL     OW26734   3.616   3.250   0.617
 8612SOL    HW126735   3.613   3.175   0.552
 8612SOL    HW226736   3.581   3.219   0.706
 8613SOL     OW26737   2.402   2.256   1.351
 8613SOL    HW126738   2.368   2.287   1.262
 8613SOL    HW226739   2.494   2.219   1.340
 8614SOL     OW26740   0.784   3.101   2.816
 8614SOL    HW126741   0.862   3.152   2.780
 8614SOL    HW226742   0.752   3.144   2.900
 8615SOL     OW26743   4.866   1.809   5.554
 8615SOL    HW126744   4.768   1.827   5.557
 8615SOL    HW226745   4.911   1.855   5.631
 8616SOL     OW26746   2.702   4.911   1.367
 8616SOL    HW126747   2.738   5.000   1.395
 8616SOL    HW226748   2.667   4.863   1.447
 8617SOL     OW26749   6.778   0.930   6.575
 8617SOL    HW126750   6.766   1.002   6.506
 8617SOL    HW226751   6.810   0.971   6.660
 8618SOL     OW26752   6.066   6.459   1.009
 8618SOL    HW126753   6.048   6.364   1.036
 8618SOL    HW226754   5.998   6.488   0.942
 8619SOL     OW26755   3.761   4.946   1.969
 8619SOL    HW126756   3.773   5.012   2.043
 8619SOL    HW226757   3.673   4.899   1.980
 8620SOL     OW26758   0.911   0.106   3.531
 8620SOL    HW126759   0.886   0.019   3.572
 8620SOL    HW226760   0.830   0.150   3.492
 8621SOL     OW26761   6.420   1.316   3.037
 8621SOL    HW126762   6.370   1.399   3.058
 8621SOL    HW226763   6.473   1.288   3.118
 8622SOL     OW26764   4.862   3.314   0.162
 8622SOL    HW126765   4.865   3.283   0.257
 8622SOL    HW226766   4.878   3.412   0.158
 8623SOL     OW26767   0.891   4.039   3.418
 8623SOL    HW126768   0.891   4.050   3.318
 8623SOL    HW226769   0.889   3.942   3.440
 8624SOL     OW26770   1.231   3.855   4.434
 8624SOL    HW126771   1.314   3.828   4.384
 8624SOL    HW226772   1.243   3.836   4.531
 8625SOL     OW26773   4.546   6.799   4.771
 8625SOL    HW126774   4.451   6.783   4.796
 8625SOL    HW226775   4.597   6.832   4.850
 8626SOL     OW26776   3.894   2.969   5.030
 8626SOL    HW126777   3.814   2.916   5.002
 8626SOL    HW226778   3.950   2.915   5.092
 8627SOL     OW26779   0.375   1.302   3.413
 8627SOL    HW126780   0.346   1.396   3.393
 8627SOL    HW226781   0.316   1.238   3.363
 8628SOL     OW26782   6.038   6.879   1.362
 8628SOL    HW126783   6.133   6.875   1.332
 8628SOL    HW226784   6.004   6.973   1.352
 8629SOL     OW26785   1.647   5.129   5.375
 8629SOL    HW126786   1.640   5.156   5.471
 8629SOL    HW226787   1.571   5.069   5.351
 8630SOL     OW26788   5.520   4.497   3.898
 8630SOL    HW126789   5.431   4.454   3.911
 8630SOL    HW226790   5.592   4.428   3.909
 8631SOL     OW26791   2.865   6.055   6.213
 8631SOL    HW126792   2.897   6.114   6.139
 8631SOL    HW226793   2.854   5.962   6.178
 8632SOL     OW26794   3.081   6.636   3.650
 8632SOL    HW126795   2.996   6.681   3.678
 8632SOL    HW226796   3.116   6.581   3.726
 8633SOL     OW26797   5.990   1.801   4.373
 8633SOL    HW126798   6.014   1.704   4.376
 8633SOL    HW226799   6.067   1.854   4.337
 8634SOL     OW26800   5.598   3.362   0.174
 8634SOL    HW126801   5.540   3.283   0.151
 8634SOL    HW226802   5.596   3.376   0.273
 8635SOL     OW26803   6.033   4.325   6.012
 8635SOL    HW126804   5.981   4.290   6.090
 8635SOL    HW226805   6.023   4.264   5.934
 8636SOL     OW26806   5.189   5.954   0.578
 8636SOL    HW126807   5.239   5.917   0.656
 8636SOL    HW226808   5.235   5.928   0.493
 8637SOL     OW26809   1.700   1.173   0.031
 8637SOL    HW126810   1.670   1.159   0.125
 8637SOL    HW226811   1.769   1.245   0.028
 8638SOL     OW26812   3.445   2.994   6.766
 8638SOL    HW126813   3.348   2.975   6.784
 8638SOL    HW226814   3.484   3.040   6.846
 8639SOL     OW26815   5.459   1.827   1.830
 8639SOL    HW126816   5.525   1.781   1.889
 8639SOL    HW226817   5.391   1.874   1.887
 8640SOL     OW26818   4.602   3.985   0.796
 8640SOL    HW126819   4.687   4.034   0.779
 8640SOL    HW226820   4.603   3.898   0.747
 8641SOL     OW26821   5.930   5.185   4.074
 8641SOL    HW126822   5.950   5.174   3.976
 8641SOL    HW226823   5.836   5.217   4.086
 8642SOL     OW26824   3.358   1.312   3.093
 8642SOL    HW126825   3.292   1.364   3.039
 8642SOL    HW226826   3.424   1.375   3.134
 8643SOL     OW26827   3.344   0.842   6.633
 8643SOL    HW126828   3.266   0.878   6.684
 8643SOL    HW226829   3.404   0.792   6.695
 8644SOL     OW26830   4.954   2.276   5.812
 8644SOL    HW126831   4.862   2.308   5.791
 8644SOL    HW226832   4.990   2.327   5.890
 8645SOL     OW26833   4.447   4.425   1.081
 8645SOL    HW126834   4.509   4.350   1.061
 8645SOL    HW226835   4.499   4.510   1.091
 8646SOL     OW26836   6.323   1.352   2.101
 8646SOL    HW126837   6.386   1.293   2.051
 8646SOL    HW226838   6.263   1.399   2.036
 8647SOL     OW26839   2.533   5.098   5.954
 8647SOL    HW126840   2.544   5.112   6.052
 8647SOL    HW226841   2.570   5.008   5.928
 8648SOL     OW26842   6.431   0.780   3.692
 8648SOL    HW126843   6.499   0.838   3.737
 8648SOL    HW226844   6.478   0.713   3.635
 8649SOL     OW26845   5.407   4.548   6.702
 8649SOL    HW126846   5.443   4.474   6.644
 8649SOL    HW226847   5.312   4.567   6.675
 8650SOL     OW26848   2.160   4.287   6.186
 8650SOL    HW126849   2.065   4.311   6.164
 8650SOL    HW226850   2.161   4.217   6.257
 8651SOL     OW26851   3.185   1.081   0.686
 8651SOL    HW126852   3.217   1.016   0.617
 8651SOL    HW226853   3.087   1.097   0.675
 8652SOL     OW26854   1.883   4.005   3.865
 8652SOL    HW126855   1.908   4.100   3.846
 8652SOL    HW226856   1.863   3.958   3.779
 8653SOL     OW26857   5.906   1.364   6.920
 8653SOL    HW126858   5.972   1.298   6.957
 8653SOL    HW226859   5.838   1.317   6.864
 8654SOL     OW26860   1.215   5.150   1.361
 8654SOL    HW126861   1.220   5.060   1.403
 8654SOL    HW226862   1.307   5.189   1.354
 8655SOL     OW26863   6.324   1.532   3.655
 8655SOL    HW126864   6.227   1.556   3.649
 8655SOL    HW226865   6.333   1.438   3.690
 8656SOL     OW26866   6.296   0.884   0.296
 8656SOL    HW126867   6.357   0.960   0.317
 8656SOL    HW226868   6.259   0.894   0.204
 8657SOL     OW26869   5.276   4.908   0.392
 8657SOL    HW126870   5.338   4.909   0.314
 8657SOL    HW226871   5.262   5.001   0.425
 8658SOL     OW26872   4.160   6.654   0.073
 8658SOL    HW126873   4.243   6.688   0.029
 8658SOL    HW226874   4.112   6.593   0.011
 8659SOL     OW26875   4.475   1.902   3.179
 8659SOL    HW126876   4.492   1.804   3.171
 8659SOL    HW226877   4.534   1.952   3.115
 8660SOL     OW26878   5.954   3.833   0.624
 8660SOL    HW126879   5.994   3.904   0.565
 8660SOL    HW226880   5.994   3.745   0.600
 8661SOL     OW26881   5.733   3.697   0.954
 8661SOL    HW126882   5.832   3.711   0.953
 8661SOL    HW226883   5.697   3.709   0.862
 8662SOL     OW26884   4.654   5.869   0.861
 8662SOL    HW126885   4.599   5.816   0.797
 8662SOL    HW226886   4.660   5.821   0.948
 8663SOL     OW26887   2.787   5.709   1.448
 8663SOL    HW126888   2.850   5.774   1.492
 8663SOL    HW226889   2.841   5.637   1.403
 8664SOL     OW26890   3.105   6.486   1.227
 8664SOL    HW126891   3.086   6.444   1.138
 8664SOL    HW226892   3.131   6.415   1.293
 8665SOL     OW26893   5.524   6.219   5.000
 8665SOL    HW126894   5.584   6.144   4.971
 8665SOL    HW226895   5.439   6.216   4.948
 8666SOL     OW26896   4.740   1.387   4.039
 8666SOL    HW126897   4.665   1.361   4.100
 8666SOL    HW226898   4.786   1.468   4.076
 8667SOL     OW26899   4.960   2.614   2.924
 8667SOL    HW126900   4.926   2.586   3.014
 8667SOL    HW226901   4.946   2.712   2.912
 8668SOL     OW26902   5.853   3.348   3.032
 8668SOL    HW126903   5.875   3.378   2.939
 8668SOL    HW226904   5.761   3.379   3.056
 8669SOL     OW26905   2.186   6.432   0.456
 8669SOL    HW126906   2.272   6.476   0.483
 8669SOL    HW226907   2.182   6.427   0.356
 8670SOL     OW26908   3.537   4.493   5.480
 8670SOL    HW126909   3.611   4.427   5.468
 8670SOL    HW226910   3.463   4.471   5.416
 8671SOL     OW26911   5.472   1.942   3.368
 8671SOL    HW126912   5.397   2.002   3.337
 8671SOL    HW226913   5.440   1.847   3.368
 8672SOL     OW26914   1.814   4.980   3.793
 8672SOL    HW126915   1.746   4.968   3.865
 8672SOL    HW226916   1.901   5.008   3.833
 8673SOL     OW26917   6.889   2.553   0.008
 8673SOL    HW126918   6.911   2.512   0.096
 8673SOL    HW226919   6.966   2.542   6.975
 8674SOL     OW26920   5.408   5.199   2.943
 8674SOL    HW126921   5.319   5.210   2.900
 8674SOL    HW226922   5.406   5.239   3.035
 8675SOL     OW26923   3.071   2.198   4.451
 8675SOL    HW126924   2.977   2.207   4.416
 8675SOL    HW226925   3.071   2.209   4.550
 8676SOL     OW26926   4.091   0.264   2.544
 8676SOL    HW126927   4.101   0.182   2.600
 8676SOL    HW226928   4.000   0.303   2.558
 8677SOL     OW26929   2.566   6.108   5.716
 8677SOL    HW126930   2.555   6.102   5.815
 8677SOL    HW226931   2.581   6.016   5.679
 8678SOL     OW26932   6.966   0.336   1.229
 8678SOL    HW126933   6.997   0.407   1.293
 8678SOL    HW226934   0.010   0.271   1.213
 8679SOL     OW26935   6.695   2.534   3.725
 8679SOL    HW126936   6.649   2.552   3.638
 8679SOL    HW226937   6.628   2.537   3.799
 8680SOL     OW26938   1.074   4.109   1.650
 8680SOL    HW126939   1.128   4.191   1.638
 8680SOL    HW226940   1.087   4.072   1.742
 8681SOL     OW26941   4.634   5.504   6.800
 8681SOL    HW126942   4.644   5.419   6.748
 8681SOL    HW226943   4.657   5.582   6.742
 8682SOL     OW26944   5.048   6.823   1.228
 8682SOL    HW126945   5.019   6.821   1.323
 8682SOL    HW226946   4.994   6.758   1.175
 8683SOL     OW26947   1.959   2.566   2.500
 8683SOL    HW126948   1.916   2.641   2.551
 8683SOL    HW226949   1.979   2.491   2.563
 8684SOL     OW26950   0.823   2.663   4.715
 8684SOL    HW126951   0.835   2.649   4.617
 8684SOL    HW226952   0.746   2.609   4.748
 8685SOL     OW26953   0.305   2.016   5.717
 8685SOL    HW126954   0.267   1.939   5.768
 8685SOL    HW226955   0.245   2.039   5.641
 8686SOL     OW26956   6.872   0.815   1.935
 8686SOL    HW126957   6.878   0.875   1.856
 8686SOL    HW226958   6.801   0.848   1.997
 8687SOL     OW26959   3.743   5.094   2.188
 8687SOL    HW126960   3.812   5.125   2.254
 8687SOL    HW226961   3.705   5.173   2.140
 8688SOL     OW26962   3.049   5.979   0.133
 8688SOL    HW126963   2.998   6.003   0.216
 8688SOL    HW226964   2.985   5.946   0.063
 8689SOL     OW26965   3.243   4.268   1.683
 8689SOL    HW126966   3.308   4.233   1.750
 8689SOL    HW226967   3.161   4.209   1.683
 8690SOL     OW26968   1.505   3.049   3.391
 8690SOL    HW126969   1.409   3.024   3.385
 8690SOL    HW226970   1.562   2.966   3.386
 8691SOL     OW26971   3.226   1.993   6.819
 8691SOL    HW126972   3.280   2.038   6.748
 8691SOL    HW226973   3.283   1.927   6.868
 8692SOL     OW26974   1.940   1.364   3.688
 8692SOL    HW126975   1.951   1.372   3.787
 8692SOL    HW226976   1.843   1.351   3.666
 8693SOL     OW26977   6.609   0.959   0.121
 8693SOL    HW126978   6.596   1.058   0.115
 8693SOL    HW226979   6.685   0.939   0.184
 8694SOL     OW26980   4.169   0.771   5.038
 8694SOL    HW126981   4.110   0.832   5.091
 8694SOL    HW226982   4.221   0.713   5.099
 8695SOL     OW26983   3.845   2.639   6.277
 8695SOL    HW126984   3.902   2.702   6.329
 8695SOL    HW226985   3.830   2.676   6.185
 8696SOL     OW26986   2.176   5.585   0.483
 8696SOL    HW126987   2.229   5.507   0.516
 8696SOL    HW226988   2.101   5.552   0.425
 8697SOL     OW26989   6.759   2.536   0.393
 8697SOL    HW126990   6.825   2.495   0.455
 8697SOL    HW226991   6.715   2.465   0.338
 8698SOL     OW26992   5.660   5.795   4.390
 8698SOL    HW126993   5.642   5.830   4.298
 8698SOL    HW226994   5.748   5.830   4.422
 8699SOL     OW26995   2.044   2.532   5.386
 8699SOL    HW126996   2.119   2.590   5.418
 8699SOL    HW226997   1.959   2.561   5.431
 8700SOL     OW26998   1.102   0.576   4.491
 8700SOL    HW126999   1.030   0.604   4.427
 8700SOL    HW227000   1.069   0.500   4.547
 8701SOL     OW27001   1.290   0.664   0.139
 8701SOL    HW127002   1.339   0.583   0.172
 8701SOL    HW227003   1.348   0.715   0.076
 8702SOL     OW27004   5.390   4.481   0.906
 8702SOL    HW127005   5.376   4.447   0.999
 8702SOL    HW227006   5.303   4.509   0.867
 8703SOL     OW27007   3.421   5.501   0.710
 8703SOL    HW127008   3.402   5.418   0.761
 8703SOL    HW227009   3.386   5.580   0.760
 8704SOL     OW27010   0.261   3.654   2.564
 8704SOL    HW127011   0.251   3.753   2.549
 8704SOL    HW227012   0.221   3.630   2.652
 8705SOL     OW27013   4.979   0.877   0.184
 8705SOL    HW127014   4.922   0.807   0.141
 8705SOL    HW227015   5.070   0.840   0.201
 8706SOL     OW27016   4.631   2.269   6.074
 8706SOL    HW127017   4.541   2.250   6.034
 8706SOL    HW227018   4.620   2.306   6.166
 8707SOL     OW27019   7.028   2.807   0.045
 8707SOL    HW127020   6.991   2.860   6.999
 8707SOL    HW227021   6.970   2.727   0.061
 8708SOL     OW27022   4.608   2.194   2.172
 8708SOL    HW127023   4.566   2.283   2.154
 8708SOL    HW227024   4.543   2.134   2.218
 8709SOL     OW27025   6.719   6.129   0.366
 8709SOL    HW127026   6.641   6.142   0.304
 8709SOL    HW227027   6.794   6.189   0.337
 8710SOL     OW27028   2.191   3.093   4.131
 8710SOL    HW127029   2.228   3.001   4.116
 8710SOL    HW227030   2.203   3.118   4.228
 8711SOL     OW27031   1.104   6.202   3.351
 8711SOL    HW127032   1.138   6.281   3.404
 8711SOL    HW227033   1.162   6.123   3.370
 8712SOL     OW27034   4.090   2.189   5.005
 8712SOL    HW127035   4.131   2.278   4.987
 8712SOL    HW227036   4.112   2.161   5.099
 8713SOL     OW27037   0.683   3.480   4.019
 8713SOL    HW127038   0.609   3.414   4.013
 8713SOL    HW227039   0.771   3.433   4.011
 8714SOL     OW27040   1.068   1.319   5.838
 8714SOL    HW127041   1.089   1.410   5.875
 8714SOL    HW227042   1.056   1.255   5.914
 8715SOL     OW27043   4.319   0.448   0.931
 8715SOL    HW127044   4.328   0.433   1.030
 8715SOL    HW227045   4.252   0.519   0.913
 8716SOL     OW27046   0.415   6.993   0.980
 8716SOL    HW127047   0.401   6.903   0.939
 8716SOL    HW227048   0.424   6.984   1.079
 8717SOL     OW27049   3.222   3.492   3.317
 8717SOL    HW127050   3.234   3.470   3.220
 8717SOL    HW227051   3.126   3.484   3.341
 8718SOL     OW27052   0.838   4.376   4.759
 8718SOL    HW127053   0.899   4.433   4.705
 8718SOL    HW227054   0.849   4.280   4.732
 8719SOL     OW27055   2.690   0.158   6.456
 8719SOL    HW127056   2.767   0.102   6.426
 8719SOL    HW227057   2.708   0.192   6.548
 8720SOL     OW27058   6.202   5.278   5.697
 8720SOL    HW127059   6.226   5.204   5.760
 8720SOL    HW227060   6.272   5.349   5.702
 8721SOL     OW27061   0.058   2.318   2.583
 8721SOL    HW127062   0.044   2.355   2.675
 8721SOL    HW227063   0.071   2.394   2.518
 8722SOL     OW27064   3.870   1.253   6.462
 8722SOL    HW127065   3.808   1.214   6.531
 8722SOL    HW227066   3.961   1.211   6.472
 8723SOL     OW27067   4.673   5.478   0.757
 8723SOL    HW127068   4.649   5.393   0.710
 8723SOL    HW227069   4.636   5.556   0.706
 8724SOL     OW27070   5.527   0.355   5.952
 8724SOL    HW127071   5.490   0.419   6.020
 8724SOL    HW227072   5.552   0.406   5.870
 8725SOL     OW27073   2.162   0.028   6.801
 8725SOL    HW127074   2.099   0.005   6.727
 8725SOL    HW227075   2.157   0.126   6.820
 8726SOL     OW27076   6.198   0.109   2.334
 8726SOL    HW127077   6.155   0.088   2.246
 8726SOL    HW227078   6.131   0.154   2.394
 8727SOL     OW27079   0.420   6.199   2.253
 8727SOL    HW127080   0.416   6.202   2.153
 8727SOL    HW227081   0.344   6.144   2.287
 8728SOL     OW27082   4.631   0.573   3.955
 8728SOL    HW127083   4.615   0.524   3.869
 8728SOL    HW227084   4.728   0.593   3.964
 8729SOL     OW27085   5.029   6.474   4.023
 8729SOL    HW127086   4.933   6.474   4.050
 8729SOL    HW227087   5.080   6.537   4.081
 8730SOL     OW27088   6.444   4.063   2.492
 8730SOL    HW127089   6.518   4.124   2.466
 8730SOL    HW227090   6.426   3.999   2.418
 8731SOL     OW27091   2.488   2.612   2.756
 8731SOL    HW127092   2.542   2.598   2.673
 8731SOL    HW227093   2.540   2.579   2.835
 8732SOL     OW27094   5.345   4.547   1.766
 8732SOL    HW127095   5.380   4.640   1.764
 8732SOL    HW227096   5.275   4.538   1.837
 8733SOL     OW27097   2.065   5.222   1.397
 8733SOL    HW127098   2.062   5.314   1.436
 8733SOL    HW227099   2.008   5.160   1.452
 8734SOL     OW27100   1.547   5.025   2.226
 8734SOL    HW127101   1.570   4.959   2.155
 8734SOL    HW227102   1.618   5.095   2.230
 8735SOL     OW27103   0.988   1.980   0.567
 8735SOL    HW127104   0.913   1.956   0.628
 8735SOL    HW227105   1.014   2.076   0.582
 8736SOL     OW27106   0.840   5.881   5.855
 8736SOL    HW127107   0.925   5.898   5.805
 8736SOL    HW227108   0.806   5.967   5.892
 8737SOL     OW27109   2.338   6.818   6.046
 8737SOL    HW127110   2.414   6.753   6.054
 8737SOL    HW227111   2.365   6.906   6.086
 8738SOL     OW27112   2.090   5.214   4.335
 8738SOL    HW127113   2.097   5.124   4.378
 8738SOL    HW227114   1.995   5.233   4.313
 8739SOL     OW27115   5.555   5.460   6.113
 8739SOL    HW127116   5.583   5.537   6.056
 8739SOL    HW227117   5.539   5.380   6.056
 8740SOL     OW27118   5.123   1.076   5.538
 8740SOL    HW127119   5.149   1.055   5.632
 8740SOL    HW227120   5.130   1.174   5.523
 8741SOL     OW27121   2.724   1.313   1.449
 8741SOL    HW127122   2.632   1.346   1.427
 8741SOL    HW227123   2.731   1.217   1.425
 8742SOL     OW27124   5.783   6.456   1.214
 8742SOL    HW127125   5.831   6.544   1.204
 8742SOL    HW227126   5.841   6.383   1.178
 8743SOL     OW27127   1.716   0.630   2.491
 8743SOL    HW127128   1.802   0.616   2.441
 8743SOL    HW227129   1.730   0.700   2.561
 8744SOL     OW27130   3.396   2.648   6.407
 8744SOL    HW127131   3.380   2.744   6.431
 8744SOL    HW227132   3.491   2.635   6.379
 8745SOL     OW27133   5.977   2.937   5.932
 8745SOL    HW127134   5.921   2.891   6.002
 8745SOL    HW227135   6.060   2.973   5.975
 8746SOL     OW27136   5.280   3.763   4.943
 8746SOL    HW127137   5.269   3.678   4.995
 8746SOL    HW227138   5.307   3.837   5.004
 8747SOL     OW27139   0.577   2.575   2.196
 8747SOL    HW127140   0.591   2.488   2.149
 8747SOL    HW227141   0.521   2.560   2.277
 8748SOL     OW27142   6.981   1.715   5.067
 8748SOL    HW127143   6.900   1.774   5.073
 8748SOL    HW227144   6.955   1.626   5.031
 8749SOL     OW27145   2.741   0.686   6.742
 8749SOL    HW127146   2.693   0.769   6.714
 8749SOL    HW227147   2.694   0.606   6.706
 8750SOL     OW27148   3.188   3.419   5.540
 8750SOL    HW127149   3.170   3.510   5.578
 8750SOL    HW227150   3.159   3.417   5.444
 8751SOL     OW27151   6.437   0.667   3.128
 8751SOL    HW127152   6.446   0.604   3.051
 8751SOL    HW227153   6.340   0.682   3.147
 8752SOL     OW27154   2.344   4.405   0.420
 8752SOL    HW127155   2.278   4.457   0.366
 8752SOL    HW227156   2.328   4.422   0.517
 8753SOL     OW27157   4.897   2.151   5.164
 8753SOL    HW127158   4.841   2.070   5.147
 8753SOL    HW227159   4.865   2.226   5.107
 8754SOL     OW27160   1.205   3.011   5.154
 8754SOL    HW127161   1.165   3.099   5.131
 8754SOL    HW227162   1.293   3.001   5.107
 8755SOL     OW27163   2.538   0.475   0.760
 8755SOL    HW127164   2.615   0.412   0.754
 8755SOL    HW227165   2.547   0.529   0.844
 8756SOL     OW27166   1.785   2.965   3.542
 8756SOL    HW127167   1.732   3.016   3.609
 8756SOL    HW227168   1.742   2.875   3.528
 8757SOL     OW27169   4.361   6.149   5.858
 8757SOL    HW127170   4.437   6.195   5.904
 8757SOL    HW227171   4.307   6.098   5.925
 8758SOL     OW27172   4.563   6.646   2.127
 8758SOL    HW127173   4.550   6.660   2.225
 8758SOL    HW227174   4.632   6.709   2.093
 8759SOL     OW27175   4.056   2.443   0.480
 8759SOL    HW127176   3.958   2.451   0.462
 8759SOL    HW227177   4.071   2.435   0.579
 8760SOL     OW27178   1.108   1.445   5.057
 8760SOL    HW127179   1.039   1.432   5.129
 8760SOL    HW227180   1.074   1.406   4.972
 8761SOL     OW27181   5.301   2.204   2.172
 8761SOL    HW127182   5.343   2.153   2.247
 8761SOL    HW227183   5.229   2.149   2.130
 8762SOL     OW27184   0.656   4.269   2.162
 8762SOL    HW127185   0.609   4.247   2.247
 8762SOL    HW227186   0.687   4.364   2.164
 8763SOL     OW27187   6.393   6.177   5.734
 8763SOL    HW127188   6.337   6.195   5.816
 8763SOL    HW227189   6.384   6.081   5.708
 8764SOL     OW27190   4.854   1.318   4.863
 8764SOL    HW127191   4.774   1.296   4.919
 8764SOL    HW227192   4.916   1.377   4.915
 8765SOL     OW27193   6.036   6.873   5.563
 8765SOL    HW127194   5.943   6.906   5.584
 8765SOL    HW227195   6.060   6.798   5.625
 8766SOL     OW27196   4.485   4.520   3.628
 8766SOL    HW127197   4.499   4.619   3.627
 8766SOL    HW227198   4.449   4.493   3.718
 8767SOL     OW27199   4.284   6.858   2.904
 8767SOL    HW127200   4.363   6.826   2.853
 8767SOL    HW227201   4.313   6.886   2.996
 8768SOL     OW27202   1.268   3.042   0.600
 8768SOL    HW127203   1.288   3.060   0.696
 8768SOL    HW227204   1.185   2.987   0.592
 8769SOL     OW27205   1.018   0.249   4.063
 8769SOL    HW127206   0.964   0.212   3.987
 8769SOL    HW227207   1.061   0.335   4.035
 8770SOL     OW27208   5.244   3.920   2.282
 8770SOL    HW127209   5.315   3.851   2.263
 8770SOL    HW227210   5.223   3.918   2.380
 8771SOL     OW27211   1.155   0.475   6.381
 8771SOL    HW127212   1.086   0.511   6.444
 8771SOL    HW227213   1.159   0.376   6.389
 8772SOL     OW27214   5.075   6.732   6.801
 8772SOL    HW127215   5.131   6.672   6.858
 8772SOL    HW227216   5.044   6.810   6.855
 8773SOL     OW27217   4.556   2.574   3.630
 8773SOL    HW127218   4.521   2.549   3.539
 8773SOL    HW227219   4.502   2.526   3.700
 8774SOL     OW27220   1.931   1.318   6.607
 8774SOL    HW127221   1.936   1.220   6.586
 8774SOL    HW227222   1.854   1.335   6.668
 8775SOL     OW27223   6.654   0.216   5.195
 8775SOL    HW127224   6.685   0.302   5.235
 8775SOL    HW227225   6.719   0.144   5.218
 8776SOL     OW27226   4.119   3.521   5.558
 8776SOL    HW127227   4.069   3.472   5.629
 8776SOL    HW227228   4.210   3.481   5.548
 8777SOL     OW27229   6.738   3.888   1.725
 8777SOL    HW127230   6.670   3.825   1.761
 8777SOL    HW227231   6.815   3.837   1.687
 8778SOL     OW27232   6.402   2.206   4.717
 8778SOL    HW127233   6.459   2.261   4.656
 8778SOL    HW227234   6.306   2.222   4.694
 8779SOL     OW27235   3.076   5.160   2.205
 8779SOL    HW127236   3.129   5.235   2.244
 8779SOL    HW227237   3.092   5.155   2.106
 8780SOL     OW27238   1.045   5.831   2.859
 8780SOL    HW127239   1.026   5.735   2.840
 8780SOL    HW227240   0.977   5.889   2.813
 8781SOL     OW27241   6.545   1.782   3.379
 8781SOL    HW127242   6.627   1.751   3.331
 8781SOL    HW227243   6.545   1.747   3.472
 8782SOL     OW27244   5.133   6.913   1.936
 8782SOL    HW127245   5.091   6.966   2.010
 8782SOL    HW227246   5.101   6.948   1.848
 8783SOL     OW27247   6.936   4.049   3.865
 8783SOL    HW127248   6.861   3.995   3.825
 8783SOL    HW227249   6.982   4.101   3.793
 8784SOL     OW27250   5.751   4.185   6.565
 8784SOL    HW127251   5.715   4.106   6.516
 8784SOL    HW227252   5.734   4.175   6.662
 8785SOL     OW27253   6.685   3.598   6.448
 8785SOL    HW127254   6.753   3.667   6.473
 8785SOL    HW227255   6.696   3.518   6.508
 8786SOL     OW27256   1.728   6.995   0.370
 8786SOL    HW127257   1.786   0.023   0.313
 8786SOL    HW227258   1.785   6.927   0.417
 8787SOL     OW27259   2.334   2.804   1.928
 8787SOL    HW127260   2.335   2.721   1.984
 8787SOL    HW227261   2.401   2.795   1.854
 8788SOL     OW27262   0.073   2.149   5.891
 8788SOL    HW127263   0.126   2.065   5.878
 8788SOL    HW227264   0.134   2.228   5.891
 8789SOL     OW27265   6.415   0.058   5.667
 8789SOL    HW127266   6.415   0.121   5.588
 8789SOL    HW227267   6.483   7.016   5.652
 8790SOL     OW27268   0.017   0.854   6.737
 8790SOL    HW127269   6.961   0.903   6.725
 8790SOL    HW227270   0.031   0.790   6.661
 8791SOL     OW27271   6.269   6.831   4.903
 8791SOL    HW127272   6.205   6.804   4.831
 8791SOL    HW227273   6.269   6.762   4.975
 8792SOL     OW27274   3.167   6.715   3.402
 8792SOL    HW127275   3.146   6.699   3.498
 8792SOL    HW227276   3.126   6.644   3.346
 8793SOL     OW27277   1.702   5.486   3.016
 8793SOL    HW127278   1.733   5.495   3.110
 8793SOL    HW227279   1.720   5.393   2.984
 8794SOL     OW27280   4.045   6.432   1.853
 8794SOL    HW127281   4.016   6.491   1.777
 8794SOL    HW227282   4.061   6.489   1.934
 8795SOL     OW27283   1.432   6.302   5.404
 8795SOL    HW127284   1.358   6.294   5.337
 8795SOL    HW227285   1.394   6.314   5.495
 8796SOL     OW27286   4.755   1.766   4.493
 8796SOL    HW127287   4.764   1.676   4.452
 8796SOL    HW227288   4.819   1.829   4.450
 8797SOL     OW27289   1.192   0.005   5.481
 8797SOL    HW127290   1.155   6.947   5.452
 8797SOL    HW227291   1.286   0.014   5.447
 8798SOL     OW27292   4.943   5.418   5.549
 8798SOL    HW127293   4.881   5.496   5.558
 8798SOL    HW227294   4.952   5.371   5.637
 8799SOL     OW27295   2.110   4.679   3.834
 8799SOL    HW127296   2.123   4.734   3.751
 8799SOL    HW227297   2.193   4.683   3.890
 8800SOL     OW27298   6.083   4.331   5.255
 8800SOL    HW127299   5.988   4.345   5.282
 8800SOL    HW227300   6.122   4.254   5.307
 8801SOL     OW27301   0.738   1.788   4.886
 8801SOL    HW127302   0.837   1.787   4.899
 8801SOL    HW227303   0.715   1.745   4.799
 8802SOL     OW27304   1.727   0.186   1.159
 8802SOL    HW127305   1.699   0.117   1.225
 8802SOL    HW227306   1.651   0.206   1.098
 8803SOL     OW27307   6.961   5.505   6.242
 8803SOL    HW127308   7.017   5.570   6.192
 8803SOL    HW227309   6.975   5.413   6.205
 8804SOL     OW27310   3.100   0.916   2.480
 8804SOL    HW127311   3.091   1.015   2.476
 8804SOL    HW227312   3.028   0.878   2.538
 8805SOL     OW27313   2.934   6.967   4.137
 8805SOL    HW127314   3.013   6.924   4.181
 8805SOL    HW227315   2.961   7.007   4.050
 8806SOL     OW27316   2.483   5.208   1.965
 8806SOL    HW127317   2.455   5.119   1.999
 8806SOL    HW227318   2.537   5.255   2.035
 8807SOL     OW27319   5.152   0.101   6.584
 8807SOL    HW127320   5.102   0.014   6.585
 8807SOL    HW227321   5.104   0.167   6.641
 8808SOL     OW27322   5.894   2.463   6.855
 8808SOL    HW127323   5.922   2.423   6.768
 8808SOL    HW227324   5.902   2.394   6.927
 8809SOL     OW27325   4.338   5.619   3.805
 8809SOL    HW127326   4.414   5.633   3.869
 8809SOL    HW227327   4.294   5.531   3.823
 8810SOL     OW27328   5.468   0.548   6.397
 8810SOL    HW127329   5.386   0.491   6.394
 8810SOL    HW227330   5.471   0.597   6.485
 8811SOL     OW27331   2.629   1.483   3.715
 8811SOL    HW127332   2.687   1.532   3.779
 8811SOL    HW227333   2.534   1.514   3.724
 8812SOL     OW27334   2.180   0.016   1.603
 8812SOL    HW127335   2.273   0.024   1.566
 8812SOL    HW227336   2.179   0.048   1.697
 8813SOL     OW27337   0.949   4.609   1.837
 8813SOL    HW127338   1.013   4.649   1.772
 8813SOL    HW227339   0.857   4.646   1.820
 8814SOL     OW27340   5.751   6.909   0.829
 8814SOL    HW127341   5.730   6.878   0.736
 8814SOL    HW227342   5.712   6.845   0.895
 8815SOL     OW27343   6.950   6.282   0.782
 8815SOL    HW127344   6.915   6.207   0.839
 8815SOL    HW227345   0.001   6.250   0.732
 8816SOL     OW27346   1.060   0.556   0.186
 8816SOL    HW127347   1.124   0.627   0.155
 8816SOL    HW227348   1.105   0.496   0.252
 8817SOL     OW27349   1.255   6.023   4.739
 8817SOL    HW127350   1.290   5.977   4.820
 8817SOL    HW227351   1.205   5.958   4.682
 8818SOL     OW27352   0.740   3.634   4.691
 8818SOL    HW127353   0.740   3.675   4.600
 8818SOL    HW227354   0.657   3.662   4.740
 8819SOL     OW27355   5.640   4.728   4.967
 8819SOL    HW127356   5.633   4.793   5.043
 8819SOL    HW227357   5.704   4.655   4.992
 8820SOL     OW27358   1.750   0.814   5.238
 8820SOL    HW127359   1.822   0.796   5.171
 8820SOL    HW227360   1.743   0.913   5.254
 8821SOL     OW27361   2.986   6.104   0.368
 8821SOL    HW127362   3.064   6.129   0.425
 8821SOL    HW227363   2.917   6.176   0.372
 8822SOL     OW27364   0.621   0.145   4.897
 8822SOL    HW127365   0.569   0.144   4.982
 8822SOL    HW227366   0.560   0.131   4.820
 8823SOL     OW27367   2.461   0.900   1.041
 8823SOL    HW127368   2.466   0.969   1.113
 8823SOL    HW227369   2.430   0.943   0.956
 8824SOL     OW27370   0.807   3.320   1.085
 8824SOL    HW127371   0.729   3.325   1.148
 8824SOL    HW227372   0.891   3.343   1.135
 8825SOL     OW27373   1.455   0.502   2.744
 8825SOL    HW127374   1.478   0.597   2.722
 8825SOL    HW227375   1.472   0.445   2.664
 8826SOL     OW27376   6.654   3.094   0.896
 8826SOL    HW127377   6.593   3.146   0.956
 8826SOL    HW227378   6.728   3.154   0.864
 8827SOL     OW27379   3.851   1.145   3.076
 8827SOL    HW127380   3.752   1.147   3.061
 8827SOL    HW227381   3.890   1.066   3.028
 8828SOL     OW27382   4.315   5.342   5.674
 8828SOL    HW127383   4.322   5.257   5.622
 8828SOL    HW227384   4.323   5.321   5.772
 8829SOL     OW27385   6.451   2.109   0.817
 8829SOL    HW127386   6.396   2.181   0.858
 8829SOL    HW227387   6.490   2.142   0.730
 8830SOL     OW27388   0.818   1.806   2.126
 8830SOL    HW127389   0.849   1.821   2.032
 8830SOL    HW227390   0.854   1.718   2.159
 8831SOL     OW27391   5.147   1.500   3.748
 8831SOL    HW127392   5.153   1.481   3.846
 8831SOL    HW227393   5.203   1.434   3.698
 8832SOL     OW27394   6.898   5.879   2.947
 8832SOL    HW127395   6.922   5.918   2.857
 8832SOL    HW227396   6.969   5.814   2.974
 8833SOL     OW27397   2.209   6.147   5.776
 8833SOL    HW127398   2.137   6.116   5.714
 8833SOL    HW227399   2.284   6.187   5.723
 8834SOL     OW27400   5.545   3.518   4.783
 8834SOL    HW127401   5.556   3.575   4.864
 8834SOL    HW227402   5.524   3.424   4.811
 8835SOL     OW27403   5.578   1.108   6.404
 8835SOL    HW127404   5.610   1.178   6.342
 8835SOL    HW227405   5.483   1.084   6.382
 8836SOL     OW27406   4.397   2.401   0.105
 8836SOL    HW127407   4.379   2.485   0.054
 8836SOL    HW227408   4.312   2.349   0.115
 8837SOL     OW27409   0.139   5.899   3.283
 8837SOL    HW127410   0.087   5.824   3.242
 8837SOL    HW227411   0.204   5.935   3.216
 8838SOL     OW27412   2.181   4.593   2.711
 8838SOL    HW127413   2.163   4.664   2.643
 8838SOL    HW227414   2.236   4.520   2.670
 8839SOL     OW27415   4.673   5.190   3.161
 8839SOL    HW127416   4.756   5.207   3.213
 8839SOL    HW227417   4.645   5.094   3.172
 8840SOL     OW27418   6.510   2.052   1.985
 8840SOL    HW127419   6.431   2.053   2.046
 8840SOL    HW227420   6.585   2.103   2.027
 8841SOL     OW27421   0.243   0.849   5.145
 8841SOL    HW127422   0.207   0.929   5.194
 8841SOL    HW227423   0.333   0.871   5.108
 8842SOL     OW27424   3.242   3.175   1.782
 8842SOL    HW127425   3.156   3.207   1.822
 8842SOL    HW227426   3.242   3.075   1.778
 8843SOL     OW27427   2.013   3.332   5.632
 8843SOL    HW127428   2.060   3.407   5.585
 8843SOL    HW227429   1.917   3.330   5.603
 8844SOL     OW27430   6.556   2.539   6.644
 8844SOL    HW127431   6.538   2.616   6.704
 8844SOL    HW227432   6.492   2.542   6.566
 8845SOL     OW27433   3.579   3.798   0.139
 8845SOL    HW127434   3.507   3.792   0.208
 8845SOL    HW227435   3.655   3.852   0.175
 8846SOL     OW27436   3.228   5.830   3.653
 8846SOL    HW127437   3.144   5.867   3.692
 8846SOL    HW227438   3.307   5.869   3.701
 8847SOL     OW27439   2.899   1.613   3.426
 8847SOL    HW127440   2.844   1.529   3.431
 8847SOL    HW227441   2.885   1.667   3.509
 8848SOL     OW27442   2.471   1.207   1.694
 8848SOL    HW127443   2.423   1.124   1.665
 8848SOL    HW227444   2.569   1.197   1.677
 8849SOL     OW27445   3.098   6.483   3.275
 8849SOL    HW127446   3.013   6.485   3.222
 8849SOL    HW227447   3.093   6.410   3.343
 8850SOL     OW27448   1.404   2.716   6.948
 8850SOL    HW127449   1.440   2.627   6.920
 8850SOL    HW227450   1.418   2.728   0.016
 8851SOL     OW27451   1.543   4.036   3.282
 8851SOL    HW127452   1.463   4.039   3.343
 8851SOL    HW227453   1.542   3.950   3.231
 8852SOL     OW27454   0.166   2.629   5.098
 8852SOL    HW127455   0.190   2.674   5.184
 8852SOL    HW227456   0.223   2.665   5.025
 8853SOL     OW27457   2.911   0.928   1.740
 8853SOL    HW127458   2.817   0.944   1.770
 8853SOL    HW227459   2.957   0.869   1.807
 8854SOL     OW27460   1.976   2.372   5.856
 8854SOL    HW127461   1.890   2.402   5.815
 8854SOL    HW227462   2.025   2.312   5.793
 8855SOL     OW27463   6.160   5.065   1.444
 8855SOL    HW127464   6.098   5.142   1.428
 8855SOL    HW227465   6.179   5.057   1.542
 8856SOL     OW27466   1.319   6.537   6.524
 8856SOL    HW127467   1.223   6.514   6.539
 8856SOL    HW227468   1.333   6.634   6.545
 8857SOL     OW27469   6.628   1.735   4.435
 8857SOL    HW127470   6.578   1.809   4.480
 8857SOL    HW227471   6.713   1.717   4.485
 8858SOL     OW27472   0.105   4.121   4.498
 8858SOL    HW127473   0.092   4.216   4.526
 8858SOL    HW227474   0.198   4.092   4.523
 8859SOL     OW27475   1.474   1.790   3.958
 8859SOL    HW127476   1.560   1.739   3.957
 8859SOL    HW227477   1.490   1.881   3.919
 8860SOL     OW27478   6.917   2.086   1.178
 8860SOL    HW127479   6.864   2.134   1.108
 8860SOL    HW227480   6.920   1.988   1.155
 8861SOL     OW27481   4.023   1.301   5.788
 8861SOL    HW127482   4.061   1.294   5.880
 8861SOL    HW227483   4.086   1.354   5.730
 8862SOL     OW27484   5.949   0.302   3.836
 8862SOL    HW127485   5.850   0.296   3.846
 8862SOL    HW227486   5.972   0.370   3.767
 8863SOL     OW27487   2.698   4.839   3.433
 8863SOL    HW127488   2.600   4.819   3.427
 8863SOL    HW227489   2.740   4.829   3.342
 8864SOL     OW27490   3.262   5.165   6.400
 8864SOL    HW127491   3.341   5.121   6.359
 8864SOL    HW227492   3.287   5.203   6.489
 8865SOL     OW27493   3.140   0.735   4.614
 8865SOL    HW127494   3.157   0.832   4.599
 8865SOL    HW227495   3.128   0.690   4.525
 8866SOL     OW27496   5.351   6.807   2.903
 8866SOL    HW127497   5.300   6.891   2.881
 8866SOL    HW227498   5.445   6.830   2.925
 8867SOL     OW27499   5.862   4.549   3.526
 8867SOL    HW127500   5.842   4.456   3.557
 8867SOL    HW227501   5.832   4.615   3.595
 8868SOL     OW27502   0.191   2.907   1.660
 8868SOL    HW127503   0.133   2.837   1.699
 8868SOL    HW227504   0.175   2.913   1.561
 8869SOL     OW27505   3.899   5.842   5.647
 8869SOL    HW127506   3.994   5.826   5.671
 8869SOL    HW227507   3.891   5.931   5.602
 8870SOL     OW27508   2.496   6.680   1.987
 8870SOL    HW127509   2.402   6.646   1.982
 8870SOL    HW227510   2.523   6.716   1.897
 8871SOL     OW27511   2.002   0.189   3.516
 8871SOL    HW127512   1.906   0.216   3.516
 8871SOL    HW227513   2.061   0.270   3.519
 8872SOL     OW27514   1.405   4.863   5.849
 8872SOL    HW127515   1.319   4.908   5.827
 8872SOL    HW227516   1.452   4.914   5.921
 8873SOL     OW27517   1.964   6.868   2.183
 8873SOL    HW127518   1.934   6.815   2.105
 8873SOL    HW227519   1.888   6.925   2.216
 8874SOL     OW27520   2.284   5.634   2.565
 8874SOL    HW127521   2.197   5.595   2.533
 8874SOL    HW227522   2.358   5.568   2.551
 8875SOL     OW27523   6.645   3.451   4.777
 8875SOL    HW127524   6.698   3.425   4.696
 8875SOL    HW227525   6.656   3.549   4.793
 8876SOL     OW27526   2.428   0.323   5.851
 8876SOL    HW127527   2.496   0.391   5.823
 8876SOL    HW227528   2.475   0.238   5.875
 8877SOL     OW27529   2.254   2.463   4.188
 8877SOL    HW127530   2.259   2.499   4.095
 8877SOL    HW227531   2.187   2.389   4.191
 8878SOL     OW27532   4.245   4.759   1.181
 8878SOL    HW127533   4.271   4.737   1.275
 8878SOL    HW227534   4.264   4.681   1.122
 8879SOL     OW27535   4.469   4.735   2.315
 8879SOL    HW127536   4.452   4.660   2.251
 8879SOL    HW227537   4.524   4.701   2.392
 8880SOL     OW27538   4.505   6.349   4.903
 8880SOL    HW127539   4.542   6.274   4.847
 8880SOL    HW227540   4.461   6.416   4.844
 8881SOL     OW27541   5.474   6.295   3.990
 8881SOL    HW127542   5.450   6.198   3.986
 8881SOL    HW227543   5.434   6.343   3.912
 8882SOL     OW27544   4.676   1.245   1.099
 8882SOL    HW127545   4.704   1.239   1.195
 8882SOL    HW227546   4.602   1.179   1.082
 8883SOL     OW27547   2.285   6.509   6.390
 8883SOL    HW127548   2.268   6.575   6.463
 8883SOL    HW227549   2.237   6.538   6.307
 8884SOL     OW27550   5.870   3.336   5.514
 8884SOL    HW127551   5.884   3.292   5.602
 8884SOL    HW227552   5.789   3.299   5.469
 8885SOL     OW27553   4.988   4.722   0.679
 8885SOL    HW127554   4.906   4.665   0.688
 8885SOL    HW227555   5.054   4.698   0.751
 8886SOL     OW27556   2.773   5.823   5.546
 8886SOL    HW127557   2.800   5.734   5.582
 8886SOL    HW227558   2.673   5.832   5.551
 8887SOL     OW27559   3.826   0.873   0.957
 8887SOL    HW127560   3.890   0.858   1.032
 8887SOL    HW227561   3.783   0.963   0.967
 8888SOL     OW27562   2.005   2.113   5.203
 8888SOL    HW127563   1.921   2.060   5.187
 8888SOL    HW227564   2.043   2.143   5.116
 8889SOL     OW27565   6.196   6.704   0.029
 8889SOL    HW127566   6.188   6.759   0.112
 8889SOL    HW227567   6.145   6.619   0.039
 8890SOL     OW27568   0.334   5.490   5.888
 8890SOL    HW127569   0.389   5.550   5.829
 8890SOL    HW227570   0.243   5.529   5.898
 8891SOL     OW27571   3.905   4.258   0.481
 8891SOL    HW127572   3.868   4.244   0.389
 8891SOL    HW227573   3.830   4.272   0.545
 8892SOL     OW27574   3.522   4.889   3.296
 8892SOL    HW127575   3.476   4.905   3.384
 8892SOL    HW227576   3.620   4.904   3.308
 8893SOL     OW27577   1.318   4.979   4.632
 8893SOL    HW127578   1.294   5.059   4.576
 8893SOL    HW227579   1.326   5.006   4.728
 8894SOL     OW27580   3.165   2.041   6.319
 8894SOL    HW127581   3.214   1.953   6.316
 8894SOL    HW227582   3.153   2.069   6.414
 8895SOL     OW27583   0.005   2.060   1.589
 8895SOL    HW127584   0.078   2.112   1.632
 8895SOL    HW227585   0.042   1.974   1.553
 8896SOL     OW27586   2.196   3.047   4.818
 8896SOL    HW127587   2.259   3.014   4.888
 8896SOL    HW227588   2.202   3.146   4.812
 8897SOL     OW27589   2.368   2.689   3.772
 8897SOL    HW127590   2.339   2.722   3.682
 8897SOL    HW227591   2.289   2.649   3.820
 8898SOL     OW27592   5.282   3.542   2.455
 8898SOL    HW127593   5.369   3.577   2.419
 8898SOL    HW227594   5.246   3.474   2.391
 8899SOL     OW27595   1.514   4.388   0.608
 8899SOL    HW127596   1.598   4.425   0.648
 8899SOL    HW227597   1.524   4.289   0.595
 8900SOL     OW27598   5.198   3.044   3.122
 8900SOL    HW127599   5.177   2.996   3.207
 8900SOL    HW227600   5.297   3.053   3.113
 8901SOL     OW27601   0.742   1.239   4.884
 8901SOL    HW127602   0.776   1.197   4.968
 8901SOL    HW227603   0.670   1.181   4.845
 8902SOL     OW27604   1.036   5.547   0.160
 8902SOL    HW127605   1.041   5.449   0.142
 8902SOL    HW227606   0.952   5.584   0.118
 8903SOL     OW27607   0.656   1.928   4.478
 8903SOL    HW127608   0.686   1.848   4.530
 8903SOL    HW227609   0.713   1.939   4.397
 8904SOL     OW27610   0.792   0.856   4.916
 8904SOL    HW127611   0.837   0.768   4.927
 8904SOL    HW227612   0.774   0.872   4.819
 8905SOL     OW27613   2.006   3.059   3.063
 8905SOL    HW127614   2.022   3.154   3.093
 8905SOL    HW227615   2.068   3.037   2.988
 8906SOL     OW27616   0.582   6.303   1.061
 8906SOL    HW127617   0.518   6.226   1.056
 8906SOL    HW227618   0.583   6.351   0.973
 8907SOL     OW27619   3.195   2.878   5.797
 8907SOL    HW127620   3.163   2.859   5.890
 8907SOL    HW227621   3.256   2.957   5.799
 8908SOL     OW27622   1.848   6.101   0.678
 8908SOL    HW127623   1.804   6.015   0.704
 8908SOL    HW227624   1.795   6.145   0.606
 8909SOL     OW27625   2.856   1.504   5.854
 8909SOL    HW127626   2.771   1.467   5.818
 8909SOL    HW227627   2.853   1.604   5.852
 8910SOL     OW27628   1.047   2.991   5.440
 8910SOL    HW127629   1.036   2.900   5.400
 8910SOL    HW227630   1.077   3.055   5.370
 8911SOL     OW27631   5.018   3.372   4.546
 8911SOL    HW127632   5.113   3.343   4.558
 8911SOL    HW227633   4.976   3.386   4.635
 8912SOL     OW27634   2.966   3.448   6.662
 8912SOL    HW127635   2.963   3.536   6.710
 8912SOL    HW227636   2.927   3.377   6.720
 8913SOL     OW27637   4.124   5.517   6.324
 8913SOL    HW127638   4.036   5.560   6.302
 8913SOL    HW227639   4.120   5.420   6.299
 8914SOL     OW27640   4.798   0.428   4.903
 8914SOL    HW127641   4.894   0.433   4.874
 8914SOL    HW227642   4.779   0.335   4.935
 8915SOL     OW27643   1.887   2.260   3.913
 8915SOL    HW127644   1.844   2.351   3.912
 8915SOL    HW227645   1.839   2.199   3.850
 8916SOL     OW27646   6.775   3.286   0.030
 8916SOL    HW127647   6.769   3.341   0.113
 8916SOL    HW227648   6.757   3.190   0.052
 8917SOL     OW27649   5.616   2.671   0.207
 8917SOL    HW127650   5.574   2.594   0.159
 8917SOL    HW227651   5.644   2.643   0.299
 8918SOL     OW27652   0.887   5.013   1.060
 8918SOL    HW127653   0.829   5.095   1.053
 8918SOL    HW227654   0.855   4.956   1.135
 8919SOL     OW27655   5.291   3.980   0.130
 8919SOL    HW127656   5.343   4.062   0.108
 8919SOL    HW227657   5.263   3.983   0.226
 8920SOL     OW27658   6.907   1.623   6.957
 8920SOL    HW127659   6.938   1.700   6.902
 8920SOL    HW227660   6.883   1.655   0.019
 8921SOL     OW27661   1.956   3.166   1.821
 8921SOL    HW127662   2.034   3.118   1.860
 8921SOL    HW227663   1.974   3.265   1.820
 8922SOL     OW27664   4.212   5.135   2.542
 8922SOL    HW127665   4.123   5.152   2.584
 8922SOL    HW227666   4.270   5.086   2.607
 8923SOL     OW27667   1.709   1.344   6.780
 8923SOL    HW127668   1.633   1.404   6.803
 8923SOL    HW227669   1.689   1.251   6.809
 8924SOL     OW27670   4.485   5.480   5.503
 8924SOL    HW127671   4.436   5.416   5.563
 8924SOL    HW227672   4.446   5.477   5.412
 8925SOL     OW27673   0.898   0.999   2.805
 8925SOL    HW127674   0.830   1.032   2.740
 8925SOL    HW227675   0.868   0.912   2.844
 8926SOL     OW27676   6.868   3.279   6.196
 8926SOL    HW127677   6.862   3.210   6.268
 8926SOL    HW227678   6.849   3.369   6.235
 8927SOL     OW27679   6.410   1.265   4.395
 8927SOL    HW127680   6.467   1.332   4.348
 8927SOL    HW227681   6.454   1.237   4.480
 8928SOL     OW27682   1.200   0.212   6.360
 8928SOL    HW127683   1.152   0.180   6.442
 8928SOL    HW227684   1.298   0.197   6.371
 8929SOL     OW27685   5.840   1.850   4.798
 8929SOL    HW127686   5.847   1.897   4.710
 8929SOL    HW227687   5.843   1.917   4.872
 8930SOL     OW27688   0.999   2.707   3.538
 8930SOL    HW127689   1.064   2.679   3.608
 8930SOL    HW227690   0.918   2.650   3.543
 8931SOL     OW27691   2.809   3.661   0.968
 8931SOL    HW127692   2.834   3.572   0.929
 8931SOL    HW227693   2.767   3.718   0.898
 8932SOL     OW27694   5.849   2.217   1.680
 8932SOL    HW127695   5.833   2.153   1.756
 8932SOL    HW227696   5.780   2.289   1.682
 8933SOL     OW27697   2.501   2.292   6.181
 8933SOL    HW127698   2.412   2.337   6.168
 8933SOL    HW227699   2.514   2.226   6.107
 8934SOL     OW27700   2.508   5.228   4.651
 8934SOL    HW127701   2.588   5.262   4.701
 8934SOL    HW227702   2.448   5.178   4.713
 8935SOL     OW27703   0.556   4.603   0.393
 8935SOL    HW127704   0.480   4.549   0.358
 8935SOL    HW227705   0.632   4.600   0.327
 8936SOL     OW27706   0.961   4.349   1.914
 8936SOL    HW127707   0.977   4.337   2.012
 8936SOL    HW227708   0.956   4.447   1.893
 8937SOL     OW27709   0.616   6.867   5.834
 8937SOL    HW127710   0.677   6.917   5.894
 8937SOL    HW227711   0.523   6.867   5.872
 8938SOL     OW27712   0.611   5.988   0.995
 8938SOL    HW127713   0.703   6.026   0.987
 8938SOL    HW227714   0.546   6.061   1.017
 8939SOL     OW27715   5.309   3.090   4.145
 8939SOL    HW127716   5.333   3.074   4.241
 8939SOL    HW227717   5.327   3.185   4.122
 8940SOL     OW27718   0.437   1.442   2.092
 8940SOL    HW127719   0.515   1.483   2.140
 8940SOL    HW227720   0.471   1.387   2.016
 8941SOL     OW27721   6.393   2.614   5.309
 8941SOL    HW127722   6.480   2.664   5.309
 8941SOL    HW227723   6.403   2.530   5.363
 8942SOL     OW27724   6.822   4.843   4.848
 8942SOL    HW127725   6.756   4.789   4.900
 8942SOL    HW227726   6.861   4.787   4.775
 8943SOL     OW27727   3.508   4.904   6.060
 8943SOL    HW127728   3.468   4.992   6.086
 8943SOL    HW227729   3.507   4.894   5.961
 8944SOL     OW27730   5.300   4.570   5.152
 8944SOL    HW127731   5.381   4.605   5.197
 8944SOL    HW227732   5.326   4.520   5.069
 8945SOL     OW27733   0.759   0.784   2.938
 8945SOL    HW127734   0.696   0.860   2.952
 8945SOL    HW227735   0.745   0.714   3.008
 8946SOL     OW27736   3.551   1.287   5.183
 8946SOL    HW127737   3.613   1.288   5.105
 8946SOL    HW227738   3.592   1.232   5.257
 8947SOL     OW27739   2.051   3.511   5.393
 8947SOL    HW127740   2.024   3.432   5.339
 8947SOL    HW227741   2.035   3.595   5.340
 8948SOL     OW27742   6.774   6.716   4.244
 8948SOL    HW127743   6.754   6.659   4.165
 8948SOL    HW227744   6.751   6.667   4.328
 8949SOL     OW27745   2.509   6.840   1.246
 8949SOL    HW127746   2.587   6.831   1.185
 8949SOL    HW227747   2.438   6.775   1.219
 8950SOL     OW27748   4.440   4.237   6.424
 8950SOL    HW127749   4.501   4.242   6.344
 8950SOL    HW227750   4.363   4.300   6.412
 8951SOL     OW27751   1.380   2.120   5.451
 8951SOL    HW127752   1.464   2.141   5.401
 8951SOL    HW227753   1.319   2.199   5.448
 8952SOL     OW27754   1.462   6.865   2.429
 8952SOL    HW127755   1.532   6.852   2.499
 8952SOL    HW227756   1.497   6.834   2.341
 8953SOL     OW27757   1.473   4.237   0.289
 8953SOL    HW127758   1.563   4.282   0.292
 8953SOL    HW227759   1.478   4.151   0.340
 8954SOL     OW27760   0.839   0.312   5.833
 8954SOL    HW127761   0.833   0.300   5.734
 8954SOL    HW227762   0.899   0.242   5.872
 8955SOL     OW27763   0.145   5.252   2.545
 8955SOL    HW127764   0.132   5.199   2.462
 8955SOL    HW227765   0.160   5.190   2.622
 8956SOL     OW27766   0.972   1.730   6.742
 8956SOL    HW127767   1.065   1.767   6.744
 8956SOL    HW227768   0.921   1.764   6.821
 8957SOL     OW27769   2.672   4.461   1.637
 8957SOL    HW127770   2.633   4.370   1.652
 8957SOL    HW227771   2.744   4.478   1.704
 8958SOL     OW27772   6.949   0.991   4.617
 8958SOL    HW127773   6.937   0.901   4.658
 8958SOL    HW227774   7.002   0.982   4.532
 8959SOL     OW27775   1.398   4.647   1.755
 8959SOL    HW127776   1.458   4.576   1.792
 8959SOL    HW227777   1.448   4.701   1.688
 8960SOL     OW27778   4.570   4.771   2.934
 8960SOL    HW127779   4.579   4.839   2.861
 8960SOL    HW227780   4.603   4.810   3.020
 8961SOL     OW27781   2.584   1.437   4.725
 8961SOL    HW127782   2.545   1.526   4.746
 8961SOL    HW227783   2.611   1.433   4.629
 8962SOL     OW27784   6.388   6.168   2.117
 8962SOL    HW127785   6.445   6.228   2.061
 8962SOL    HW227786   6.416   6.073   2.104
 8963SOL     OW27787   4.760   6.468   4.060
 8963SOL    HW127788   4.752   6.519   4.146
 8963SOL    HW227789   4.674   6.421   4.042
 8964SOL     OW27790   4.946   3.205   3.085
 8964SOL    HW127791   4.879   3.136   3.111
 8964SOL    HW227792   5.030   3.160   3.054
 8965SOL     OW27793   2.157   4.749   0.759
 8965SOL    HW127794   2.236   4.688   0.771
 8965SOL    HW227795   2.178   4.818   0.689
 8966SOL     OW27796   6.760   4.100   6.448
 8966SOL    HW127797   6.831   4.030   6.441
 8966SOL    HW227798   6.736   4.133   6.357
 8967SOL     OW27799   3.905   0.087   1.979
 8967SOL    HW127800   3.999   0.080   1.945
 8967SOL    HW227801   3.904   0.141   2.063
 8968SOL     OW27802   5.075   4.912   3.331
 8968SOL    HW127803   5.171   4.898   3.357
 8968SOL    HW227804   5.040   4.994   3.376
 8969SOL     OW27805   0.001   1.541   4.815
 8969SOL    HW127806   0.043   1.451   4.800
 8969SOL    HW227807   0.072   1.607   4.838
 8970SOL     OW27808   2.847   3.467   0.469
 8970SOL    HW127809   2.830   3.554   0.514
 8970SOL    HW227810   2.761   3.428   0.438
 8971SOL     OW27811   4.983   5.657   1.990
 8971SOL    HW127812   5.083   5.657   1.989
 8971SOL    HW227813   4.950   5.631   2.081
 8972SOL     OW27814   5.133   4.570   6.615
 8972SOL    HW127815   5.124   4.575   6.515
 8972SOL    HW227816   5.106   4.657   6.655
 8973SOL     OW27817   1.029   3.471   2.446
 8973SOL    HW127818   0.979   3.498   2.528
 8973SOL    HW227819   1.045   3.372   2.448
 8974SOL     OW27820   1.648   4.563   5.718
 8974SOL    HW127821   1.676   4.627   5.647
 8974SOL    HW227822   1.659   4.469   5.685
 8975SOL     OW27823   2.182   6.924   6.342
 8975SOL    HW127824   2.205   6.839   6.391
 8975SOL    HW227825   2.265   6.980   6.333
 8976SOL     OW27826   0.487   4.822   5.011
 8976SOL    HW127827   0.416   4.859   4.951
 8976SOL    HW227828   0.444   4.775   5.088
 8977SOL     OW27829   6.113   2.669   0.177
 8977SOL    HW127830   6.038   2.608   0.202
 8977SOL    HW227831   6.106   2.755   0.227
 8978SOL     OW27832   5.601   0.460   5.490
 8978SOL    HW127833   5.524   0.492   5.433
 8978SOL    HW227834   5.596   0.361   5.499
 8979SOL     OW27835   1.237   3.309   4.735
 8979SOL    HW127836   1.210   3.388   4.790
 8979SOL    HW227837   1.328   3.324   4.697
 8980SOL     OW27838   2.541   2.994   5.893
 8980SOL    HW127839   2.446   2.970   5.873
 8980SOL    HW227840   2.589   2.913   5.928
 8981SOL     OW27841   4.385   1.950   5.368
 8981SOL    HW127842   4.365   1.904   5.455
 8981SOL    HW227843   4.307   1.939   5.306
 8982SOL     OW27844   1.048   2.602   1.080
 8982SOL    HW127845   1.027   2.658   1.160
 8982SOL    HW227846   1.121   2.645   1.027
 8983SOL     OW27847   1.984   6.459   7.014
 8983SOL    HW127848   2.040   6.404   6.952
 8983SOL    HW227849   1.888   6.431   7.005
 8984SOL     OW27850   0.030   0.322   4.488
 8984SOL    HW127851   0.124   0.325   4.454
 8984SOL    HW227852   0.027   0.266   4.571
 8985SOL     OW27853   2.414   3.193   0.713
 8985SOL    HW127854   2.479   3.231   0.780
 8985SOL    HW227855   2.398   3.096   0.733
 8986SOL     OW27856   5.122   5.273   2.435
 8986SOL    HW127857   5.072   5.195   2.472
 8986SOL    HW227858   5.075   5.306   2.352
 8987SOL     OW27859   4.144   6.704   1.546
 8987SOL    HW127860   4.242   6.719   1.532
 8987SOL    HW227861   4.111   6.765   1.619
 8988SOL     OW27862   1.718   3.602   5.616
 8988SOL    HW127863   1.795   3.628   5.558
 8988SOL    HW227864   1.633   3.602   5.562
 8989SOL     OW27865   5.109   3.871   1.254
 8989SOL    HW127866   5.182   3.934   1.281
 8989SOL    HW227867   5.021   3.914   1.271
 8990SOL     OW27868   1.906   6.249   3.706
 8990SOL    HW127869   1.806   6.248   3.711
 8990SOL    HW227870   1.944   6.278   3.794
 8991SOL     OW27871   1.791   2.400   6.716
 8991SOL    HW127872   1.764   2.331   6.650
 8991SOL    HW227873   1.838   2.357   6.793
 8992SOL     OW27874   5.361   1.604   0.156
 8992SOL    HW127875   5.442   1.609   0.097
 8992SOL    HW227876   5.281   1.578   0.101
 8993SOL     OW27877   5.263   2.463   2.101
 8993SOL    HW127878   5.243   2.533   2.170
 8993SOL    HW227879   5.249   2.372   2.141
 8994SOL     OW27880   1.397   4.338   4.467
 8994SOL    HW127881   1.304   4.304   4.463
 8994SOL    HW227882   1.436   4.321   4.557
 8995SOL     OW27883   1.325   3.127   0.082
 8995SOL    HW127884   1.346   3.070   0.162
 8995SOL    HW227885   1.347   3.076   7.029
 8996SOL     OW27886   5.890   5.443   0.604
 8996SOL    HW127887   5.828   5.369   0.578
 8996SOL    HW227888   5.837   5.523   0.633
 8997SOL     OW27889   4.778   1.409   6.007
 8997SOL    HW127890   4.792   1.503   6.038
 8997SOL    HW227891   4.692   1.404   5.955
 8998SOL     OW27892   6.451   4.178   4.094
 8998SOL    HW127893   6.490   4.270   4.105
 8998SOL    HW227894   6.492   4.133   4.015
 8999SOL     OW27895   4.879   6.601   6.637
 8999SOL    HW127896   4.946   6.637   6.702
 8999SOL    HW227897   4.845   6.513   6.669
 9000SOL     OW27898   1.602   4.054   1.156
 9000SOL    HW127899   1.638   3.962   1.143
 9000SOL    HW227900   1.502   4.051   1.150
 9001SOL     OW27901   1.394   5.681   2.485
 9001SOL    HW127902   1.449   5.735   2.549
 9001SOL    HW227903   1.437   5.592   2.470
 9002SOL     OW27904   0.562   5.105   5.012
 9002SOL    HW127905   0.511   5.190   5.028
 9002SOL    HW227906   0.511   5.028   5.051
 9003SOL     OW27907   5.586   2.911   1.726
 9003SOL    HW127908   5.597   2.908   1.627
 9003SOL    HW227909   5.505   2.965   1.748
 9004SOL     OW27910   3.762   6.577   1.395
 9004SOL    HW127911   3.740   6.610   1.487
 9004SOL    HW227912   3.853   6.536   1.395
 9005SOL     OW27913   5.535   2.919   4.242
 9005SOL    HW127914   5.480   2.848   4.286
 9005SOL    HW227915   5.536   2.904   4.143
 9006SOL     OW27916   2.535   5.623   1.301
 9006SOL    HW127917   2.618   5.635   1.355
 9006SOL    HW227918   2.533   5.530   1.264
 9007SOL     OW27919   3.325   1.149   3.802
 9007SOL    HW127920   3.258   1.111   3.738
 9007SOL    HW227921   3.410   1.170   3.753
 9008SOL     OW27922   1.228   5.826   3.699
 9008SOL    HW127923   1.292   5.899   3.721
 9008SOL    HW227924   1.275   5.755   3.647
 9009SOL     OW27925   2.854   6.984   0.926
 9009SOL    HW127926   2.918   6.910   0.908
 9009SOL    HW227927   2.905   0.037   0.952
 9010SOL     OW27928   1.752   6.923   3.885
 9010SOL    HW127929   1.682   6.994   3.887
 9010SOL    HW227930   1.842   6.965   3.897
 9011SOL     OW27931   5.373   1.992   2.367
 9011SOL    HW127932   5.378   1.903   2.321
 9011SOL    HW227933   5.288   1.998   2.419
 9012SOL     OW27934   2.463   3.533   0.301
 9012SOL    HW127935   2.399   3.574   0.366
 9012SOL    HW227936   2.504   3.451   0.342
 9013SOL     OW27937   0.285   6.738   5.378
 9013SOL    HW127938   0.295   6.793   5.295
 9013SOL    HW227939   0.305   6.795   5.458
 9014SOL     OW27940   6.160   2.213   0.140
 9014SOL    HW127941   6.230   2.255   0.197
 9014SOL    HW227942   6.173   2.240   0.045
 9015SOL     OW27943   4.470   1.277   1.974
 9015SOL    HW127944   4.412   1.357   1.985
 9015SOL    HW227945   4.566   1.305   1.971
 9016SOL     OW27946   0.330   6.504   6.671
 9016SOL    HW127947   0.357   6.564   6.597
 9016SOL    HW227948   0.238   6.529   6.703
 9017SOL     OW27949   4.672   2.288   3.531
 9017SOL    HW127950   4.611   2.226   3.482
 9017SOL    HW227951   4.639   2.382   3.521
 9018SOL     OW27952   3.939   2.399   6.902
 9018SOL    HW127953   3.914   2.376   6.808
 9018SOL    HW227954   4.010   2.469   6.902
 9019SOL     OW27955   1.415   5.738   1.510
 9019SOL    HW127956   1.318   5.729   1.488
 9019SOL    HW227957   1.451   5.822   1.468
 9020SOL     OW27958   0.259   3.728   0.606
 9020SOL    HW127959   0.165   3.739   0.638
 9020SOL    HW227960   0.321   3.720   0.685
 9021SOL     OW27961   6.573   6.701   3.216
 9021SOL    HW127962   6.600   6.740   3.304
 9021SOL    HW227963   6.493   6.643   3.229
 9022SOL     OW27964   3.401   1.795   6.904
 9022SOL    HW127965   3.467   1.786   6.978
 9022SOL    HW227966   3.431   1.741   6.825
 9023SOL     OW27967   3.464   3.155   2.208
 9023SOL    HW127968   3.444   3.062   2.177
 9023SOL    HW227969   3.559   3.179   2.185
 9024SOL     OW27970   0.733   4.342   5.012
 9024SOL    HW127971   0.787   4.407   5.065
 9024SOL    HW227972   0.753   4.354   4.915
 9025SOL     OW27973   0.745   5.184   0.495
 9025SOL    HW127974   0.735   5.155   0.591
 9025SOL    HW227975   0.780   5.277   0.492
 9026SOL     OW27976   4.178   3.397   0.632
 9026SOL    HW127977   4.161   3.343   0.549
 9026SOL    HW227978   4.118   3.365   0.706
 9027SOL     OW27979   1.853   2.364   3.009
 9027SOL    HW127980   1.890   2.305   2.937
 9027SOL    HW227981   1.923   2.378   3.079
 9028SOL     OW27982   2.704   3.793   5.564
 9028SOL    HW127983   2.669   3.768   5.474
 9028SOL    HW227984   2.729   3.890   5.564
 9029SOL     OW27985   4.023   6.446   5.217
 9029SOL    HW127986   3.986   6.504   5.145
 9029SOL    HW227987   4.118   6.472   5.235
 9030SOL     OW27988   2.833   1.791   3.642
 9030SOL    HW127989   2.845   1.858   3.569
 9030SOL    HW227990   2.749   1.812   3.693
 9031SOL     OW27991   3.950   5.918   4.441
 9031SOL    HW127992   3.856   5.950   4.437
 9031SOL    HW227993   3.953   5.820   4.422
 9032SOL     OW27994   3.773   3.856   0.732
 9032SOL    HW127995   3.792   3.800   0.813
 9032SOL    HW227996   3.810   3.811   0.651
 9033SOL     OW27997   0.367   4.027   2.925
 9033SOL    HW127998   0.403   4.068   3.009
 9033SOL    HW227999   0.267   4.028   2.927
 9034SOL     OW28000   3.374   0.023   5.512
 9034SOL    HW128001   3.336   0.045   5.603
 9034SOL    HW228002   3.397   6.956   5.508
 9035SOL     OW28003   1.909   5.371   6.700
 9035SOL    HW128004   1.925   5.276   6.724
 9035SOL    HW228005   1.954   5.392   6.613
 9036SOL     OW28006   1.882   1.532   5.199
 9036SOL    HW128007   1.851   1.571   5.286
 9036SOL    HW228008   1.966   1.577   5.170
 9037SOL     OW28009   1.298   4.142   5.066
 9037SOL    HW128010   1.204   4.127   5.094
 9037SOL    HW228011   1.356   4.068   5.101
 9038SOL     OW28012   4.163   1.034   5.944
 9038SOL    HW128013   4.226   0.958   5.961
 9038SOL    HW228014   4.069   1.002   5.952
 9039SOL     OW28015   2.411   5.615   5.401
 9039SOL    HW128016   2.397   5.679   5.326
 9039SOL    HW228017   2.407   5.521   5.367
 9040SOL     OW28018   3.366   2.122   2.473
 9040SOL    HW128019   3.463   2.099   2.468
 9040SOL    HW228020   3.348   2.172   2.558
 9041SOL     OW28021   1.138   2.390   1.231
 9041SOL    HW128022   1.088   2.453   1.172
 9041SOL    HW228023   1.085   2.306   1.243
 9042SOL     OW28024   3.366   0.042   4.900
 9042SOL    HW128025   3.428   7.000   4.868
 9042SOL    HW228026   3.311   0.006   4.976
 9043SOL     OW28027   1.078   0.999   7.011
 9043SOL    HW128028   1.063   0.924   6.946
 9043SOL    HW228029   1.000   1.061   7.008
 9044SOL     OW28030   6.263   0.700   0.494
 9044SOL    HW128031   6.204   0.637   0.444
 9044SOL    HW228032   6.280   0.781   0.437
 9045SOL     OW28033   2.586   1.681   2.752
 9045SOL    HW128034   2.625   1.596   2.717
 9045SOL    HW228035   2.605   1.689   2.849
 9046SOL     OW28036   3.386   3.594   2.968
 9046SOL    HW128037   3.319   3.521   2.957
 9046SOL    HW228038   3.478   3.558   2.953
 9047SOL     OW28039   1.714   4.208   5.692
 9047SOL    HW128040   1.764   4.203   5.606
 9047SOL    HW228041   1.654   4.128   5.702
 9048SOL     OW28042   5.154   3.375   6.333
 9048SOL    HW128043   5.239   3.327   6.354
 9048SOL    HW228044   5.078   3.329   6.378
 9049SOL     OW28045   3.620   0.150   5.609
 9049SOL    HW128046   3.540   0.093   5.622
 9049SOL    HW228047   3.686   0.102   5.551
 9050SOL     OW28048   0.141   3.048   0.763
 9050SOL    HW128049   0.189   3.124   0.806
 9050SOL    HW228050   0.091   3.082   0.683
 9051SOL     OW28051   3.951   0.180   1.275
 9051SOL    HW128052   3.967   0.253   1.208
 9051SOL    HW228053   4.036   0.132   1.294
 9052SOL     OW28054   2.622   2.392   4.197
 9052SOL    HW128055   2.547   2.348   4.246
 9052SOL    HW228056   2.585   2.467   4.142
 9053SOL     OW28057   2.051   0.614   2.769
 9053SOL    HW128058   2.137   0.567   2.786
 9053SOL    HW228059   1.980   0.548   2.745
 9054SOL     OW28060   2.982   5.890   3.747
 9054SOL    HW128061   2.992   5.837   3.831
 9054SOL    HW228062   2.914   5.847   3.688
 9055SOL     OW28063   6.299   2.904   4.551
 9055SOL    HW128064   6.254   2.981   4.597
 9055SOL    HW228065   6.398   2.921   4.549
 9056SOL     OW28066   0.334   1.866   1.898
 9056SOL    HW128067   0.294   1.857   1.807
 9056SOL    HW228068   0.433   1.855   1.892
 9057SOL     OW28069   4.721   3.729   6.322
 9057SOL    HW128070   4.762   3.795   6.385
 9057SOL    HW228071   4.793   3.672   6.282
 9058SOL     OW28072   2.092   1.494   1.581
 9058SOL    HW128073   2.126   1.585   1.604
 9058SOL    HW228074   2.057   1.493   1.488
 9059SOL     OW28075   1.475   2.052   3.844
 9059SOL    HW128076   1.450   2.052   3.941
 9059SOL    HW228077   1.424   2.123   3.796
 9060SOL     OW28078   6.346   2.651   3.723
 9060SOL    HW128079   6.329   2.568   3.671
 9060SOL    HW228080   6.259   2.697   3.742
 9061SOL     OW28081   1.925   5.003   1.785
 9061SOL    HW128082   1.895   4.982   1.878
 9061SOL    HW228083   1.968   4.923   1.744
 9062SOL     OW28084   1.822   6.278   2.098
 9062SOL    HW128085   1.881   6.282   2.018
 9062SOL    HW228086   1.804   6.182   2.121
 9063SOL     OW28087   3.491   0.030   3.438
 9063SOL    HW128088   3.509   0.012   3.535
 9063SOL    HW228089   3.436   6.986   3.400
 9064SOL     OW28090   6.242   2.304   5.126
 9064SOL    HW128091   6.177   2.300   5.202
 9064SOL    HW228092   6.203   2.355   5.050
 9065SOL     OW28093   3.423   0.500   5.458
 9065SOL    HW128094   3.411   0.402   5.469
 9065SOL    HW228095   3.503   0.531   5.509
 9066SOL     OW28096   4.528   6.292   0.834
 9066SOL    HW128097   4.582   6.222   0.881
 9066SOL    HW228098   4.556   6.383   0.867
 9067SOL     OW28099   0.690   0.452   4.844
 9067SOL    HW128100   0.687   0.367   4.897
 9067SOL    HW228101   0.597   0.478   4.818
 9068SOL     OW28102   2.796   6.899   4.445
 9068SOL    HW128103   2.723   6.968   4.438
 9068SOL    HW228104   2.851   6.900   4.361
 9069SOL     OW28105   1.411   3.461   1.398
 9069SOL    HW128106   1.339   3.503   1.342
 9069SOL    HW228107   1.474   3.532   1.429
 9070SOL     OW28108   1.359   3.158   4.943
 9070SOL    HW128109   1.415   3.085   4.903
 9070SOL    HW228110   1.302   3.199   4.872
 9071SOL     OW28111   5.960   6.431   1.879
 9071SOL    HW128112   5.862   6.445   1.861
 9071SOL    HW228113   6.004   6.520   1.893
 9072SOL     OW28114   0.085   1.725   1.324
 9072SOL    HW128115   0.121   1.632   1.319
 9072SOL    HW228116   0.050   1.742   1.417
 9073SOL     OW28117   2.972   0.070   2.940
 9073SOL    HW128118   3.011   0.139   2.879
 9073SOL    HW228119   2.995   0.093   3.035
 9074SOL     OW28120   1.348   1.742   1.812
 9074SOL    HW128121   1.270   1.795   1.845
 9074SOL    HW228122   1.337   1.646   1.837
 9075SOL     OW28123   0.195   1.254   1.883
 9075SOL    HW128124   0.177   1.158   1.904
 9075SOL    HW228125   0.260   1.291   1.949
 9076SOL     OW28126   0.338   2.767   5.742
 9076SOL    HW128127   0.401   2.747   5.818
 9076SOL    HW228128   0.307   2.862   5.748
 9077SOL     OW28129   4.644   0.443   0.264
 9077SOL    HW128130   4.592   0.514   0.310
 9077SOL    HW228131   4.594   0.412   0.183
 9078SOL     OW28132   3.967   3.421   5.868
 9078SOL    HW128133   4.024   3.467   5.935
 9078SOL    HW228134   3.969   3.322   5.884
 9079SOL     OW28135   3.370   6.860   3.952
 9079SOL    HW128136   3.390   6.775   4.002
 9079SOL    HW228137   3.368   6.936   4.017
 9080SOL     OW28138   4.538   2.403   6.285
 9080SOL    HW128139   4.446   2.444   6.285
 9080SOL    HW228140   4.565   2.383   6.380
 9081SOL     OW28141   4.221   0.137   2.344
 9081SOL    HW128142   4.222   0.181   2.255
 9081SOL    HW228143   4.158   0.187   2.405
 9082SOL     OW28144   2.270   0.462   5.079
 9082SOL    HW128145   2.177   0.426   5.079
 9082SOL    HW228146   2.280   0.531   5.150
 9083SOL     OW28147   3.360   5.180   6.049
 9083SOL    HW128148   3.421   5.188   6.128
 9083SOL    HW228149   3.286   5.247   6.057
 9084SOL     OW28150   3.708   4.090   3.452
 9084SOL    HW128151   3.756   4.059   3.534
 9084SOL    HW228152   3.670   4.011   3.404
 9085SOL     OW28153   2.141   0.821   1.743
 9085SOL    HW128154   2.210   0.762   1.702
 9085SOL    HW228155   2.051   0.779   1.733
 9086SOL     OW28156   0.723   4.568   0.124
 9086SOL    HW128157   0.765   4.497   0.066
 9086SOL    HW228158   0.788   4.596   0.194
 9087SOL     OW28159   4.491   2.159   1.661
 9087SOL    HW128160   4.536   2.080   1.619
 9087SOL    HW228161   4.515   2.242   1.611
 9088SOL     OW28162   6.967   6.694   1.467
 9088SOL    HW128163   6.993   6.667   1.375
 9088SOL    HW228164   0.004   6.758   1.504
 9089SOL     OW28165   5.652   5.488   5.301
 9089SOL    HW128166   5.713   5.440   5.364
 9089SOL    HW228167   5.558   5.462   5.320
 9090SOL     OW28168   6.696   1.479   5.056
 9090SOL    HW128169   6.617   1.520   5.101
 9090SOL    HW228170   6.754   1.435   5.125
 9091SOL     OW28171   2.579   4.381   0.297
 9091SOL    HW128172   2.490   4.390   0.341
 9091SOL    HW228173   2.581   4.297   0.243
 9092SOL     OW28174   6.479   0.866   6.696
 9092SOL    HW128175   6.544   0.802   6.655
 9092SOL    HW228176   6.407   0.888   6.630
 9093SOL     OW28177   1.033   5.632   5.520
 9093SOL    HW128178   1.015   5.534   5.533
 9093SOL    HW228179   1.081   5.645   5.433
 9094SOL     OW28180   6.517   5.053   2.941
 9094SOL    HW128181   6.567   5.025   2.859
 9094SOL    HW228182   6.495   5.151   2.935
 9095SOL     OW28183   5.038   4.921   6.052
 9095SOL    HW128184   5.034   4.901   6.150
 9095SOL    HW228185   4.996   4.846   6.001
 9096SOL     OW28186   6.697   4.785   2.516
 9096SOL    HW128187   6.696   4.698   2.467
 9096SOL    HW228188   6.783   4.833   2.498
 9097SOL     OW28189   2.078   1.881   0.396
 9097SOL    HW128190   2.102   1.789   0.363
 9097SOL    HW228191   1.990   1.908   0.358
 9098SOL     OW28192   2.926   1.943   4.645
 9098SOL    HW128193   2.927   2.039   4.674
 9098SOL    HW228194   3.015   1.902   4.662
 9099SOL     OW28195   3.010   3.177   5.751
 9099SOL    HW128196   2.926   3.163   5.699
 9099SOL    HW228197   3.089   3.167   5.691
 9100SOL     OW28198   0.381   3.504   3.518
 9100SOL    HW128199   0.424   3.580   3.567
 9100SOL    HW228200   0.450   3.454   3.466
 9101SOL     OW28201   2.642   2.387   1.939
 9101SOL    HW128202   2.621   2.331   1.858
 9101SOL    HW228203   2.735   2.366   1.970
 9102SOL     OW28204   3.124   7.008   2.336
 9102SOL    HW128205   3.126   7.000   2.236
 9102SOL    HW228206   3.161   0.067   2.363
 9103SOL     OW28207   5.651   1.622   6.809
 9103SOL    HW128208   5.743   1.637   6.772
 9103SOL    HW228209   5.646   1.660   6.901
 9104SOL     OW28210   6.799   6.323   1.353
 9104SOL    HW128211   6.819   6.297   1.447
 9104SOL    HW228212   6.875   6.294   1.294
 9105SOL     OW28213   0.586   0.337   5.889
 9105SOL    HW128214   0.552   0.381   5.972
 9105SOL    HW228215   0.685   0.349   5.883
 9106SOL     OW28216   5.933   2.859   1.020
 9106SOL    HW128217   5.999   2.842   0.946
 9106SOL    HW228218   5.981   2.897   1.099
 9107SOL     OW28219   1.896   0.714   6.474
 9107SOL    HW128220   1.961   0.762   6.416
 9107SOL    HW228221   1.805   0.755   6.464
 9108SOL     OW28222   4.900   4.650   5.300
 9108SOL    HW128223   4.929   4.723   5.238
 9108SOL    HW228224   4.970   4.578   5.302
 9109SOL     OW28225   5.428   3.416   2.688
 9109SOL    HW128226   5.374   3.457   2.614
 9109SOL    HW228227   5.380   3.335   2.723
 9110SOL     OW28228   1.747   5.363   4.375
 9110SOL    HW128229   1.754   5.264   4.364
 9110SOL    HW228230   1.652   5.391   4.362
 9111SOL     OW28231   4.604   2.687   6.787
 9111SOL    HW128232   4.645   2.741   6.860
 9111SOL    HW228233   4.676   2.641   6.735
 9112SOL     OW28234   1.569   5.190   2.733
 9112SOL    HW128235   1.499   5.221   2.798
 9112SOL    HW228236   1.525   5.165   2.646
 9113SOL     OW28237   5.590   2.372   2.705
 9113SOL    HW128238   5.650   2.449   2.726
 9113SOL    HW228239   5.595   2.350   2.608
 9114SOL     OW28240   0.333   5.294   3.489
 9114SOL    HW128241   0.267   5.245   3.546
 9114SOL    HW228242   0.294   5.382   3.462
 9115SOL     OW28243   6.046   5.382   5.323
 9115SOL    HW128244   5.992   5.423   5.249
 9115SOL    HW228245   5.990   5.376   5.406
 9116SOL     OW28246   0.296   0.166   2.976
 9116SOL    HW128247   0.310   0.137   2.881
 9116SOL    HW228248   0.221   0.114   3.017
 9117SOL     OW28249   3.749   2.382   6.406
 9117SOL    HW128250   3.681   2.335   6.350
 9117SOL    HW228251   3.787   2.459   6.354
 9118SOL     OW28252   6.650   3.519   0.224
 9118SOL    HW128253   6.621   3.595   0.166
 9118SOL    HW228254   6.578   3.450   0.226
 9119SOL     OW28255   3.883   1.405   1.629
 9119SOL    HW128256   3.892   1.430   1.726
 9119SOL    HW228257   3.803   1.346   1.618
 9120SOL     OW28258   6.647   2.690   5.391
 9120SOL    HW128259   6.746   2.709   5.393
 9120SOL    HW228260   6.613   2.679   5.484
 9121SOL     OW28261   3.414   6.270   5.318
 9121SOL    HW128262   3.439   6.254   5.222
 9121SOL    HW228263   3.489   6.318   5.364
 9122SOL     OW28264   2.337   4.727   2.166
 9122SOL    HW128265   2.415   4.679   2.125
 9122SOL    HW228266   2.280   4.661   2.216
 9123SOL     OW28267   1.713   0.394   4.198
 9123SOL    HW128268   1.657   0.469   4.235
 9123SOL    HW228269   1.689   0.309   4.246
 9124SOL     OW28270   3.638   5.288   2.040
 9124SOL    HW128271   3.696   5.283   1.959
 9124SOL    HW228272   3.627   5.384   2.067
 9125SOL     OW28273   4.278   4.584   0.919
 9125SOL    HW128274   4.335   4.537   0.986
 9125SOL    HW228275   4.330   4.599   0.835
 9126SOL     OW28276   4.479   4.058   1.298
 9126SOL    HW128277   4.393   4.067   1.348
 9126SOL    HW228278   4.554   4.091   1.354
 9127SOL     OW28279   0.008   2.548   5.437
 9127SOL    HW128280   0.035   2.490   5.360
 9127SOL    HW228281   7.006   2.492   5.513
 9128SOL     OW28282   5.794   2.380   4.907
 9128SOL    HW128283   5.738   2.352   4.828
 9128SOL    HW228284   5.885   2.341   4.898
 9129SOL     OW28285   6.777   1.762   0.275
 9129SOL    HW128286   6.692   1.791   0.319
 9129SOL    HW228287   6.764   1.672   0.233
 9130SOL     OW28288   1.013   4.378   6.189
 9130SOL    HW128289   1.068   4.461   6.195
 9130SOL    HW228290   0.938   4.383   6.255
 9131SOL     OW28291   5.357   3.145   6.810
 9131SOL    HW128292   5.289   3.213   6.784
 9131SOL    HW228293   5.321   3.089   6.885
 9132SOL     OW28294   0.954   4.206   4.385
 9132SOL    HW128295   1.041   4.196   4.432
 9132SOL    HW228296   0.947   4.299   4.349
 9133SOL     OW28297   3.321   0.746   0.967
 9133SOL    HW128298   3.314   0.740   1.066
 9133SOL    HW228299   3.352   0.837   0.941
 9134SOL     OW28300   4.670   5.737   1.552
 9134SOL    HW128301   4.604   5.808   1.575
 9134SOL    HW228302   4.625   5.664   1.501
 9135SOL     OW28303   1.308   6.141   1.505
 9135SOL    HW128304   1.299   6.228   1.554
 9135SOL    HW228305   1.262   6.070   1.558
 9136SOL     OW28306   4.314   5.889   5.463
 9136SOL    HW128307   4.368   5.836   5.398
 9136SOL    HW228308   4.260   5.827   5.519
 9137SOL     OW28309   4.149   0.154   6.244
 9137SOL    HW128310   4.090   0.158   6.163
 9137SOL    HW228311   4.215   0.229   6.241
 9138SOL     OW28312   1.698   3.428   0.189
 9138SOL    HW128313   1.755   3.503   0.155
 9138SOL    HW228314   1.751   3.369   0.248
 9139SOL     OW28315   0.711   1.320   1.627
 9139SOL    HW128316   0.749   1.336   1.535
 9139SOL    HW228317   0.676   1.407   1.663
 9140SOL     OW28318   0.486   5.019   2.392
 9140SOL    HW128319   0.463   5.087   2.462
 9140SOL    HW228320   0.568   4.969   2.419
 9141SOL     OW28321   6.894   5.998   6.510
 9141SOL    HW128322   6.802   6.022   6.478
 9141SOL    HW228323   6.942   5.947   6.438
 9142SOL     OW28324   0.374   3.110   2.489
 9142SOL    HW128325   0.310   3.137   2.417
 9142SOL    HW228326   0.433   3.037   2.455
 9143SOL     OW28327   0.260   4.122   1.319
 9143SOL    HW128328   0.206   4.204   1.301
 9143SOL    HW228329   0.223   4.074   1.399
 9144SOL     OW28330   2.997   4.855   4.998
 9144SOL    HW128331   2.926   4.785   4.994
 9144SOL    HW228332   3.058   4.845   4.919
 9145SOL     OW28333   1.680   6.454   6.922
 9145SOL    HW128334   1.589   6.468   6.882
 9145SOL    HW228335   1.749   6.486   6.858
 9146SOL     OW28336   5.092   2.899   2.909
 9146SOL    HW128337   5.050   2.958   2.840
 9146SOL    HW228338   5.130   2.956   2.982
 9147SOL     OW28339   6.719   1.279   4.845
 9147SOL    HW128340   6.740   1.369   4.809
 9147SOL    HW228341   6.675   1.288   4.935
 9148SOL     OW28342   6.070   0.350   2.083
 9148SOL    HW128343   6.169   0.342   2.092
 9148SOL    HW228344   6.029   0.258   2.086
 9149SOL     OW28345   5.560   3.228   1.962
 9149SOL    HW128346   5.548   3.262   2.055
 9149SOL    HW228347   5.657   3.210   1.945
 9150SOL     OW28348   3.318   4.367   0.492
 9150SOL    HW128349   3.382   4.290   0.484
 9150SOL    HW228350   3.282   4.389   0.402
 9151SOL     OW28351   2.216   3.998   3.958
 9151SOL    HW128352   2.294   3.985   4.019
 9151SOL    HW228353   2.132   3.971   4.005
 9152SOL     OW28354   1.911   4.377   4.447
 9152SOL    HW128355   1.975   4.303   4.429
 9152SOL    HW228356   1.888   4.424   4.361
 9153SOL     OW28357   0.676   3.442   6.617
 9153SOL    HW128358   0.624   3.438   6.531
 9153SOL    HW228359   0.613   3.463   6.692
 9154SOL     OW28360   4.822   4.723   3.556
 9154SOL    HW128361   4.763   4.697   3.480
 9154SOL    HW228362   4.917   4.719   3.527
 9155SOL     OW28363   1.902   4.441   3.018
 9155SOL    HW128364   1.936   4.531   3.044
 9155SOL    HW228365   1.972   4.372   3.034
 9156SOL     OW28366   6.504   2.661   1.064
 9156SOL    HW128367   6.436   2.689   0.997
 9156SOL    HW228368   6.544   2.742   1.108
 9157SOL     OW28369   3.137   4.314   6.443
 9157SOL    HW128370   3.139   4.412   6.423
 9157SOL    HW228371   3.205   4.293   6.513
 9158SOL     OW28372   6.640   4.651   4.342
 9158SOL    HW128373   6.555   4.601   4.353
 9158SOL    HW228374   6.648   4.720   4.414
 9159SOL     OW28375   2.136   0.010   3.322
 9159SOL    HW128376   2.069   0.056   3.379
 9159SOL    HW228377   2.163   6.953   3.365
 9160SOL     OW28378   0.643   4.932   5.858
 9160SOL    HW128379   0.733   4.918   5.816
 9160SOL    HW228380   0.636   4.878   5.942
 9161SOL     OW28381   6.041   5.110   3.120
 9161SOL    HW128382   5.995   5.182   3.172
 9161SOL    HW228383   5.974   5.044   3.088
 9162SOL     OW28384   3.619   0.687   3.103
 9162SOL    HW128385   3.650   0.766   3.050
 9162SOL    HW228386   3.602   0.714   3.198
 9163SOL     OW28387   7.013   3.220   1.932
 9163SOL    HW128388   0.008   3.283   2.005
 9163SOL    HW228389   6.935   3.164   1.962
 9164SOL     OW28390   1.650   0.600   6.779
 9164SOL    HW128391   1.602   0.552   6.852
 9164SOL    HW228392   1.584   0.646   6.720
 9165SOL     OW28393   5.265   1.746   5.546
 9165SOL    HW128394   5.249   1.695   5.631
 9165SOL    HW228395   5.192   1.813   5.533
 9166SOL     OW28396   3.961   5.467   1.125
 9166SOL    HW128397   3.873   5.448   1.167
 9166SOL    HW228398   4.018   5.384   1.128
 9167SOL     OW28399   0.972   2.323   6.385
 9167SOL    HW128400   0.980   2.322   6.285
 9167SOL    HW228401   0.880   2.296   6.411
 9168SOL     OW28402   6.359   5.467   6.295
 9168SOL    HW128403   6.291   5.394   6.295
 9168SOL    HW228404   6.334   5.536   6.363
 9169SOL     OW28405   6.472   6.242   6.226
 9169SOL    HW128406   6.469   6.236   6.326
 9169SOL    HW228407   6.409   6.176   6.187
 9170SOL     OW28408   1.703   1.097   6.139
 9170SOL    HW128409   1.734   1.178   6.189
 9170SOL    HW228410   1.748   1.016   6.177
 9171SOL     OW28411   2.476   5.322   0.931
 9171SOL    HW128412   2.397   5.383   0.935
 9171SOL    HW228413   2.449   5.230   0.958
 9172SOL     OW28414   4.552   1.887   4.689
 9172SOL    HW128415   4.485   1.885   4.614
 9172SOL    HW228416   4.641   1.856   4.656
 9173SOL     OW28417   7.000   3.120   4.765
 9173SOL    HW128418   0.061   3.157   4.750
 9173SOL    HW228419   6.937   3.194   4.790
 9174SOL     OW28420   0.564   5.857   6.717
 9174SOL    HW128421   0.497   5.927   6.739
 9174SOL    HW228422   0.535   5.807   6.635
 9175SOL     OW28423   1.667   6.247   0.530
 9175SOL    HW128424   1.618   6.294   0.604
 9175SOL    HW228425   1.689   6.312   0.457
 9176SOL     OW28426   2.502   6.916   2.116
 9176SOL    HW128427   2.516   6.825   2.077
 9176SOL    HW228428   2.405   6.941   2.111
 9177SOL     OW28429   1.808   2.549   3.756
 9177SOL    HW128430   1.872   2.586   3.688
 9177SOL    HW228431   1.803   2.611   3.835
 9178SOL     OW28432   2.339   5.491   6.580
 9178SOL    HW128433   2.435   5.485   6.609
 9178SOL    HW228434   2.333   5.548   6.499
 9179SOL     OW28435   2.565   5.715   4.862
 9179SOL    HW128436   2.612   5.657   4.929
 9179SOL    HW228437   2.589   5.811   4.879
 9180SOL     OW28438   6.876   2.158   3.958
 9180SOL    HW128439   6.924   2.078   3.995
 9180SOL    HW228440   6.904   2.173   3.863
 9181SOL     OW28441   4.935   2.773   3.297
 9181SOL    HW128442   5.022   2.725   3.308
 9181SOL    HW228443   4.876   2.755   3.376
 9182SOL     OW28444   3.175   1.213   2.841
 9182SOL    HW128445   3.198   1.309   2.855
 9182SOL    HW228446   3.178   1.165   2.929
 9183SOL     OW28447   4.471   3.886   6.382
 9183SOL    HW128448   4.547   3.840   6.429
 9183SOL    HW228449   4.480   3.872   6.283
 9184SOL     OW28450   3.464   2.082   1.054
 9184SOL    HW128451   3.526   2.094   0.976
 9184SOL    HW228452   3.456   2.168   1.103
 9185SOL     OW28453   0.792   6.843   6.665
 9185SOL    HW128454   0.805   6.862   6.568
 9185SOL    HW228455   0.738   6.760   6.677
 9186SOL     OW28456   4.853   0.493   5.553
 9186SOL    HW128457   4.818   0.426   5.617
 9186SOL    HW228458   4.789   0.570   5.545
 9187SOL     OW28459   4.591   2.218   6.950
 9187SOL    HW128460   4.523   2.145   6.957
 9187SOL    HW228461   4.630   2.237   0.010
 9188SOL     OW28462   1.876   0.870   1.232
 9188SOL    HW128463   1.790   0.836   1.195
 9188SOL    HW228464   1.858   0.929   1.311
 9189SOL     OW28465   3.586   0.833   3.717
 9189SOL    HW128466   3.671   0.793   3.683
 9189SOL    HW228467   3.535   0.763   3.767
 9190SOL     OW28468   6.465   4.052   5.232
 9190SOL    HW128469   6.565   4.062   5.228
 9190SOL    HW228470   6.434   3.997   5.155
 9191SOL     OW28471   4.979   0.187   6.790
 9191SOL    HW128472   4.975   0.231   6.880
 9191SOL    HW228473   4.895   0.207   6.740
 9192SOL     OW28474   6.220   3.664   6.194
 9192SOL    HW128475   6.305   3.613   6.182
 9192SOL    HW228476   6.192   3.659   6.290
 9193SOL     OW28477   3.353   3.718   3.790
 9193SOL    HW128478   3.445   3.747   3.763
 9193SOL    HW228479   3.309   3.672   3.713
 9194SOL     OW28480   3.585   5.939   2.170
 9194SOL    HW128481   3.518   5.870   2.197
 9194SOL    HW228482   3.677   5.899   2.171
 9195SOL     OW28483   1.863   2.672   3.433
 9195SOL    HW128484   1.931   2.621   3.486
 9195SOL    HW228485   1.909   2.722   3.359
 9196SOL     OW28486   4.892   0.542   3.947
 9196SOL    HW128487   4.878   0.456   3.898
 9196SOL    HW228488   4.932   0.522   4.037
 9197SOL     OW28489   2.866   3.394   0.893
 9197SOL    HW128490   2.962   3.408   0.868
 9197SOL    HW228491   2.828   3.320   0.839
 9198SOL     OW28492   5.669   3.966   6.172
 9198SOL    HW128493   5.732   4.007   6.107
 9198SOL    HW228494   5.716   3.953   6.260
 9199SOL     OW28495   1.058   3.436   6.446
 9199SOL    HW128496   1.151   3.468   6.466
 9199SOL    HW228497   1.024   3.382   6.523
 9200SOL     OW28498   1.349   6.164   6.829
 9200SOL    HW128499   1.409   6.116   6.894
 9200SOL    HW228500   1.255   6.160   6.861
 9201SOL     OW28501   0.649   4.100   1.258
 9201SOL    HW128502   0.572   4.056   1.212
 9201SOL    HW228503   0.735   4.070   1.216
 9202SOL     OW28504   2.302   5.404   4.603
 9202SOL    HW128505   2.321   5.485   4.660
 9202SOL    HW228506   2.381   5.343   4.606
 9203SOL     OW28507   4.811   2.227   6.554
 9203SOL    HW128508   4.899   2.273   6.564
 9203SOL    HW228509   4.738   2.296   6.552
 9204SOL     OW28510   5.606   3.758   3.382
 9204SOL    HW128511   5.631   3.823   3.454
 9204SOL    HW228512   5.506   3.750   3.377
 9205SOL     OW28513   4.936   3.355   2.180
 9205SOL    HW128514   4.995   3.350   2.099
 9205SOL    HW228515   4.877   3.436   2.173
 9206SOL     OW28516   2.768   0.613   4.979
 9206SOL    HW128517   2.727   0.603   4.889
 9206SOL    HW228518   2.858   0.568   4.980
 9207SOL     OW28519   3.712   6.314   6.126
 9207SOL    HW128520   3.652   6.316   6.045
 9207SOL    HW228521   3.807   6.322   6.097
 9208SOL     OW28522   4.854   3.604   2.123
 9208SOL    HW128523   4.792   3.568   2.054
 9208SOL    HW228524   4.903   3.683   2.086
 9209SOL     OW28525   4.123   0.911   1.980
 9209SOL    HW128526   4.167   0.988   2.025
 9209SOL    HW228527   4.129   0.830   2.038
 9210SOL     OW28528   2.076   0.218   1.400
 9210SOL    HW128529   2.130   0.218   1.317
 9210SOL    HW228530   2.101   0.139   1.457
 9211SOL     OW28531   5.235   1.863   6.578
 9211SOL    HW128532   5.241   1.786   6.641
 9211SOL    HW228533   5.311   1.926   6.593
 9212SOL     OW28534   4.896   4.233   4.988
 9212SOL    HW128535   4.988   4.266   4.968
 9212SOL    HW228536   4.829   4.303   4.964
 9213SOL     OW28537   5.760   6.675   4.229
 9213SOL    HW128538   5.836   6.723   4.272
 9213SOL    HW228539   5.713   6.737   4.166
 9214SOL     OW28540   1.105   2.413   5.079
 9214SOL    HW128541   1.019   2.407   5.129
 9214SOL    HW228542   1.095   2.477   5.003
 9215SOL     OW28543   6.786   4.233   2.366
 9215SOL    HW128544   6.776   4.327   2.399
 9215SOL    HW228545   6.824   4.176   2.439
 9216SOL     OW28546   2.523   6.475   4.625
 9216SOL    HW128547   2.562   6.390   4.590
 9216SOL    HW228548   2.545   6.550   4.562
 9217SOL     OW28549   5.469   1.485   6.689
 9217SOL    HW128550   5.464   1.399   6.739
 9217SOL    HW228551   5.550   1.536   6.718
 9218SOL     OW28552   4.131   0.252   6.495
 9218SOL    HW128553   4.214   0.233   6.548
 9218SOL    HW228554   4.132   0.199   6.411
 9219SOL     OW28555   4.024   3.014   5.316
 9219SOL    HW128556   3.929   3.005   5.347
 9219SOL    HW228557   4.036   3.103   5.272
 9220SOL     OW28558   1.931   6.023   2.795
 9220SOL    HW128559   1.914   6.061   2.704
 9220SOL    HW228560   2.007   6.073   2.837
 9221SOL     OW28561   2.203   0.704   5.787
 9221SOL    HW128562   2.145   0.778   5.822
 9221SOL    HW228563   2.299   0.730   5.797
 9222SOL     OW28564   2.581   4.525   4.270
 9222SOL    HW128565   2.562   4.503   4.366
 9222SOL    HW228566   2.505   4.495   4.213
 9223SOL     OW28567   1.080   2.984   3.918
 9223SOL    HW128568   0.998   2.972   3.862
 9223SOL    HW228569   1.064   3.054   3.987
 9224SOL     OW28570   1.267   3.172   3.705
 9224SOL    HW128571   1.218   3.257   3.726
 9224SOL    HW228572   1.218   3.095   3.747
 9225SOL     OW28573   3.460   6.781   6.179
 9225SOL    HW128574   3.512   6.854   6.133
 9225SOL    HW228575   3.455   6.701   6.119
 9226SOL     OW28576   1.331   0.225   1.843
 9226SOL    HW128577   1.325   0.212   1.942
 9226SOL    HW228578   1.305   0.140   1.797
 9227SOL     OW28579   1.523   5.194   1.364
 9227SOL    HW128580   1.613   5.187   1.321
 9227SOL    HW228581   1.515   5.282   1.409
 9228SOL     OW28582   2.267   2.470   6.207
 9228SOL    HW128583   2.287   2.490   6.111
 9228SOL    HW228584   2.169   2.469   6.222
 9229SOL     OW28585   1.310   4.958   6.828
 9229SOL    HW128586   1.273   5.043   6.791
 9229SOL    HW228587   1.340   4.899   6.753
 9230SOL     OW28588   5.005   2.852   3.832
 9230SOL    HW128589   5.006   2.762   3.788
 9230SOL    HW228590   5.068   2.852   3.910
 9231SOL     OW28591   0.766   5.169   5.955
 9231SOL    HW128592   0.711   5.086   5.961
 9231SOL    HW228593   0.709   5.248   5.977
 9232SOL     OW28594   1.541   4.903   1.009
 9232SOL    HW128595   1.579   4.991   1.034
 9232SOL    HW228596   1.449   4.915   0.971
 9233SOL     OW28597   1.286   6.794   1.086
 9233SOL    HW128598   1.289   6.704   1.042
 9233SOL    HW228599   1.354   6.797   1.159
 9234SOL     OW28600   2.424   5.067   0.990
 9234SOL    HW128601   2.376   5.094   1.074
 9234SOL    HW228602   2.518   5.042   1.012
 9235SOL     OW28603   2.483   2.089   3.802
 9235SOL    HW128604   2.524   2.148   3.871
 9235SOL    HW228605   2.487   2.134   3.713
 9236SOL     OW28606   2.414   3.172   6.784
 9236SOL    HW128607   2.361   3.255   6.767
 9236SOL    HW228608   2.508   3.186   6.752
 9237SOL     OW28609   6.802   6.146   2.983
 9237SOL    HW128610   6.879   6.179   3.038
 9237SOL    HW228611   6.821   6.052   2.953
 9238SOL     OW28612   2.682   2.785   6.007
 9238SOL    HW128613   2.730   2.730   5.939
 9238SOL    HW228614   2.660   2.728   6.086
 9239SOL     OW28615   6.927   4.564   6.656
 9239SOL    HW128616   6.905   4.644   6.600
 9239SOL    HW228617   6.924   4.481   6.599
 9240SOL     OW28618   5.331   3.145   2.723
 9240SOL    HW128619   5.413   3.111   2.678
 9240SOL    HW228620   5.250   3.100   2.685
 9241SOL     OW28621   6.834   5.887   0.303
 9241SOL    HW128622   6.796   5.843   0.222
 9241SOL    HW228623   6.775   5.963   0.330
 9242SOL     OW28624   1.972   2.051   1.796
 9242SOL    HW128625   2.055   2.013   1.754
 9242SOL    HW228626   1.956   2.143   1.760
 9243SOL     OW28627   1.447   0.729   2.004
 9243SOL    HW128628   1.475   0.770   2.090
 9243SOL    HW228629   1.417   0.635   2.019
 9244SOL     OW28630   2.813   6.406   6.275
 9244SOL    HW128631   2.818   6.332   6.342
 9244SOL    HW228632   2.778   6.489   6.319
 9245SOL     OW28633   1.120   4.157   3.485
 9245SOL    HW128634   1.199   4.097   3.474
 9245SOL    HW228635   1.037   4.109   3.458
 9246SOL     OW28636   5.993   0.627   4.339
 9246SOL    HW128637   5.999   0.553   4.272
 9246SOL    HW228638   6.085   0.659   4.361
 9247SOL     OW28639   4.045   5.297   3.018
 9247SOL    HW128640   3.950   5.326   3.011
 9247SOL    HW228641   4.052   5.199   2.999
 9248SOL     OW28642   2.962   1.708   5.265
 9248SOL    HW128643   2.886   1.756   5.307
 9248SOL    HW228644   2.981   1.747   5.175
 9249SOL     OW28645   4.009   4.927   1.476
 9249SOL    HW128646   4.077   4.956   1.544
 9249SOL    HW228647   3.931   4.886   1.523
 9250SOL     OW28648   6.777   3.908   4.129
 9250SOL    HW128649   6.841   3.968   4.178
 9250SOL    HW228650   6.828   3.833   4.086
 9251SOL     OW28651   4.086   2.550   1.697
 9251SOL    HW128652   3.990   2.573   1.713
 9251SOL    HW228653   4.104   2.458   1.733
 9252SOL     OW28654   5.208   0.664   5.215
 9252SOL    HW128655   5.229   0.762   5.226
 9252SOL    HW228656   5.232   0.635   5.123
 9253SOL     OW28657   5.557   4.906   5.410
 9253SOL    HW128658   5.526   4.998   5.436
 9253SOL    HW228659   5.533   4.841   5.481
 9254SOL     OW28660   5.306   4.383   2.306
 9254SOL    HW128661   5.379   4.362   2.370
 9254SOL    HW228662   5.308   4.481   2.284
 9255SOL     OW28663   5.649   3.362   6.652
 9255SOL    HW128664   5.682   3.281   6.702
 9255SOL    HW228665   5.654   3.344   6.554
 9256SOL     OW28666   2.189   0.084   1.890
 9256SOL    HW128667   2.225   0.013   1.951
 9256SOL    HW228668   2.172   0.168   1.943
 9257SOL     OW28669   5.920   5.804   3.168
 9257SOL    HW128670   5.961   5.734   3.228
 9257SOL    HW228671   5.958   5.893   3.190
 9258SOL     OW28672   3.491   3.537   0.689
 9258SOL    HW128673   3.486   3.504   0.783
 9258SOL    HW228674   3.465   3.633   0.685
 9259SOL     OW28675   2.057   1.435   0.306
 9259SOL    HW128676   2.061   1.360   0.239
 9259SOL    HW228677   2.054   1.522   0.258
 9260SOL     OW28678   6.999   2.747   6.142
 9260SOL    HW128679   6.908   2.745   6.182
 9260SOL    HW228680   6.991   2.758   6.043
 9261SOL     OW28681   4.568   0.933   6.867
 9261SOL    HW128682   4.664   0.904   6.868
 9261SOL    HW228683   4.563   1.032   6.880
 9262SOL     OW28684   0.755   6.816   4.908
 9262SOL    HW128685   0.679   6.845   4.850
 9262SOL    HW228686   0.790   6.895   4.958
 9263SOL     OW28687   3.385   5.765   3.317
 9263SOL    HW128688   3.363   5.757   3.414
 9263SOL    HW228689   3.431   5.682   3.286
 9264SOL     OW28690   4.816   3.518   6.527
 9264SOL    HW128691   4.854   3.544   6.439
 9264SOL    HW228692   4.778   3.599   6.572
 9265SOL     OW28693   4.182   2.042   6.491
 9265SOL    HW128694   4.140   1.964   6.444
 9265SOL    HW228695   4.267   2.067   6.446
 9266SOL     OW28696   0.342   5.679   1.203
 9266SOL    HW128697   0.261   5.650   1.254
 9266SOL    HW228698   0.406   5.602   1.195
 9267SOL     OW28699   0.894   1.727   4.368
 9267SOL    HW128700   0.954   1.778   4.306
 9267SOL    HW228701   0.945   1.649   4.407
 9268SOL     OW28702   0.988   6.748   2.615
 9268SOL    HW128703   1.074   6.713   2.577
 9268SOL    HW228704   0.977   6.844   2.591
 9269SOL     OW28705   4.343   0.336   6.240
 9269SOL    HW128706   4.424   0.283   6.263
 9269SOL    HW228707   4.362   0.392   6.159
 9270SOL     OW28708   3.369   0.822   5.557
 9270SOL    HW128709   3.380   0.920   5.569
 9270SOL    HW228710   3.329   0.803   5.467
 9271SOL     OW28711   0.357   6.972   0.643
 9271SOL    HW128712   0.298   6.927   0.577
 9271SOL    HW228713   0.379   0.035   0.610
 9272SOL     OW28714   1.028   6.395   6.944
 9272SOL    HW128715   0.940   6.393   6.897
 9272SOL    HW228716   1.079   6.312   6.923
 9273SOL     OW28717   5.175   6.193   3.415
 9273SOL    HW128718   5.131   6.189   3.504
 9273SOL    HW228719   5.149   6.113   3.360
 9274SOL     OW28720   7.019   2.152   0.206
 9274SOL    HW128721   6.989   2.057   0.192
 9274SOL    HW228722   0.067   2.171   0.146
 9275SOL     OW28723   0.096   6.668   0.273
 9275SOL    HW128724   0.106   6.585   0.328
 9275SOL    HW228725   0.152   6.660   0.191
 9276SOL     OW28726   2.677   4.109   6.907
 9276SOL    HW128727   2.660   4.088   6.811
 9276SOL    HW228728   2.767   4.152   6.917
 9277SOL     OW28729   3.994   4.864   3.352
 9277SOL    HW128730   4.087   4.831   3.371
 9277SOL    HW228731   3.988   4.960   3.377
 9278SOL     OW28732   0.333   0.639   5.682
 9278SOL    HW128733   0.250   0.691   5.663
 9278SOL    HW228734   0.311   0.542   5.692
 9279SOL     OW28735   3.127   6.326   1.813
 9279SOL    HW128736   3.115   6.416   1.769
 9279SOL    HW228737   3.214   6.287   1.786
 9280SOL     OW28738   2.220   2.465   2.171
 9280SOL    HW128739   2.263   2.539   2.223
 9280SOL    HW228740   2.252   2.467   2.076
 9281SOL     OW28741   3.318   3.727   5.875
 9281SOL    HW128742   3.405   3.713   5.828
 9281SOL    HW228743   3.323   3.685   5.966
 9282SOL     OW28744   4.785   1.528   4.372
 9282SOL    HW128745   4.699   1.483   4.349
 9282SOL    HW228746   4.822   1.488   4.456
 9283SOL     OW28747   5.197   0.499   5.972
 9283SOL    HW128748   5.284   0.490   6.020
 9283SOL    HW228749   5.135   0.427   6.003
 9284SOL     OW28750   2.971   3.722   4.834
 9284SOL    HW128751   2.920   3.755   4.913
 9284SOL    HW228752   3.003   3.628   4.852
 9285SOL     OW28753   5.304   3.180   0.981
 9285SOL    HW128754   5.276   3.230   1.063
 9285SOL    HW228755   5.333   3.245   0.911
 9286SOL     OW28756   4.978   5.661   6.992
 9286SOL    HW128757   4.936   5.723   0.029
 9286SOL    HW228758   5.026   5.587   0.011
 9287SOL     OW28759   2.737   4.069   5.584
 9287SOL    HW128760   2.747   4.162   5.620
 9287SOL    HW228761   2.701   4.074   5.490
 9288SOL     OW28762   4.792   2.224   3.250
 9288SOL    HW128763   4.856   2.231   3.327
 9288SOL    HW228764   4.722   2.156   3.271
 9289SOL     OW28765   4.424   0.610   6.381
 9289SOL    HW128766   4.360   0.537   6.407
 9289SOL    HW228767   4.515   0.588   6.415
 9290SOL     OW28768   6.328   0.797   4.206
 9290SOL    HW128769   6.293   0.764   4.118
 9290SOL    HW228770   6.316   0.896   4.212
 9291SOL     OW28771   1.311   6.536   6.044
 9291SOL    HW128772   1.214   6.531   6.070
 9291SOL    HW228773   1.347   6.443   6.034
 9292SOL     OW28774   1.344   1.463   6.550
 9292SOL    HW128775   1.425   1.486   6.604
 9292SOL    HW228776   1.263   1.467   6.608
 9293SOL     OW28777   5.167   2.749   0.071
 9293SOL    HW128778   5.196   2.654   0.064
 9293SOL    HW228779   5.106   2.760   0.149
 9294SOL     OW28780   4.798   1.076   0.136
 9294SOL    HW128781   4.882   1.023   0.140
 9294SOL    HW228782   4.820   1.174   0.139
 9295SOL     OW28783   0.107   0.766   5.608
 9295SOL    HW128784   0.159   0.848   5.583
 9295SOL    HW228785   0.021   0.793   5.652
 9296SOL     OW28786   2.252   3.895   0.849
 9296SOL    HW128787   2.267   3.981   0.897
 9296SOL    HW228788   2.330   3.834   0.865
 9297SOL     OW28789   0.651   6.490   2.734
 9297SOL    HW128790   0.647   6.391   2.726
 9297SOL    HW228791   0.668   6.531   2.644
 9298SOL     OW28792   1.009   6.852   6.180
 9298SOL    HW128793   0.988   6.948   6.162
 9298SOL    HW228794   0.927   6.797   6.165
 9299SOL     OW28795   1.504   1.225   3.865
 9299SOL    HW128796   1.467   1.273   3.945
 9299SOL    HW228797   1.534   1.134   3.893
 9300SOL     OW28798   0.277   5.321   5.259
 9300SOL    HW128799   0.300   5.376   5.339
 9300SOL    HW228800   0.184   5.286   5.268
 9301SOL     OW28801   0.093   4.612   5.013
 9301SOL    HW128802   0.156   4.546   4.971
 9301SOL    HW228803   0.037   4.565   5.081
 9302SOL     OW28804   2.219   2.974   4.569
 9302SOL    HW128805   2.223   2.993   4.667
 9302SOL    HW228806   2.251   2.881   4.552
 9303SOL     OW28807   3.128   4.709   0.511
 9303SOL    HW128808   3.165   4.684   0.421
 9303SOL    HW228809   3.080   4.796   0.504
 9304SOL     OW28810   4.520   5.234   0.589
 9304SOL    HW128811   4.422   5.255   0.599
 9304SOL    HW228812   4.550   5.261   0.497
 9305SOL     OW28813   3.547   1.356   0.282
 9305SOL    HW128814   3.521   1.264   0.312
 9305SOL    HW228815   3.487   1.423   0.325
 9306SOL     OW28816   0.222   3.637   4.883
 9306SOL    HW128817   0.231   3.707   4.812
 9306SOL    HW228818   0.305   3.580   4.884
 9307SOL     OW28819   1.546   4.125   0.588
 9307SOL    HW128820   1.632   4.102   0.541
 9307SOL    HW228821   1.515   4.046   0.640
 9308SOL     OW28822   0.825   4.697   1.454
 9308SOL    HW128823   0.840   4.598   1.449
 9308SOL    HW228824   0.742   4.716   1.506
 9309SOL     OW28825   4.045   6.654   6.322
 9309SOL    HW128826   4.065   6.750   6.300
 9309SOL    HW228827   4.065   6.637   6.419
 9310SOL     OW28828   5.137   5.737   5.675
 9310SOL    HW128829   5.099   5.790   5.599
 9310SOL    HW228830   5.194   5.663   5.640
 9311SOL     OW28831   4.655   4.237   1.099
 9311SOL    HW128832   4.724   4.272   1.036
 9311SOL    HW228833   4.700   4.201   1.181
 9312SOL     OW28834   1.919   2.042   1.277
 9312SOL    HW128835   1.877   2.109   1.338
 9312SOL    HW228836   1.919   2.078   1.183
 9313SOL     OW28837   0.596   1.049   1.772
 9313SOL    HW128838   0.686   1.082   1.802
 9313SOL    HW228839   0.583   0.955   1.804
 9314SOL     OW28840   6.018   3.537   0.622
 9314SOL    HW128841   6.020   3.455   0.565
 9314SOL    HW228842   6.030   3.512   0.718
 9315SOL     OW28843   6.349   0.937   5.941
 9315SOL    HW128844   6.352   0.969   5.847
 9315SOL    HW228845   6.266   0.885   5.956
 9316SOL     OW28846   6.156   0.037   4.659
 9316SOL    HW128847   6.167   0.124   4.707
 9316SOL    HW228848   6.246   7.027   4.641
 9317SOL     OW28849   3.744   5.385   3.256
 9317SOL    HW128850   3.716   5.322   3.329
 9317SOL    HW228851   3.747   5.336   3.169
 9318SOL     OW28852   4.394   5.963   0.323
 9318SOL    HW128853   4.317   5.938   0.264
 9318SOL    HW228854   4.361   5.982   0.415
 9319SOL     OW28855   2.432   2.842   0.577
 9319SOL    HW128856   2.414   2.768   0.511
 9319SOL    HW228857   2.523   2.831   0.616
 9320SOL     OW28858   4.347   0.059   5.975
 9320SOL    HW128859   4.299   0.031   5.892
 9320SOL    HW228860   4.361   0.158   5.973
 9321SOL     OW28861   1.149   2.015   5.616
 9321SOL    HW128862   1.053   1.988   5.616
 9321SOL    HW228863   1.187   2.000   5.524
 9322SOL     OW28864   6.330   4.864   5.865
 9322SOL    HW128865   6.429   4.857   5.875
 9322SOL    HW228866   6.287   4.783   5.905
 9323SOL     OW28867   2.320   2.317   4.725
 9323SOL    HW128868   2.329   2.231   4.675
 9323SOL    HW228869   2.273   2.384   4.667
 9324SOL     OW28870   1.941   3.815   1.038
 9324SOL    HW128871   1.939   3.909   1.005
 9324SOL    HW228872   1.905   3.754   0.967
 9325SOL     OW28873   0.923   6.298   1.755
 9325SOL    HW128874   0.893   6.386   1.717
 9325SOL    HW228875   0.912   6.227   1.686
 9326SOL     OW28876   3.396   5.470   0.066
 9326SOL    HW128877   3.341   5.499   0.145
 9326SOL    HW228878   3.435   5.380   0.085
 9327SOL     OW28879   4.636   0.193   2.951
 9327SOL    HW128880   4.572   0.269   2.957
 9327SOL    HW228881   4.720   0.217   2.999
 9328SOL     OW28882   2.243   6.929   4.629
 9328SOL    HW128883   2.155   6.911   4.673
 9328SOL    HW228884   2.315   6.881   4.678
 9329SOL     OW28885   6.919   5.528   0.178
 9329SOL    HW128886   6.926   5.473   0.095
 9329SOL    HW228887   6.924   5.469   0.258
 9330SOL     OW28888   0.679   0.131   6.544
 9330SOL    HW128889   0.703   0.162   6.635
 9330SOL    HW228890   0.582   0.104   6.542
 9331SOL     OW28891   1.753   2.472   5.729
 9331SOL    HW128892   1.680   2.403   5.723
 9331SOL    HW228893   1.773   2.507   5.638
 9332SOL     OW28894   4.257   5.366   0.500
 9332SOL    HW128895   4.284   5.386   0.406
 9332SOL    HW228896   4.167   5.322   0.500
 9333SOL     OW28897   3.967   5.598   0.659
 9333SOL    HW128898   3.921   5.528   0.714
 9333SOL    HW228899   3.905   5.631   0.588
 9334SOL     OW28900   5.609   0.491   4.152
 9334SOL    HW128901   5.598   0.450   4.243
 9334SOL    HW228902   5.527   0.474   4.098
 9335SOL     OW28903   1.812   2.239   0.508
 9335SOL    HW128904   1.814   2.245   0.608
 9335SOL    HW228905   1.753   2.311   0.472
 9336SOL     OW28906   5.477   0.029   4.094
 9336SOL    HW128907   5.530   6.985   4.053
 9336SOL    HW228908   5.462   0.010   4.191
 9337SOL     OW28909   4.839   0.623   0.078
 9337SOL    HW128910   4.797   0.612   7.018
 9337SOL    HW228911   4.776   0.591   0.148
 9338SOL     OW28912   7.002   5.730   0.441
 9338SOL    HW128913   6.996   5.633   0.420
 9338SOL    HW228914   6.940   5.781   0.380
 9339SOL     OW28915   5.833   5.843   0.493
 9339SOL    HW128916   5.744   5.882   0.469
 9339SOL    HW228917   5.860   5.875   0.584
 9340SOL     OW28918   4.020   5.020   2.993
 9340SOL    HW128919   3.983   5.028   2.901
 9340SOL    HW228920   3.993   4.933   3.033
 9341SOL     OW28921   6.546   4.147   6.706
 9341SOL    HW128922   6.570   4.158   6.803
 9341SOL    HW228923   6.629   4.131   6.653
 9342SOL     OW28924   2.854   0.417   4.710
 9342SOL    HW128925   2.943   0.454   4.736
 9342SOL    HW228926   2.835   0.441   4.615
 9343SOL     OW28927   4.968   3.383   1.876
 9343SOL    HW128928   4.896   3.447   1.848
 9343SOL    HW228929   4.930   3.291   1.882
 9344SOL     OW28930   4.877   5.459   6.103
 9344SOL    HW128931   4.858   5.399   6.181
 9344SOL    HW228932   4.792   5.479   6.055
 9345SOL     OW28933   6.084   5.385   6.637
 9345SOL    HW128934   6.045   5.322   6.705
 9345SOL    HW228935   6.110   5.470   6.681
 9346SOL     OW28936   4.907   6.034   2.355
 9346SOL    HW128937   4.879   6.111   2.297
 9346SOL    HW228938   4.905   5.950   2.301
 9347SOL     OW28939   3.773   5.824   0.489
 9347SOL    HW128940   3.753   5.815   0.391
 9347SOL    HW228941   3.867   5.857   0.501
 9348SOL     OW28942   2.841   5.480   3.066
 9348SOL    HW128943   2.873   5.541   2.994
 9348SOL    HW228944   2.758   5.517   3.107
 9349SOL     OW28945   6.233   5.905   1.964
 9349SOL    HW128946   6.194   5.934   1.876
 9349SOL    HW228947   6.166   5.849   2.013
 9350SOL     OW28948   0.135   1.548   4.098
 9350SOL    HW128949   0.157   1.629   4.043
 9350SOL    HW228950   0.217   1.493   4.111
 9351SOL     OW28951   2.602   0.375   6.306
 9351SOL    HW128952   2.521   0.338   6.262
 9351SOL    HW228953   2.653   0.302   6.351
 9352SOL     OW28954   1.801   3.049   5.731
 9352SOL    HW128955   1.716   3.003   5.704
 9352SOL    HW228956   1.791   3.148   5.718
 9353SOL     OW28957   1.482   4.145   1.943
 9353SOL    HW128958   1.398   4.198   1.950
 9353SOL    HW228959   1.510   4.113   2.034
 9354SOL     OW28960   5.919   1.626   0.982
 9354SOL    HW128961   5.917   1.555   1.052
 9354SOL    HW228962   5.921   1.583   0.891
 9355SOL     OW28963   6.329   1.068   4.213
 9355SOL    HW128964   6.360   1.126   4.288
 9355SOL    HW228965   6.388   1.083   4.133
 9356SOL     OW28966   4.945   5.323   2.220
 9356SOL    HW128967   4.974   5.419   2.224
 9356SOL    HW228968   4.846   5.319   2.208
 9357SOL     OW28969   2.012   4.271   6.939
 9357SOL    HW128970   2.094   4.327   6.956
 9357SOL    HW228971   2.022   4.183   6.985
 9358SOL     OW28972   5.814   3.276   1.555
 9358SOL    HW128973   5.907   3.311   1.570
 9358SOL    HW228974   5.815   3.212   1.479
 9359SOL     OW28975   0.397   3.846   5.535
 9359SOL    HW128976   0.423   3.849   5.438
 9359SOL    HW228977   0.317   3.903   5.550
 9360SOL     OW28978   1.026   0.100   5.883
 9360SOL    HW128979   1.086   0.174   5.852
 9360SOL    HW228980   1.025   0.027   5.815
 9361SOL     OW28981   2.319   6.501   3.564
 9361SOL    HW128982   2.253   6.563   3.605
 9361SOL    HW228983   2.274   6.444   3.495
 9362SOL     OW28984   1.433   1.195   1.762
 9362SOL    HW128985   1.450   1.277   1.816
 9362SOL    HW228986   1.334   1.186   1.745
 9363SOL     OW28987   4.327   5.279   2.183
 9363SOL    HW128988   4.307   5.270   2.281
 9363SOL    HW228989   4.304   5.371   2.152
 9364SOL     OW28990   4.116   3.562   6.062
 9364SOL    HW128991   4.170   3.622   6.121
 9364SOL    HW228992   4.019   3.585   6.070
 9365SOL     OW28993   2.698   1.603   5.049
 9365SOL    HW128994   2.717   1.663   4.972
 9365SOL    HW228995   2.780   1.553   5.075
 9366SOL     OW28996   3.200   1.713   6.645
 9366SOL    HW128997   3.253   1.735   6.727
 9366SOL    HW228998   3.132   1.785   6.630
 9367SOL     OW28999   0.104   6.108   3.540
 9367SOL    HW129000   0.165   6.079   3.614
 9367SOL    HW229001   0.124   6.055   3.457
 9368SOL     OW29002   3.126   1.857   3.469
 9368SOL    HW129003   3.037   1.868   3.424
 9368SOL    HW229004   3.168   1.947   3.481
 9369SOL     OW29005   0.895   0.454   6.057
 9369SOL    HW129006   0.868   0.411   5.971
 9369SOL    HW229007   0.815   0.462   6.117
 9370SOL     OW29008   5.228   0.337   2.289
 9370SOL    HW129009   5.311   0.297   2.329
 9370SOL    HW229010   5.161   0.355   2.361
 9371SOL     OW29011   2.127   4.795   0.220
 9371SOL    HW129012   2.167   4.760   0.305
 9371SOL    HW229013   2.077   4.721   0.174
 9372SOL     OW29014   5.578   6.029   3.226
 9372SOL    HW129015   5.615   6.031   3.319
 9372SOL    HW229016   5.503   6.094   3.218
 9373SOL     OW29017   4.654   2.036   2.519
 9373SOL    HW129018   4.693   2.050   2.610
 9373SOL    HW229019   4.560   2.069   2.517
 9374SOL     OW29020   6.670   3.062   6.795
 9374SOL    HW129021   6.657   3.067   6.696
 9374SOL    HW229022   6.593   3.105   6.841
 9375SOL     OW29023   6.877   2.273   3.234
 9375SOL    HW129024   6.813   2.202   3.262
 9375SOL    HW229025   6.932   2.241   3.157
 9376SOL     OW29026   2.683   3.761   1.177
 9376SOL    HW129027   2.699   3.714   1.263
 9376SOL    HW229028   2.752   3.733   1.110
 9377SOL     OW29029   1.462   5.941   3.774
 9377SOL    HW129030   1.436   5.991   3.856
 9377SOL    HW229031   1.510   5.857   3.799
 9378SOL     OW29032   0.823   0.275   5.574
 9378SOL    HW129033   0.791   0.185   5.603
 9378SOL    HW229034   0.914   0.266   5.533
 9379SOL     OW29035   4.668   4.948   5.229
 9379SOL    HW129036   4.698   4.922   5.138
 9379SOL    HW229037   4.606   5.026   5.223
 9380SOL     OW29038   6.308   4.699   4.903
 9380SOL    HW129039   6.327   4.603   4.886
 9380SOL    HW229040   6.320   4.719   5.000
 9381SOL     OW29041   2.133   3.250   5.867
 9381SOL    HW129042   2.083   3.254   5.781
 9381SOL    HW229043   2.109   3.165   5.915
 9382SOL     OW29044   3.508   1.461   3.299
 9382SOL    HW129045   3.461   1.547   3.317
 9382SOL    HW229046   3.523   1.413   3.386
 9383SOL     OW29047   2.410   6.047   4.548
 9383SOL    HW129048   2.397   5.964   4.494
 9383SOL    HW229049   2.412   6.024   4.645
 9384SOL     OW29050   3.546   5.883   1.643
 9384SOL    HW129051   3.502   5.817   1.583
 9384SOL    HW229052   3.636   5.907   1.607
 9385SOL     OW29053   4.635   1.242   2.423
 9385SOL    HW129054   4.551   1.187   2.425
 9385SOL    HW229055   4.640   1.299   2.505
 9386SOL     OW29056   2.150   6.567   5.033
 9386SOL    HW129057   2.189   6.510   4.961
 9386SOL    HW229058   2.154   6.518   5.120
 9387SOL     OW29059   3.195   0.968   6.857
 9387SOL    HW129060   3.163   1.061   6.878
 9387SOL    HW229061   3.124   0.920   6.805
 9388SOL     OW29062   2.089   5.478   2.472
 9388SOL    HW129063   2.066   5.479   2.375
 9388SOL    HW229064   2.011   5.443   2.524
 9389SOL     OW29065   2.032   0.297   5.007
 9389SOL    HW129066   2.090   0.217   5.017
 9389SOL    HW229067   1.949   0.286   5.063
 9390SOL     OW29068   3.883   5.457   5.004
 9390SOL    HW129069   3.958   5.522   4.992
 9390SOL    HW229070   3.822   5.462   4.924
 9391SOL     OW29071   2.373   0.565   4.827
 9391SOL    HW129072   2.444   0.622   4.869
 9391SOL    HW229073   2.340   0.498   4.894
 9392SOL     OW29074   0.294   0.579   5.247
 9392SOL    HW129075   0.263   0.665   5.205
 9392SOL    HW229076   0.239   0.560   5.328
 9393SOL     OW29077   2.695   0.890   5.434
 9393SOL    HW129078   2.774   0.899   5.374
 9393SOL    HW229079   2.644   0.807   5.410
 9394SOL     OW29080   6.706   1.843   2.114
 9394SOL    HW129081   6.683   1.887   2.028
 9394SOL    HW229082   6.684   1.745   2.108
 9395SOL     OW29083   2.615   2.216   0.071
 9395SOL    HW129084   2.688   2.209   0.139
 9395SOL    HW229085   2.616   2.306   0.029
 9396SOL     OW29086   0.876   5.337   3.243
 9396SOL    HW129087   0.974   5.358   3.239
 9396SOL    HW229088   0.828   5.411   3.291
 9397SOL     OW29089   2.913   0.432   1.011
 9397SOL    HW129090   2.939   0.528   1.006
 9397SOL    HW229091   2.954   0.383   0.934
 9398SOL     OW29092   1.654   0.424   5.536
 9398SOL    HW129093   1.593   0.388   5.466
 9398SOL    HW229094   1.697   0.508   5.502
 9399SOL     OW29095   0.604   1.720   0.211
 9399SOL    HW129096   0.676   1.686   0.151
 9399SOL    HW229097   0.625   1.813   0.239
 9400SOL     OW29098   5.033   2.264   1.416
 9400SOL    HW129099   4.999   2.258   1.322
 9400SOL    HW229100   5.109   2.330   1.419
 9401SOL     OW29101   4.380   6.805   3.170
 9401SOL    HW129102   4.386   6.832   3.266
 9401SOL    HW229103   4.340   6.713   3.164
 9402SOL     OW29104   1.069   4.931   4.371
 9402SOL    HW129105   1.155   4.892   4.404
 9402SOL    HW229106   1.089   5.003   4.304
 9403SOL     OW29107   5.716   1.379   3.210
 9403SOL    HW129108   5.751   1.472   3.209
 9403SOL    HW229109   5.687   1.355   3.303
 9404SOL     OW29110   0.536   2.925   6.118
 9404SOL    HW129111   0.452   2.886   6.081
 9404SOL    HW229112   0.548   2.896   6.213
 9405SOL     OW29113   0.176   6.078   2.368
 9405SOL    HW129114   0.091   6.121   2.398
 9405SOL    HW229115   0.156   5.986   2.334
 9406SOL     OW29116   6.825   2.986   6.341
 9406SOL    HW129117   6.788   2.902   6.301
 9406SOL    HW229118   6.925   2.978   6.347
 9407SOL     OW29119   2.479   5.105   3.342
 9407SOL    HW129120   2.443   5.190   3.381
 9407SOL    HW229121   2.418   5.029   3.363
 9408SOL     OW29122   3.833   1.706   6.178
 9408SOL    HW129123   3.907   1.675   6.119
 9408SOL    HW229124   3.768   1.760   6.124
 9409SOL     OW29125   5.849   4.263   6.264
 9409SOL    HW129126   5.856   4.220   6.355
 9409SOL    HW229127   5.815   4.195   6.199
 9410SOL     OW29128   3.110   6.235   2.066
 9410SOL    HW129129   3.200   6.221   2.107
 9410SOL    HW229130   3.122   6.269   1.972
 9411SOL     OW29131   4.204   3.799   1.412
 9411SOL    HW129132   4.192   3.844   1.324
 9411SOL    HW229133   4.131   3.731   1.425
 9412SOL     OW29134   0.193   3.080   1.896
 9412SOL    HW129135   0.207   3.057   1.800
 9412SOL    HW229136   0.106   3.128   1.905
 9413SOL     OW29137   3.654   5.964   4.319
 9413SOL    HW129138   3.600   5.901   4.264
 9413SOL    HW229139   3.708   6.023   4.259
 9414SOL     OW29140   3.459   0.614   3.827
 9414SOL    HW129141   3.372   0.620   3.778
 9414SOL    HW229142   3.450   0.550   3.903
 9415SOL     OW29143   2.604   0.252   2.475
 9415SOL    HW129144   2.636   0.294   2.390
 9415SOL    HW229145   2.681   0.207   2.520
 9416SOL     OW29146   0.839   1.519   1.008
 9416SOL    HW129147   0.856   1.617   1.020
 9416SOL    HW229148   0.751   1.506   0.963
 9417SOL     OW29149   3.772   6.640   5.717
 9417SOL    HW129150   3.739   6.554   5.679
 9417SOL    HW229151   3.872   6.643   5.709
 9418SOL     OW29152   2.834   6.349   1.291
 9418SOL    HW129153   2.911   6.404   1.257
 9418SOL    HW229154   2.868   6.265   1.331
 9419SOL     OW29155   2.994   4.912   5.672
 9419SOL    HW129156   2.977   4.830   5.727
 9419SOL    HW229157   2.954   4.992   5.717
 9420SOL     OW29158   0.477   2.640   4.481
 9420SOL    HW129159   0.402   2.667   4.541
 9420SOL    HW229160   0.486   2.540   4.481
 9421SOL     OW29161   2.358   6.111   4.836
 9421SOL    HW129162   2.446   6.149   4.861
 9421SOL    HW229163   2.307   6.176   4.779
 9422SOL     OW29164   4.738   6.310   2.457
 9422SOL    HW129165   4.781   6.236   2.509
 9422SOL    HW229166   4.660   6.346   2.508
 9423SOL     OW29167   4.404   0.935   3.174
 9423SOL    HW129168   4.501   0.946   3.194
 9423SOL    HW229169   4.386   0.961   3.079
 9424SOL     OW29170   4.636   1.110   5.348
 9424SOL    HW129171   4.696   1.033   5.368
 9424SOL    HW229172   4.557   1.109   5.409
 9425SOL     OW29173   0.568   3.658   6.335
 9425SOL    HW129174   0.471   3.652   6.313
 9425SOL    HW229175   0.614   3.575   6.304
 9426SOL     OW29176   2.576   1.931   0.033
 9426SOL    HW129177   2.607   2.025   0.020
 9426SOL    HW229178   2.645   1.879   0.082
 9427SOL     OW29179   2.944   5.214   4.612
 9427SOL    HW129180   2.921   5.220   4.709
 9427SOL    HW229181   3.030   5.264   4.595
 9428SOL     OW29182   4.898   0.996   1.159
 9428SOL    HW129183   4.901   0.936   1.079
 9428SOL    HW229184   4.974   1.061   1.155
 9429SOL     OW29185   1.730   4.062   2.388
 9429SOL    HW129186   1.808   4.023   2.437
 9429SOL    HW229187   1.680   3.989   2.341
 9430SOL     OW29188   6.840   4.431   1.777
 9430SOL    HW129189   6.852   4.516   1.829
 9430SOL    HW229190   6.808   4.452   1.685
 9431SOL     OW29191   5.571   3.469   0.837
 9431SOL    HW129192   5.479   3.431   0.826
 9431SOL    HW229193   5.597   3.466   0.934
 9432SOL     OW29194   5.690   0.979   2.725
 9432SOL    HW129195   5.598   0.940   2.736
 9432SOL    HW229196   5.719   1.021   2.811
 9433SOL     OW29197   3.513   4.928   3.892
 9433SOL    HW129198   3.437   4.923   3.828
 9433SOL    HW229199   3.496   4.867   3.969
 9434SOL     OW29200   5.101   5.000   3.058
 9434SOL    HW129201   5.105   4.962   3.150
 9434SOL    HW229202   5.139   4.935   2.993
 9435SOL     OW29203   0.559   2.263   4.673
 9435SOL    HW129204   0.468   2.239   4.638
 9435SOL    HW229205   0.599   2.183   4.717
 9436SOL     OW29206   1.316   3.746   2.029
 9436SOL    HW129207   1.234   3.741   1.971
 9436SOL    HW229208   1.370   3.662   2.018
 9437SOL     OW29209   1.921   6.792   3.445
 9437SOL    HW129210   1.844   6.817   3.387
 9437SOL    HW229211   1.942   6.695   3.432
 9438SOL     OW29212   0.439   6.906   1.925
 9438SOL    HW129213   0.353   6.940   1.888
 9438SOL    HW229214   0.482   6.845   1.859
 9439SOL     OW29215   0.515   2.385   1.974
 9439SOL    HW129216   0.505   2.286   1.968
 9439SOL    HW229217   0.607   2.411   1.947
 9440SOL     OW29218   4.384   5.455   4.278
 9440SOL    HW129219   4.328   5.431   4.357
 9440SOL    HW229220   4.343   5.533   4.231
 9441SOL     OW29221   1.668   3.655   4.919
 9441SOL    HW129222   1.579   3.652   4.964
 9441SOL    HW229223   1.682   3.572   4.866
 9442SOL     OW29224   4.613   3.209   0.095
 9442SOL    HW129225   4.696   3.262   0.109
 9442SOL    HW229226   4.576   3.229   0.004
 9443SOL     OW29227   2.223   5.478   1.219
 9443SOL    HW129228   2.147   5.416   1.201
 9443SOL    HW229229   2.306   5.426   1.240
 9444SOL     OW29230   1.543   3.843   6.557
 9444SOL    HW129231   1.471   3.905   6.590
 9444SOL    HW229232   1.557   3.771   6.625
 9445SOL     OW29233   5.782   3.749   2.763
 9445SOL    HW129234   5.828   3.729   2.850
 9445SOL    HW229235   5.684   3.762   2.778
 9446SOL     OW29236   6.978   6.827   4.064
 9446SOL    HW129237   0.025   6.764   4.071
 9446SOL    HW229238   6.906   6.799   4.127
 9447SOL     OW29239   6.431   3.628   3.324
 9447SOL    HW129240   6.335   3.656   3.311
 9447SOL    HW229241   6.446   3.604   3.420
 9448SOL     OW29242   6.808   6.935   6.274
 9448SOL    HW129243   6.794   7.016   6.217
 9448SOL    HW229244   6.726   6.918   6.329
 9449SOL     OW29245   6.672   5.747   6.542
 9449SOL    HW129246   6.740   5.737   6.615
 9449SOL    HW229247   6.637   5.657   6.518
 9450SOL     OW29248   3.458   5.269   4.971
 9450SOL    HW129249   3.398   5.212   5.027
 9450SOL    HW229250   3.523   5.317   5.029
 9451SOL     OW29251   3.663   6.485   6.365
 9451SOL    HW129252   3.656   6.414   6.296
 9451SOL    HW229253   3.716   6.451   6.443
 9452SOL     OW29254   1.097   3.545   0.789
 9452SOL    HW129255   1.095   3.619   0.856
 9452SOL    HW229256   1.036   3.567   0.713
 9453SOL     OW29257   2.259   5.193   3.829
 9453SOL    HW129258   2.339   5.253   3.839
 9453SOL    HW229259   2.238   5.150   3.916
 9454SOL     OW29260   2.155   3.662   6.676
 9454SOL    HW129261   2.089   3.604   6.721
 9454SOL    HW229262   2.202   3.611   6.604
 9455SOL     OW29263   4.135   1.750   2.955
 9455SOL    HW129264   4.194   1.771   2.877
 9455SOL    HW229265   4.157   1.658   2.989
 9456SOL     OW29266   0.907   3.830   0.703
 9456SOL    HW129267   0.990   3.829   0.647
 9456SOL    HW229268   0.921   3.888   0.783
 9457SOL     OW29269   2.328   4.233   5.312
 9457SOL    HW129270   2.329   4.147   5.261
 9457SOL    HW229271   2.335   4.213   5.410
 9458SOL     OW29272   1.185   2.905   6.644
 9458SOL    HW129273   1.207   2.836   6.575
 9458SOL    HW229274   1.158   2.990   6.599
 9459SOL     OW29275   5.645   4.786   2.730
 9459SOL    HW129276   5.683   4.723   2.662
 9459SOL    HW229277   5.720   4.833   2.777
 9460SOL     OW29278   6.825   2.302   4.614
 9460SOL    HW129279   6.864   2.212   4.596
 9460SOL    HW229280   6.735   2.309   4.570
 9461SOL     OW29281   6.612   1.863   2.585
 9461SOL    HW129282   6.617   1.932   2.513
 9461SOL    HW229283   6.622   1.772   2.544
 9462SOL     OW29284   2.108   3.472   3.230
 9462SOL    HW129285   2.083   3.557   3.278
 9462SOL    HW229286   2.117   3.398   3.297
 9463SOL     OW29287   7.005   0.799   1.416
 9463SOL    HW129288   0.044   0.733   1.444
 9463SOL    HW229289   7.028   0.889   1.454
 9464SOL     OW29290   6.449   6.679   0.907
 9464SOL    HW129291   6.418   6.730   0.827
 9464SOL    HW229292   6.373   6.627   0.945
 9465SOL     OW29293   0.671   6.384   3.010
 9465SOL    HW129294   0.665   6.424   2.918
 9465SOL    HW229295   0.656   6.455   3.078
 9466SOL     OW29296   3.741   4.298   5.532
 9466SOL    HW129297   3.722   4.213   5.580
 9466SOL    HW229298   3.776   4.277   5.440
 9467SOL     OW29299   1.262   2.461   1.482
 9467SOL    HW129300   1.207   2.427   1.406
 9467SOL    HW229301   1.359   2.453   1.460
 9468SOL     OW29302   5.800   2.524   6.140
 9468SOL    HW129303   5.868   2.475   6.195
 9468SOL    HW229304   5.709   2.511   6.179
 9469SOL     OW29305   5.749   5.969   1.215
 9469SOL    HW129306   5.777   6.012   1.301
 9469SOL    HW229307   5.828   5.923   1.174
 9470SOL     OW29308   4.607   4.294   5.405
 9470SOL    HW129309   4.577   4.207   5.444
 9470SOL    HW229310   4.705   4.307   5.424
 9471SOL     OW29311   6.347   1.403   4.124
 9471SOL    HW129312   6.296   1.317   4.120
 9471SOL    HW229313   6.440   1.386   4.155
 9472SOL     OW29314   5.935   3.027   4.481
 9472SOL    HW129315   5.886   3.035   4.394
 9472SOL    HW229316   5.925   3.111   4.534
 9473SOL     OW29317   2.402   5.328   5.939
 9473SOL    HW129318   2.376   5.359   5.848
 9473SOL    HW229319   2.458   5.246   5.931
 9474SOL     OW29320   6.645   3.065   0.145
 9474SOL    HW129321   6.579   3.072   0.071
 9474SOL    HW229322   6.679   2.971   0.150
 9475SOL     OW29323   2.849   3.761   0.385
 9475SOL    HW129324   2.781   3.823   0.345
 9475SOL    HW229325   2.853   3.677   0.331
 9476SOL     OW29326   2.917   3.132   5.148
 9476SOL    HW129327   2.988   3.157   5.082
 9476SOL    HW229328   2.828   3.132   5.102
 9477SOL     OW29329   0.444   3.815   2.435
 9477SOL    HW129330   0.424   3.747   2.364
 9477SOL    HW229331   0.474   3.768   2.518
 9478SOL     OW29332   4.933   3.248   5.700
 9478SOL    HW129333   4.922   3.339   5.660
 9478SOL    HW229334   5.024   3.213   5.679
 9479SOL     OW29335   5.365   6.358   7.019
 9479SOL    HW129336   5.454   6.398   6.996
 9479SOL    HW229337   5.318   6.332   6.935
 9480SOL     OW29338   5.283   4.064   0.809
 9480SOL    HW129339   5.349   4.073   0.884
 9480SOL    HW229340   5.255   3.969   0.800
 9481SOL     OW29341   5.677   3.538   1.513
 9481SOL    HW129342   5.635   3.516   1.601
 9481SOL    HW229343   5.739   3.465   1.486
 9482SOL     OW29344   6.851   0.898   3.015
 9482SOL    HW129345   6.931   0.953   2.989
 9482SOL    HW229346   6.768   0.941   2.980
 9483SOL     OW29347   1.683   1.440   1.169
 9483SOL    HW129348   1.735   1.499   1.230
 9483SOL    HW229349   1.712   1.456   1.074
 9484SOL     OW29350   4.088   1.432   2.786
 9484SOL    HW129351   4.001   1.386   2.804
 9484SOL    HW229352   4.145   1.430   2.869
 9485SOL     OW29353   0.804   0.250   2.553
 9485SOL    HW129354   0.801   0.171   2.492
 9485SOL    HW229355   0.881   0.309   2.528
 9486SOL     OW29356   2.529   5.123   1.724
 9486SOL    HW129357   2.515   5.144   1.821
 9486SOL    HW229358   2.460   5.057   1.694
 9487SOL     OW29359   2.921   3.293   3.147
 9487SOL    HW129360   2.906   3.370   3.085
 9487SOL    HW229361   2.863   3.303   3.228
 9488SOL     OW29362   1.898   6.420   1.177
 9488SOL    HW129363   1.969   6.401   1.110
 9488SOL    HW229364   1.823   6.354   1.166
 9489SOL     OW29365   3.946   4.143   1.448
 9489SOL    HW129366   3.900   4.054   1.449
 9489SOL    HW229367   4.004   4.150   1.366
 9490SOL     OW29368   6.476   5.675   0.736
 9490SOL    HW129369   6.421   5.606   0.690
 9490SOL    HW229370   6.444   5.767   0.710
 9491SOL     OW29371   6.962   4.844   3.993
 9491SOL    HW129372   0.009   4.853   4.057
 9491SOL    HW229373   6.876   4.841   4.044
 9492SOL     OW29374   3.554   2.896   2.935
 9492SOL    HW129375   3.463   2.917   2.970
 9492SOL    HW229376   3.562   2.927   2.840
 9493SOL     OW29377   4.143   5.093   3.735
 9493SOL    HW129378   4.060   5.146   3.754
 9493SOL    HW229379   4.146   5.014   3.797
 9494SOL     OW29380   4.503   4.622   1.384
 9494SOL    HW129381   4.425   4.634   1.444
 9494SOL    HW229382   4.509   4.699   1.320
 9495SOL     OW29383   5.779   1.914   4.255
 9495SOL    HW129384   5.868   1.873   4.272
 9495SOL    HW229385   5.791   1.999   4.203
 9496SOL     OW29386   5.664   4.537   0.823
 9496SOL    HW129387   5.564   4.539   0.830
 9496SOL    HW229388   5.690   4.514   0.730
 9497SOL     OW29389   6.111   4.803   7.003
 9497SOL    HW129390   6.164   4.862   6.942
 9497SOL    HW229391   6.055   4.741   6.949
 9498SOL     OW29392   5.441   0.181   5.167
 9498SOL    HW129393   5.503   0.215   5.237
 9498SOL    HW229394   5.351   0.221   5.179
 9499SOL     OW29395   2.220   4.933   6.132
 9499SOL    HW129396   2.156   4.869   6.175
 9499SOL    HW229397   2.307   4.931   6.181
 9500SOL     OW29398   4.505   0.219   1.477
 9500SOL    HW129399   4.589   0.272   1.471
 9500SOL    HW229400   4.506   0.166   1.562
 9501SOL     OW29401   3.332   1.450   4.746
 9501SOL    HW129402   3.267   1.489   4.811
 9501SOL    HW229403   3.391   1.522   4.710
 9502SOL     OW29404   0.326   2.116   4.983
 9502SOL    HW129405   0.257   2.180   4.952
 9502SOL    HW229406   0.350   2.054   4.908
 9503SOL     OW29407   0.578   1.468   0.879
 9503SOL    HW129408   0.544   1.383   0.838
 9503SOL    HW229409   0.500   1.523   0.911
 9504SOL     OW29410   0.463   2.032   0.678
 9504SOL    HW129411   0.521   2.041   0.759
 9504SOL    HW229412   0.377   1.988   0.704
 9505SOL     OW29413   5.421   3.830   3.629
 9505SOL    HW129414   5.483   3.785   3.693
 9505SOL    HW229415   5.345   3.769   3.607
 9506SOL     OW29416   0.482   3.222   6.806
 9506SOL    HW129417   0.440   3.183   6.887
 9506SOL    HW229418   0.438   3.185   6.724
 9507SOL     OW29419   1.055   1.565   3.559
 9507SOL    HW129420   1.054   1.498   3.633
 9507SOL    HW229421   1.114   1.641   3.583
 9508SOL     OW29422   6.060   3.425   0.878
 9508SOL    HW129423   6.127   3.362   0.920
 9508SOL    HW229424   5.974   3.377   0.864
 9509SOL     OW29425   0.970   0.583   5.427
 9509SOL    HW129426   0.920   0.524   5.490
 9509SOL    HW229427   0.909   0.608   5.351
 9510SOL     OW29428   0.752   4.014   2.061
 9510SOL    HW129429   0.783   3.989   2.153
 9510SOL    HW229430   0.723   4.110   2.061
 9511SOL     OW29431   0.786   1.551   7.005
 9511SOL    HW129432   0.869   1.512   6.965
 9511SOL    HW229433   0.764   1.637   6.959
 9512SOL     OW29434   5.706   1.180   1.664
 9512SOL    HW129435   5.797   1.221   1.657
 9512SOL    HW229436   5.679   1.176   1.761
 9513SOL     OW29437   1.753   3.364   5.209
 9513SOL    HW129438   1.845   3.331   5.232
 9513SOL    HW229439   1.742   3.458   5.242
 9514SOL     OW29440   2.258   4.456   6.960
 9514SOL    HW129441   2.271   4.551   6.930
 9514SOL    HW229442   2.339   4.402   6.936
 9515SOL     OW29443   1.378   5.818   0.555
 9515SOL    HW129444   1.441   5.747   0.587
 9515SOL    HW229445   1.372   5.816   0.456
 9516SOL     OW29446   5.771   3.617   5.268
 9516SOL    HW129447   5.862   3.619   5.311
 9516SOL    HW229448   5.730   3.708   5.271
 9517SOL     OW29449   1.357   4.768   0.641
 9517SOL    HW129450   1.439   4.752   0.697
 9517SOL    HW229451   1.372   4.730   0.549
 9518SOL     OW29452   1.300   2.121   0.011
 9518SOL    HW129453   1.321   2.203   6.987
 9518SOL    HW229454   1.385   2.083   0.047
 9519SOL     OW29455   3.893   3.867   3.989
 9519SOL    HW129456   3.814   3.812   3.966
 9519SOL    HW229457   3.863   3.956   4.025
 9520SOL     OW29458   0.468   1.249   2.875
 9520SOL    HW129459   0.512   1.160   2.886
 9520SOL    HW229460   0.508   1.315   2.939
 9521SOL     OW29461   3.690   4.248   1.199
 9521SOL    HW129462   3.738   4.320   1.149
 9521SOL    HW229463   3.665   4.282   1.290
 9522SOL     OW29464   4.395   5.482   1.954
 9522SOL    HW129465   4.320   5.540   1.985
 9522SOL    HW229466   4.475   5.498   2.012
 9523SOL     OW29467   2.459   4.959   5.116
 9523SOL    HW129468   2.538   4.912   5.154
 9523SOL    HW229469   2.378   4.901   5.124
 9524SOL     OW29470   2.257   2.698   0.259
 9524SOL    HW129471   2.234   2.796   0.253
 9524SOL    HW229472   2.187   2.651   0.313
 9525SOL     OW29473   2.228   2.271   5.740
 9525SOL    HW129474   2.153   2.230   5.687
 9525SOL    HW229475   2.308   2.283   5.681
 9526SOL     OW29476   5.939   4.244   1.318
 9526SOL    HW129477   5.994   4.192   1.253
 9526SOL    HW229478   5.996   4.313   1.363
 9527SOL     OW29479   1.516   0.330   4.827
 9527SOL    HW129480   1.416   0.323   4.826
 9527SOL    HW229481   1.555   0.251   4.779
 9528SOL     OW29482   6.939   1.010   0.307
 9528SOL    HW129483   7.003   0.997   0.231
 9528SOL    HW229484   6.966   0.951   0.383
 9529SOL     OW29485   6.014   3.447   6.182
 9529SOL    HW129486   5.939   3.499   6.224
 9529SOL    HW229487   6.079   3.511   6.141
 9530SOL     OW29488   1.561   3.000   3.768
 9530SOL    HW129489   1.499   2.998   3.846
 9530SOL    HW229490   1.519   2.950   3.692
 9531SOL     OW29491   4.859   4.466   2.370
 9531SOL    HW129492   4.944   4.414   2.367
 9531SOL    HW229493   4.782   4.402   2.368
 9532SOL     OW29494   7.024   5.688   1.026
 9532SOL    HW129495   6.979   5.631   0.958
 9532SOL    HW229496   6.976   5.776   1.032
 9533SOL     OW29497   0.901   6.008   4.743
 9533SOL    HW129498   0.960   5.964   4.810
 9533SOL    HW229499   0.866   5.940   4.679
 9534SOL     OW29500   6.486   3.837   5.052
 9534SOL    HW129501   6.582   3.843   5.022
 9534SOL    HW229502   6.427   3.827   4.971
 9535SOL     OW29503   2.026   0.215   5.664
 9535SOL    HW129504   1.951   0.171   5.614
 9535SOL    HW229505   2.035   0.310   5.634
 9536SOL     OW29506   3.051   4.013   4.903
 9536SOL    HW129507   2.965   4.030   4.952
 9536SOL    HW229508   3.051   3.920   4.867
 9537SOL     OW29509   2.680   0.158   4.053
 9537SOL    HW129510   2.752   0.090   4.048
 9537SOL    HW229511   2.604   0.122   4.108
 9538SOL     OW29512   5.444   1.115   4.241
 9538SOL    HW129513   5.394   1.039   4.201
 9538SOL    HW229514   5.394   1.200   4.224
 9539SOL     OW29515   3.562   4.027   4.544
 9539SOL    HW129516   3.492   4.022   4.473
 9539SOL    HW229517   3.532   4.090   4.615
 9540SOL     OW29518   6.024   4.820   4.027
 9540SOL    HW129519   6.057   4.774   4.110
 9540SOL    HW229520   5.983   4.908   4.051
 9541SOL     OW29521   3.103   0.404   6.028
 9541SOL    HW129522   3.112   0.304   6.027
 9541SOL    HW229523   3.186   0.446   5.991
 9542SOL     OW29524   5.272   4.734   4.828
 9542SOL    HW129525   5.278   4.634   4.824
 9542SOL    HW229526   5.323   4.767   4.907
 9543SOL     OW29527   3.077   0.606   5.702
 9543SOL    HW129528   3.042   0.683   5.756
 9543SOL    HW229529   3.151   0.562   5.753
 9544SOL     OW29530   6.066   2.886   3.786
 9544SOL    HW129531   6.057   2.953   3.713
 9544SOL    HW229532   6.009   2.913   3.864
 9545SOL     OW29533   5.444   5.648   3.664
 9545SOL    HW129534   5.421   5.696   3.749
 9545SOL    HW229535   5.369   5.658   3.599
 9546SOL     OW29536   3.756   2.248   5.548
 9546SOL    HW129537   3.741   2.277   5.454
 9546SOL    HW229538   3.787   2.326   5.603
 9547SOL     OW29539   2.230   5.109   4.079
 9547SOL    HW129540   2.268   5.199   4.099
 9547SOL    HW229541   2.272   5.041   4.140
 9548SOL     OW29542   6.781   4.907   5.323
 9548SOL    HW129543   6.848   4.857   5.269
 9548SOL    HW229544   6.690   4.871   5.305
 9549SOL     OW29545   3.222   2.460   1.438
 9549SOL    HW129546   3.203   2.487   1.532
 9549SOL    HW229547   3.284   2.527   1.397
 9550SOL     OW29548   6.706   0.680   0.519
 9550SOL    HW129549   6.684   0.701   0.423
 9550SOL    HW229550   6.691   0.762   0.575
 9551SOL     OW29551   5.547   2.432   6.172
 9551SOL    HW129552   5.506   2.341   6.180
 9551SOL    HW229553   5.529   2.468   6.080
 9552SOL     OW29554   1.787   6.466   4.041
 9552SOL    HW129555   1.820   6.442   4.132
 9552SOL    HW229556   1.728   6.546   4.047
 9553SOL     OW29557   6.080   2.274   6.613
 9553SOL    HW129558   6.140   2.334   6.560
 9553SOL    HW229559   6.089   2.180   6.581
 9554SOL     OW29560   2.566   0.276   2.808
 9554SOL    HW129561   2.546   0.248   2.902
 9554SOL    HW229562   2.542   0.203   2.745
 9555SOL     OW29563   0.968   1.201   2.362
 9555SOL    HW129564   0.983   1.102   2.365
 9555SOL    HW229565   0.935   1.232   2.451
 9556SOL     OW29566   1.828   3.968   1.975
 9556SOL    HW129567   1.832   4.027   1.895
 9556SOL    HW229568   1.774   3.886   1.954
 9557SOL     OW29569   6.565   6.258   1.713
 9557SOL    HW129570   6.644   6.303   1.671
 9557SOL    HW229571   6.562   6.281   1.811
 9558SOL     OW29572   6.071   5.776   5.551
 9558SOL    HW129573   6.158   5.825   5.550
 9558SOL    HW229574   6.039   5.768   5.645
 9559SOL     OW29575   0.356   4.624   0.968
 9559SOL    HW129576   0.448   4.635   0.930
 9559SOL    HW229577   0.308   4.712   0.965
 9560SOL     OW29578   2.018   1.052   3.802
 9560SOL    HW129579   2.040   1.095   3.889
 9560SOL    HW229580   2.086   1.081   3.733
 9561SOL     OW29581   2.461   0.830   0.578
 9561SOL    HW129582   2.445   0.740   0.539
 9561SOL    HW229583   2.393   0.849   0.649
 9562SOL     OW29584   2.426   0.310   5.447
 9562SOL    HW129585   2.521   0.284   5.429
 9562SOL    HW229586   2.381   0.237   5.500
 9563SOL     OW29587   0.543   6.230   0.543
 9563SOL    HW129588   0.580   6.142   0.512
 9563SOL    HW229589   0.482   6.214   0.620
 9564SOL     OW29590   2.639   1.185   0.952
 9564SOL    HW129591   2.662   1.099   0.998
 9564SOL    HW229592   2.565   1.170   0.887
 9565SOL     OW29593   4.330   0.998   4.450
 9565SOL    HW129594   4.266   0.923   4.469
 9565SOL    HW229595   4.347   1.048   4.535
 9566SOL     OW29596   2.606   4.941   6.900
 9566SOL    HW129597   2.634   5.035   6.882
 9566SOL    HW229598   2.645   4.880   6.831
 9567SOL     OW29599   4.980   4.999   0.622
 9567SOL    HW129600   4.887   5.030   0.603
 9567SOL    HW229601   4.982   4.899   0.624
 9568SOL     OW29602   4.309   2.537   6.222
 9568SOL    HW129603   4.282   2.628   6.189
 9568SOL    HW229604   4.237   2.471   6.202
 9569SOL     OW29605   6.711   1.174   2.512
 9569SOL    HW129606   6.710   1.135   2.420
 9569SOL    HW229607   6.622   1.156   2.556
 9570SOL     OW29608   0.495   3.543   1.682
 9570SOL    HW129609   0.547   3.587   1.755
 9570SOL    HW229610   0.453   3.459   1.718
 9571SOL     OW29611   3.510   4.021   6.201
 9571SOL    HW129612   3.533   4.002   6.105
 9571SOL    HW229613   3.477   4.115   6.209
 9572SOL     OW29614   2.420   4.975   2.081
 9572SOL    HW129615   2.519   4.960   2.078
 9572SOL    HW229616   2.376   4.899   2.129
 9573SOL     OW29617   0.559   2.878   6.759
 9573SOL    HW129618   0.566   2.806   6.829
 9573SOL    HW229619   0.639   2.938   6.765
 9574SOL     OW29620   4.048   3.629   2.867
 9574SOL    HW129621   3.966   3.573   2.855
 9574SOL    HW229622   4.031   3.700   2.935
 9575SOL     OW29623   0.398   1.124   1.520
 9575SOL    HW129624   0.458   1.178   1.461
 9575SOL    HW229625   0.452   1.080   1.592
 9576SOL     OW29626   1.849   1.303   1.621
 9576SOL    HW129627   1.874   1.206   1.629
 9576SOL    HW229628   1.930   1.360   1.637
 9577SOL     OW29629   0.979   0.722   6.133
 9577SOL    HW129630   0.983   0.625   6.107
 9577SOL    HW229631   1.071   0.759   6.141
 9578SOL     OW29632   0.522   3.739   3.422
 9578SOL    HW129633   0.433   3.697   3.405
 9578SOL    HW229634   0.529   3.764   3.519
 9579SOL     OW29635   1.339   5.298   2.888
 9579SOL    HW129636   1.355   5.395   2.910
 9579SOL    HW229637   1.243   5.286   2.862
 9580SOL     OW29638   5.015   3.955   0.928
 9580SOL    HW129639   4.998   3.872   0.982
 9580SOL    HW229640   5.106   3.991   0.950
 9581SOL     OW29641   0.501   5.709   5.824
 9581SOL    HW129642   0.543   5.654   5.752
 9581SOL    HW229643   0.448   5.783   5.783
 9582SOL     OW29644   4.958   5.340   5.831
 9582SOL    HW129645   4.899   5.281   5.886
 9582SOL    HW229646   5.018   5.393   5.892
 9583SOL     OW29647   3.609   4.297   1.455
 9583SOL    HW129648   3.600   4.328   1.550
 9583SOL    HW229649   3.673   4.220   1.451
 9584SOL     OW29650   6.929   5.582   6.739
 9584SOL    HW129651   6.907   5.513   6.807
 9584SOL    HW229652   6.909   5.546   6.647
 9585SOL     OW29653   6.643   6.906   4.948
 9585SOL    HW129654   6.587   6.961   4.887
 9585SOL    HW229655   6.656   6.815   4.910
 9586SOL     OW29656   5.633   4.645   2.275
 9586SOL    HW129657   5.597   4.716   2.215
 9586SOL    HW229658   5.639   4.559   2.224
 9587SOL     OW29659   0.698   0.659   1.588
 9587SOL    HW129660   0.720   0.612   1.503
 9587SOL    HW229661   0.781   0.669   1.643
 9588SOL     OW29662   6.755   1.155   1.321
 9588SOL    HW129663   6.712   1.111   1.400
 9588SOL    HW229664   6.848   1.183   1.345
 9589SOL     OW29665   2.320   4.954   6.993
 9589SOL    HW129666   2.336   4.859   7.021
 9589SOL    HW229667   2.404   4.989   6.950
 9590SOL     OW29668   6.671   2.849   2.085
 9590SOL    HW129669   6.721   2.780   2.138
 9590SOL    HW229670   6.582   2.865   2.126
 9591SOL     OW29671   2.961   5.923   5.752
 9591SOL    HW129672   2.902   5.870   5.691
 9591SOL    HW229673   2.982   5.869   5.833
 9592SOL     OW29674   3.559   4.508   0.860
 9592SOL    HW129675   3.550   4.605   0.881
 9592SOL    HW229676   3.484   4.457   0.902
 9593SOL     OW29677   0.262   0.803   6.024
 9593SOL    HW129678   0.351   0.777   5.987
 9593SOL    HW229679   0.239   0.743   6.100
 9594SOL     OW29680   1.175   5.168   2.370
 9594SOL    HW129681   1.191   5.092   2.307
 9594SOL    HW229682   1.119   5.138   2.447
 9595SOL     OW29683   0.454   3.869   5.267
 9595SOL    HW129684   0.414   3.842   5.179
 9595SOL    HW229685   0.549   3.895   5.253
 9596SOL     OW29686   6.997   5.189   6.577
 9596SOL    HW129687   6.915   5.137   6.556
 9596SOL    HW229688   0.047   5.144   6.537
 9597SOL     OW29689   0.488   4.234   1.463
 9597SOL    HW129690   0.406   4.177   1.454
 9597SOL    HW229691   0.552   4.212   1.390
 9598SOL     OW29692   1.802   4.086   4.308
 9598SOL    HW129693   1.711   4.061   4.339
 9598SOL    HW229694   1.794   4.144   4.227
 9599SOL     OW29695   3.613   0.233   4.868
 9599SOL    HW129696   3.569   0.313   4.909
 9599SOL    HW229697   3.559   0.151   4.888
 9600SOL     OW29698   2.444   6.631   6.747
 9600SOL    HW129699   2.380   6.588   6.811
 9600SOL    HW229700   2.461   6.571   6.669
 9601SOL     OW29701   4.868   4.036   1.296
 9601SOL    HW129702   4.788   4.047   1.355
 9601SOL    HW229703   4.934   4.108   1.316
 9602SOL     OW29704   6.377   4.887   6.196
 9602SOL    HW129705   6.311   4.921   6.129
 9602SOL    HW229706   6.329   4.835   6.266
 9603SOL     OW29707   4.002   1.505   4.110
 9603SOL    HW129708   3.986   1.468   4.202
 9603SOL    HW229709   3.946   1.456   4.044
 9604SOL     OW29710   4.371   0.248   6.632
 9604SOL    HW129711   4.361   0.156   6.670
 9604SOL    HW229712   4.422   0.243   6.546
 9605SOL     OW29713   0.747   5.493   3.438
 9605SOL    HW129714   0.666   5.548   3.420
 9605SOL    HW229715   0.802   5.537   3.509
 9606SOL     OW29716   1.877   6.570   6.749
 9606SOL    HW129717   1.951   6.617   6.797
 9606SOL    HW229718   1.915   6.497   6.692
 9607SOL     OW29719   1.843   1.724   0.201
 9607SOL    HW129720   1.937   1.737   0.169
 9607SOL    HW229721   1.806   1.811   0.231
 9608SOL     OW29722   6.735   5.353   2.352
 9608SOL    HW129723   6.777   5.424   2.295
 9608SOL    HW229724   6.753   5.373   2.448
 9609SOL     OW29725   2.239   4.443   6.377
 9609SOL    HW129726   2.215   4.381   6.452
 9609SOL    HW229727   2.212   4.402   6.290
 9610SOL     OW29728   1.510   5.151   4.217
 9610SOL    HW129729   1.599   5.145   4.262
 9610SOL    HW229730   1.460   5.066   4.230
 9611SOL     OW29731   0.533   6.365   6.839
 9611SOL    HW129732   0.498   6.288   6.892
 9611SOL    HW229733   0.458   6.406   6.785
 9612SOL     OW29734   0.484   3.846   2.046
 9612SOL    HW129735   0.540   3.896   2.112
 9612SOL    HW229736   0.527   3.757   2.029
 9613SOL     OW29737   4.950   6.471   3.268
 9613SOL    HW129738   5.048   6.492   3.266
 9613SOL    HW229739   4.938   6.372   3.270
 9614SOL     OW29740   3.167   2.074   0.589
 9614SOL    HW129741   3.142   2.112   0.500
 9614SOL    HW229742   3.123   1.985   0.600
 9615SOL     OW29743   1.203   0.020   0.525
 9615SOL    HW129744   1.245   0.105   0.555
 9615SOL    HW229745   1.191   6.990   0.604
 9616SOL     OW29746   4.069   4.144   1.221
 9616SOL    HW129747   4.140   4.073   1.216
 9616SOL    HW229748   3.987   4.112   1.174
 9617SOL     OW29749   2.271   2.721   3.511
 9617SOL    HW129750   2.212   2.643   3.529
 9617SOL    HW229751   2.215   2.800   3.487
 9618SOL     OW29752   3.892   6.745   5.399
 9618SOL    HW129753   3.976   6.715   5.443
 9618SOL    HW229754   3.840   6.803   5.463
 9619SOL     OW29755   1.169   6.859   0.346
 9619SOL    HW129756   1.204   6.945   0.383
 9619SOL    HW229757   1.080   6.876   0.303
 9620SOL     OW29758   4.180   2.226   0.076
 9620SOL    HW129759   4.146   2.264   0.162
 9620SOL    HW229760   4.102   2.208   0.015
 9621SOL     OW29761   0.681   1.051   2.166
 9621SOL    HW129762   0.721   0.970   2.209
 9621SOL    HW229763   0.752   1.101   2.116
 9622SOL     OW29764   5.955   1.138   0.169
 9622SOL    HW129765   5.873   1.083   0.154
 9622SOL    HW229766   6.021   1.121   0.097
 9623SOL     OW29767   3.103   4.861   6.075
 9623SOL    HW129768   3.017   4.907   6.056
 9623SOL    HW229769   3.149   4.838   5.989
 9624SOL     OW29770   6.474   4.557   2.188
 9624SOL    HW129771   6.485   4.656   2.173
 9624SOL    HW229772   6.418   4.542   2.269
 9625SOL     OW29773   5.324   5.702   0.140
 9625SOL    HW129774   5.417   5.725   0.168
 9625SOL    HW229775   5.260   5.766   0.182
 9626SOL     OW29776   3.311   6.206   6.927
 9626SOL    HW129777   3.226   6.187   6.879
 9626SOL    HW229778   3.299   6.190   7.025
 9627SOL     OW29779   7.005   5.438   3.163
 9627SOL    HW129780   6.919   5.401   3.199
 9627SOL    HW229781   0.037   5.362   3.141
 9628SOL     OW29782   5.469   5.476   6.867
 9628SOL    HW129783   5.438   5.417   6.942
 9628SOL    HW229784   5.559   5.445   6.836
 9629SOL     OW29785   0.416   6.578   2.872
 9629SOL    HW129786   0.353   6.620   2.807
 9629SOL    HW229787   0.495   6.542   2.822
 9630SOL     OW29788   6.688   6.208   5.718
 9630SOL    HW129789   6.783   6.185   5.737
 9630SOL    HW229790   6.635   6.205   5.803
 9631SOL     OW29791   6.039   0.202   0.051
 9631SOL    HW129792   6.034   0.118   0.106
 9631SOL    HW229793   5.966   0.264   0.081
 9632SOL     OW29794   2.211   5.283   2.743
 9632SOL    HW129795   2.271   5.304   2.666
 9632SOL    HW229796   2.156   5.363   2.766
 9633SOL     OW29797   5.397   5.278   0.003
 9633SOL    HW129798   5.461   5.242   0.070
 9633SOL    HW229799   5.337   5.205   7.000
 9634SOL     OW29800   0.851   0.171   4.270
 9634SOL    HW129801   0.920   0.195   4.202
 9634SOL    HW229802   0.813   0.081   4.248
 9635SOL     OW29803   1.331   5.062   5.581
 9635SOL    HW129804   1.387   4.980   5.587
 9635SOL    HW229805   1.265   5.063   5.656
 9636SOL     OW29806   4.058   1.852   6.293
 9636SOL    HW129807   3.964   1.824   6.273
 9636SOL    HW229808   4.091   1.910   6.218
 9637SOL     OW29809   3.004   1.885   6.616
 9637SOL    HW129810   2.952   1.927   6.542
 9637SOL    HW229811   2.993   1.939   6.700
 9638SOL     OW29812   6.825   3.508   6.897
 9638SOL    HW129813   6.881   3.569   6.954
 9638SOL    HW229814   6.790   3.433   6.953
 9639SOL     OW29815   3.785   1.323   2.039
 9639SOL    HW129816   3.831   1.380   1.971
 9639SOL    HW229817   3.699   1.366   2.066
 9640SOL     OW29818   3.295   1.855   2.893
 9640SOL    HW129819   3.292   1.783   2.823
 9640SOL    HW229820   3.205   1.862   2.936
 9641SOL     OW29821   5.528   6.364   1.079
 9641SOL    HW129822   5.546   6.266   1.074
 9641SOL    HW229823   5.588   6.405   1.148
 9642SOL     OW29824   3.016   6.009   5.192
 9642SOL    HW129825   3.104   6.021   5.238
 9642SOL    HW229826   2.954   6.082   5.221
 9643SOL     OW29827   5.968   4.623   4.222
 9643SOL    HW129828   5.876   4.654   4.248
 9643SOL    HW229829   6.037   4.680   4.266
 9644SOL     OW29830   1.075   5.232   4.988
 9644SOL    HW129831   0.975   5.239   4.988
 9644SOL    HW229832   1.103   5.163   4.921
 9645SOL     OW29833   3.901   4.840   4.053
 9645SOL    HW129834   3.834   4.874   4.119
 9645SOL    HW229835   3.868   4.756   4.012
 9646SOL     OW29836   2.877   4.778   2.182
 9646SOL    HW129837   2.891   4.725   2.099
 9646SOL    HW229838   2.800   4.740   2.234
 9647SOL     OW29839   6.904   5.370   1.202
 9647SOL    HW129840   6.914   5.463   1.166
 9647SOL    HW229841   6.826   5.366   1.264
 9648SOL     OW29842   3.637   1.736   0.036
 9648SOL    HW129843   3.684   1.768   0.118
 9648SOL    HW229844   3.702   1.727   6.991
 9649SOL     OW29845   3.178   5.723   0.134
 9649SOL    HW129846   3.209   5.697   0.226
 9649SOL    HW229847   3.123   5.806   0.140
 9650SOL     OW29848   5.091   4.430   3.166
 9650SOL    HW129849   5.030   4.485   3.108
 9650SOL    HW229850   5.083   4.461   3.260
 9651SOL     OW29851   6.518   0.770   6.974
 9651SOL    HW129852   6.558   0.839   0.006
 9651SOL    HW229853   6.512   0.808   6.882
 9652SOL     OW29854   2.024   4.338   0.486
 9652SOL    HW129855   2.032   4.437   0.494
 9652SOL    HW229856   2.082   4.307   0.410
 9653SOL     OW29857   4.348   5.555   5.228
 9653SOL    HW129858   4.367   5.652   5.211
 9653SOL    HW229859   4.371   5.502   5.146
 9654SOL     OW29860   3.893   3.284   1.668
 9654SOL    HW129861   3.991   3.303   1.681
 9654SOL    HW229862   3.857   3.240   1.750
 9655SOL     OW29863   7.007   1.258   0.028
 9655SOL    HW129864   0.016   1.166   0.028
 9655SOL    HW229865   0.025   1.315   6.991
 9656SOL     OW29866   3.516   2.419   0.956
 9656SOL    HW129867   3.428   2.448   0.994
 9656SOL    HW229868   3.557   2.350   1.015
 9657SOL     OW29869   6.491   2.043   3.439
 9657SOL    HW129870   6.498   1.944   3.425
 9657SOL    HW229871   6.435   2.083   3.368
 9658SOL     OW29872   6.118   1.440   2.561
 9658SOL    HW129873   6.060   1.403   2.634
 9658SOL    HW229874   6.067   1.440   2.475
 9659SOL     OW29875   0.087   4.032   0.451
 9659SOL    HW129876   0.175   4.048   0.406
 9659SOL    HW229877   0.087   4.074   0.542
 9660SOL     OW29878   0.437   5.886   1.407
 9660SOL    HW129879   0.379   5.837   1.471
 9660SOL    HW229880   0.432   5.843   1.317
 9661SOL     OW29881   3.571   6.404   1.772
 9661SOL    HW129882   3.632   6.453   1.710
 9661SOL    HW229883   3.602   6.417   1.867
 9662SOL     OW29884   4.971   2.854   5.124
 9662SOL    HW129885   4.918   2.779   5.084
 9662SOL    HW229886   4.917   2.938   5.121
 9663SOL     OW29887   0.650   6.182   4.508
 9663SOL    HW129888   0.618   6.104   4.562
 9663SOL    HW229889   0.721   6.230   4.559
 9664SOL     OW29890   5.857   6.791   3.833
 9664SOL    HW129891   5.882   6.731   3.757
 9664SOL    HW229892   5.938   6.838   3.867
 9665SOL     OW29893   5.226   6.058   6.853
 9665SOL    HW129894   5.305   6.064   6.792
 9665SOL    HW229895   5.205   5.962   6.871
 9666SOL     OW29896   5.752   4.039   1.186
 9666SOL    HW129897   5.844   4.027   1.150
 9666SOL    HW229898   5.706   3.950   1.191
 9667SOL     OW29899   3.738   3.731   5.052
 9667SOL    HW129900   3.779   3.641   5.037
 9667SOL    HW229901   3.642   3.730   5.023
 9668SOL     OW29902   6.359   1.408   6.718
 9668SOL    HW129903   6.440   1.358   6.688
 9668SOL    HW229904   6.375   1.445   6.809
 9669SOL     OW29905   1.294   0.114   2.122
 9669SOL    HW129906   1.361   0.043   2.105
 9669SOL    HW229907   1.299   0.143   2.217
 9670SOL     OW29908   5.470   4.733   6.063
 9670SOL    HW129909   5.432   4.670   6.130
 9670SOL    HW229910   5.443   4.826   6.085
 9671SOL     OW29911   5.890   5.724   6.906
 9671SOL    HW129912   5.914   5.629   6.924
 9671SOL    HW229913   5.902   5.744   6.809
 9672SOL     OW29914   1.425   5.838   4.333
 9672SOL    HW129915   1.520   5.829   4.364
 9672SOL    HW229916   1.407   5.770   4.262
 9673SOL     OW29917   5.779   4.007   0.045
 9673SOL    HW129918   5.708   3.983   7.009
 9673SOL    HW229919   5.769   3.951   0.127
 9674SOL     OW29920   2.739   5.846   3.076
 9674SOL    HW129921   2.731   5.816   2.981
 9674SOL    HW229922   2.685   5.786   3.135
 9675SOL     OW29923   6.058   2.403   0.431
 9675SOL    HW129924   6.043   2.449   0.518
 9675SOL    HW229925   5.991   2.436   0.364
 9676SOL     OW29926   1.431   3.519   5.492
 9676SOL    HW129927   1.363   3.583   5.529
 9676SOL    HW229928   1.387   3.431   5.473
 9677SOL     OW29929   1.818   5.783   5.278
 9677SOL    HW129930   1.819   5.860   5.341
 9677SOL    HW229931   1.796   5.699   5.329
 9678SOL     OW29932   3.195   3.396   2.968
 9678SOL    HW129933   3.113   3.428   3.016
 9678SOL    HW229934   3.228   3.312   3.010
 9679SOL     OW29935   2.473   1.175   2.596
 9679SOL    HW129936   2.405   1.112   2.635
 9679SOL    HW229937   2.448   1.196   2.501
 9680SOL     OW29938   5.580   0.744   3.042
 9680SOL    HW129939   5.484   0.718   3.052
 9680SOL    HW229940   5.586   0.842   3.023
 9681SOL     OW29941   3.537   1.317   6.775
 9681SOL    HW129942   3.573   1.225   6.793
 9681SOL    HW229943   3.600   1.384   6.813
 9682SOL     OW29944   4.980   5.044   4.274
 9682SOL    HW129945   4.940   5.006   4.191
 9682SOL    HW229946   4.967   5.143   4.276
 9683SOL     OW29947   2.687   5.432   1.044
 9683SOL    HW129948   2.594   5.409   1.016
 9683SOL    HW229949   2.750   5.410   0.969
 9684SOL     OW29950   0.713   2.686   5.189
 9684SOL    HW129951   0.749   2.770   5.149
 9684SOL    HW229952   0.646   2.709   5.260
 9685SOL     OW29953   2.089   3.996   1.414
 9685SOL    HW129954   2.137   4.022   1.331
 9685SOL    HW229955   2.015   3.933   1.391
 9686SOL     OW29956   6.907   1.265   0.411
 9686SOL    HW129957   6.981   1.315   0.457
 9686SOL    HW229958   6.921   1.166   0.424
 9687SOL     OW29959   2.067   0.423   4.222
 9687SOL    HW129960   1.973   0.449   4.242
 9687SOL    HW229961   2.114   0.402   4.308
 9688SOL     OW29962   6.747   2.059   2.719
 9688SOL    HW129963   6.706   1.993   2.657
 9688SOL    HW229964   6.733   2.030   2.814
 9689SOL     OW29965   1.498   6.105   0.332
 9689SOL    HW129966   1.498   6.172   0.406
 9689SOL    HW229967   1.591   6.073   0.316
 9690SOL     OW29968   6.089   6.057   6.459
 9690SOL    HW129969   6.084   6.145   6.411
 9690SOL    HW229970   6.000   6.035   6.498
 9691SOL     OW29971   2.979   4.927   1.927
 9691SOL    HW129972   2.965   4.869   1.847
 9691SOL    HW229973   3.020   4.873   2.000
 9692SOL     OW29974   3.488   5.306   2.996
 9692SOL    HW129975   3.446   5.249   2.925
 9692SOL    HW229976   3.478   5.261   3.085
 9693SOL     OW29977   6.463   5.833   1.403
 9693SOL    HW129978   6.380   5.863   1.356
 9693SOL    HW229979   6.514   5.771   1.344
 9694SOL     OW29980   2.091   0.989   0.033
 9694SOL    HW129981   2.173   1.039   0.006
 9694SOL    HW229982   2.020   1.003   6.994
 9695SOL     OW29983   0.290   3.429   1.854
 9695SOL    HW129984   0.258   3.359   1.791
 9695SOL    HW229985   0.239   3.514   1.838
 9696SOL     OW29986   5.083   3.516   0.678
 9696SOL    HW129987   5.018   3.593   0.684
 9696SOL    HW229988   5.088   3.485   0.583
 9697SOL     OW29989   6.963   6.206   6.215
 9697SOL    HW129990   6.980   6.251   6.127
 9697SOL    HW229991   7.029   6.239   6.283
 9698SOL     OW29992   4.833   1.728   6.080
 9698SOL    HW129993   4.811   1.826   6.072
 9698SOL    HW229994   4.877   1.711   6.168
 9699SOL     OW29995   0.091   5.194   6.840
 9699SOL    HW129996   0.057   5.211   6.932
 9699SOL    HW229997   0.030   5.238   6.773
 9700SOL     OW29998   4.625   5.253   4.914
 9700SOL    HW129999   4.683   5.327   4.880
 9700SOL    HW230000   4.618   5.182   4.844
 9701SOL     OW30001   3.984   5.191   4.939
 9701SOL    HW130002   3.969   5.282   4.979
 9701SOL    HW230003   3.922   5.125   4.983
 9702SOL     OW30004   5.128   0.414   0.235
 9702SOL    HW130005   5.177   0.419   0.322
 9702SOL    HW230006   5.030   0.410   0.252
 9703SOL     OW30007   4.484   5.116   4.167
 9703SOL    HW130008   4.410   5.118   4.234
 9703SOL    HW230009   4.474   5.036   4.108
 9704SOL     OW30010   2.612   1.138   3.171
 9704SOL    HW130011   2.682   1.143   3.100
 9704SOL    HW230012   2.526   1.174   3.136
 9705SOL     OW30013   4.847   5.279   6.307
 9705SOL    HW130014   4.931   5.227   6.325
 9705SOL    HW230015   4.770   5.236   6.352
 9706SOL     OW30016   0.791   2.804   0.834
 9706SOL    HW130017   0.806   2.886   0.891
 9706SOL    HW230018   0.863   2.738   0.852
 9707SOL     OW30019   6.077   4.429   1.477
 9707SOL    HW130020   6.119   4.472   1.558
 9707SOL    HW230021   6.129   4.455   1.396
 9708SOL     OW30022   1.496   2.083   2.560
 9708SOL    HW130023   1.545   2.002   2.528
 9708SOL    HW230024   1.410   2.093   2.509
 9709SOL     OW30025   5.900   6.031   2.810
 9709SOL    HW130026   5.920   5.936   2.834
 9709SOL    HW230027   5.974   6.068   2.754
 9710SOL     OW30028   0.038   1.481   1.783
 9710SOL    HW130029   0.110   1.514   1.844
 9710SOL    HW230030   0.074   1.408   1.725
 9711SOL     OW30031   2.487   4.486   6.058
 9711SOL    HW130032   2.445   4.552   6.120
 9711SOL    HW230033   2.415   4.435   6.010
 9712SOL     OW30034   5.806   4.528   6.308
 9712SOL    HW130035   5.837   4.436   6.284
 9712SOL    HW230036   5.715   4.543   6.269
 9713SOL     OW30037   1.270   5.089   3.599
 9713SOL    HW130038   1.333   5.020   3.634
 9713SOL    HW230039   1.193   5.098   3.662
 9714SOL     OW30040   2.861   1.346   1.054
 9714SOL    HW130041   2.778   1.319   1.005
 9714SOL    HW230042   2.912   1.264   1.080
 9715SOL     OW30043   5.344   4.031   6.122
 9715SOL    HW130044   5.305   4.028   6.214
 9715SOL    HW230045   5.442   4.012   6.127
 9716SOL     OW30046   4.267   3.019   6.621
 9716SOL    HW130047   4.322   3.018   6.705
 9716SOL    HW230048   4.321   3.059   6.547
 9717SOL     OW30049   5.346   5.785   5.850
 9717SOL    HW130050   5.324   5.851   5.922
 9717SOL    HW230051   5.268   5.779   5.786
 9718SOL     OW30052   5.003   2.369   1.130
 9718SOL    HW130053   5.012   2.349   1.032
 9718SOL    HW230054   4.967   2.461   1.142
 9719SOL     OW30055   0.006   1.793   6.778
 9719SOL    HW130056   0.092   1.788   6.829
 9719SOL    HW230057   0.012   1.865   6.709
 9720SOL     OW30058   6.866   5.592   2.260
 9720SOL    HW130059   6.923   5.534   2.202
 9720SOL    HW230060   6.808   5.650   2.203
 9721SOL     OW30061   0.238   3.168   1.261
 9721SOL    HW130062   0.313   3.162   1.195
 9721SOL    HW230063   0.244   3.092   1.326
 9722SOL     OW30064   6.929   0.340   4.248
 9722SOL    HW130065   6.979   0.335   4.335
 9722SOL    HW230066   6.899   0.434   4.233
 9723SOL     OW30067   2.223   6.329   3.397
 9723SOL    HW130068   2.306   6.291   3.357
 9723SOL    HW230069   2.174   6.259   3.448
 9724SOL     OW30070   1.926   3.294   0.532
 9724SOL    HW130071   1.967   3.240   0.606
 9724SOL    HW230072   1.878   3.232   0.469
 9725SOL     OW30073   3.254   4.585   6.498
 9725SOL    HW130074   3.214   4.655   6.439
 9725SOL    HW230075   3.353   4.583   6.486
 9726SOL     OW30076   5.301   0.701   3.865
 9726SOL    HW130077   5.270   0.607   3.874
 9726SOL    HW230078   5.228   0.757   3.825
 9727SOL     OW30079   0.804   3.314   5.651
 9727SOL    HW130080   0.757   3.402   5.637
 9727SOL    HW230081   0.902   3.327   5.640
 9728SOL     OW30082   0.479   0.316   6.410
 9728SOL    HW130083   0.467   0.223   6.443
 9728SOL    HW230084   0.422   0.331   6.329
 9729SOL     OW30085   0.927   4.031   3.134
 9729SOL    HW130086   0.997   4.097   3.107
 9729SOL    HW230087   0.891   3.986   3.052
 9730SOL     OW30088   0.908   3.470   3.191
 9730SOL    HW130089   0.833   3.404   3.194
 9730SOL    HW230090   0.919   3.503   3.098
 9731SOL     OW30091   4.322   4.190   0.967
 9731SOL    HW130092   4.230   4.168   0.935
 9731SOL    HW230093   4.322   4.279   1.012
 9732SOL     OW30094   5.609   5.653   2.784
 9732SOL    HW130095   5.652   5.625   2.870
 9732SOL    HW230096   5.534   5.717   2.804
 9733SOL     OW30097   5.611   5.004   0.569
 9733SOL    HW130098   5.687   5.022   0.632
 9733SOL    HW230099   5.609   4.907   0.546
 9734SOL     OW30100   6.375   1.361   2.570
 9734SOL    HW130101   6.408   1.371   2.476
 9734SOL    HW230102   6.277   1.379   2.574
 9735SOL     OW30103   2.392   4.487   3.044
 9735SOL    HW130104   2.404   4.419   3.117
 9735SOL    HW230105   2.460   4.560   3.055
 9736SOL     OW30106   6.029   1.980   6.007
 9736SOL    HW130107   6.056   1.950   6.099
 9736SOL    HW230108   6.110   1.988   5.949
 9737SOL     OW30109   6.559   3.176   4.386
 9737SOL    HW130110   6.579   3.124   4.470
 9737SOL    HW230111   6.467   3.213   4.392
 9738SOL     OW30112   1.931   6.979   1.860
 9738SOL    HW130113   2.001   0.019   1.844
 9738SOL    HW230114   1.841   7.022   1.865
 9739SOL     OW30115   6.061   5.394   2.500
 9739SOL    HW130116   6.011   5.473   2.465
 9739SOL    HW230117   6.102   5.417   2.588
 9740SOL     OW30118   6.744   2.081   3.332
 9740SOL    HW130119   6.752   1.997   3.279
 9740SOL    HW230120   6.648   2.100   3.350
 9741SOL     OW30121   5.100   2.083   2.436
 9741SOL    HW130122   5.112   2.179   2.409
 9741SOL    HW230123   5.075   2.079   2.533
 9742SOL     OW30124   3.887   0.585   1.445
 9742SOL    HW130125   3.816   0.537   1.497
 9742SOL    HW230126   3.894   0.679   1.477
 9743SOL     OW30127   0.856   2.070   4.325
 9743SOL    HW130128   0.881   2.044   4.232
 9743SOL    HW230129   0.935   2.113   4.369
 9744SOL     OW30130   0.378   0.164   2.460
 9744SOL    HW130131   0.440   0.221   2.407
 9744SOL    HW230132   0.330   0.221   2.527
 9745SOL     OW30133   6.472   3.013   6.100
 9745SOL    HW130134   6.515   3.096   6.065
 9745SOL    HW230135   6.479   2.940   6.033
 9746SOL     OW30136   6.586   0.757   5.934
 9746SOL    HW130137   6.606   0.789   5.841
 9746SOL    HW230138   6.498   0.795   5.963
 9747SOL     OW30139   1.860   0.314   1.578
 9747SOL    HW130140   1.777   0.259   1.580
 9747SOL    HW230141   1.916   0.287   1.499
 9748SOL     OW30142   0.930   1.763   3.873
 9748SOL    HW130143   0.866   1.799   3.806
 9748SOL    HW230144   1.011   1.822   3.878
 9749SOL     OW30145   2.094   1.684   5.087
 9749SOL    HW130146   2.172   1.626   5.111
 9749SOL    HW230147   2.098   1.707   4.989
 9750SOL     OW30148   5.526   4.709   3.734
 9750SOL    HW130149   5.509   4.669   3.644
 9750SOL    HW230150   5.543   4.637   3.800
 9751SOL     OW30151   1.775   0.908   0.039
 9751SOL    HW130152   1.737   1.000   0.028
 9751SOL    HW230153   1.850   0.895   7.004
 9752SOL     OW30154   5.402   2.332   6.932
 9752SOL    HW130155   5.330   2.299   6.871
 9752SOL    HW230156   5.485   2.278   6.919
 9753SOL     OW30157   6.202   5.569   5.426
 9753SOL    HW130158   6.146   5.496   5.388
 9753SOL    HW230159   6.144   5.648   5.446
 9754SOL     OW30160   0.898   1.739   6.471
 9754SOL    HW130161   0.903   1.641   6.449
 9754SOL    HW230162   0.931   1.753   6.564
 9755SOL     OW30163   4.079   4.109   5.553
 9755SOL    HW130164   4.093   4.011   5.561
 9755SOL    HW230165   4.034   4.129   5.465
 9756SOL     OW30166   6.068   3.303   0.483
 9756SOL    HW130167   6.018   3.228   0.526
 9756SOL    HW230168   6.165   3.279   0.475
 9757SOL     OW30169   5.798   3.575   3.424
 9757SOL    HW130170   5.755   3.658   3.389
 9757SOL    HW230171   5.878   3.553   3.369
 9758SOL     OW30172   2.390   0.184   6.955
 9758SOL    HW130173   2.427   0.238   0.001
 9758SOL    HW230174   2.314   0.128   6.988
 9759SOL     OW30175   2.560   6.840   6.894
 9759SOL    HW130176   2.547   6.772   6.822
 9759SOL    HW230177   2.519   6.807   6.979
 9760SOL     OW30178   4.662   3.356   5.371
 9760SOL    HW130179   4.613   3.405   5.299
 9760SOL    HW230180   4.755   3.334   5.340
 9761SOL     OW30181   6.013   0.657   2.127
 9761SOL    HW130182   6.088   0.597   2.101
 9761SOL    HW230183   6.046   0.752   2.130
 9762SOL     OW30184   2.688   1.849   4.281
 9762SOL    HW130185   2.604   1.799   4.304
 9762SOL    HW230186   2.694   1.860   4.182
 9763SOL     OW30187   5.036   1.636   1.837
 9763SOL    HW130188   5.090   1.608   1.916
 9763SOL    HW230189   5.091   1.624   1.754
 9764SOL     OW30190   0.527   2.599   2.726
 9764SOL    HW130191   0.482   2.657   2.795
 9764SOL    HW230192   0.573   2.657   2.659
 9765SOL     OW30193   6.758   1.511   2.825
 9765SOL    HW130194   6.683   1.451   2.797
 9765SOL    HW230195   6.721   1.600   2.851
 9766SOL     OW30196   2.933   0.555   3.353
 9766SOL    HW130197   2.882   0.627   3.306
 9766SOL    HW230198   3.015   0.533   3.301
 9767SOL     OW30199   5.376   1.540   5.388
 9767SOL    HW130200   5.344   1.618   5.442
 9767SOL    HW230201   5.351   1.554   5.292
 9768SOL     OW30202   4.815   1.646   1.990
 9768SOL    HW130203   4.727   1.633   1.946
 9768SOL    HW230204   4.888   1.646   1.921
 9769SOL     OW30205   2.259   0.616   2.470
 9769SOL    HW130206   2.302   0.527   2.487
 9769SOL    HW230207   2.330   0.682   2.444
 9770SOL     OW30208   5.303   0.586   0.033
 9770SOL    HW130209   5.312   0.518   6.990
 9770SOL    HW230210   5.230   0.558   0.095
 9771SOL     OW30211   3.272   5.143   1.382
 9771SOL    HW130212   3.367   5.173   1.375
 9771SOL    HW230213   3.237   5.164   1.474
 9772SOL     OW30214   1.285   6.442   2.941
 9772SOL    HW130215   1.185   6.449   2.945
 9772SOL    HW230216   1.326   6.525   2.980
 9773SOL     OW30217   5.593   6.511   4.448
 9773SOL    HW130218   5.537   6.487   4.369
 9773SOL    HW230219   5.661   6.579   4.421
 9774SOL     OW30220   6.174   5.026   1.730
 9774SOL    HW130221   6.169   5.019   1.830
 9774SOL    HW230222   6.101   4.971   1.689
 9775SOL     OW30223   2.278   1.066   3.561
 9775SOL    HW130224   2.280   1.152   3.611
 9775SOL    HW230225   2.362   1.056   3.508
 9776SOL     OW30226   0.312   5.751   4.355
 9776SOL    HW130227   0.274   5.694   4.427
 9776SOL    HW230228   0.291   5.711   4.266
 9777SOL     OW30229   5.363   4.650   5.835
 9777SOL    HW130230   5.373   4.554   5.863
 9777SOL    HW230231   5.389   4.710   5.910
 9778SOL     OW30232   0.785   0.847   3.334
 9778SOL    HW130233   0.790   0.939   3.295
 9778SOL    HW230234   0.690   0.826   3.357
 9779SOL     OW30235   1.969   0.995   4.969
 9779SOL    HW130236   2.033   1.017   5.043
 9779SOL    HW230237   1.924   0.908   4.990
 9780SOL     OW30238   2.440   2.094   1.043
 9780SOL    HW130239   2.535   2.108   1.017
 9780SOL    HW230240   2.435   2.037   1.124
 9781SOL     OW30241   1.012   3.815   4.263
 9781SOL    HW130242   0.962   3.736   4.297
 9781SOL    HW230243   1.080   3.844   4.331
 9782SOL     OW30244   6.635   1.095   1.566
 9782SOL    HW130245   6.675   1.033   1.634
 9782SOL    HW230246   6.549   1.131   1.601
 9783SOL     OW30247   5.449   2.233   2.894
 9783SOL    HW130248   5.525   2.181   2.932
 9783SOL    HW230249   5.483   2.293   2.822
 9784SOL     OW30250   3.619   1.694   4.013
 9784SOL    HW130251   3.597   1.670   4.107
 9784SOL    HW230252   3.535   1.693   3.958
 9785SOL     OW30253   6.901   3.946   5.541
 9785SOL    HW130254   6.896   4.001   5.624
 9785SOL    HW230255   6.845   3.864   5.552
 9786SOL     OW30256   2.082   5.085   6.520
 9786SOL    HW130257   2.092   5.185   6.523
 9786SOL    HW230258   2.007   5.060   6.459
 9787SOL     OW30259   4.585   3.433   1.616
 9787SOL    HW130260   4.649   3.497   1.574
 9787SOL    HW230261   4.497   3.477   1.630
 9788SOL     OW30262   0.294   0.492   3.955
 9788SOL    HW130263   0.241   0.411   3.928
 9788SOL    HW230264   0.250   0.574   3.918
 9789SOL     OW30265   1.296   5.627   0.220
 9789SOL    HW130266   1.196   5.618   0.222
 9789SOL    HW230267   1.320   5.722   0.239
 9790SOL     OW30268   5.687   3.868   5.773
 9790SOL    HW130269   5.669   3.949   5.716
 9790SOL    HW230270   5.603   3.843   5.821
 9791SOL     OW30271   0.034   1.953   2.838
 9791SOL    HW130272   0.123   1.948   2.884
 9791SOL    HW230273   7.004   1.882   2.874
 9792SOL     OW30274   5.497   5.536   2.146
 9792SOL    HW130275   5.564   5.484   2.094
 9792SOL    HW230276   5.542   5.613   2.192
 9793SOL     OW30277   5.454   5.098   3.288
 9793SOL    HW130278   5.433   5.005   3.255
 9793SOL    HW230279   5.442   5.101   3.387
 9794SOL     OW30280   6.341   4.798   6.659
 9794SOL    HW130281   6.401   4.725   6.693
 9794SOL    HW230282   6.255   4.758   6.628
 9795SOL     OW30283   1.361   2.087   4.068
 9795SOL    HW130284   1.324   2.020   4.133
 9795SOL    HW230285   1.442   2.130   4.108
 9796SOL     OW30286   4.199   2.802   1.279
 9796SOL    HW130287   4.230   2.770   1.369
 9796SOL    HW230288   4.254   2.758   1.207
 9797SOL     OW30289   3.516   5.106   6.309
 9797SOL    HW130290   3.599   5.055   6.288
 9797SOL    HW230291   3.535   5.175   6.378
 9798SOL     OW30292   2.379   0.639   0.999
 9798SOL    HW130293   2.389   0.735   1.024
 9798SOL    HW230294   2.444   0.584   1.052
 9799SOL     OW30295   3.406   3.701   3.230
 9799SOL    HW130296   3.383   3.613   3.271
 9799SOL    HW230297   3.446   3.687   3.140
 9800SOL     OW30298   2.941   6.514   5.346
 9800SOL    HW130299   3.029   6.480   5.313
 9800SOL    HW230300   2.955   6.594   5.404
 9801SOL     OW30301   4.741   4.464   0.207
 9801SOL    HW130302   4.665   4.403   0.232
 9801SOL    HW230303   4.734   4.549   0.259
 9802SOL     OW30304   0.857   2.620   2.255
 9802SOL    HW130305   0.771   2.573   2.235
 9802SOL    HW230306   0.860   2.708   2.208
 9803SOL     OW30307   6.295   1.654   0.280
 9803SOL    HW130308   6.255   1.643   0.371
 9803SOL    HW230309   6.231   1.702   0.220
 9804SOL     OW30310   0.693   5.894   2.941
 9804SOL    HW130311   0.764   5.917   3.008
 9804SOL    HW230312   0.719   5.931   2.851
 9805SOL     OW30313   1.144   6.021   5.461
 9805SOL    HW130314   1.217   6.048   5.524
 9805SOL    HW230315   1.183   5.992   5.374
 9806SOL     OW30316   1.126   2.116   0.270
 9806SOL    HW130317   1.162   2.114   0.177
 9806SOL    HW230318   1.195   2.083   0.334
 9807SOL     OW30319   2.040   2.809   7.007
 9807SOL    HW130320   2.034   2.709   7.010
 9807SOL    HW230321   2.054   2.839   6.913
 9808SOL     OW30322   5.801   1.271   5.811
 9808SOL    HW130323   5.818   1.199   5.879
 9808SOL    HW230324   5.832   1.240   5.721
 9809SOL     OW30325   0.938   2.063   6.574
 9809SOL    HW130326   0.910   2.159   6.576
 9809SOL    HW230327   0.951   2.030   6.667
 9810SOL     OW30328   2.485   2.563   4.022
 9810SOL    HW130329   2.455   2.579   3.928
 9810SOL    HW230330   2.496   2.651   4.069
 9811SOL     OW30331   5.293   5.788   4.117
 9811SOL    HW130332   5.227   5.803   4.190
 9811SOL    HW230333   5.376   5.841   4.135
 9812SOL     OW30334   3.261   2.436   6.023
 9812SOL    HW130335   3.309   2.349   6.010
 9812SOL    HW230336   3.253   2.483   5.935
 9813SOL     OW30337   5.668   0.016   7.020
 9813SOL    HW130338   5.740   6.988   0.029
 9813SOL    HW230339   5.589   0.016   0.051
 9814SOL     OW30340   0.722   1.201   6.806
 9814SOL    HW130341   0.739   1.290   6.763
 9814SOL    HW230342   0.780   1.132   6.764
 9815SOL     OW30343   6.139   3.420   2.487
 9815SOL    HW130344   6.101   3.501   2.530
 9815SOL    HW230345   6.069   3.373   2.434
 9816SOL     OW30346   7.013   1.197   6.362
 9816SOL    HW130347   6.915   1.193   6.382
 9816SOL    HW230348   0.035   1.168   6.442
 9817SOL     OW30349   3.177   5.638   2.479
 9817SOL    HW130350   3.121   5.680   2.551
 9817SOL    HW230351   3.117   5.597   2.410
 9818SOL     OW30352   1.836   0.948   4.082
 9818SOL    HW130353   1.768   0.943   4.010
 9818SOL    HW230354   1.913   1.004   4.052
 9819SOL     OW30355   5.221   2.939   5.349
 9819SOL    HW130356   5.176   2.891   5.274
 9819SOL    HW230357   5.182   2.908   5.436
 9820SOL     OW30358   3.736   3.266   6.719
 9820SOL    HW130359   3.812   3.254   6.655
 9820SOL    HW230360   3.651   3.278   6.667
 9821SOL     OW30361   3.871   1.382   0.857
 9821SOL    HW130362   3.930   1.320   0.909
 9821SOL    HW230363   3.922   1.465   0.834
 9822SOL     OW30364   3.676   5.438   3.662
 9822SOL    HW130365   3.743   5.502   3.627
 9822SOL    HW230366   3.584   5.473   3.645
 9823SOL     OW30367   2.028   0.290   2.047
 9823SOL    HW130368   1.944   0.269   2.097
 9823SOL    HW230369   2.013   0.371   1.990
 9824SOL     OW30370   1.997   6.048   5.168
 9824SOL    HW130371   1.972   6.144   5.183
 9824SOL    HW230372   1.935   5.989   5.219
 9825SOL     OW30373   5.996   6.178   5.018
 9825SOL    HW130374   5.946   6.232   5.087
 9825SOL    HW230375   6.085   6.151   5.054
 9826SOL     OW30376   3.626   6.448   5.405
 9826SOL    HW130377   3.658   6.437   5.499
 9826SOL    HW230378   3.672   6.526   5.363
 9827SOL     OW30379   2.017   3.702   3.358
 9827SOL    HW130380   2.086   3.771   3.377
 9827SOL    HW230381   1.940   3.714   3.421
 9828SOL     OW30382   3.044   2.238   4.725
 9828SOL    HW130383   3.108   2.226   4.801
 9828SOL    HW230384   3.007   2.331   4.727
 9829SOL     OW30385   4.605   5.697   6.255
 9829SOL    HW130386   4.698   5.663   6.247
 9829SOL    HW230387   4.598   5.786   6.210
 9830SOL     OW30388   5.038   1.762   1.423
 9830SOL    HW130389   5.038   1.818   1.506
 9830SOL    HW230390   5.057   1.667   1.447
 9831SOL     OW30391   0.502   4.592   2.368
 9831SOL    HW130392   0.519   4.557   2.276
 9831SOL    HW230393   0.440   4.530   2.417
 9832SOL     OW30394   4.526   5.774   2.946
 9832SOL    HW130395   4.524   5.821   3.034
 9832SOL    HW230396   4.528   5.675   2.961
 9833SOL     OW30397   3.732   2.947   3.155
 9833SOL    HW130398   3.661   3.000   3.201
 9833SOL    HW230399   3.690   2.887   3.087
 9834SOL     OW30400   1.695   4.744   5.531
 9834SOL    HW130401   1.602   4.773   5.555
 9834SOL    HW230402   1.740   4.815   5.478
 9835SOL     OW30403   3.742   3.363   4.231
 9835SOL    HW130404   3.777   3.457   4.224
 9835SOL    HW230405   3.749   3.333   4.326
 9836SOL     OW30406   0.625   4.477   4.596
 9836SOL    HW130407   0.604   4.409   4.525
 9836SOL    HW230408   0.683   4.435   4.666
 9837SOL     OW30409   5.688   0.778   2.272
 9837SOL    HW130410   5.725   0.856   2.223
 9837SOL    HW230411   5.676   0.701   2.209
 9838SOL     OW30412   1.494   0.011   0.862
 9838SOL    HW130413   1.558   0.006   0.785
 9838SOL    HW230414   1.515   0.092   0.917
 9839SOL     OW30415   4.617   6.840   3.033
 9839SOL    HW130416   4.527   6.811   3.064
 9839SOL    HW230417   4.610   6.878   2.941
 9840SOL     OW30418   4.543   1.777   0.606
 9840SOL    HW130419   4.550   1.822   0.517
 9840SOL    HW230420   4.562   1.844   0.678
 9841SOL     OW30421   0.802   4.919   3.488
 9841SOL    HW130422   0.790   4.983   3.412
 9841SOL    HW230423   0.751   4.835   3.469
 9842SOL     OW30424   3.655   3.057   0.384
 9842SOL    HW130425   3.659   2.964   0.348
 9842SOL    HW230426   3.600   3.115   0.323
 9843SOL     OW30427   6.927   0.108   2.055
 9843SOL    HW130428   6.963   0.034   2.112
 9843SOL    HW230429   6.963   0.195   2.088
 9844SOL     OW30430   6.118   1.175   4.064
 9844SOL    HW130431   6.067   1.215   4.140
 9844SOL    HW230432   6.182   1.107   4.099
 9845SOL     OW30433   1.365   2.573   2.495
 9845SOL    HW130434   1.440   2.597   2.557
 9845SOL    HW230435   1.278   2.593   2.539
 9846SOL     OW30436   4.707   1.549   0.674
 9846SOL    HW130437   4.675   1.641   0.652
 9846SOL    HW230438   4.764   1.552   0.756
 9847SOL     OW30439   3.992   3.007   2.004
 9847SOL    HW130440   4.007   2.914   2.036
 9847SOL    HW230441   3.932   3.005   1.924
 9848SOL     OW30442   3.790   4.686   5.544
 9848SOL    HW130443   3.808   4.616   5.475
 9848SOL    HW230444   3.703   4.732   5.524
 9849SOL     OW30445   0.879   6.903   6.917
 9849SOL    HW130446   0.836   6.980   6.963
 9849SOL    HW230447   0.834   6.887   6.829
 9850SOL     OW30448   0.112   0.651   3.512
 9850SOL    HW130449   0.197   0.687   3.550
 9850SOL    HW230450   0.042   0.647   3.583
 9851SOL     OW30451   2.626   6.216   4.590
 9851SOL    HW130452   2.678   6.215   4.505
 9851SOL    HW230453   2.543   6.161   4.579
 9852SOL     OW30454   1.380   1.467   5.102
 9852SOL    HW130455   1.284   1.447   5.085
 9852SOL    HW230456   1.416   1.523   5.027
 9853SOL     OW30457   6.691   3.356   5.504
 9853SOL    HW130458   6.703   3.357   5.603
 9853SOL    HW230459   6.631   3.431   5.477
 9854SOL     OW30460   0.734   5.720   4.887
 9854SOL    HW130461   0.830   5.745   4.884
 9854SOL    HW230462   0.682   5.792   4.934
 9855SOL     OW30463   1.251   3.151   0.902
 9855SOL    HW130464   1.188   3.086   0.945
 9855SOL    HW230465   1.338   3.152   0.952
 9856SOL     OW30466   5.240   4.629   4.116
 9856SOL    HW130467   5.148   4.667   4.122
 9856SOL    HW230468   5.299   4.692   4.065
 9857SOL     OW30469   5.529   3.049   2.529
 9857SOL    HW130470   5.589   3.025   2.453
 9857SOL    HW230471   5.572   3.022   2.615
 9858SOL     OW30472   0.492   6.541   1.622
 9858SOL    HW130473   0.530   6.450   1.609
 9858SOL    HW230474   0.567   6.607   1.630
 9859SOL     OW30475   6.689   4.845   4.570
 9859SOL    HW130476   6.611   4.839   4.632
 9859SOL    HW230477   6.763   4.786   4.602
 9860SOL     OW30478   1.560   2.206   5.078
 9860SOL    HW130479   1.561   2.180   5.174
 9860SOL    HW230480   1.470   2.185   5.039
 9861SOL     OW30481   3.117   0.484   3.732
 9861SOL    HW130482   3.162   0.399   3.758
 9861SOL    HW230483   3.067   0.470   3.646
 9862SOL     OW30484   2.742   3.788   0.742
 9862SOL    HW130485   2.740   3.881   0.778
 9862SOL    HW230486   2.667   3.776   0.677
 9863SOL     OW30487   3.212   5.687   1.175
 9863SOL    HW130488   3.298   5.709   1.221
 9863SOL    HW230489   3.159   5.624   1.232
 9864SOL     OW30490   3.116   0.826   5.333
 9864SOL    HW130491   3.031   0.868   5.302
 9864SOL    HW230492   3.096   0.735   5.370
 9865SOL     OW30493   0.822   6.269   4.734
 9865SOL    HW130494   0.828   6.171   4.753
 9865SOL    HW230495   0.914   6.307   4.729
 9866SOL     OW30496   6.149   4.194   4.910
 9866SOL    HW130497   6.192   4.207   4.821
 9866SOL    HW230498   6.209   4.230   4.982
 9867SOL     OW30499   6.431   2.542   2.618
 9867SOL    HW130500   6.377   2.571   2.539
 9867SOL    HW230501   6.379   2.556   2.702
 9868SOL     OW30502   0.408   3.737   4.433
 9868SOL    HW130503   0.378   3.758   4.340
 9868SOL    HW230504   0.508   3.735   4.436
 9869SOL     OW30505   0.810   2.833   1.203
 9869SOL    HW130506   0.802   2.933   1.203
 9869SOL    HW230507   0.906   2.807   1.195
 9870SOL     OW30508   4.110   0.517   2.773
 9870SOL    HW130509   4.039   0.485   2.836
 9870SOL    HW230510   4.198   0.476   2.798
 9871SOL     OW30511   6.987   3.315   5.955
 9871SOL    HW130512   6.937   3.305   6.041
 9871SOL    HW230513   0.034   3.250   5.954
 9872SOL     OW30514   2.149   5.419   5.099
 9872SOL    HW130515   2.105   5.506   5.120
 9872SOL    HW230516   2.123   5.351   5.168
 9873SOL     OW30517   2.086   2.147   5.997
 9873SOL    HW130518   2.030   2.067   5.973
 9873SOL    HW230519   2.040   2.230   5.965
 9874SOL     OW30520   0.328   3.314   4.901
 9874SOL    HW130521   0.406   3.369   4.931
 9874SOL    HW230522   0.283   3.274   4.982
 9875SOL     OW30523   6.815   5.850   2.427
 9875SOL    HW130524   6.811   5.777   2.359
 9875SOL    HW230525   6.821   5.938   2.380
 9876SOL     OW30526   5.041   0.762   4.208
 9876SOL    HW130527   5.045   0.664   4.187
 9876SOL    HW230528   4.966   0.780   4.271
 9877SOL     OW30529   6.790   4.448   4.582
 9877SOL    HW130530   6.771   4.362   4.534
 9877SOL    HW230531   6.705   4.486   4.618
 9878SOL     OW30532   2.370   4.070   6.807
 9878SOL    HW130533   2.373   4.145   6.873
 9878SOL    HW230534   2.390   4.105   6.716
 9879SOL     OW30535   0.431   4.886   5.692
 9879SOL    HW130536   0.479   4.812   5.645
 9879SOL    HW230537   0.490   4.923   5.764
 9880SOL     OW30538   2.167   0.439   0.337
 9880SOL    HW130539   2.158   0.521   0.281
 9880SOL    HW230540   2.208   0.366   0.282
 9881SOL     OW30541   6.482   0.970   4.690
 9881SOL    HW130542   6.557   1.027   4.656
 9881SOL    HW230543   6.394   1.012   4.664
 9882SOL     OW30544   3.746   3.462   4.966
 9882SOL    HW130545   3.669   3.431   4.910
 9882SOL    HW230546   3.784   3.385   5.016
 9883SOL     OW30547   1.927   5.869   1.778
 9883SOL    HW130548   1.832   5.895   1.795
 9883SOL    HW230549   1.941   5.773   1.803
 9884SOL     OW30550   3.316   2.332   0.334
 9884SOL    HW130551   3.339   2.418   0.287
 9884SOL    HW230552   3.334   2.255   0.273
 9885SOL     OW30553   1.182   3.405   4.279
 9885SOL    HW130554   1.174   3.449   4.190
 9885SOL    HW230555   1.091   3.390   4.318
 9886SOL     OW30556   6.651   6.853   2.126
 9886SOL    HW130557   6.718   6.899   2.068
 9886SOL    HW230558   6.567   6.839   2.074
 9887SOL     OW30559   3.195   0.063   0.728
 9887SOL    HW130560   3.133   0.121   0.781
 9887SOL    HW230561   3.253   0.011   0.791
 9888SOL     OW30562   5.653   6.051   3.511
 9888SOL    HW130563   5.696   6.141   3.513
 9888SOL    HW230564   5.554   6.062   3.517
 9889SOL     OW30565   1.100   5.014   2.574
 9889SOL    HW130566   1.142   4.935   2.528
 9889SOL    HW230567   1.096   4.996   2.672
 9890SOL     OW30568   6.562   3.235   0.329
 9890SOL    HW130569   6.606   3.241   0.418
 9890SOL    HW230570   6.616   3.176   0.268
 9891SOL     OW30571   5.204   4.841   1.676
 9891SOL    HW130572   5.115   4.827   1.720
 9891SOL    HW230573   5.192   4.848   1.577
 9892SOL     OW30574   1.915   5.545   3.910
 9892SOL    HW130575   1.928   5.592   3.997
 9892SOL    HW230576   1.858   5.464   3.924
 9893SOL     OW30577   6.522   5.925   2.484
 9893SOL    HW130578   6.614   5.928   2.447
 9893SOL    HW230579   6.467   5.859   2.432
 9894SOL     OW30580   2.732   1.220   6.481
 9894SOL    HW130581   2.664   1.156   6.445
 9894SOL    HW230582   2.792   1.250   6.407
 9895SOL     OW30583   6.316   2.175   5.700
 9895SOL    HW130584   6.339   2.161   5.604
 9895SOL    HW230585   6.232   2.229   5.707
 9896SOL     OW30586   4.770   2.587   0.876
 9896SOL    HW130587   4.791   2.516   0.944
 9896SOL    HW230588   4.828   2.667   0.891
 9897SOL     OW30589   5.152   1.386   2.369
 9897SOL    HW130590   5.225   1.396   2.302
 9897SOL    HW230591   5.182   1.422   2.457
 9898SOL     OW30592   0.781   5.156   5.261
 9898SOL    HW130593   0.803   5.225   5.192
 9898SOL    HW230594   0.736   5.079   5.218
 9899SOL     OW30595   6.125   4.542   2.025
 9899SOL    HW130596   6.052   4.581   2.080
 9899SOL    HW230597   6.086   4.478   1.958
 9900SOL     OW30598   1.861   1.953   2.534
 9900SOL    HW130599   1.882   1.985   2.441
 9900SOL    HW230600   1.946   1.944   2.586
 9901SOL     OW30601   1.244   2.502   0.420
 9901SOL    HW130602   1.150   2.530   0.439
 9901SOL    HW230603   1.254   2.482   0.323
 9902SOL     OW30604   3.495   3.131   1.102
 9902SOL    HW130605   3.406   3.087   1.110
 9902SOL    HW230606   3.566   3.068   1.131
 9903SOL     OW30607   4.429   0.171   2.740
 9903SOL    HW130608   4.405   0.249   2.798
 9903SOL    HW230609   4.518   0.134   2.768
 9904SOL     OW30610   0.100   3.269   6.630
 9904SOL    HW130611   0.003   3.290   6.643
 9904SOL    HW230612   0.154   3.321   6.695
 9905SOL     OW30613   1.788   6.581   0.680
 9905SOL    HW130614   1.701   6.624   0.655
 9905SOL    HW230615   1.837   6.639   0.744
 9906SOL     OW30616   1.625   3.263   6.969
 9906SOL    HW130617   1.684   3.298   0.012
 9906SOL    HW230618   1.536   3.309   6.973
 9907SOL     OW30619   2.616   0.062   3.323
 9907SOL    HW130620   2.529   0.112   3.330
 9907SOL    HW230621   2.670   0.100   3.248
 9908SOL     OW30622   0.925   3.250   6.291
 9908SOL    HW130623   1.001   3.301   6.331
 9908SOL    HW230624   0.961   3.181   6.229
 9909SOL     OW30625   3.607   0.785   3.373
 9909SOL    HW130626   3.689   0.789   3.431
 9909SOL    HW230627   3.531   0.829   3.420
 9910SOL     OW30628   7.024   4.885   1.936
 9910SOL    HW130629   0.075   4.835   1.904
 9910SOL    HW230630   6.984   4.936   1.859
 9911SOL     OW30631   4.897   5.180   3.338
 9911SOL    HW130632   4.832   5.150   3.409
 9911SOL    HW230633   4.986   5.195   3.380
 9912SOL     OW30634   4.167   0.701   2.997
 9912SOL    HW130635   4.194   0.625   3.056
 9912SOL    HW230636   4.097   0.670   2.932
 9913SOL     OW30637   6.333   2.920   1.935
 9913SOL    HW130638   6.323   2.822   1.915
 9913SOL    HW230639   6.303   2.974   1.856
 9914SOL     OW30640   0.947   1.002   5.548
 9914SOL    HW130641   1.020   0.963   5.604
 9914SOL    HW230642   0.910   1.084   5.592
 9915SOL     OW30643   5.431   3.768   3.942
 9915SOL    HW130644   5.418   3.856   3.989
 9915SOL    HW230645   5.485   3.707   4.000
 9916SOL     OW30646   2.741   1.886   3.990
 9916SOL    HW130647   2.834   1.919   3.973
 9916SOL    HW230648   2.691   1.879   3.904
 9917SOL     OW30649   3.136   2.991   4.429
 9917SOL    HW130650   3.131   2.987   4.329
 9917SOL    HW230651   3.217   2.942   4.460
 9918SOL     OW30652   1.460   1.300   0.485
 9918SOL    HW130653   1.448   1.201   0.494
 9918SOL    HW230654   1.534   1.319   0.421
 9919SOL     OW30655   2.114   4.905   2.266
 9919SOL    HW130656   2.178   4.846   2.315
 9919SOL    HW230657   2.041   4.934   2.328
 9920SOL     OW30658   3.528   1.097   3.031
 9920SOL    HW130659   3.499   1.068   2.940
 9920SOL    HW230660   3.470   1.171   3.063
 9921SOL     OW30661   5.954   6.381   3.963
 9921SOL    HW130662   5.865   6.390   3.919
 9921SOL    HW230663   6.016   6.332   3.902
 9922SOL     OW30664   4.513   4.466   0.435
 9922SOL    HW130665   4.427   4.421   0.413
 9922SOL    HW230666   4.573   4.401   0.483
 9923SOL     OW30667   6.811   3.031   0.456
 9923SOL    HW130668   6.878   3.085   0.507
 9923SOL    HW230669   6.731   3.013   0.513
 9924SOL     OW30670   5.498   1.655   1.615
 9924SOL    HW130671   5.499   1.725   1.687
 9924SOL    HW230672   5.567   1.676   1.546
 9925SOL     OW30673   2.099   4.393   5.384
 9925SOL    HW130674   2.193   4.361   5.370
 9925SOL    HW230675   2.091   4.487   5.349
 9926SOL     OW30676   3.429   2.625   1.352
 9926SOL    HW130677   3.504   2.634   1.286
 9926SOL    HW230678   3.462   2.649   1.443
 9927SOL     OW30679   1.082   2.728   1.318
 9927SOL    HW130680   1.036   2.668   1.383
 9927SOL    HW230681   1.105   2.814   1.363
 9928SOL     OW30682   5.977   4.659   2.227
 9928SOL    HW130683   6.006   4.596   2.299
 9928SOL    HW230684   5.967   4.751   2.265
 9929SOL     OW30685   2.645   4.106   5.316
 9929SOL    HW130686   2.559   4.086   5.268
 9929SOL    HW230687   2.678   4.197   5.289
 9930SOL     OW30688   6.903   0.465   5.646
 9930SOL    HW130689   6.890   0.367   5.631
 9930SOL    HW230690   6.969   0.478   5.720
 9931SOL     OW30691   0.139   5.791   5.065
 9931SOL    HW130692   0.221   5.828   5.022
 9931SOL    HW230693   0.154   5.780   5.163
 9932SOL     OW30694   1.524   2.074   0.737
 9932SOL    HW130695   1.457   2.080   0.663
 9932SOL    HW230696   1.575   2.160   0.742
 9933SOL     OW30697   2.311   0.970   3.876
 9933SOL    HW130698   2.313   1.031   3.797
 9933SOL    HW230699   2.403   0.962   3.914
 9934SOL     OW30700   5.960   2.035   0.230
 9934SOL    HW130701   5.974   1.974   0.308
 9934SOL    HW230702   6.049   2.071   0.200
 9935SOL     OW30703   2.997   2.261   0.700
 9935SOL    HW130704   2.912   2.223   0.735
 9935SOL    HW230705   3.062   2.186   0.682
 9936SOL     OW30706   5.494   4.489   6.232
 9936SOL    HW130707   5.505   4.505   6.134
 9936SOL    HW230708   5.424   4.419   6.246
 9937SOL     OW30709   1.261   1.131   2.991
 9937SOL    HW130710   1.252   1.038   3.028
 9937SOL    HW230711   1.171   1.165   2.965
 9938SOL     OW30712   5.681   0.463   3.520
 9938SOL    HW130713   5.630   0.496   3.440
 9938SOL    HW230714   5.779   0.482   3.507
 9939SOL     OW30715   1.874   2.954   0.930
 9939SOL    HW130716   1.872   2.924   1.025
 9939SOL    HW230717   1.902   3.050   0.925
 9940SOL     OW30718   0.250   0.262   3.658
 9940SOL    HW130719   0.166   0.290   3.707
 9940SOL    HW230720   0.311   0.341   3.651
 9941SOL     OW30721   3.418   5.635   5.830
 9941SOL    HW130722   3.511   5.651   5.798
 9941SOL    HW230723   3.356   5.697   5.781
 9942SOL     OW30724   4.882   4.489   2.686
 9942SOL    HW130725   4.907   4.579   2.721
 9942SOL    HW230726   4.895   4.488   2.587
 9943SOL     OW30727   1.040   4.525   6.527
 9943SOL    HW130728   1.105   4.516   6.452
 9943SOL    HW230729   1.089   4.541   6.612
 9944SOL     OW30730   6.804   5.817   6.830
 9944SOL    HW130731   6.854   5.732   6.815
 9944SOL    HW230732   6.765   5.817   6.922
 9945SOL     OW30733   5.487   3.867   6.524
 9945SOL    HW130734   5.493   3.784   6.469
 9945SOL    HW230735   5.465   3.843   6.619
 9946SOL     OW30736   6.311   0.487   3.562
 9946SOL    HW130737   6.409   0.475   3.575
 9946SOL    HW230738   6.272   0.406   3.519
 9947SOL     OW30739   1.772   1.436   3.297
 9947SOL    HW130740   1.722   1.459   3.213
 9947SOL    HW230741   1.714   1.379   3.355
 9948SOL     OW30742   6.962   5.837   4.885
 9948SOL    HW130743   0.023   5.815   4.920
 9948SOL    HW230744   6.892   5.808   4.951
 9949SOL     OW30745   0.611   5.137   4.162
 9949SOL    HW130746   0.665   5.072   4.216
 9949SOL    HW230747   0.523   5.096   4.140
 9950SOL     OW30748   6.464   5.172   6.206
 9950SOL    HW130749   6.365   5.170   6.219
 9950SOL    HW230750   6.505   5.096   6.257
 9951SOL     OW30751   1.437   2.589   2.917
 9951SOL    HW130752   1.505   2.584   2.990
 9951SOL    HW230753   1.479   2.626   2.835
 9952SOL     OW30754   1.096   3.757   1.893
 9952SOL    HW130755   1.090   3.702   1.810
 9952SOL    HW230756   1.056   3.847   1.876
 9953SOL     OW30757   6.008   2.270   3.157
 9953SOL    HW130758   6.020   2.180   3.115
 9953SOL    HW230759   6.033   2.266   3.253
 9954SOL     OW30760   1.668   1.091   4.957
 9954SOL    HW130761   1.757   1.095   5.001
 9954SOL    HW230762   1.674   1.038   4.872
 9955SOL     OW30763   4.934   3.026   6.870
 9955SOL    HW130764   4.865   2.954   6.864
 9955SOL    HW230765   4.912   3.098   6.804
 9956SOL     OW30766   0.204   3.936   2.477
 9956SOL    HW130767   0.196   4.016   2.418
 9956SOL    HW230768   0.280   3.879   2.445
 9957SOL     OW30769   5.741   0.014   1.111
 9957SOL    HW130770   5.738   6.969   1.046
 9957SOL    HW230771   5.836   0.046   1.121
 9958SOL     OW30772   3.585   5.867   6.307
 9958SOL    HW130773   3.515   5.916   6.359
 9958SOL    HW230774   3.627   5.797   6.364
 9959SOL     OW30775   4.110   3.535   1.483
 9959SOL    HW130776   4.056   3.573   1.558
 9959SOL    HW230777   4.056   3.466   1.434
 9960SOL     OW30778   0.164   6.410   1.560
 9960SOL    HW130779   0.167   6.501   1.519
 9960SOL    HW230780   0.190   6.342   1.491
 9961SOL     OW30781   2.124   4.202   2.619
 9961SOL    HW130782   2.211   4.249   2.611
 9961SOL    HW230783   2.053   4.253   2.570
 9962SOL     OW30784   3.884   0.938   1.868
 9962SOL    HW130785   3.973   0.901   1.897
 9962SOL    HW230786   3.836   0.975   1.947
 9963SOL     OW30787   2.855   2.591   0.093
 9963SOL    HW130788   2.777   2.557   0.040
 9963SOL    HW230789   2.877   2.684   0.064
 9964SOL     OW30790   3.455   4.929   5.762
 9964SOL    HW130791   3.396   4.906   5.685
 9964SOL    HW230792   3.531   4.985   5.730
 9965SOL     OW30793   3.456   5.580   4.517
 9965SOL    HW130794   3.434   5.523   4.597
 9965SOL    HW230795   3.381   5.574   4.451
 9966SOL     OW30796   2.818   5.124   2.256
 9966SOL    HW130797   2.911   5.124   2.219
 9966SOL    HW230798   2.799   5.214   2.296
 9967SOL     OW30799   5.908   5.458   2.892
 9967SOL    HW130800   5.966   5.425   2.967
 9967SOL    HW230801   5.843   5.525   2.928
 9968SOL     OW30802   4.321   5.664   6.840
 9968SOL    HW130803   4.224   5.674   6.859
 9968SOL    HW230804   4.334   5.598   6.766
 9969SOL     OW30805   1.846   3.473   4.328
 9969SOL    HW130806   1.926   3.434   4.373
 9969SOL    HW230807   1.831   3.567   4.360
 9970SOL     OW30808   6.551   5.443   1.316
 9970SOL    HW130809   6.630   5.411   1.370
 9970SOL    HW230810   6.574   5.530   1.274
 9971SOL     OW30811   1.834   2.652   1.385
 9971SOL    HW130812   1.771   2.706   1.441
 9971SOL    HW230813   1.783   2.580   1.338
 9972SOL     OW30814   2.524   4.008   1.207
 9972SOL    HW130815   2.500   4.037   1.300
 9972SOL    HW230816   2.583   3.928   1.212
 9973SOL     OW30817   4.783   2.944   4.704
 9973SOL    HW130818   4.874   2.935   4.744
 9973SOL    HW230819   4.792   2.977   4.610
 9974SOL     OW30820   0.215   2.270   3.225
 9974SOL    HW130821   0.297   2.219   3.250
 9974SOL    HW230822   0.216   2.287   3.126
 9975SOL     OW30823   0.583   5.480   6.225
 9975SOL    HW130824   0.620   5.561   6.271
 9975SOL    HW230825   0.483   5.482   6.229
 9976SOL     OW30826   1.137   4.908   5.434
 9976SOL    HW130827   1.063   4.966   5.399
 9976SOL    HW230828   1.202   4.965   5.484
 9977SOL     OW30829   5.192   4.946   5.780
 9977SOL    HW130830   5.128   4.944   5.857
 9977SOL    HW230831   5.165   4.877   5.713
 9978SOL     OW30832   0.051   1.844   5.362
 9978SOL    HW130833   0.082   1.846   5.267
 9978SOL    HW230834   0.025   1.750   5.387
 9979SOL     OW30835   6.335   3.962   6.191
 9979SOL    HW130836   6.348   4.002   6.100
 9979SOL    HW230837   6.264   3.892   6.186
 9980SOL     OW30838   2.103   0.359   0.915
 9980SOL    HW130839   2.201   0.359   0.892
 9980SOL    HW230840   2.084   0.434   0.979
 9981SOL     OW30841   1.816   2.100   0.836
 9981SOL    HW130842   1.915   2.086   0.836
 9981SOL    HW230843   1.772   2.024   0.787
 9982SOL     OW30844   1.064   1.048   4.227
 9982SOL    HW130845   0.980   0.993   4.236
 9982SOL    HW230846   1.116   1.042   4.312
 9983SOL     OW30847   0.004   1.558   2.181
 9983SOL    HW130848   0.053   1.644   2.162
 9983SOL    HW230849   7.009   1.515   2.095
 9984SOL     OW30850   0.931   5.988   0.329
 9984SOL    HW130851   0.980   6.042   0.397
 9984SOL    HW230852   0.990   5.972   0.251
 9985SOL     OW30853   2.881   5.240   1.413
 9985SOL    HW130854   2.893   5.338   1.397
 9985SOL    HW230855   2.899   5.221   1.510
 9986SOL     OW30856   5.837   5.006   0.761
 9986SOL    HW130857   5.842   5.078   0.830
 9986SOL    HW230858   5.930   4.976   0.738
 9987SOL     OW30859   6.176   2.394   2.164
 9987SOL    HW130860   6.274   2.417   2.158
 9987SOL    HW230861   6.152   2.377   2.260
 9988SOL     OW30862   6.552   5.394   4.178
 9988SOL    HW130863   6.489   5.346   4.239
 9988SOL    HW230864   6.589   5.329   4.111
 9989SOL     OW30865   6.090   4.110   2.135
 9989SOL    HW130866   6.100   4.027   2.191
 9989SOL    HW230867   6.086   4.190   2.195
 9990SOL     OW30868   2.039   6.529   3.319
 9990SOL    HW130869   2.098   6.448   3.315
 9990SOL    HW230870   1.957   6.507   3.371
 9991SOL     OW30871   2.116   3.696   3.729
 9991SOL    HW130872   2.174   3.614   3.730
 9991SOL    HW230873   2.029   3.676   3.773
 9992SOL     OW30874   3.840   3.658   0.923
 9992SOL    HW130875   3.802   3.566   0.922
 9992SOL    HW230876   3.929   3.657   0.876
 9993SOL     OW30877   3.912   6.585   3.895
 9993SOL    HW130878   3.854   6.552   3.821
 9993SOL    HW230879   3.972   6.657   3.860
 9994SOL     OW30880   7.004   3.892   2.590
 9994SOL    HW130881   0.073   3.884   2.578
 9994SOL    HW230882   6.976   3.988   2.580
 9995SOL     OW30883   3.588   1.150   3.725
 9995SOL    HW130884   3.552   1.139   3.633
 9995SOL    HW230885   3.569   1.243   3.757
 9996SOL     OW30886   2.825   4.008   1.507
 9996SOL    HW130887   2.751   3.950   1.542
 9996SOL    HW230888   2.789   4.071   1.439
 9997SOL     OW30889   5.779   0.604   2.627
 9997SOL    HW130890   5.708   0.669   2.601
 9997SOL    HW230891   5.843   0.593   2.551
 9998SOL     OW30892   5.614   3.383   1.735
 9998SOL    HW130893   5.678   3.320   1.691
 9998SOL    HW230894   5.575   3.340   1.816
 9999SOL     OW30895   6.999   6.068   5.149
 9999SOL    HW130896   7.004   5.971   5.126
 9999SOL    HW230897   6.917   6.085   5.203
10000SOL     OW30898   5.521   2.419   0.218
10000SOL    HW130899   5.454   2.390   0.286
10000SOL    HW230900   5.588   2.346   0.203
10001SOL     OW30901   3.250   0.391   1.406
10001SOL    HW130902   3.337   0.413   1.451
10001SOL    HW230903   3.192   0.339   1.469
10002SOL     OW30904   1.686   1.096   1.789
10002SOL    HW130905   1.593   1.128   1.771
10002SOL    HW230906   1.733   1.161   1.850
10003SOL     OW30907   2.856   2.254   2.282
10003SOL    HW130908   2.923   2.181   2.292
10003SOL    HW230909   2.869   2.299   2.194
10004SOL     OW30910   5.482   3.033   5.248
10004SOL    HW130911   5.415   2.965   5.279
10004SOL    HW230912   5.533   2.996   5.170
10005SOL     OW30913   3.450   5.496   3.246
10005SOL    HW130914   3.468   5.397   3.254
10005SOL    HW230915   3.500   5.531   3.166
10006SOL     OW30916   5.937   0.284   5.528
10006SOL    HW130917   6.014   0.223   5.544
10006SOL    HW230918   5.851   0.235   5.541
10007SOL     OW30919   0.975   3.188   4.139
10007SOL    HW130920   1.064   3.176   4.184
10007SOL    HW230921   0.904   3.146   4.196
10008SOL     OW30922   4.915   1.178   3.700
10008SOL    HW130923   4.962   1.092   3.680
10008SOL    HW230924   4.920   1.195   3.799
10009SOL     OW30925   1.693   3.613   1.676
10009SOL    HW130926   1.623   3.660   1.730
10009SOL    HW230927   1.740   3.546   1.734
10010SOL     OW30928   2.470   6.025   0.609
10010SOL    HW130929   2.418   5.940   0.608
10010SOL    HW230930   2.462   6.070   0.520
10011SOL     OW30931   0.448   4.544   6.866
10011SOL    HW130932   0.438   4.612   6.939
10011SOL    HW230933   0.506   4.469   6.897
10012SOL     OW30934   5.150   6.922   1.648
10012SOL    HW130935   5.237   6.872   1.654
10012SOL    HW230936   5.169   7.019   1.628
10013SOL     OW30937   1.840   2.692   4.321
10013SOL    HW130938   1.833   2.754   4.400
10013SOL    HW230939   1.756   2.697   4.267
10014SOL     OW30940   0.995   0.945   1.579
10014SOL    HW130941   0.934   0.957   1.657
10014SOL    HW230942   1.080   0.902   1.610
10015SOL     OW30943   4.083   4.942   0.233
10015SOL    HW130944   4.073   4.910   0.328
10015SOL    HW230945   3.992   4.953   0.192
10016SOL     OW30946   1.657   0.957   4.715
10016SOL    HW130947   1.586   0.887   4.709
10016SOL    HW230948   1.744   0.919   4.683
10017SOL     OW30949   1.988   1.167   2.831
10017SOL    HW130950   1.988   1.184   2.732
10017SOL    HW230951   2.082   1.164   2.865
10018SOL     OW30952   6.786   5.085   5.547
10018SOL    HW130953   6.864   5.080   5.610
10018SOL    HW230954   6.783   5.002   5.491
10019SOL     OW30955   0.626   1.639   3.182
10019SOL    HW130956   0.577   1.618   3.267
10019SOL    HW230957   0.643   1.738   3.177
10020SOL     OW30958   0.287   0.928   1.653
10020SOL    HW130959   0.302   0.972   1.565
10020SOL    HW230960   0.192   0.942   1.682
10021SOL     OW30961   0.678   2.728   2.534
10021SOL    HW130962   0.597   2.764   2.487
10021SOL    HW230963   0.756   2.730   2.472
10022SOL     OW30964   3.321   6.871   0.897
10022SOL    HW130965   3.401   6.812   0.890
10022SOL    HW230966   3.321   6.918   0.985
10023SOL     OW30967   1.962   5.102   4.040
10023SOL    HW130968   1.928   5.014   4.072
10023SOL    HW230969   2.059   5.110   4.062
10024SOL     OW30970   1.982   5.679   2.227
10024SOL    HW130971   1.914   5.682   2.301
10024SOL    HW230972   2.011   5.585   2.212
10025SOL     OW30973   1.295   3.035   2.185
10025SOL    HW130974   1.301   3.023   2.086
10025SOL    HW230975   1.299   3.132   2.208
10026SOL     OW30976   5.228   0.493   2.970
10026SOL    HW130977   5.147   0.459   3.017
10026SOL    HW230978   5.204   0.517   2.875
10027SOL     OW30979   0.860   2.443   5.201
10027SOL    HW130980   0.809   2.389   5.268
10027SOL    HW230981   0.807   2.524   5.176
10028SOL     OW30982   1.949   1.766   2.119
10028SOL    HW130983   2.001   1.699   2.065
10028SOL    HW230984   1.899   1.826   2.058
10029SOL     OW30985   1.746   2.201   3.469
10029SOL    HW130986   1.691   2.281   3.493
10029SOL    HW230987   1.730   2.128   3.535
10030SOL     OW30988   3.337   0.443   5.158
10030SOL    HW130989   3.403   0.438   5.084
10030SOL    HW230990   3.352   0.368   5.223
10031SOL     OW30991   5.456   4.384   4.615
10031SOL    HW130992   5.393   4.416   4.544
10031SOL    HW230993   5.540   4.439   4.612
10032SOL     OW30994   4.564   0.394   5.314
10032SOL    HW130995   4.519   0.390   5.224
10032SOL    HW230996   4.633   0.466   5.314
10033SOL     OW30997   4.744   2.709   4.031
10033SOL    HW130998   4.679   2.639   4.001
10033SOL    HW230999   4.807   2.730   3.955
10034SOL     OW31000   3.108   0.546   4.130
10034SOL    HW131001   3.079   0.463   4.083
10034SOL    HW231002   3.204   0.564   4.109
10035SOL     OW31003   6.400   5.000   1.270
10035SOL    HW131004   6.326   5.054   1.309
10035SOL    HW231005   6.363   4.925   1.215
10036SOL     OW31006   6.375   0.429   0.840
10036SOL    HW131007   6.360   0.335   0.811
10036SOL    HW231008   6.303   0.487   0.801
10037SOL     OW31009   5.751   0.698   0.236
10037SOL    HW131010   5.766   0.729   0.330
10037SOL    HW231011   5.840   0.686   0.191
10038SOL     OW31012   4.023   6.972   6.597
10038SOL    HW131013   3.923   6.970   6.601
10038SOL    HW231014   4.061   6.939   6.683
10039SOL     OW31015   4.329   6.535   5.159
10039SOL    HW131016   4.424   6.507   5.150
10039SOL    HW231017   4.324   6.618   5.214
10040SOL     OW31018   4.146   5.950   6.320
10040SOL    HW131019   4.216   6.018   6.299
10040SOL    HW231020   4.088   5.935   6.239
10041SOL     OW31021   4.847   6.320   6.693
10041SOL    HW131022   4.793   6.299   6.612
10041SOL    HW231023   4.805   6.276   6.773
10042SOL     OW31024   1.367   1.926   5.053
10042SOL    HW131025   1.305   2.002   5.072
10042SOL    HW231026   1.316   1.852   5.009
10043SOL     OW31027   0.241   2.038   4.365
10043SOL    HW131028   0.321   2.014   4.309
10043SOL    HW231029   0.161   2.046   4.306
10044SOL     OW31030   2.233   1.675   3.930
10044SOL    HW131031   2.253   1.693   4.027
10044SOL    HW231032   2.312   1.700   3.875
10045SOL     OW31033   5.260   6.839   3.961
10045SOL    HW131034   5.236   6.791   3.878
10045SOL    HW231035   5.283   6.773   4.033
10046SOL     OW31036   0.926   3.639   1.338
10046SOL    HW131037   0.856   3.606   1.401
10046SOL    HW231038   0.895   3.725   1.296
10047SOL     OW31039   6.298   3.822   4.828
10047SOL    HW131040   6.304   3.724   4.849
10047SOL    HW231041   6.245   3.835   4.745
10048SOL     OW31042   4.873   2.212   2.176
10048SOL    HW131043   4.903   2.255   2.261
10048SOL    HW231044   4.773   2.204   2.175
10049SOL     OW31045   0.680   0.188   6.796
10049SOL    HW131046   0.614   0.258   6.823
10049SOL    HW231047   0.756   0.188   6.860
10050SOL     OW31048   6.779   3.050   5.092
10050SOL    HW131049   6.806   3.057   5.188
10050SOL    HW231050   6.694   2.998   5.084
10051SOL     OW31051   6.226   2.464   4.910
10051SOL    HW131052   6.251   2.509   4.825
10051SOL    HW231053   6.203   2.533   4.979
10052SOL     OW31054   3.153   2.140   3.159
10052SOL    HW131055   3.118   2.228   3.191
10052SOL    HW231056   3.250   2.149   3.136
10053SOL     OW31057   3.653   5.733   1.863
10053SOL    HW131058   3.602   5.816   1.842
10053SOL    HW231059   3.742   5.736   1.817
10054SOL     OW31060   4.669   4.855   6.018
10054SOL    HW131061   4.651   4.911   5.937
10054SOL    HW231062   4.614   4.771   6.014
10055SOL     OW31063   6.084   2.069   5.492
10055SOL    HW131064   6.061   2.164   5.474
10055SOL    HW231065   6.001   2.018   5.516
10056SOL     OW31066   5.498   4.334   1.829
10056SOL    HW131067   5.449   4.247   1.834
10056SOL    HW231068   5.433   4.409   1.823
10057SOL     OW31069   4.264   2.370   4.735
10057SOL    HW131070   4.185   2.324   4.695
10057SOL    HW231071   4.242   2.398   4.829
10058SOL     OW31072   0.360   4.006   4.486
10058SOL    HW131073   0.418   4.068   4.432
10058SOL    HW231074   0.376   3.912   4.456
10059SOL     OW31075   5.085   6.283   0.983
10059SOL    HW131076   5.121   6.336   1.059
10059SOL    HW231077   5.096   6.334   0.898
10060SOL     OW31078   1.445   1.729   1.565
10060SOL    HW131079   1.444   1.631   1.545
10060SOL    HW231080   1.422   1.744   1.661
10061SOL     OW31081   5.316   1.167   4.643
10061SOL    HW131082   5.272   1.124   4.722
10061SOL    HW231083   5.383   1.104   4.604
10062SOL     OW31084   6.506   0.324   4.486
10062SOL    HW131085   6.565   0.260   4.438
10062SOL    HW231086   6.501   0.299   4.583
10063SOL     OW31087   1.739   1.388   4.126
10063SOL    HW131088   1.742   1.459   4.056
10063SOL    HW231089   1.796   1.416   4.204
10064SOL     OW31090   4.985   6.616   0.373
10064SOL    HW131091   4.922   6.615   0.451
10064SOL    HW231092   4.934   6.619   0.288
10065SOL     OW31093   2.064   0.054   2.520
10065SOL    HW131094   2.123   7.008   2.491
10065SOL    HW231095   2.115   0.116   2.578
10066SOL     OW31096   1.103   2.035   3.131
10066SOL    HW131097   1.025   2.070   3.081
10066SOL    HW231098   1.126   2.098   3.206
10067SOL     OW31099   6.343   4.213   4.707
10067SOL    HW131100   6.429   4.164   4.695
10067SOL    HW231101   6.292   4.213   4.621
10068SOL     OW31102   6.834   3.315   2.662
10068SOL    HW131103   6.784   3.391   2.703
10068SOL    HW231104   6.771   3.242   2.637
10069SOL     OW31105   1.782   5.439   3.292
10069SOL    HW131106   1.687   5.407   3.294
10069SOL    HW231107   1.799   5.496   3.373
10070SOL     OW31108   6.407   0.185   5.089
10070SOL    HW131109   6.500   0.211   5.115
10070SOL    HW231110   6.349   0.183   5.171
10071SOL     OW31111   6.274   5.890   3.616
10071SOL    HW131112   6.329   5.864   3.538
10071SOL    HW231113   6.266   5.812   3.679
10072SOL     OW31114   0.208   6.293   4.026
10072SOL    HW131115   0.191   6.321   3.931
10072SOL    HW231116   0.292   6.335   4.058
10073SOL     OW31117   5.960   4.794   5.138
10073SOL    HW131118   6.011   4.828   5.059
10073SOL    HW231119   5.959   4.864   5.209
10074SOL     OW31120   1.347   0.844   5.243
10074SOL    HW131121   1.403   0.911   5.293
10074SOL    HW231122   1.289   0.794   5.308
10075SOL     OW31123   1.310   2.840   3.347
10075SOL    HW131124   1.352   2.876   3.263
10075SOL    HW231125   1.240   2.773   3.324
10076SOL     OW31126   0.165   0.161   3.425
10076SOL    HW131127   0.169   0.178   3.523
10076SOL    HW231128   0.193   0.243   3.375
10077SOL     OW31129   3.777   3.014   6.148
10077SOL    HW131130   3.740   3.092   6.099
10077SOL    HW231131   3.707   2.976   6.209
10078SOL     OW31132   0.434   5.030   3.702
10078SOL    HW131133   0.383   5.036   3.617
10078SOL    HW231134   0.507   5.098   3.702
10079SOL     OW31135   6.832   3.762   2.759
10079SOL    HW131136   6.749   3.818   2.765
10079SOL    HW231137   6.900   3.810   2.703
10080SOL     OW31138   4.013   1.287   5.127
10080SOL    HW131139   3.925   1.326   5.100
10080SOL    HW231140   4.087   1.334   5.078
10081SOL     OW31141   0.123   6.892   0.497
10081SOL    HW131142   0.069   6.938   0.568
10081SOL    HW231143   0.063   6.838   0.439
10082SOL     OW31144   6.474   5.023   1.720
10082SOL    HW131145   6.380   4.995   1.700
10082SOL    HW231146   6.473   5.111   1.767
10083SOL     OW31147   4.928   1.172   3.303
10083SOL    HW131148   4.987   1.239   3.257
10083SOL    HW231149   4.913   1.200   3.398
10084SOL     OW31150   2.069   0.674   5.291
10084SOL    HW131151   2.164   0.668   5.323
10084SOL    HW231152   2.012   0.713   5.363
10085SOL     OW31153   1.801   6.023   2.174
10085SOL    HW131154   1.870   5.977   2.230
10085SOL    HW231155   1.724   5.962   2.158
10086SOL     OW31156   4.960   5.598   2.261
10086SOL    HW131157   5.023   5.648   2.321
10086SOL    HW231158   4.866   5.626   2.282
10087SOL     OW31159   0.204   7.029   3.720
10087SOL    HW131160   0.233   0.090   3.689
10087SOL    HW231161   0.161   0.006   3.809
10088SOL     OW31162   0.069   6.852   1.026
10088SOL    HW131163   7.020   6.824   0.971
10088SOL    HW231164   0.114   6.930   0.982
10089SOL     OW31165   3.085   1.878   2.420
10089SOL    HW131166   3.081   1.809   2.347
10089SOL    HW231167   3.143   1.954   2.389
10090SOL     OW31168   1.231   4.781   1.405
10090SOL    HW131169   1.203   4.723   1.329
10090SOL    HW231170   1.161   4.778   1.477
10091SOL     OW31171   1.112   3.772   6.050
10091SOL    HW131172   1.037   3.726   6.097
10091SOL    HW231173   1.086   3.866   6.028
10092SOL     OW31174   1.859   2.931   5.004
10092SOL    HW131175   1.806   3.006   5.043
10092SOL    HW231176   1.945   2.922   5.053
10093SOL     OW31177   6.483   3.498   5.247
10093SOL    HW131178   6.397   3.531   5.286
10093SOL    HW231179   6.556   3.562   5.270
10094SOL     OW31180   2.701   5.772   2.264
10094SOL    HW131181   2.791   5.759   2.220
10094SOL    HW231182   2.629   5.757   2.196
10095SOL     OW31183   5.645   1.655   5.333
10095SOL    HW131184   5.711   1.603   5.387
10095SOL    HW231185   5.552   1.630   5.359
10096SOL     OW31186   4.564   4.971   2.225
10096SOL    HW131187   4.537   4.883   2.265
10096SOL    HW231188   4.610   4.956   2.138
10097SOL     OW31189   1.010   0.618   0.773
10097SOL    HW131190   1.085   0.685   0.780
10097SOL    HW231191   1.046   0.531   0.741
10098SOL     OW31192   2.663   0.654   5.223
10098SOL    HW131193   2.695   0.570   5.268
10098SOL    HW231194   2.664   0.640   5.124
10099SOL     OW31195   6.798   4.960   0.934
10099SOL    HW131196   6.749   5.007   1.008
10099SOL    HW231197   6.887   4.928   0.967
10100SOL     OW31198   5.294   0.167   4.646
10100SOL    HW131199   5.234   0.247   4.646
10100SOL    HW231200   5.375   0.186   4.702
10101SOL     OW31201   5.937   3.732   1.668
10101SOL    HW131202   5.882   3.816   1.671
10101SOL    HW231203   5.883   3.658   1.630
10102SOL     OW31204   0.933   1.127   2.048
10102SOL    HW131205   0.977   1.210   2.083
10102SOL    HW231206   0.906   1.141   1.953
10103SOL     OW31207   2.620   0.086   5.860
10103SOL    HW131208   2.631   7.018   5.843
10103SOL    HW231209   2.678   0.138   5.797
10104SOL     OW31210   1.926   1.963   3.821
10104SOL    HW131211   1.980   1.972   3.904
10104SOL    HW231212   1.932   1.869   3.787
10105SOL     OW31213   1.671   0.737   0.527
10105SOL    HW131214   1.726   0.659   0.557
10105SOL    HW231215   1.718   0.783   0.452
10106SOL     OW31216   4.068   6.792   0.870
10106SOL    HW131217   3.997   6.751   0.814
10106SOL    HW231218   4.041   6.885   0.895
10107SOL     OW31219   6.754   1.188   6.428
10107SOL    HW131220   6.699   1.177   6.345
10107SOL    HW231221   6.696   1.219   6.503
10108SOL     OW31222   6.726   6.960   0.141
10108SOL    HW131223   6.689   6.952   0.049
10108SOL    HW231224   6.719   0.025   0.172
10109SOL     OW31225   5.111   0.248   0.803
10109SOL    HW131226   5.094   0.345   0.824
10109SOL    HW231227   5.152   0.240   0.712
10110SOL     OW31228   3.944   5.585   4.602
10110SOL    HW131229   3.977   5.508   4.547
10110SOL    HW231230   3.874   5.635   4.550
10111SOL     OW31231   5.326   3.548   3.802
10111SOL    HW131232   5.413   3.503   3.821
10111SOL    HW231233   5.331   3.644   3.830
10112SOL     OW31234   5.631   3.592   4.081
10112SOL    HW131235   5.637   3.594   4.180
10112SOL    HW231236   5.604   3.500   4.051
10113SOL     OW31237   4.328   0.440   5.982
10113SOL    HW131238   4.295   0.374   5.915
10113SOL    HW231239   4.372   0.516   5.936
10114SOL     OW31240   5.617   1.210   1.035
10114SOL    HW131241   5.704   1.184   0.992
10114SOL    HW231242   5.621   1.307   1.060
10115SOL     OW31243   3.766   1.494   4.596
10115SOL    HW131244   3.801   1.401   4.601
10115SOL    HW231245   3.836   1.558   4.629
10116SOL     OW31246   0.566   6.442   0.819
10116SOL    HW131247   0.562   6.532   0.863
10116SOL    HW231248   0.502   6.440   0.742
10117SOL     OW31249   6.561   5.910   5.805
10117SOL    HW131250   6.622   5.902   5.727
10117SOL    HW231251   6.595   5.981   5.867
10118SOL     OW31252   1.873   4.806   2.801
10118SOL    HW131253   1.966   4.818   2.835
10118SOL    HW231254   1.820   4.889   2.818
10119SOL     OW31255   0.613   5.712   4.344
10119SOL    HW131256   0.643   5.632   4.292
10119SOL    HW231257   0.513   5.715   4.345
10120SOL     OW31258   1.453   3.321   5.159
10120SOL    HW131259   1.545   3.360   5.152
10120SOL    HW231260   1.423   3.289   5.070
10121SOL     OW31261   6.455   3.849   6.473
10121SOL    HW131262   6.512   3.914   6.522
10121SOL    HW231263   6.415   3.893   6.393
10122SOL     OW31264   6.084   3.186   1.646
10122SOL    HW131265   6.178   3.211   1.666
10122SOL    HW231266   6.080   3.092   1.613
10123SOL     OW31267   5.483   0.023   0.178
10123SOL    HW131268   5.463   6.993   0.255
10123SOL    HW231269   5.405   0.083   0.160
10124SOL     OW31270   1.237   4.372   0.371
10124SOL    HW131271   1.323   4.325   0.352
10124SOL    HW231272   1.245   4.469   0.346
10125SOL     OW31273   2.172   1.438   2.224
10125SOL    HW131274   2.072   1.435   2.232
10125SOL    HW231275   2.197   1.453   2.129
10126SOL     OW31276   6.920   6.614   6.242
10126SOL    HW131277   6.865   6.682   6.194
10126SOL    HW231278   6.863   6.568   6.311
10127SOL     OW31279   2.719   4.739   6.432
10127SOL    HW131280   2.632   4.702   6.399
10127SOL    HW231281   2.734   4.829   6.391
10128SOL     OW31282   2.592   1.462   0.877
10128SOL    HW131283   2.585   1.442   0.780
10128SOL    HW231284   2.557   1.385   0.930
10129SOL     OW31285   5.789   1.652   2.523
10129SOL    HW131286   5.842   1.734   2.547
10129SOL    HW231287   5.809   1.626   2.429
10130SOL     OW31288   1.490   3.542   1.997
10130SOL    HW131289   1.475   3.450   1.961
10130SOL    HW231290   1.569   3.584   1.952
10131SOL     OW31291   1.005   0.194   4.494
10131SOL    HW131292   0.957   0.163   4.576
10131SOL    HW231293   0.945   0.185   4.414
10132SOL     OW31294   3.584   0.325   4.585
10132SOL    HW131295   3.571   0.232   4.552
10132SOL    HW231296   3.582   0.325   4.685
10133SOL     OW31297   3.700   6.106   1.027
10133SOL    HW131298   3.752   6.021   1.023
10133SOL    HW231299   3.629   6.105   0.956
10134SOL     OW31300   0.381   5.968   3.122
10134SOL    HW131301   0.453   5.927   3.178
10134SOL    HW231302   0.392   6.067   3.121
10135SOL     OW31303   4.977   3.331   3.333
10135SOL    HW131304   4.945   3.279   3.253
10135SOL    HW231305   5.074   3.313   3.348
10136SOL     OW31306   5.270   0.818   2.559
10136SOL    HW131307   5.188   0.870   2.539
10136SOL    HW231308   5.317   0.856   2.638
10137SOL     OW31309   6.585   4.011   3.937
10137SOL    HW131310   6.649   3.974   4.006
10137SOL    HW231311   6.593   3.957   3.854
10138SOL     OW31312   5.166   3.456   0.387
10138SOL    HW131313   5.109   3.397   0.329
10138SOL    HW231314   5.234   3.502   0.330
10139SOL     OW31315   2.996   3.842   3.363
10139SOL    HW131316   3.011   3.849   3.461
10139SOL    HW231317   3.052   3.909   3.315
10140SOL     OW31318   5.751   6.287   0.184
10140SOL    HW131319   5.664   6.264   0.141
10140SOL    HW231320   5.791   6.205   0.225
10141SOL     OW31321   3.677   1.627   5.230
10141SOL    HW131322   3.665   1.529   5.249
10141SOL    HW231323   3.670   1.643   5.132
10142SOL     OW31324   6.219   6.919   5.175
10142SOL    HW131325   6.158   6.848   5.210
10142SOL    HW231326   6.211   6.924   5.076
10143SOL     OW31327   5.305   1.355   0.032
10143SOL    HW131328   5.280   1.357   0.129
10143SOL    HW231329   5.391   1.404   0.019
10144SOL     OW31330   2.736   0.528   6.050
10144SOL    HW131331   2.793   0.451   6.079
10144SOL    HW231332   2.686   0.564   6.129
10145SOL     OW31333   2.769   5.272   3.934
10145SOL    HW131334   2.750   5.192   3.877
10145SOL    HW231335   2.713   5.268   4.016
10146SOL     OW31336   4.481   4.527   4.751
10146SOL    HW131337   4.438   4.535   4.840
10146SOL    HW231338   4.504   4.618   4.716
10147SOL     OW31339   5.678   3.912   5.258
10147SOL    HW131340   5.590   3.927   5.213
10147SOL    HW231341   5.752   3.929   5.194
10148SOL     OW31342   5.025   4.767   6.762
10148SOL    HW131343   5.035   4.729   6.854
10148SOL    HW231344   4.930   4.759   6.733
10149SOL     OW31345   5.952   3.118   0.644
10149SOL    HW131346   5.852   3.110   0.637
10149SOL    HW231347   5.978   3.140   0.738
10150SOL     OW31348   3.367   3.871   0.398
10150SOL    HW131349   3.398   3.922   0.479
10150SOL    HW231350   3.291   3.919   0.356
10151SOL     OW31351   0.811   5.951   6.744
10151SOL    HW131352   0.713   5.939   6.753
10151SOL    HW231353   0.856   5.862   6.736
10152SOL     OW31354   7.028   5.948   4.468
10152SOL    HW131355   0.039   5.922   4.381
10152SOL    HW231356   6.987   5.867   4.511
10153SOL     OW31357   4.615   6.366   3.676
10153SOL    HW131358   4.655   6.294   3.733
10153SOL    HW231359   4.645   6.354   3.582
10154SOL     OW31360   4.372   6.698   5.368
10154SOL    HW131361   4.355   6.606   5.406
10154SOL    HW231362   4.291   6.755   5.384
10155SOL     OW31363   3.900   2.461   5.702
10155SOL    HW131364   3.944   2.483   5.789
10155SOL    HW231365   3.923   2.531   5.634
10156SOL     OW31366   5.913   0.243   2.292
10156SOL    HW131367   5.845   0.187   2.245
10156SOL    HW231368   5.939   0.320   2.234
10157SOL     OW31369   0.329   1.453   0.666
10157SOL    HW131370   0.326   1.540   0.715
10157SOL    HW231371   0.396   1.458   0.592
10158SOL     OW31372   5.815   5.611   0.323
10158SOL    HW131373   5.764   5.528   0.346
10158SOL    HW231374   5.834   5.663   0.407
10159SOL     OW31375   2.268   3.236   0.485
10159SOL    HW131376   2.223   3.150   0.465
10159SOL    HW231377   2.304   3.234   0.579
10160SOL     OW31378   1.748   3.091   2.225
10160SOL    HW131379   1.733   3.003   2.179
10160SOL    HW231380   1.738   3.078   2.324
10161SOL     OW31381   3.370   2.952   0.706
10161SOL    HW131382   3.281   2.994   0.726
10161SOL    HW231383   3.439   2.989   0.768
10162SOL     OW31384   3.373   4.703   1.121
10162SOL    HW131385   3.343   4.615   1.082
10162SOL    HW231386   3.471   4.713   1.109
10163SOL     OW31387   6.335   4.404   6.776
10163SOL    HW131388   6.287   4.483   6.739
10163SOL    HW231389   6.361   4.342   6.702
10164SOL     OW31390   5.993   3.997   4.013
10164SOL    HW131391   6.062   4.054   3.969
10164SOL    HW231392   5.992   3.907   3.970
10165SOL     OW31393   6.757   1.860   3.209
10165SOL    HW131394   6.704   1.790   3.162
10165SOL    HW231395   6.851   1.830   3.219
10166SOL     OW31396   3.428   1.980   2.025
10166SOL    HW131397   3.417   2.040   1.945
10166SOL    HW231398   3.496   2.018   2.087
10167SOL     OW31399   1.990   4.647   6.902
10167SOL    HW131400   1.993   4.615   6.997
10167SOL    HW231401   1.986   4.567   6.841
10168SOL     OW31402   5.823   2.843   6.125
10168SOL    HW131403   5.776   2.767   6.170
10168SOL    HW231404   5.791   2.930   6.162
10169SOL     OW31405   6.508   4.857   3.627
10169SOL    HW131406   6.499   4.933   3.563
10169SOL    HW231407   6.481   4.772   3.582
10170SOL     OW31408   6.916   5.827   5.310
10170SOL    HW131409   6.954   5.890   5.378
10170SOL    HW231410   6.939   5.733   5.334
10171SOL     OW31411   0.162   2.673   4.462
10171SOL    HW131412   0.117   2.692   4.375
10171SOL    HW231413   0.107   2.711   4.537
10172SOL     OW31414   0.348   5.865   4.904
10172SOL    HW131415   0.352   5.786   4.842
10172SOL    HW231416   0.440   5.902   4.917
10173SOL     OW31417   1.449   2.813   0.798
10173SOL    HW131418   1.500   2.886   0.754
10173SOL    HW231419   1.470   2.726   0.754
10174SOL     OW31420   5.064   4.551   3.435
10174SOL    HW131421   5.136   4.571   3.501
10174SOL    HW231422   4.998   4.488   3.477
10175SOL     OW31423   6.325   1.784   3.183
10175SOL    HW131424   6.412   1.781   3.233
10175SOL    HW231425   6.312   1.875   3.145
10176SOL     OW31426   0.893   3.379   4.763
10176SOL    HW131427   0.834   3.454   4.730
10176SOL    HW231428   0.962   3.416   4.825
10177SOL     OW31429   2.344   0.972   1.629
10177SOL    HW131430   2.296   0.942   1.711
10177SOL    HW231431   2.288   0.951   1.549
10178SOL     OW31432   0.629   1.202   6.472
10178SOL    HW131433   0.684   1.186   6.390
10178SOL    HW231434   0.591   1.116   6.504
10179SOL     OW31435   0.372   2.722   6.521
10179SOL    HW131436   0.432   2.771   6.584
10179SOL    HW231437   0.294   2.685   6.572
10180SOL     OW31438   4.086   0.589   5.913
10180SOL    HW131439   4.140   0.643   5.848
10180SOL    HW231440   4.135   0.582   6.000
10181SOL     OW31441   6.190   3.283   1.084
10181SOL    HW131442   6.245   3.350   1.135
10181SOL    HW231443   6.098   3.281   1.121
10182SOL     OW31444   4.590   0.657   1.672
10182SOL    HW131445   4.512   0.605   1.708
10182SOL    HW231446   4.618   0.725   1.740
10183SOL     OW31447   7.013   3.028   6.608
10183SOL    HW131448   0.017   3.121   6.594
10183SOL    HW231449   6.957   3.024   6.690
10184SOL     OW31450   3.982   1.527   6.008
10184SOL    HW131451   4.040   1.577   5.943
10184SOL    HW231452   4.035   1.453   6.050
10185SOL     OW31453   6.300   5.713   2.880
10185SOL    HW131454   6.378   5.703   2.819
10185SOL    HW231455   6.332   5.729   2.973
10186SOL     OW31456   5.955   3.673   3.861
10186SOL    HW131457   5.997   3.633   3.942
10186SOL    HW231458   6.000   3.637   3.779
10187SOL     OW31459   1.287   3.651   0.394
10187SOL    HW131460   1.336   3.613   0.315
10187SOL    HW231461   1.329   3.618   0.479
10188SOL     OW31462   4.059   4.641   0.437
10188SOL    HW131463   4.074   4.567   0.371
10188SOL    HW231464   3.965   4.637   0.471
10189SOL     OW31465   1.038   1.146   6.046
10189SOL    HW131466   0.967   1.076   6.043
10189SOL    HW231467   1.087   1.140   6.133
10190SOL     OW31468   4.926   3.215   1.571
10190SOL    HW131469   4.960   3.143   1.509
10190SOL    HW231470   4.832   3.194   1.598
10191SOL     OW31471   4.152   6.362   6.432
10191SOL    HW131472   4.056   6.337   6.424
10191SOL    HW231473   4.209   6.280   6.421
10192SOL     OW31474   4.210   1.393   4.980
10192SOL    HW131475   4.242   1.298   4.981
10192SOL    HW231476   4.288   1.454   4.964
10193SOL     OW31477   3.810   3.212   1.933
10193SOL    HW131478   3.717   3.176   1.924
10193SOL    HW231479   3.870   3.141   1.968
10194SOL     OW31480   5.576   6.046   5.409
10194SOL    HW131481   5.581   6.120   5.477
10194SOL    HW231482   5.483   6.040   5.374
10195SOL     OW31483   6.292   5.619   0.033
10195SOL    HW131484   6.262   5.699   7.010
10195SOL    HW231485   6.221   5.596   0.100
10196SOL     OW31486   4.623   1.904   3.649
10196SOL    HW131487   4.620   1.948   3.739
10196SOL    HW231488   4.712   1.860   3.637
10197SOL     OW31489   5.779   1.177   4.894
10197SOL    HW131490   5.736   1.163   4.805
10197SOL    HW231491   5.743   1.109   4.959
10198SOL     OW31492   2.747   6.662   2.720
10198SOL    HW131493   2.747   6.627   2.813
10198SOL    HW231494   2.815   6.735   2.711
10199SOL     OW31495   2.062   3.096   0.681
10199SOL    HW131496   2.098   3.065   0.593
10199SOL    HW231497   2.000   3.028   0.719
10200SOL     OW31498   4.951   2.693   6.223
10200SOL    HW131499   4.868   2.638   6.218
10200SOL    HW231500   4.931   2.782   6.264
10201SOL     OW31501   1.231   5.135   0.328
10201SOL    HW131502   1.297   5.075   0.284
10201SOL    HW231503   1.273   5.223   0.348
10202SOL     OW31504   3.215   4.913   1.178
10202SOL    HW131505   3.199   4.917   1.277
10202SOL    HW231506   3.285   4.843   1.160
10203SOL     OW31507   6.768   2.650   2.260
10203SOL    HW131508   6.836   2.587   2.223
10203SOL    HW231509   6.744   2.622   2.353
10204SOL     OW31510   4.830   5.961   6.922
10204SOL    HW131511   4.916   6.001   6.955
10204SOL    HW231512   4.807   5.882   6.979
10205SOL     OW31513   2.342   0.526   2.220
10205SOL    HW131514   2.282   0.567   2.289
10205SOL    HW231515   2.306   0.437   2.193
10206SOL     OW31516   6.829   0.138   6.497
10206SOL    HW131517   6.753   0.146   6.432
10206SOL    HW231518   6.795   0.105   6.585
10207SOL     OW31519   1.371   2.346   6.906
10207SOL    HW131520   1.461   2.381   6.932
10207SOL    HW231521   1.361   2.353   6.807
10208SOL     OW31522   6.393   5.020   3.816
10208SOL    HW131523   6.439   4.976   3.738
10208SOL    HW231524   6.407   5.119   3.810
10209SOL     OW31525   0.382   0.151   6.809
10209SOL    HW131526   0.468   0.105   6.789
10209SOL    HW231527   0.306   0.088   6.793
10210SOL     OW31528   4.094   6.821   1.909
10210SOL    HW131529   4.174   6.813   1.968
10210SOL    HW231530   4.021   6.760   1.943
10211SOL     OW31531   4.869   6.695   4.258
10211SOL    HW131532   4.832   6.688   4.351
10211SOL    HW231533   4.956   6.743   4.260
10212SOL     OW31534   0.202   0.364   5.667
10212SOL    HW131535   0.223   0.375   5.570
10212SOL    HW231536   0.152   0.279   5.681
10213SOL     OW31537   5.672   2.409   1.693
10213SOL    HW131538   5.637   2.483   1.637
10213SOL    HW231539   5.679   2.440   1.788
10214SOL     OW31540   0.621   1.988   1.350
10214SOL    HW131541   0.676   1.923   1.402
10214SOL    HW231542   0.584   1.942   1.268
10215SOL     OW31543   3.949   3.274   4.056
10215SOL    HW131544   3.863   3.283   4.107
10215SOL    HW231545   4.017   3.337   4.095
10216SOL     OW31546   6.903   0.983   1.721
10216SOL    HW131547   6.967   0.983   1.644
10216SOL    HW231548   6.867   1.076   1.733
10217SOL     OW31549   2.967   1.328   3.559
10217SOL    HW131550   3.051   1.366   3.597
10217SOL    HW231551   2.988   1.275   3.477
10218SOL     OW31552   1.171   1.176   1.649
10218SOL    HW131553   1.141   1.113   1.577
10218SOL    HW231554   1.116   1.260   1.645
10219SOL     OW31555   0.459   1.938   3.457
10219SOL    HW131556   0.469   2.034   3.485
10219SOL    HW231557   0.364   1.923   3.427
10220SOL     OW31558   4.930   1.766   0.776
10220SOL    HW131559   4.860   1.836   0.760
10220SOL    HW231560   4.897   1.702   0.846
10221SOL     OW31561   1.726   4.173   4.043
10221SOL    HW131562   1.697   4.247   3.983
10221SOL    HW231563   1.773   4.103   3.990
10222SOL     OW31564   3.094   4.316   5.257
10222SOL    HW131565   3.059   4.406   5.229
10222SOL    HW231566   3.017   4.258   5.285
10223SOL     OW31567   2.237   4.562   1.080
10223SOL    HW131568   2.165   4.629   1.094
10223SOL    HW231569   2.307   4.601   1.020
10224SOL     OW31570   6.018   2.718   5.736
10224SOL    HW131571   6.005   2.785   5.810
10224SOL    HW231572   6.053   2.765   5.655
10225SOL     OW31573   1.316   5.956   5.189
10225SOL    HW131574   1.354   5.896   5.260
10225SOL    HW231575   1.312   5.906   5.103
10226SOL     OW31576   2.365   0.244   6.244
10226SOL    HW131577   2.321   0.320   6.195
10226SOL    HW231578   2.329   0.240   6.338
10227SOL     OW31579   5.684   4.812   0.880
10227SOL    HW131580   5.688   4.716   0.854
10227SOL    HW231581   5.752   4.864   0.829
10228SOL     OW31582   0.779   6.409   2.194
10228SOL    HW131583   0.688   6.447   2.179
10228SOL    HW231584   0.816   6.444   2.280
10229SOL     OW31585   1.954   3.207   4.959
10229SOL    HW131586   1.944   3.155   4.874
10229SOL    HW231587   1.871   3.197   5.014
10230SOL     OW31588   6.180   6.191   3.186
10230SOL    HW131589   6.091   6.157   3.215
10230SOL    HW231590   6.189   6.180   3.087
10231SOL     OW31591   6.561   4.625   5.480
10231SOL    HW131592   6.510   4.607   5.396
10231SOL    HW231593   6.550   4.721   5.506
10232SOL     OW31594   3.555   1.397   4.071
10232SOL    HW131595   3.533   1.457   4.149
10232SOL    HW231596   3.503   1.426   3.991
10233SOL     OW31597   3.876   3.935   4.934
10233SOL    HW131598   3.965   3.893   4.919
10233SOL    HW231599   3.818   3.873   4.987
10234SOL     OW31600   5.787   0.469   0.632
10234SOL    HW131601   5.757   0.563   0.647
10234SOL    HW231602   5.817   0.430   0.719
10235SOL     OW31603   3.498   2.312   1.238
10235SOL    HW131604   3.578   2.368   1.262
10235SOL    HW231605   3.456   2.276   1.321
10236SOL     OW31606   2.362   1.054   0.836
10236SOL    HW131607   2.266   1.082   0.833
10236SOL    HW231608   2.410   1.090   0.757
10237SOL     OW31609   0.845   4.404   6.404
10237SOL    HW131610   0.760   4.410   6.457
10237SOL    HW231611   0.917   4.456   6.449
10238SOL     OW31612   3.810   4.292   1.711
10238SOL    HW131613   3.727   4.346   1.723
10238SOL    HW231614   3.810   4.216   1.775
10239SOL     OW31615   2.100   3.557   6.228
10239SOL    HW131616   2.157   3.634   6.254
10239SOL    HW231617   2.156   3.488   6.182
10240SOL     OW31618   1.846   4.696   2.464
10240SOL    HW131619   1.836   4.795   2.475
10240SOL    HW231620   1.821   4.671   2.370
10241SOL     OW31621   0.027   6.146   3.179
10241SOL    HW131622   0.022   6.201   3.263
10241SOL    HW231623   0.035   6.049   3.203
10242SOL     OW31624   0.165   1.007   1.054
10242SOL    HW131625   0.264   1.000   1.061
10242SOL    HW231626   0.123   0.926   1.096
10243SOL     OW31627   2.336   4.212   2.351
10243SOL    HW131628   2.266   4.142   2.338
10243SOL    HW231629   2.426   4.171   2.341
10244SOL     OW31630   1.486   4.449   0.949
10244SOL    HW131631   1.501   4.546   0.933
10244SOL    HW231632   1.421   4.413   0.882
10245SOL     OW31633   3.473   3.746   1.497
10245SOL    HW131634   3.392   3.697   1.465
10245SOL    HW231635   3.534   3.683   1.544
10246SOL     OW31636   3.212   3.400   4.240
10246SOL    HW131637   3.289   3.342   4.214
10246SOL    HW231638   3.169   3.438   4.158
10247SOL     OW31639   6.707   4.227   6.224
10247SOL    HW131640   6.710   4.186   6.133
10247SOL    HW231641   6.678   4.323   6.215
10248SOL     OW31642   1.575   6.418   2.649
10248SOL    HW131643   1.673   6.441   2.649
10248SOL    HW231644   1.555   6.357   2.726
10249SOL     OW31645   3.202   5.942   6.590
10249SOL    HW131646   3.169   6.004   6.661
10249SOL    HW231647   3.142   5.863   6.584
10250SOL     OW31648   6.579   2.612   1.564
10250SOL    HW131649   6.496   2.642   1.517
10250SOL    HW231650   6.645   2.687   1.566
10251SOL     OW31651   2.250   1.451   5.147
10251SOL    HW131652   2.254   1.396   5.063
10251SOL    HW231653   2.206   1.398   5.219
10252SOL     OW31654   3.692   4.439   6.094
10252SOL    HW131655   3.683   4.389   6.007
10252SOL    HW231656   3.604   4.478   6.119
10253SOL     OW31657   2.742   6.310   0.583
10253SOL    HW131658   2.764   6.332   0.488
10253SOL    HW231659   2.729   6.211   0.592
10254SOL     OW31660   4.978   1.372   5.765
10254SOL    HW131661   5.046   1.327   5.821
10254SOL    HW231662   4.994   1.350   5.668
10255SOL     OW31663   2.561   5.896   1.724
10255SOL    HW131664   2.489   5.941   1.777
10255SOL    HW231665   2.558   5.797   1.741
10256SOL     OW31666   4.944   2.356   1.954
10256SOL    HW131667   4.916   2.307   2.037
10256SOL    HW231668   4.973   2.290   1.885
10257SOL     OW31669   1.767   4.560   4.624
10257SOL    HW131670   1.791   4.656   4.611
10257SOL    HW231671   1.814   4.504   4.556
10258SOL     OW31672   3.463   1.423   3.699
10258SOL    HW131673   3.373   1.395   3.664
10258SOL    HW231674   3.456   1.514   3.740
10259SOL     OW31675   1.223   4.759   2.962
10259SOL    HW131676   1.294   4.830   2.963
10259SOL    HW231677   1.213   4.721   3.054
10260SOL     OW31678   1.220   1.773   3.648
10260SOL    HW131679   1.177   1.817   3.727
10260SOL    HW231680   1.318   1.795   3.647
10261SOL     OW31681   6.903   4.497   2.160
10261SOL    HW131682   6.826   4.478   2.100
10261SOL    HW231683   6.871   4.549   2.239
10262SOL     OW31684   2.575   6.768   5.573
10262SOL    HW131685   2.534   6.680   5.549
10262SOL    HW231686   2.504   6.830   5.607
10263SOL     OW31687   5.282   0.189   0.102
10263SOL    HW131688   5.253   0.255   0.171
10263SOL    HW231689   5.310   0.237   0.019
10264SOL     OW31690   5.929   0.025   6.641
10264SOL    HW131691   5.915   0.057   6.547
10264SOL    HW231692   5.964   0.100   6.697
10265SOL     OW31693   2.620   2.848   1.320
10265SOL    HW131694   2.640   2.933   1.369
10265SOL    HW231695   2.522   2.828   1.328
10266SOL     OW31696   3.747   3.309   3.484
10266SOL    HW131697   3.670   3.360   3.522
10266SOL    HW231698   3.766   3.342   3.391
10267SOL     OW31699   6.019   2.692   6.943
10267SOL    HW131700   5.968   2.607   6.929
10267SOL    HW231701   6.066   2.688   0.001
10268SOL     OW31702   5.856   5.731   2.633
10268SOL    HW131703   5.761   5.761   2.635
10268SOL    HW231704   5.899   5.751   2.721
10269SOL     OW31705   0.743   3.649   6.949
10269SOL    HW131706   0.766   3.628   6.854
10269SOL    HW231707   0.649   3.618   6.967
10270SOL     OW31708   3.310   4.886   2.471
10270SOL    HW131709   3.389   4.900   2.411
10270SOL    HW231710   3.226   4.905   2.420
10271SOL     OW31711   3.824   2.472   6.652
10271SOL    HW131712   3.921   2.488   6.636
10271SOL    HW231713   3.776   2.468   6.564
10272SOL     OW31714   1.594   1.472   5.306
10272SOL    HW131715   1.603   1.394   5.244
10272SOL    HW231716   1.522   1.533   5.273
10273SOL     OW31717   2.574   5.218   2.739
10273SOL    HW131718   2.662   5.209   2.693
10273SOL    HW231719   2.586   5.265   2.827
10274SOL     OW31720   0.932   5.112   5.500
10274SOL    HW131721   0.891   5.028   5.536
10274SOL    HW231722   0.905   5.123   5.404
10275SOL     OW31723   0.554   6.621   2.497
10275SOL    HW131724   0.542   6.531   2.454
10275SOL    HW231725   0.501   6.689   2.446
10276SOL     OW31726   5.494   5.151   5.489
10276SOL    HW131727   5.583   5.171   5.531
10276SOL    HW231728   5.461   5.232   5.440
10277SOL     OW31729   1.346   6.096   4.280
10277SOL    HW131730   1.374   6.002   4.301
10277SOL    HW231731   1.300   6.135   4.360
10278SOL     OW31732   1.144   1.963   3.829
10278SOL    HW131733   1.124   2.018   3.747
10278SOL    HW231734   1.161   2.024   3.906
10279SOL     OW31735   1.936   4.913   4.239
10279SOL    HW131736   2.008   4.922   4.307
10279SOL    HW231737   1.952   4.831   4.184
10280SOL     OW31738   0.109   3.056   0.121
10280SOL    HW131739   0.073   2.967   0.092
10280SOL    HW231740   0.095   3.067   0.220
10281SOL     OW31741   5.552   1.393   2.893
10281SOL    HW131742   5.558   1.381   2.794
10281SOL    HW231743   5.629   1.346   2.937
10282SOL     OW31744   5.768   3.937   4.392
10282SOL    HW131745   5.756   3.908   4.297
10282SOL    HW231746   5.686   3.984   4.423
10283SOL     OW31747   2.209   3.200   0.954
10283SOL    HW131748   2.243   3.265   0.886
10283SOL    HW231749   2.235   3.107   0.929
10284SOL     OW31750   5.336   2.167   5.006
10284SOL    HW131751   5.381   2.243   5.053
10284SOL    HW231752   5.315   2.095   5.072
10285SOL     OW31753   5.470   6.761   2.472
10285SOL    HW131754   5.500   6.666   2.461
10285SOL    HW231755   5.377   6.763   2.510
10286SOL     OW31756   3.476   1.909   3.224
10286SOL    HW131757   3.469   1.994   3.172
10286SOL    HW231758   3.543   1.849   3.181
10287SOL     OW31759   2.412   6.056   1.875
10287SOL    HW131760   2.411   6.079   1.972
10287SOL    HW231761   2.326   6.084   1.833
10288SOL     OW31762   4.730   5.292   2.910
10288SOL    HW131763   4.685   5.260   2.994
10288SOL    HW231764   4.693   5.243   2.832
10289SOL     OW31765   2.445   6.115   0.344
10289SOL    HW131766   2.477   6.202   0.307
10289SOL    HW231767   2.362   6.087   0.295
10290SOL     OW31768   3.063   4.055   2.635
10290SOL    HW131769   3.049   4.070   2.733
10290SOL    HW231770   3.046   3.959   2.614
10291SOL     OW31771   3.869   1.670   2.859
10291SOL    HW131772   3.881   1.634   2.767
10291SOL    HW231773   3.957   1.672   2.906
10292SOL     OW31774   1.785   1.626   5.425
10292SOL    HW131775   1.749   1.710   5.467
10292SOL    HW231776   1.708   1.570   5.393
10293SOL     OW31777   2.032   3.690   2.546
10293SOL    HW131778   2.064   3.645   2.629
10293SOL    HW231779   2.072   3.646   2.466
10294SOL     OW31780   5.443   2.887   3.072
10294SOL    HW131781   5.371   2.869   3.005
10294SOL    HW231782   5.528   2.844   3.041
10295SOL     OW31783   0.492   3.644   5.715
10295SOL    HW131784   0.464   3.726   5.664
10295SOL    HW231785   0.410   3.596   5.747
10296SOL     OW31786   4.738   1.595   0.088
10296SOL    HW131787   4.652   1.646   0.075
10296SOL    HW231788   4.762   1.549   0.003
10297SOL     OW31789   2.025   0.025   6.522
10297SOL    HW131790   2.062   6.997   6.448
10297SOL    HW231791   1.925   0.019   6.521
10298SOL     OW31792   2.151   4.250   1.586
10298SOL    HW131793   2.117   4.179   1.524
10298SOL    HW231794   2.164   4.210   1.677
10299SOL     OW31795   4.553   4.512   2.948
10299SOL    HW131796   4.567   4.485   3.043
10299SOL    HW231797   4.569   4.611   2.939
10300SOL     OW31798   1.036   4.208   2.259
10300SOL    HW131799   0.996   4.130   2.307
10300SOL    HW231800   1.103   4.174   2.192
10301SOL     OW31801   5.261   2.656   3.880
10301SOL    HW131802   5.292   2.746   3.911
10301SOL    HW231803   5.245   2.598   3.960
10302SOL     OW31804   1.844   6.769   4.360
10302SOL    HW131805   1.879   6.862   4.359
10302SOL    HW231806   1.869   6.725   4.446
10303SOL     OW31807   1.598   5.858   3.131
10303SOL    HW131808   1.636   5.820   3.047
10303SOL    HW231809   1.571   5.953   3.116
10304SOL     OW31810   5.475   7.002   1.547
10304SOL    HW131811   5.418   0.049   1.515
10304SOL    HW231812   5.535   0.003   1.621
10305SOL     OW31813   1.458   4.317   7.006
10305SOL    HW131814   1.555   4.295   6.993
10305SOL    HW231815   1.432   4.298   0.070
10306SOL     OW31816   5.344   6.842   6.655
10306SOL    HW131817   5.427   6.848   6.710
10306SOL    HW231818   5.291   6.926   6.667
10307SOL     OW31819   2.958   2.109   5.014
10307SOL    HW131820   2.914   2.115   5.103
10307SOL    HW231821   3.034   2.174   5.010
10308SOL     OW31822   1.793   3.558   3.113
10308SOL    HW131823   1.859   3.521   3.179
10308SOL    HW231824   1.835   3.562   3.023
10309SOL     OW31825   6.652   1.271   6.669
10309SOL    HW131826   6.715   1.211   6.719
10309SOL    HW231827   6.689   1.364   6.669
10310SOL     OW31828   3.279   3.330   1.101
10310SOL    HW131829   3.353   3.282   1.148
10310SOL    HW231830   3.191   3.289   1.127
10311SOL     OW31831   0.013   6.006   0.434
10311SOL    HW131832   0.070   5.939   0.482
10311SOL    HW231833   6.981   5.958   0.371
10312SOL     OW31834   3.562   5.532   2.626
10312SOL    HW131835   3.645   5.484   2.656
10312SOL    HW231836   3.536   5.599   2.696
10313SOL     OW31837   4.637   6.499   1.909
10313SOL    HW131838   4.605   6.577   1.963
10313SOL    HW231839   4.564   6.432   1.900
10314SOL     OW31840   6.475   0.822   1.724
10314SOL    HW131841   6.519   0.782   1.644
10314SOL    HW231842   6.423   0.751   1.772
10315SOL     OW31843   5.130   5.735   5.311
10315SOL    HW131844   5.214   5.756   5.359
10315SOL    HW231845   5.055   5.789   5.349
10316SOL     OW31846   5.636   1.659   4.158
10316SOL    HW131847   5.694   1.739   4.146
10316SOL    HW231848   5.687   1.577   4.135
10317SOL     OW31849   4.845   6.060   4.732
10317SOL    HW131850   4.758   6.076   4.687
10317SOL    HW231851   4.877   6.145   4.774
10318SOL     OW31852   5.316   6.625   6.491
10318SOL    HW131853   5.310   6.704   6.551
10318SOL    HW231854   5.376   6.646   6.413
10319SOL     OW31855   1.122   2.514   5.820
10319SOL    HW131856   1.218   2.485   5.817
10319SOL    HW231857   1.117   2.613   5.832
10320SOL     OW31858   0.597   0.992   2.900
10320SOL    HW131859   0.614   0.999   2.802
10320SOL    HW231860   0.521   0.929   2.916
10321SOL     OW31861   4.011   1.801   1.575
10321SOL    HW131862   4.057   1.759   1.654
10321SOL    HW231863   3.933   1.855   1.607
10322SOL     OW31864   6.503   5.755   5.354
10322SOL    HW131865   6.455   5.668   5.367
10322SOL    HW231866   6.511   5.773   5.256
10323SOL     OW31867   5.755   2.987   5.597
10323SOL    HW131868   5.706   3.039   5.528
10323SOL    HW231869   5.756   2.890   5.572
10324SOL     OW31870   3.408   3.423   2.235
10324SOL    HW131871   3.444   3.332   2.214
10324SOL    HW231872   3.311   3.417   2.255
10325SOL     OW31873   6.848   3.586   1.874
10325SOL    HW131874   6.837   3.647   1.953
10325SOL    HW231875   6.784   3.510   1.881
10326SOL     OW31876   3.198   5.041   0.166
10326SOL    HW131877   3.200   5.096   0.082
10326SOL    HW231878   3.144   4.958   0.150
10327SOL     OW31879   2.363   1.304   1.090
10327SOL    HW131880   2.362   1.398   1.122
10327SOL    HW231881   2.298   1.292   1.015
10328SOL     OW31882   6.154   2.499   0.809
10328SOL    HW131883   6.214   2.579   0.820
10328SOL    HW231884   6.073   2.526   0.756
10329SOL     OW31885   3.968   0.364   3.742
10329SOL    HW131886   3.890   0.414   3.780
10329SOL    HW231887   3.990   0.401   3.652
10330SOL     OW31888   4.779   0.443   2.258
10330SOL    HW131889   4.763   0.456   2.160
10330SOL    HW231890   4.815   0.351   2.274
10331SOL     OW31891   6.619   0.948   5.713
10331SOL    HW131892   6.711   0.989   5.716
10331SOL    HW231893   6.551   1.020   5.725
10332SOL     OW31894   6.790   6.753   0.553
10332SOL    HW131895   6.862   6.689   0.581
10332SOL    HW231896   6.798   6.838   0.605
10333SOL     OW31897   6.776   5.029   4.406
10333SOL    HW131898   6.757   4.952   4.467
10333SOL    HW231899   6.839   5.092   4.451
10334SOL     OW31900   3.966   6.525   3.487
10334SOL    HW131901   3.980   6.427   3.475
10334SOL    HW231902   3.955   6.568   3.397
10335SOL     OW31903   3.172   4.420   6.991
10335SOL    HW131904   3.167   4.485   6.915
10335SOL    HW231905   3.262   4.425   0.003
10336SOL     OW31906   6.786   6.440   2.130
10336SOL    HW131907   6.833   6.503   2.069
10336SOL    HW231908   6.745   6.491   2.206
10337SOL     OW31909   6.985   6.755   5.930
10337SOL    HW131910   6.984   6.771   5.831
10337SOL    HW231911   6.946   6.665   5.949
10338SOL     OW31912   2.375   6.630   2.704
10338SOL    HW131913   2.427   6.686   2.639
10338SOL    HW231914   2.337   6.689   2.776
10339SOL     OW31915   3.508   4.826   0.122
10339SOL    HW131916   3.504   4.879   0.037
10339SOL    HW231917   3.548   4.883   0.194
10340SOL     OW31918   1.795   4.291   0.713
10340SOL    HW131919   1.757   4.268   0.802
10340SOL    HW231920   1.855   4.371   0.721
10341SOL     OW31921   2.045   3.482   1.828
10341SOL    HW131922   2.027   3.562   1.771
10341SOL    HW231923   2.108   3.507   1.902
10342SOL     OW31924   1.087   0.248   5.513
10342SOL    HW131925   1.121   0.272   5.604
10342SOL    HW231926   1.109   0.153   5.493
10343SOL     OW31927   3.773   6.057   6.277
10343SOL    HW131928   3.715   5.977   6.260
10343SOL    HW231929   3.722   6.140   6.257
10344SOL     OW31930   4.471   4.042   1.684
10344SOL    HW131931   4.570   4.041   1.680
10344SOL    HW231932   4.440   4.116   1.744
10345SOL     OW31933   1.886   1.036   6.561
10345SOL    HW131934   1.803   0.999   6.519
10345SOL    HW231935   1.889   1.009   6.657
10346SOL     OW31936   6.547   6.785   1.688
10346SOL    HW131937   6.507   6.710   1.635
10346SOL    HW231938   6.500   6.793   1.776
10347SOL     OW31939   4.789   2.285   2.971
10347SOL    HW131940   4.803   2.256   3.066
10347SOL    HW231941   4.827   2.376   2.958
10348SOL     OW31942   6.764   1.321   6.945
10348SOL    HW131943   6.844   1.281   6.989
10348SOL    HW231944   6.781   1.418   6.927
10349SOL     OW31945   0.023   0.767   1.123
10349SOL    HW131946   7.011   0.813   1.201
10349SOL    HW231947   6.989   0.700   1.086
10350SOL     OW31948   2.008   6.954   5.286
10350SOL    HW131949   2.072   6.932   5.360
10350SOL    HW231950   1.981   6.869   5.239
10351SOL     OW31951   4.411   5.436   6.412
10351SOL    HW131952   4.395   5.484   6.498
10351SOL    HW231953   4.336   5.455   6.348
10352SOL     OW31954   4.377   2.141   5.639
10352SOL    HW131955   4.395   2.043   5.635
10352SOL    HW231956   4.297   2.163   5.583
10353SOL     OW31957   7.020   2.403   5.646
10353SOL    HW131958   6.951   2.464   5.684
10353SOL    HW231959   6.979   2.313   5.628
10354SOL     OW31960   5.986   2.476   1.911
10354SOL    HW131961   5.966   2.426   1.996
10354SOL    HW231962   6.040   2.418   1.850
10355SOL     OW31963   1.633   0.469   2.020
10355SOL    HW131964   1.533   0.463   2.020
10355SOL    HW231965   1.669   0.424   1.939
10356SOL     OW31966   0.464   4.569   6.037
10356SOL    HW131967   0.420   4.617   6.112
10356SOL    HW231968   0.478   4.473   6.063
10357SOL     OW31969   2.533   3.276   5.944
10357SOL    HW131970   2.534   3.177   5.936
10357SOL    HW231971   2.606   3.305   6.007
10358SOL     OW31972   6.654   2.848   2.560
10358SOL    HW131973   6.691   2.782   2.624
10358SOL    HW231974   6.626   2.802   2.476
10359SOL     OW31975   0.054   1.717   1.613
10359SOL    HW131976   0.021   1.628   1.645
10359SOL    HW231977   0.018   1.789   1.673
10360SOL     OW31978   4.796   5.558   2.622
10360SOL    HW131979   4.793   5.458   2.620
10360SOL    HW231980   4.761   5.594   2.535
10361SOL     OW31981   3.150   0.492   3.138
10361SOL    HW131982   3.242   0.529   3.129
10361SOL    HW231983   3.103   0.499   3.050
10362SOL     OW31984   1.161   5.206   4.556
10362SOL    HW131985   1.081   5.231   4.611
10362SOL    HW231986   1.151   5.243   4.464
10363SOL     OW31987   4.518   1.693   1.086
10363SOL    HW131988   4.504   1.594   1.080
10363SOL    HW231989   4.610   1.712   1.119
10364SOL     OW31990   3.222   3.769   1.863
10364SOL    HW131991   3.266   3.816   1.787
10364SOL    HW231992   3.291   3.734   1.926
10365SOL     OW31993   4.979   4.577   5.838
10365SOL    HW131994   5.051   4.629   5.792
10365SOL    HW231995   4.964   4.491   5.788
10366SOL     OW31996   4.664   0.357   4.207
10366SOL    HW131997   4.651   0.379   4.110
10366SOL    HW231998   4.746   0.403   4.241
10367SOL     OW31999   6.971   1.260   2.003
10367SOL    HW132000   0.022   1.267   1.944
10367SOL    HW232001   6.891   1.236   1.947
10368SOL     OW32002   1.898   1.214   1.973
10368SOL    HW132003   1.931   1.274   2.046
10368SOL    HW232004   1.971   1.198   1.907
10369SOL     OW32005   3.796   1.362   4.972
10369SOL    HW132006   3.775   1.281   4.917
10369SOL    HW232007   3.885   1.399   4.942
10370SOL     OW32008   5.610   1.948   5.200
10370SOL    HW132009   5.681   1.970   5.134
10370SOL    HW232010   5.621   1.855   5.233
10371SOL     OW32011   2.348   5.828   4.424
10371SOL    HW132012   2.277   5.766   4.458
10371SOL    HW232013   2.318   5.868   4.338
10372SOL     OW32014   1.411   1.309   0.151
10372SOL    HW132015   1.350   1.236   0.178
10372SOL    HW232016   1.487   1.316   0.216
10373SOL     OW32017   2.023   6.180   4.496
10373SOL    HW132018   2.036   6.089   4.535
10373SOL    HW232019   1.925   6.201   4.493
10374SOL     OW32020   4.065   1.093   2.679
10374SOL    HW132021   4.095   1.095   2.584
10374SOL    HW232022   4.005   1.171   2.697
10375SOL     OW32023   2.634   1.219   6.175
10375SOL    HW132024   2.565   1.159   6.216
10375SOL    HW232025   2.664   1.181   6.088
10376SOL     OW32026   1.482   6.524   4.163
10376SOL    HW132027   1.405   6.551   4.220
10376SOL    HW232028   1.549   6.598   4.159
10377SOL     OW32029   6.813   0.904   4.115
10377SOL    HW132030   6.805   1.000   4.088
10377SOL    HW232031   6.747   0.884   4.187
10378SOL     OW32032   6.210   0.067   6.161
10378SOL    HW132033   6.148   0.012   6.218
10378SOL    HW232034   6.251   0.139   6.217
10379SOL     OW32035   3.113   6.455   4.673
10379SOL    HW132036   3.122   6.355   4.675
10379SOL    HW232037   3.063   6.482   4.591
10380SOL     OW32038   0.727   1.742   4.116
10380SOL    HW132039   0.754   1.736   4.212
10380SOL    HW232040   0.807   1.761   4.059
10381SOL     OW32041   4.190   5.192   0.237
10381SOL    HW132042   4.135   5.243   0.303
10381SOL    HW232043   4.164   5.095   0.239
10382SOL     OW32044   2.162   4.396   0.179
10382SOL    HW132045   2.168   4.298   0.200
10382SOL    HW232046   2.204   4.413   0.090
10383SOL     OW32047   6.994   4.125   0.710
10383SOL    HW132048   6.899   4.105   0.686
10383SOL    HW232049   7.014   4.221   0.688
10384SOL     OW32050   0.836   6.951   1.019
10384SOL    HW132051   0.936   6.952   1.026
10384SOL    HW232052   0.797   6.934   1.109
10385SOL     OW32053   3.205   6.539   5.772
10385SOL    HW132054   3.118   6.492   5.758
10385SOL    HW232055   3.218   6.608   5.700
10386SOL     OW32056   6.326   2.813   5.801
10386SOL    HW132057   6.321   2.906   5.767
10386SOL    HW232058   6.238   2.767   5.785
10387SOL     OW32059   4.366   2.391   3.128
10387SOL    HW132060   4.391   2.312   3.072
10387SOL    HW232061   4.344   2.469   3.068
10388SOL     OW32062   2.210   5.844   2.780
10388SOL    HW132063   2.252   5.818   2.693
10388SOL    HW232064   2.111   5.845   2.771
10389SOL     OW32065   0.286   6.570   1.801
10389SOL    HW132066   0.214   6.502   1.787
10389SOL    HW232067   0.348   6.570   1.723
10390SOL     OW32068   1.922   3.000   1.463
10390SOL    HW132069   1.829   2.965   1.474
10390SOL    HW232070   1.979   2.968   1.539
10391SOL     OW32071   1.359   5.535   4.613
10391SOL    HW132072   1.346   5.448   4.659
10391SOL    HW232073   1.412   5.597   4.672
10392SOL     OW32074   6.566   4.121   6.971
10392SOL    HW132075   6.634   4.114   0.014
10392SOL    HW232076   6.491   4.180   7.000
10393SOL     OW32077   2.344   2.383   2.619
10393SOL    HW132078   2.263   2.370   2.562
10393SOL    HW232079   2.328   2.459   2.683
10394SOL     OW32080   2.324   6.484   4.842
10394SOL    HW132081   2.291   6.399   4.801
10394SOL    HW232082   2.393   6.525   4.783
10395SOL     OW32083   6.623   0.598   3.315
10395SOL    HW132084   6.710   0.634   3.278
10395SOL    HW232085   6.550   0.614   3.249
10396SOL     OW32086   2.335   0.693   4.176
10396SOL    HW132087   2.297   0.610   4.135
10396SOL    HW232088   2.284   0.715   4.259
10397SOL     OW32089   2.999   2.178   3.751
10397SOL    HW132090   3.093   2.165   3.718
10397SOL    HW232091   3.000   2.192   3.850
10398SOL     OW32092   5.960   2.579   0.619
10398SOL    HW132093   5.878   2.531   0.652
10398SOL    HW232094   5.933   2.651   0.555
10399SOL     OW32095   4.375   1.878   4.459
10399SOL    HW132096   4.357   1.807   4.391
10399SOL    HW232097   4.299   1.943   4.461
10400SOL     OW32098   3.669   5.609   1.545
10400SOL    HW132099   3.742   5.662   1.588
10400SOL    HW232100   3.616   5.561   1.615
10401SOL     OW32101   6.814   0.612   3.074
10401SOL    HW132102   6.849   0.704   3.057
10401SOL    HW232103   6.715   0.612   3.065
10402SOL     OW32104   0.160   2.783   5.495
10402SOL    HW132105   0.114   2.695   5.486
10402SOL    HW232106   0.246   2.771   5.545
10403SOL     OW32107   5.137   1.253   2.613
10403SOL    HW132108   5.126   1.274   2.516
10403SOL    HW232109   5.094   1.325   2.668
10404SOL     OW32110   0.396   6.431   3.522
10404SOL    HW132111   0.439   6.353   3.478
10404SOL    HW232112   0.366   6.497   3.452
10405SOL     OW32113   1.543   5.406   5.045
10405SOL    HW132114   1.546   5.481   4.980
10405SOL    HW232115   1.629   5.354   5.040
10406SOL     OW32116   2.038   3.784   5.254
10406SOL    HW132117   2.121   3.811   5.304
10406SOL    HW232118   2.061   3.714   5.187
10407SOL     OW32119   1.378   0.500   6.744
10407SOL    HW132120   1.416   0.569   6.681
10407SOL    HW232121   1.279   0.499   6.737
10408SOL     OW32122   3.744   6.166   2.100
10408SOL    HW132123   3.681   6.092   2.121
10408SOL    HW232124   3.692   6.248   2.075
10409SOL     OW32125   7.002   4.255   1.061
10409SOL    HW132126   0.049   4.289   1.114
10409SOL    HW232127   7.029   4.171   1.014
10410SOL     OW32128   5.076   1.480   1.121
10410SOL    HW132129   5.127   1.433   1.194
10410SOL    HW232130   5.117   1.569   1.104
10411SOL     OW32131   3.737   5.645   4.454
10411SOL    HW132132   3.650   5.626   4.500
10411SOL    HW232133   3.730   5.620   4.358
10412SOL     OW32134   0.546   0.854   0.349
10412SOL    HW132135   0.512   0.947   0.362
10412SOL    HW232136   0.568   0.813   0.438
10413SOL     OW32137   0.201   1.950   0.699
10413SOL    HW132138   0.165   2.021   0.759
10413SOL    HW232139   0.153   1.952   0.612
10414SOL     OW32140   4.754   6.303   5.620
10414SOL    HW132141   4.846   6.337   5.637
10414SOL    HW232142   4.758   6.220   5.565
10415SOL     OW32143   2.671   4.624   3.785
10415SOL    HW132144   2.608   4.577   3.846
10415SOL    HW232145   2.702   4.561   3.714
10416SOL     OW32146   6.567   1.173   5.450
10416SOL    HW132147   6.566   1.142   5.546
10416SOL    HW232148   6.522   1.104   5.393
10417SOL     OW32149   4.763   4.095   3.798
10417SOL    HW132150   4.769   4.133   3.891
10417SOL    HW232151   4.803   4.003   3.797
10418SOL     OW32152   6.334   4.300   5.146
10418SOL    HW132153   6.385   4.219   5.174
10418SOL    HW232154   6.271   4.327   5.218
10419SOL     OW32155   2.738   0.410   5.279
10419SOL    HW132156   2.690   0.354   5.347
10419SOL    HW232157   2.835   0.414   5.302
10420SOL     OW32158   6.895   3.716   3.937
10420SOL    HW132159   6.877   3.621   3.960
10420SOL    HW232160   6.875   3.732   3.840
10421SOL     OW32161   1.503   3.039   4.244
10421SOL    HW132162   1.589   3.090   4.255
10421SOL    HW232163   1.485   3.025   4.147
10422SOL     OW32164   6.727   3.716   5.707
10422SOL    HW132165   6.722   3.719   5.807
10422SOL    HW232166   6.650   3.662   5.672
10423SOL     OW32167   4.187   4.986   4.856
10423SOL    HW132168   4.200   4.910   4.920
10423SOL    HW232169   4.122   5.052   4.895
10424SOL     OW32170   4.429   2.359   6.776
10424SOL    HW132171   4.495   2.320   6.840
10424SOL    HW232172   4.370   2.286   6.741
10425SOL     OW32173   0.319   6.160   2.001
10425SOL    HW132174   0.382   6.225   1.959
10425SOL    HW232175   0.228   6.171   1.961
10426SOL     OW32176   5.353   3.574   5.752
10426SOL    HW132177   5.330   3.607   5.844
10426SOL    HW232178   5.298   3.622   5.684
10427SOL     OW32179   5.158   6.270   6.408
10427SOL    HW132180   5.245   6.220   6.412
10427SOL    HW232181   5.112   6.263   6.496
10428SOL     OW32182   1.836   1.817   4.131
10428SOL    HW132183   1.907   1.874   4.090
10428SOL    HW232184   1.850   1.811   4.230
10429SOL     OW32185   1.086   3.707   3.017
10429SOL    HW132186   0.991   3.734   2.999
10429SOL    HW232187   1.109   3.727   3.112
10430SOL     OW32188   3.925   6.273   4.513
10430SOL    HW132189   3.911   6.370   4.535
10430SOL    HW232190   3.861   6.218   4.567
10431SOL     OW32191   2.961   0.761   4.094
10431SOL    HW132192   3.027   0.688   4.114
10431SOL    HW232193   2.927   0.749   4.000
10432SOL     OW32194   0.292   1.618   5.321
10432SOL    HW132195   0.266   1.679   5.246
10432SOL    HW232196   0.381   1.577   5.300
10433SOL     OW32197   0.077   6.395   1.809
10433SOL    HW132198   0.103   6.396   1.712
10433SOL    HW232199   0.051   6.302   1.835
10434SOL     OW32200   4.486   6.091   4.691
10434SOL    HW132201   4.387   6.098   4.698
10434SOL    HW232202   4.514   5.998   4.716
10435SOL     OW32203   1.956   1.890   5.923
10435SOL    HW132204   2.041   1.862   5.967
10435SOL    HW232205   1.881   1.833   5.956
10436SOL     OW32206   6.740   4.343   3.868
10436SOL    HW132207   6.781   4.427   3.833
10436SOL    HW232208   6.810   4.273   3.879
10437SOL     OW32209   5.655   4.953   5.142
10437SOL    HW132210   5.752   4.974   5.155
10437SOL    HW232211   5.617   4.917   5.227
10438SOL     OW32212   6.939   5.742   6.011
10438SOL    HW132213   6.872   5.673   6.037
10438SOL    HW232214   6.913   5.831   6.050
10439SOL     OW32215   5.577   1.046   5.499
10439SOL    HW132216   5.498   1.091   5.457
10439SOL    HW232217   5.546   0.966   5.550
10440SOL     OW32218   6.809   6.531   6.830
10440SOL    HW132219   6.717   6.548   6.793
10440SOL    HW232220   6.814   6.566   6.923
10441SOL     OW32221   3.164   1.616   1.032
10441SOL    HW132222   3.259   1.647   1.040
10441SOL    HW232223   3.161   1.535   0.974
10442SOL     OW32224   4.582   0.451   4.710
10442SOL    HW132225   4.636   0.454   4.794
10442SOL    HW232226   4.562   0.356   4.686
10443SOL     OW32227   6.302   2.580   2.847
10443SOL    HW132228   6.374   2.528   2.894
10443SOL    HW232229   6.299   2.673   2.884
10444SOL     OW32230   3.071   5.073   3.011
10444SOL    HW132231   3.136   5.030   3.073
10444SOL    HW232232   3.009   5.132   3.062
10445SOL     OW32233   0.784   3.581   2.658
10445SOL    HW132234   0.760   3.677   2.648
10445SOL    HW232235   0.710   3.524   2.624
10446SOL     OW32236   1.806   3.952   6.184
10446SOL    HW132237   1.805   3.903   6.271
10446SOL    HW232238   1.897   3.947   6.144
10447SOL     OW32239   6.649   0.349   2.102
10447SOL    HW132240   6.607   0.261   2.078
10447SOL    HW232241   6.642   0.363   2.201
10448SOL     OW32242   3.440   0.346   3.051
10448SOL    HW132243   3.465   0.315   3.142
10448SOL    HW232244   3.404   0.440   3.056
10449SOL     OW32245   2.969   5.794   6.688
10449SOL    HW132246   2.891   5.857   6.686
10449SOL    HW232247   2.981   5.753   6.597
10450SOL     OW32248   6.640   0.694   6.520
10450SOL    HW132249   6.696   0.777   6.519
10450SOL    HW232250   6.683   0.627   6.581
10451SOL     OW32251   3.270   0.132   2.942
10451SOL    HW132252   3.330   0.193   2.993
10451SOL    HW232253   3.304   0.038   2.951
10452SOL     OW32254   6.934   2.958   2.297
10452SOL    HW132255   6.928   2.928   2.202
10452SOL    HW232256   6.937   2.878   2.357
10453SOL     OW32257   4.430   6.403   2.305
10453SOL    HW132258   4.521   6.434   2.276
10453SOL    HW232259   4.377   6.376   2.225
10454SOL     OW32260   5.880   0.726   0.479
10454SOL    HW132261   5.911   0.761   0.568
10454SOL    HW232262   5.956   0.681   0.433
10455SOL     OW32263   0.141   5.942   4.234
10455SOL    HW132264   0.216   5.890   4.275
10455SOL    HW232265   0.178   6.004   4.165
10456SOL     OW32266   0.564   5.784   0.532
10456SOL    HW132267   0.542   5.732   0.450
10456SOL    HW232268   0.518   5.742   0.611
10457SOL     OW32269   4.092   3.346   7.028
10457SOL    HW132270   4.100   3.326   6.930
10457SOL    HW232271   4.174   3.314   0.045
10458SOL     OW32272   6.736   6.714   6.586
10458SOL    HW132273   6.650   6.755   6.614
10458SOL    HW232274   6.812   6.774   6.612
10459SOL     OW32275   5.401   4.848   0.782
10459SOL    HW132276   5.493   4.880   0.801
10459SOL    HW232277   5.355   4.823   0.867
10460SOL     OW32278   0.153   3.629   2.106
10460SOL    HW132279   0.164   3.565   2.031
10460SOL    HW232280   0.152   3.723   2.071
10461SOL     OW32281   6.188   4.835   5.524
10461SOL    HW132282   6.162   4.779   5.445
10461SOL    HW232283   6.230   4.920   5.492
10462SOL     OW32284   5.867   2.273   2.909
10462SOL    HW132285   5.810   2.340   2.863
10462SOL    HW232286   5.919   2.317   2.982
10463SOL     OW32287   4.638   2.062   5.510
10463SOL    HW132288   4.577   2.019   5.443
10463SOL    HW232289   4.594   2.143   5.549
10464SOL     OW32290   5.696   6.174   1.962
10464SOL    HW132291   5.690   6.086   1.914
10464SOL    HW232292   5.644   6.169   2.047
10465SOL     OW32293   4.682   5.558   2.037
10465SOL    HW132294   4.709   5.576   1.942
10465SOL    HW232295   4.633   5.638   2.074
10466SOL     OW32296   4.890   4.368   6.467
10466SOL    HW132297   4.867   4.438   6.400
10466SOL    HW232298   4.920   4.411   6.552
10467SOL     OW32299   1.606   2.628   0.671
10467SOL    HW132300   1.704   2.642   0.659
10467SOL    HW232301   1.590   2.545   0.725
10468SOL     OW32302   4.433   4.880   3.701
10468SOL    HW132303   4.396   4.945   3.768
10468SOL    HW232304   4.434   4.923   3.611
10469SOL     OW32305   4.327   4.183   5.693
10469SOL    HW132306   4.243   4.180   5.639
10469SOL    HW232307   4.309   4.148   5.785
10470SOL     OW32308   2.493   1.486   3.442
10470SOL    HW132309   2.563   1.424   3.477
10470SOL    HW232310   2.410   1.434   3.420
10471SOL     OW32311   3.183   0.353   0.365
10471SOL    HW132312   3.275   0.375   0.332
10471SOL    HW232313   3.145   0.432   0.413
10472SOL     OW32314   2.673   5.313   0.716
10472SOL    HW132315   2.614   5.313   0.797
10472SOL    HW232316   2.761   5.355   0.738
10473SOL     OW32317   5.956   6.504   5.665
10473SOL    HW132318   5.990   6.430   5.607
10473SOL    HW232319   6.029   6.572   5.677
10474SOL     OW32320   4.531   1.293   3.617
10474SOL    HW132321   4.460   1.245   3.668
10474SOL    HW232322   4.562   1.373   3.669
10475SOL     OW32323   3.046   6.829   1.747
10475SOL    HW132324   2.989   6.834   1.829
10475SOL    HW232325   3.009   6.890   1.677
10476SOL     OW32326   4.869   6.403   6.065
10476SOL    HW132327   4.779   6.386   6.026
10476SOL    HW232328   4.880   6.349   6.148
10477SOL     OW32329   6.475   0.607   4.912
10477SOL    HW132330   6.497   0.647   4.823
10477SOL    HW232331   6.394   0.548   4.903
10478SOL     OW32332   6.565   6.192   6.869
10478SOL    HW132333   6.665   6.195   6.877
10478SOL    HW232334   6.532   6.282   6.840
10479SOL     OW32335   6.705   1.003   2.296
10479SOL    HW132336   6.618   0.957   2.275
10479SOL    HW232337   6.776   0.966   2.236
10480SOL     OW32338   1.136   0.905   2.132
10480SOL    HW132339   1.134   0.950   2.043
10480SOL    HW232340   1.205   0.950   2.190
10481SOL     OW32341   1.847   6.472   2.678
10481SOL    HW132342   1.897   6.539   2.623
10481SOL    HW232343   1.871   6.483   2.774
10482SOL     OW32344   6.183   5.366   4.629
10482SOL    HW132345   6.218   5.459   4.641
10482SOL    HW232346   6.242   5.302   4.678
10483SOL     OW32347   5.578   5.822   0.181
10483SOL    HW132348   5.654   5.764   0.212
10483SOL    HW232349   5.597   5.855   0.089
10484SOL     OW32350   4.853   1.910   1.803
10484SOL    HW132351   4.884   1.817   1.825
10484SOL    HW232352   4.781   1.937   1.868
10485SOL     OW32353   3.033   4.792   0.173
10485SOL    HW132354   3.111   4.731   0.186
10485SOL    HW232355   2.948   4.739   0.182
10486SOL     OW32356   0.019   0.417   0.371
10486SOL    HW132357   7.018   0.510   0.389
10486SOL    HW232358   0.108   0.420   0.325
10487SOL     OW32359   4.738   6.800   1.663
10487SOL    HW132360   4.775   6.710   1.688
10487SOL    HW232361   4.646   6.809   1.699
10488SOL     OW32362   3.170   1.374   5.648
10488SOL    HW132363   3.089   1.352   5.702
10488SOL    HW232364   3.160   1.464   5.607
10489SOL     OW32365   0.266   6.471   5.406
10489SOL    HW132366   0.328   6.443   5.333
10489SOL    HW232367   0.245   6.569   5.397
10490SOL     OW32368   5.961   1.260   1.619
10490SOL    HW132369   6.005   1.335   1.569
10490SOL    HW232370   6.029   1.213   1.675
10491SOL     OW32371   2.091   3.792   6.968
10491SOL    HW132372   2.086   3.714   0.001
10491SOL    HW232373   2.178   3.789   6.918
10492SOL     OW32374   5.980   4.384   5.687
10492SOL    HW132375   5.920   4.407   5.611
10492SOL    HW232376   6.042   4.460   5.704
10493SOL     OW32377   3.485   0.951   1.627
10493SOL    HW132378   3.452   0.899   1.548
10493SOL    HW232379   3.584   0.958   1.623
10494SOL     OW32380   4.963   3.797   5.688
10494SOL    HW132381   4.921   3.867   5.630
10494SOL    HW232382   4.907   3.714   5.687
10495SOL     OW32383   2.184   6.989   0.513
10495SOL    HW132384   2.113   0.010   0.561
10495SOL    HW232385   2.265   6.983   0.571
10496SOL     OW32386   0.107   4.856   6.384
10496SOL    HW132387   0.130   4.768   6.343
10496SOL    HW232388   0.026   4.847   6.442
10497SOL     OW32389   2.379   0.051   2.432
10497SOL    HW132390   2.464   0.104   2.426
10497SOL    HW232391   2.315   0.083   2.362
10498SOL     OW32392   2.809   6.094   1.371
10498SOL    HW132393   2.857   6.010   1.398
10498SOL    HW232394   2.731   6.070   1.312
10499SOL     OW32395   3.349   0.057   2.517
10499SOL    HW132396   3.352   6.996   2.559
10499SOL    HW232397   3.311   0.122   2.583
10500SOL     OW32398   6.772   0.528   6.676
10500SOL    HW132399   6.694   0.478   6.713
10500SOL    HW232400   6.855   0.473   6.685
10501SOL     OW32401   2.409   5.716   3.009
10501SOL    HW132402   2.327   5.747   3.058
10501SOL    HW232403   2.381   5.665   2.927
10502SOL     OW32404   3.004   0.167   1.320
10502SOL    HW132405   2.905   0.158   1.333
10502SOL    HW232406   3.027   0.263   1.302
10503SOL     OW32407   3.853   3.236   0.314
10503SOL    HW132408   3.797   3.167   0.360
10503SOL    HW232409   3.848   3.223   0.215
10504SOL     OW32410   1.921   1.318   7.026
10504SOL    HW132411   2.021   1.327   0.001
10504SOL    HW232412   1.888   1.367   6.945
10505SOL     OW32413   5.133   6.181   0.424
10505SOL    HW132414   5.145   6.109   0.492
10505SOL    HW232415   5.058   6.158   0.362
10506SOL     OW32416   6.754   5.049   6.889
10506SOL    HW132417   6.796   5.000   6.813
10506SOL    HW232418   6.687   4.989   6.933
10507SOL     OW32419   2.181   0.080   0.086
10507SOL    HW132420   2.211   0.013   0.155
10507SOL    HW232421   2.089   0.056   0.055
10508SOL     OW32422   6.144   6.372   4.398
10508SOL    HW132423   6.070   6.397   4.335
10508SOL    HW232424   6.172   6.453   4.450
10509SOL     OW32425   0.673   6.400   4.949
10509SOL    HW132426   0.713   6.357   4.868
10509SOL    HW232427   0.673   6.335   5.025
10510SOL     OW32428   4.989   5.933   6.077
10510SOL    HW132429   4.908   5.978   6.113
10510SOL    HW232430   4.993   5.946   5.978
10511SOL     OW32431   4.413   1.709   1.609
10511SOL    HW132432   4.342   1.658   1.658
10511SOL    HW232433   4.376   1.743   1.523
10512SOL     OW32434   3.884   0.032   5.721
10512SOL    HW132435   3.802   7.015   5.755
10512SOL    HW232436   3.963   7.002   5.732
10513SOL     OW32437   6.642   2.670   4.556
10513SOL    HW132438   6.690   2.637   4.638
10513SOL    HW232439   6.703   2.664   4.477
10514SOL     OW32440   7.026   3.438   0.226
10514SOL    HW132441   6.961   3.504   0.189
10514SOL    HW232442   0.086   3.453   0.187
10515SOL     OW32443   0.111   3.071   2.968
10515SOL    HW132444   0.045   3.043   2.898
10515SOL    HW232445   0.185   3.122   2.926
10516SOL     OW32446   3.755   0.916   0.051
10516SOL    HW132447   3.720   0.877   6.996
10516SOL    HW232448   3.739   1.015   0.051
10517SOL     OW32449   0.009   2.422   2.842
10517SOL    HW132450   7.011   2.348   2.903
10517SOL    HW232451   0.070   2.485   2.891
10518SOL     OW32452   0.995   5.095   6.608
10518SOL    HW132453   0.905   5.128   6.577
10518SOL    HW232454   1.046   5.172   6.647
10519SOL     OW32455   2.696   2.868   6.902
10519SOL    HW132456   2.647   2.884   6.987
10519SOL    HW232457   2.793   2.852   6.922
10520SOL     OW32458   1.374   2.971   6.849
10520SOL    HW132459   1.394   2.879   6.883
10520SOL    HW232460   1.315   2.965   6.769
10521SOL     OW32461   5.513   5.885   1.862
10521SOL    HW132462   5.475   5.952   1.799
10521SOL    HW232463   5.458   5.883   1.946
10522SOL     OW32464   6.296   0.303   6.276
10522SOL    HW132465   6.345   0.335   6.357
10522SOL    HW232466   6.241   0.378   6.238
10523SOL     OW32467   0.802   4.991   4.281
10523SOL    HW132468   0.733   4.919   4.288
10523SOL    HW232469   0.891   4.955   4.310
10524SOL     OW32470   1.682   0.547   4.745
10524SOL    HW132471   1.778   0.521   4.757
10524SOL    HW232472   1.624   0.472   4.777
10525SOL     OW32473   3.137   0.138   6.012
10525SOL    HW132474   3.211   0.107   6.072
10525SOL    HW232475   3.050   0.101   6.044
10526SOL     OW32476   0.492   6.829   2.970
10526SOL    HW132477   0.467   6.733   2.958
10526SOL    HW232478   0.572   6.850   2.913
10527SOL     OW32479   6.038   2.253   4.867
10527SOL    HW132480   6.096   2.333   4.879
10527SOL    HW232481   6.048   2.218   4.774
10528SOL     OW32482   1.450   3.193   5.958
10528SOL    HW132483   1.446   3.289   5.983
10528SOL    HW232484   1.481   3.184   5.863
10529SOL     OW32485   2.449   5.815   3.995
10529SOL    HW132486   2.537   5.852   3.963
10529SOL    HW232487   2.466   5.739   4.058
10530SOL     OW32488   2.355   0.678   6.838
10530SOL    HW132489   2.298   0.630   6.905
10530SOL    HW232490   2.435   0.623   6.817
10531SOL     OW32491   1.011   2.750   4.078
10531SOL    HW132492   1.067   2.817   4.029
10531SOL    HW232493   0.985   2.787   4.167
10532SOL     OW32494   1.727   4.780   6.569
10532SOL    HW132495   1.719   4.878   6.585
10532SOL    HW232496   1.706   4.730   6.654
10533SOL     OW32497   2.974   1.371   4.737
10533SOL    HW132498   3.004   1.417   4.820
10533SOL    HW232499   2.963   1.437   4.664
10534SOL     OW32500   5.597   5.739   1.287
10534SOL    HW132501   5.640   5.829   1.274
10534SOL    HW232502   5.557   5.734   1.378
10535SOL     OW32503   0.970   1.805   1.056
10535SOL    HW132504   0.962   1.902   1.079
10535SOL    HW232505   1.066   1.784   1.036
10536SOL     OW32506   4.100   1.167   3.442
10536SOL    HW132507   4.192   1.180   3.478
10536SOL    HW232508   4.105   1.135   3.347
10537SOL     OW32509   3.620   5.225   4.219
10537SOL    HW132510   3.598   5.276   4.136
10537SOL    HW232511   3.674   5.144   4.196
10538SOL     OW32512   5.435   2.708   0.548
10538SOL    HW132513   5.350   2.728   0.499
10538SOL    HW232514   5.433   2.615   0.583
10539SOL     OW32515   0.392   3.547   6.779
10539SOL    HW132516   0.465   3.526   6.844
10539SOL    HW232517   0.305   3.552   6.827
10540SOL     OW32518   1.359   2.731   5.117
10540SOL    HW132519   1.277   2.700   5.167
10540SOL    HW232520   1.406   2.652   5.078
10541SOL     OW32521   3.740   3.782   2.284
10541SOL    HW132522   3.702   3.689   2.278
10541SOL    HW232523   3.680   3.839   2.340
10542SOL     OW32524   6.749   1.464   6.257
10542SOL    HW132525   6.746   1.472   6.157
10542SOL    HW232526   6.769   1.370   6.283
10543SOL     OW32527   0.085   1.043   5.520
10543SOL    HW132528   0.176   1.030   5.482
10543SOL    HW232529   0.017   1.010   5.455
10544SOL     OW32530   1.818   6.665   2.043
10544SOL    HW132531   1.873   6.630   1.968
10544SOL    HW232532   1.859   6.638   2.130
10545SOL     OW32533   6.219   1.149   3.234
10545SOL    HW132534   6.185   1.223   3.174
10545SOL    HW232535   6.147   1.123   3.298
10546SOL     OW32536   1.185   0.883   6.565
10546SOL    HW132537   1.108   0.848   6.512
10546SOL    HW232538   1.180   0.982   6.569
10547SOL     OW32539   5.247   2.048   1.867
10547SOL    HW132540   5.340   2.084   1.878
10547SOL    HW232541   5.205   2.038   1.957
10548SOL     OW32542   5.349   4.441   4.847
10548SOL    HW132543   5.403   4.413   4.768
10548SOL    HW232544   5.253   4.415   4.832
10549SOL     OW32545   6.494   0.086   2.169
10549SOL    HW132546   6.457   0.045   2.252
10549SOL    HW232547   6.588   0.053   2.155
10550SOL     OW32548   4.229   6.003   5.002
10550SOL    HW132549   4.292   6.067   5.046
10550SOL    HW232550   4.147   5.993   5.058
10551SOL     OW32551   1.999   2.620   6.658
10551SOL    HW132552   2.007   2.710   6.701
10551SOL    HW232553   1.926   2.569   6.702
10552SOL     OW32554   3.720   2.057   6.279
10552SOL    HW132555   3.721   2.149   6.240
10552SOL    HW232556   3.787   2.050   6.352
10553SOL     OW32557   0.505   5.459   1.196
10553SOL    HW132558   0.429   5.398   1.218
10553SOL    HW232559   0.553   5.483   1.280
10554SOL     OW32560   5.127   5.485   0.125
10554SOL    HW132561   5.215   5.534   0.129
10554SOL    HW232562   5.138   5.401   0.073
10555SOL     OW32563   2.163   2.981   0.439
10555SOL    HW132564   2.245   2.964   0.493
10555SOL    HW232565   2.185   2.973   0.341
10556SOL     OW32566   2.051   2.622   5.124
10556SOL    HW132567   2.092   2.713   5.118
10556SOL    HW232568   2.048   2.594   5.220
10557SOL     OW32569   2.487   2.149   2.715
10557SOL    HW132570   2.434   2.215   2.661
10557SOL    HW232571   2.557   2.197   2.768
10558SOL     OW32572   4.189   0.407   3.872
10558SOL    HW132573   4.193   0.507   3.871
10558SOL    HW232574   4.105   0.378   3.825
10559SOL     OW32575   4.873   0.293   1.549
10559SOL    HW132576   4.824   0.379   1.558
10559SOL    HW232577   4.865   0.260   1.455
10560SOL     OW32578   3.701   6.241   3.532
10560SOL    HW132579   3.658   6.155   3.505
10560SOL    HW232580   3.688   6.309   3.460
10561SOL     OW32581   2.949   4.675   1.039
10561SOL    HW132582   3.020   4.665   1.110
10561SOL    HW232583   2.971   4.616   0.962
10562SOL     OW32584   4.805   5.746   0.152
10562SOL    HW132585   4.880   5.710   0.208
10562SOL    HW232586   4.721   5.749   0.207
10563SOL     OW32587   0.409   0.890   3.916
10563SOL    HW132588   0.366   0.970   3.874
10563SOL    HW232589   0.493   0.917   3.962
10564SOL     OW32590   5.856   6.642   2.479
10564SOL    HW132591   5.766   6.672   2.447
10564SOL    HW232592   5.869   6.546   2.457
10565SOL     OW32593   6.912   0.662   5.976
10565SOL    HW132594   6.871   0.652   6.067
10565SOL    HW232595   6.942   0.573   5.942
10566SOL     OW32596   4.208   3.019   0.048
10566SOL    HW132597   4.302   2.989   0.066
10566SOL    HW232598   4.191   3.016   6.979
10567SOL     OW32599   2.137   1.699   4.500
10567SOL    HW132600   2.177   1.610   4.482
10567SOL    HW232601   2.209   1.764   4.526
10568SOL     OW32602   5.985   2.075   0.901
10568SOL    HW132603   5.981   2.112   0.808
10568SOL    HW232604   5.918   2.122   0.958
10569SOL     OW32605   5.992   2.060   1.258
10569SOL    HW132606   5.948   2.126   1.196
10569SOL    HW232607   6.091   2.063   1.245
10570SOL     OW32608   1.653   5.086   3.312
10570SOL    HW132609   1.604   5.033   3.381
10570SOL    HW232610   1.595   5.161   3.280
10571SOL     OW32611   6.936   5.242   4.473
10571SOL    HW132612   6.859   5.300   4.501
10571SOL    HW232613   7.020   5.278   4.512
10572SOL     OW32614   0.199   4.214   3.895
10572SOL    HW132615   0.189   4.157   3.814
10572SOL    HW232616   0.251   4.165   3.964
10573SOL     OW32617   4.743   0.651   4.560
10573SOL    HW132618   4.677   0.580   4.585
10573SOL    HW232619   4.805   0.667   4.637
10574SOL     OW32620   1.085   1.797   4.619
10574SOL    HW132621   1.002   1.827   4.571
10574SOL    HW232622   1.165   1.818   4.565
10575SOL     OW32623   0.239   1.232   3.015
10575SOL    HW132624   0.177   1.173   2.963
10575SOL    HW232625   0.320   1.252   2.960
10576SOL     OW32626   0.010   6.008   5.483
10576SOL    HW132627   0.096   5.971   5.520
10576SOL    HW232628   0.016   6.107   5.478
10577SOL     OW32629   1.945   2.551   7.011
10577SOL    HW132630   1.904   2.467   6.975
10577SOL    HW232631   1.873   2.615   0.007
10578SOL     OW32632   6.158   0.713   3.209
10578SOL    HW132633   6.159   0.801   3.161
10578SOL    HW232634   6.084   0.657   3.173
10579SOL     OW32635   4.285   1.751   0.834
10579SOL    HW132636   4.303   1.667   0.783
10579SOL    HW232637   4.355   1.819   0.813
10580SOL     OW32638   6.519   0.422   6.799
10580SOL    HW132639   6.457   0.495   6.829
10580SOL    HW232640   6.471   0.335   6.800
10581SOL     OW32641   0.093   6.805   3.214
10581SOL    HW132642   7.027   6.795   3.242
10581SOL    HW232643   0.108   6.898   3.179
10582SOL     OW32644   4.662   5.186   6.776
10582SOL    HW132645   4.688   5.117   6.843
10582SOL    HW232646   4.734   5.195   6.707
10583SOL     OW32647   4.039   1.002   5.090
10583SOL    HW132648   3.951   0.963   5.116
10583SOL    HW232649   4.027   1.097   5.063
10584SOL     OW32650   6.158   6.526   1.372
10584SOL    HW132651   6.183   6.535   1.276
10584SOL    HW232652   6.068   6.566   1.387
10585SOL     OW32653   2.229   2.722   5.455
10585SOL    HW132654   2.318   2.743   5.416
10585SOL    HW232655   2.235   2.721   5.554
10586SOL     OW32656   0.944   5.293   4.682
10586SOL    HW132657   0.904   5.275   4.771
10586SOL    HW232658   0.884   5.257   4.610
10587SOL     OW32659   6.299   3.866   0.458
10587SOL    HW132660   6.306   3.924   0.378
10587SOL    HW232661   6.245   3.785   0.436
10588SOL     OW32662   0.092   4.015   2.924
10588SOL    HW132663   0.016   4.057   2.875
10588SOL    HW232664   0.060   3.983   3.013
10589SOL     OW32665   6.262   1.264   4.884
10589SOL    HW132666   6.184   1.203   4.872
10589SOL    HW232667   6.268   1.291   4.981
10590SOL     OW32668   1.294   0.427   1.624
10590SOL    HW132669   1.331   0.435   1.716
10590SOL    HW232670   1.194   0.426   1.628
10591SOL     OW32671   1.063   1.820   5.913
10591SOL    HW132672   1.034   1.824   5.817
10591SOL    HW232673   0.983   1.812   5.972
10592SOL     OW32674   6.264   2.944   0.633
10592SOL    HW132675   6.323   2.956   0.553
10592SOL    HW232676   6.259   3.030   0.684
10593SOL     OW32677   2.093   5.069   0.441
10593SOL    HW132678   2.151   5.040   0.365
10593SOL    HW232679   2.145   5.131   0.500
10594SOL     OW32680   5.318   0.992   2.276
10594SOL    HW132681   5.269   0.905   2.266
10594SOL    HW232682   5.257   1.059   2.319
10595SOL     OW32683   3.803   0.039   5.100
10595SOL    HW132684   3.798   0.021   5.002
10595SOL    HW232685   3.873   7.010   5.141
10596SOL     OW32686   4.869   7.005   0.216
10596SOL    HW132687   4.916   6.942   0.278
10596SOL    HW232688   4.776   7.020   0.249
10597SOL     OW32689   3.475   1.271   4.881
10597SOL    HW132690   3.404   1.320   4.831
10597SOL    HW232691   3.436   1.188   4.921
10598SOL     OW32692   2.649   2.499   7.009
10598SOL    HW132693   2.571   2.557   7.029
10598SOL    HW232694   2.666   2.498   6.910
10599SOL     OW32695   5.059   2.439   6.634
10599SOL    HW132696   5.076   2.435   6.733
10599SOL    HW232697   5.031   2.531   6.609
10600SOL     OW32698   1.678   2.466   0.439
10600SOL    HW132699   1.665   2.522   0.357
10600SOL    HW232700   1.646   2.515   0.519
10601SOL     OW32701   1.693   4.214   6.329
10601SOL    HW132702   1.728   4.158   6.254
10601SOL    HW232703   1.615   4.169   6.371
10602SOL     OW32704   4.954   1.940   2.994
10602SOL    HW132705   4.993   2.017   2.944
10602SOL    HW232706   4.985   1.942   3.089
10603SOL     OW32707   1.779   5.316   3.902
10603SOL    HW132708   1.763   5.303   3.804
10603SOL    HW232709   1.826   5.236   3.939
10604SOL     OW32710   6.205   3.975   5.604
10604SOL    HW132711   6.213   3.885   5.645
10604SOL    HW232712   6.109   3.997   5.588
10605SOL     OW32713   1.544   4.683   0.831
10605SOL    HW132714   1.565   4.759   0.894
10605SOL    HW232715   1.628   4.651   0.788
10606SOL     OW32716   6.762   0.007   2.460
10606SOL    HW132717   6.730   0.041   2.548
10606SOL    HW232718   6.726   6.945   2.444
10607SOL     OW32719   3.740   4.734   5.881
10607SOL    HW132720   3.759   4.820   5.928
10607SOL    HW232721   3.812   4.714   5.815
10608SOL     OW32722   5.266   1.832   5.997
10608SOL    HW132723   5.322   1.860   6.075
10608SOL    HW232724   5.169   1.839   6.021
10609SOL     OW32725   3.218   6.733   2.051
10609SOL    HW132726   3.219   6.832   2.037
10609SOL    HW232727   3.311   6.699   2.057
10610SOL     OW32728   0.940   3.462   6.012
10610SOL    HW132729   0.971   3.492   5.922
10610SOL    HW232730   0.970   3.528   6.081
10611SOL     OW32731   4.582   3.769   5.752
10611SOL    HW132732   4.632   3.700   5.700
10611SOL    HW232733   4.515   3.813   5.693
10612SOL     OW32734   2.767   0.258   5.699
10612SOL    HW132735   2.724   0.246   5.609
10612SOL    HW232736   2.861   0.288   5.687
10613SOL     OW32737   6.730   0.422   5.360
10613SOL    HW132738   6.800   0.464   5.418
10613SOL    HW232739   6.642   0.465   5.377
10614SOL     OW32740   6.763   2.554   4.792
10614SOL    HW132741   6.846   2.574   4.844
10614SOL    HW232742   6.760   2.457   4.771
10615SOL     OW32743   3.433   6.157   5.992
10615SOL    HW132744   3.451   6.252   5.966
10615SOL    HW232745   3.412   6.103   5.910
10616SOL     OW32746   2.882   6.540   1.502
10616SOL    HW132747   2.925   6.504   1.585
10616SOL    HW232748   2.889   6.473   1.429
10617SOL     OW32749   1.881   2.808   0.407
10617SOL    HW132750   1.978   2.829   0.417
10617SOL    HW232751   1.830   2.846   0.484
10618SOL     OW32752   6.269   3.400   6.376
10618SOL    HW132753   6.262   3.304   6.350
10618SOL    HW232754   6.199   3.421   6.445
10619SOL     OW32755   6.968   3.669   2.376
10619SOL    HW132756   0.018   3.683   2.318
10619SOL    HW232757   6.975   3.724   2.459
10620SOL     OW32758   1.476   5.353   5.898
10620SOL    HW132759   1.544   5.411   5.944
10620SOL    HW232760   1.415   5.313   5.966
10621SOL     OW32761   0.803   6.151   1.552
10621SOL    HW132762   0.713   6.141   1.510
10621SOL    HW232763   0.872   6.164   1.480
10622SOL     OW32764   5.193   0.867   1.210
10622SOL    HW132765   5.190   0.856   1.110
10622SOL    HW232766   5.127   0.937   1.238
10623SOL     OW32767   0.315   4.950   4.383
10623SOL    HW132768   0.323   5.027   4.320
10623SOL    HW232769   0.261   4.977   4.462
10624SOL     OW32770   0.383   1.905   4.810
10624SOL    HW132771   0.361   1.904   4.712
10624SOL    HW232772   0.476   1.938   4.823
10625SOL     OW32773   0.551   4.981   6.957
10625SOL    HW132774   0.494   4.902   6.978
10625SOL    HW232775   0.612   4.999   0.004
10626SOL     OW32776   1.957   3.198   1.028
10626SOL    HW132777   1.970   3.209   1.126
10626SOL    HW232778   2.043   3.214   0.981
10627SOL     OW32779   5.536   6.078   1.077
10627SOL    HW132780   5.619   6.026   1.097
10627SOL    HW232781   5.459   6.038   1.128
10628SOL     OW32782   5.203   5.594   6.189
10628SOL    HW132783   5.148   5.670   6.153
10628SOL    HW232784   5.154   5.508   6.178
10629SOL     OW32785   2.558   4.646   4.889
10629SOL    HW132786   2.466   4.610   4.903
10629SOL    HW232787   2.615   4.622   4.967
10630SOL     OW32788   6.336   1.263   3.786
10630SOL    HW132789   6.396   1.216   3.722
10630SOL    HW232790   6.244   1.225   3.781
10631SOL     OW32791   1.847   4.980   5.251
10631SOL    HW132792   1.827   4.957   5.156
10631SOL    HW232793   1.769   5.028   5.291
10632SOL     OW32794   5.762   1.549   3.808
10632SOL    HW132795   5.752   1.643   3.842
10632SOL    HW232796   5.776   1.487   3.886
10633SOL     OW32797   2.508   3.636   1.415
10633SOL    HW132798   2.532   3.545   1.383
10633SOL    HW232799   2.443   3.678   1.352
10634SOL     OW32800   3.160   5.221   1.630
10634SOL    HW132801   3.221   5.243   1.707
10634SOL    HW232802   3.070   5.260   1.647
10635SOL     OW32803   3.479   1.709   0.679
10635SOL    HW132804   3.386   1.732   0.707
10635SOL    HW232805   3.504   1.620   0.717
10636SOL     OW32806   1.387   1.624   1.249
10636SOL    HW132807   1.395   1.525   1.241
10636SOL    HW232808   1.413   1.667   1.162
10637SOL     OW32809   3.267   4.926   5.569
10637SOL    HW132810   3.267   4.975   5.482
10637SOL    HW232811   3.173   4.912   5.600
10638SOL     OW32812   6.989   5.623   2.901
10638SOL    HW132813   7.011   5.581   2.989
10638SOL    HW232814   7.007   5.559   2.827
10639SOL     OW32815   0.564   3.157   2.995
10639SOL    HW132816   0.555   3.112   2.906
10639SOL    HW232817   0.482   3.138   3.050
10640SOL     OW32818   3.787   0.387   5.478
10640SOL    HW132819   3.831   0.477   5.470
10640SOL    HW232820   3.709   0.394   5.540
10641SOL     OW32821   3.686   2.283   0.167
10641SOL    HW132822   3.734   2.365   0.137
10641SOL    HW232823   3.591   2.306   0.188
10642SOL     OW32824   6.647   2.345   1.428
10642SOL    HW132825   6.737   2.334   1.385
10642SOL    HW232826   6.649   2.426   1.487
10643SOL     OW32827   2.154   4.726   5.644
10643SOL    HW132828   2.153   4.786   5.723
10643SOL    HW232829   2.099   4.766   5.571
10644SOL     OW32830   5.898   1.967   3.095
10644SOL    HW132831   5.825   1.993   3.032
10644SOL    HW232832   5.908   1.868   3.096
10645SOL     OW32833   0.492   1.497   4.574
10645SOL    HW132834   0.573   1.453   4.534
10645SOL    HW232835   0.420   1.503   4.506
10646SOL     OW32836   0.482   1.557   6.061
10646SOL    HW132837   0.401   1.522   6.013
10646SOL    HW232838   0.554   1.578   5.995
10647SOL     OW32839   3.677   5.269   6.998
10647SOL    HW132840   3.628   5.351   6.969
10647SOL    HW232841   3.664   5.255   0.066
10648SOL     OW32842   4.577   4.424   6.658
10648SOL    HW132843   4.652   4.486   6.678
10648SOL    HW232844   4.515   4.466   6.592
10649SOL     OW32845   0.719   4.227   3.203
10649SOL    HW132846   0.736   4.133   3.176
10649SOL    HW232847   0.790   4.286   3.164
10650SOL     OW32848   1.461   6.661   2.700
10650SOL    HW132849   1.522   6.717   2.756
10650SOL    HW232850   1.492   6.566   2.701
10651SOL     OW32851   4.763   6.678   5.727
10651SOL    HW132852   4.809   6.722   5.804
10651SOL    HW232853   4.830   6.655   5.657
10652SOL     OW32854   3.449   0.225   6.307
10652SOL    HW132855   3.545   0.233   6.334
10652SOL    HW232856   3.391   0.266   6.377
10653SOL     OW32857   5.503   4.086   4.084
10653SOL    HW132858   5.491   4.052   4.177
10653SOL    HW232859   5.600   4.082   4.059
10654SOL     OW32860   4.170   0.915   0.731
10654SOL    HW132861   4.245   0.961   0.683
10654SOL    HW232862   4.083   0.958   0.705
10655SOL     OW32863   2.919   5.333   1.680
10655SOL    HW132864   2.926   5.430   1.703
10655SOL    HW232865   2.887   5.282   1.759
10656SOL     OW32866   6.176   2.863   0.344
10656SOL    HW132867   6.104   2.828   0.404
10656SOL    HW232868   6.263   2.861   0.393
10657SOL     OW32869   6.615   6.879   6.953
10657SOL    HW132870   6.715   6.885   6.942
10657SOL    HW232871   6.572   6.888   6.863
10658SOL     OW32872   6.578   3.772   4.269
10658SOL    HW132873   6.634   3.692   4.291
10658SOL    HW232874   6.626   3.830   4.204
10659SOL     OW32875   6.680   6.184   0.787
10659SOL    HW132876   6.675   6.101   0.731
10659SOL    HW232877   6.753   6.244   0.752
10660SOL     OW32878   5.306   4.314   6.283
10660SOL    HW132879   5.238   4.388   6.281
10660SOL    HW232880   5.263   4.230   6.251
10661SOL     OW32881   0.221   6.373   2.601
10661SOL    HW132882   0.210   6.465   2.640
10661SOL    HW232883   0.145   6.353   2.539
10662SOL     OW32884   5.935   1.057   2.061
10662SOL    HW132885   5.873   1.011   1.997
10662SOL    HW232886   5.993   0.988   2.105
10663SOL     OW32887   0.229   6.987   1.772
10663SOL    HW132888   0.129   6.980   1.766
10663SOL    HW232889   0.270   6.948   1.690
10664SOL     OW32890   2.075   4.449   5.662
10664SOL    HW132891   2.065   4.420   5.567
10664SOL    HW232892   2.090   4.547   5.666
10665SOL     OW32893   0.409   0.461   0.828
10665SOL    HW132894   0.393   0.421   0.737
10665SOL    HW232895   0.502   0.441   0.857
10666SOL     OW32896   3.389   5.190   0.818
10666SOL    HW132897   3.304   5.144   0.796
10666SOL    HW232898   3.390   5.217   0.914
10667SOL     OW32899   3.764   2.721   5.313
10667SOL    HW132900   3.791   2.809   5.351
10667SOL    HW232901   3.691   2.682   5.369
10668SOL     OW32902   1.000   1.740   5.202
10668SOL    HW132903   0.989   1.795   5.119
10668SOL    HW232904   0.926   1.673   5.208
10669SOL     OW32905   6.040   6.723   0.640
10669SOL    HW132906   6.011   6.701   0.546
10669SOL    HW232907   6.110   6.795   0.637
10670SOL     OW32908   4.923   4.103   5.226
10670SOL    HW132909   4.900   4.145   5.314
10670SOL    HW232910   4.883   4.156   5.152
10671SOL     OW32911   2.798   2.300   2.582
10671SOL    HW132912   2.736   2.377   2.565
10671SOL    HW232913   2.810   2.248   2.497
10672SOL     OW32914   6.970   2.380   0.521
10672SOL    HW132915   6.942   2.291   0.558
10672SOL    HW232916   7.001   2.439   0.595
10673SOL     OW32917   1.596   2.511   6.914
10673SOL    HW132918   1.643   2.594   6.943
10673SOL    HW232919   1.642   2.472   6.834
10674SOL     OW32920   3.499   3.480   0.944
10674SOL    HW132921   3.427   3.502   1.011
10674SOL    HW232922   3.581   3.451   0.993
10675SOL     OW32923   1.880   0.389   6.123
10675SOL    HW132924   1.918   0.337   6.200
10675SOL    HW232925   1.955   0.415   6.061
10676SOL     OW32926   6.519   6.749   6.170
10676SOL    HW132927   6.554   6.657   6.190
10676SOL    HW232928   6.515   6.762   6.071
10677SOL     OW32929   0.544   0.318   2.308
10677SOL    HW132930   0.622   0.257   2.294
10677SOL    HW232931   0.507   0.347   2.220
10678SOL     OW32932   3.759   5.247   3.003
10678SOL    HW132933   3.661   5.267   2.995
10678SOL    HW232934   3.776   5.153   2.973
10679SOL     OW32935   5.116   4.495   6.130
10679SOL    HW132936   5.053   4.418   6.117
10679SOL    HW232937   5.113   4.555   6.050
10680SOL     OW32938   2.063   2.298   4.172
10680SOL    HW132939   1.987   2.302   4.236
10680SOL    HW232940   2.027   2.293   4.079
10681SOL     OW32941   0.269   3.831   6.406
10681SOL    HW132942   0.270   3.884   6.491
10681SOL    HW232943   0.248   3.735   6.426
10682SOL     OW32944   2.068   2.426   2.754
10682SOL    HW132945   2.139   2.437   2.823
10682SOL    HW232946   2.029   2.334   2.762
10683SOL     OW32947   3.384   1.610   3.885
10683SOL    HW132948   3.357   1.688   3.829
10683SOL    HW232949   3.309   1.584   3.946
10684SOL     OW32950   4.409   3.925   0.321
10684SOL    HW132951   4.366   3.880   0.242
10684SOL    HW232952   4.503   3.892   0.330
10685SOL     OW32953   6.486   4.102   2.092
10685SOL    HW132954   6.408   4.110   2.154
10685SOL    HW232955   6.454   4.106   1.998
10686SOL     OW32956   3.967   5.318   6.507
10686SOL    HW132957   4.062   5.288   6.511
10686SOL    HW232958   3.962   5.417   6.515
10687SOL     OW32959   6.907   5.029   1.721
10687SOL    HW132960   6.845   5.053   1.796
10687SOL    HW232961   6.947   5.112   1.683
10688SOL     OW32962   6.514   4.467   2.607
10688SOL    HW132963   6.453   4.492   2.531
10688SOL    HW232964   6.511   4.539   2.677
10689SOL     OW32965   0.420   0.015   3.454
10689SOL    HW132966   0.419   7.005   3.362
10689SOL    HW232967   0.331   0.057   3.473
10690SOL     OW32968   5.686   5.263   4.118
10690SOL    HW132969   5.667   5.293   4.025
10690SOL    HW232970   5.641   5.325   4.183
10691SOL     OW32971   0.006   1.618   2.467
10691SOL    HW132972   7.000   1.706   2.496
10691SOL    HW232973   0.001   1.610   2.368
10692SOL     OW32974   3.421   5.496   3.546
10692SOL    HW132975   3.432   5.495   3.447
10692SOL    HW232976   3.343   5.553   3.572
10693SOL     OW32977   1.702   0.984   2.100
10693SOL    HW132978   1.761   0.914   2.061
10693SOL    HW232979   1.723   1.073   2.059
10694SOL     OW32980   3.355   6.084   1.435
10694SOL    HW132981   3.311   6.009   1.385
10694SOL    HW232982   3.453   6.066   1.444
10695SOL     OW32983   6.360   2.172   3.208
10695SOL    HW132984   6.438   2.162   3.146
10695SOL    HW232985   6.284   2.117   3.174
10696SOL     OW32986   0.068   5.182   2.275
10696SOL    HW132987   0.109   5.141   2.194
10696SOL    HW232988   0.094   5.279   2.281
10697SOL     OW32989   0.061   6.053   3.950
10697SOL    HW132990   0.147   6.011   3.980
10697SOL    HW232991   0.062   6.151   3.974
10698SOL     OW32992   3.382   6.663   4.188
10698SOL    HW132993   3.377   6.678   4.287
10698SOL    HW232994   3.342   6.574   4.166
10699SOL     OW32995   4.297   1.763   2.739
10699SOL    HW132996   4.347   1.677   2.750
10699SOL    HW232997   4.250   1.764   2.651
10700SOL     OW32998   1.002   0.160   0.351
10700SOL    HW132999   1.077   0.108   0.391
10700SOL    HW233000   0.924   0.099   0.333
10701SOL     OW33001   4.237   5.857   0.137
10701SOL    HW133002   4.324   5.808   0.139
10701SOL    HW233003   4.222   5.895   0.045
10702SOL     OW33004   5.877   2.579   2.262
10702SOL    HW133005   5.927   2.635   2.328
10702SOL    HW233006   5.789   2.620   2.243
10703SOL     OW33007   3.769   2.959   3.783
10703SOL    HW133008   3.836   3.028   3.808
10703SOL    HW233009   3.736   2.976   3.690
10704SOL     OW33010   5.077   5.874   1.811
10704SOL    HW133011   5.099   5.899   1.717
10704SOL    HW233012   5.085   5.955   1.870
10705SOL     OW33013   0.593   3.803   0.927
10705SOL    HW133014   0.638   3.748   0.857
10705SOL    HW233015   0.611   3.900   0.909
10706SOL     OW33016   4.336   6.802   2.042
10706SOL    HW133017   4.283   6.828   2.123
10706SOL    HW233018   4.402   6.731   2.067
10707SOL     OW33019   0.503   6.886   4.805
10707SOL    HW133020   0.429   6.938   4.847
10707SOL    HW233021   0.465   6.810   4.753
10708SOL     OW33022   4.719   1.010   1.611
10708SOL    HW133023   4.627   0.971   1.620
10708SOL    HW233024   4.747   1.049   1.698
10709SOL     OW33025   6.416   1.025   5.262
10709SOL    HW133026   6.500   1.045   5.213
10709SOL    HW233027   6.342   1.008   5.196
10710SOL     OW33028   0.826   6.585   4.741
10710SOL    HW133029   0.803   6.668   4.792
10710SOL    HW233030   0.873   6.520   4.802
10711SOL     OW33031   1.995   7.014   3.880
10711SOL    HW133032   2.004   0.002   3.782
10711SOL    HW233033   2.007   0.069   3.932
10712SOL     OW33034   3.962   0.876   3.568
10712SOL    HW133035   3.964   0.974   3.546
10712SOL    HW233036   3.874   0.853   3.609
10713SOL     OW33037   1.710   4.754   1.663
10713SOL    HW133038   1.799   4.797   1.645
10713SOL    HW233039   1.679   4.707   1.580
10714SOL     OW33040   6.704   3.627   5.343
10714SOL    HW133041   6.636   3.698   5.363
10714SOL    HW233042   6.745   3.645   5.254
10715SOL     OW33043   5.012   0.439   3.226
10715SOL    HW133044   4.936   0.450   3.290
10715SOL    HW233045   5.072   0.520   3.231
10716SOL     OW33046   0.168   2.344   3.527
10716SOL    HW133047   0.163   2.353   3.427
10716SOL    HW233048   0.078   2.365   3.566
10717SOL     OW33049   0.489   1.220   0.785
10717SOL    HW133050   0.501   1.129   0.824
10717SOL    HW233051   0.495   1.215   0.685
10718SOL     OW33052   6.612   4.607   0.053
10718SOL    HW133053   6.530   4.550   0.051
10718SOL    HW233054   6.685   4.558   0.101
10719SOL     OW33055   4.838   6.540   1.716
10719SOL    HW133056   4.931   6.552   1.752
10719SOL    HW233057   4.775   6.522   1.792
10720SOL     OW33058   6.508   3.548   6.009
10720SOL    HW133059   6.578   3.615   5.983
10720SOL    HW233060   6.502   3.543   6.108
10721SOL     OW33061   6.494   2.070   4.317
10721SOL    HW133062   6.543   2.027   4.241
10721SOL    HW233063   6.458   2.159   4.287
10722SOL     OW33064   0.134   3.493   6.868
10722SOL    HW133065   0.085   3.408   6.885
10722SOL    HW233066   0.092   3.568   6.920
10723SOL     OW33067   5.435   3.731   6.776
10723SOL    HW133068   5.405   3.706   6.868
10723SOL    HW233069   5.430   3.651   6.716
10724SOL     OW33070   3.975   6.517   5.923
10724SOL    HW133071   4.072   6.496   5.933
10724SOL    HW233072   3.923   6.476   5.998
10725SOL     OW33073   0.122   5.612   4.156
10725SOL    HW133074   0.165   5.522   4.167
10725SOL    HW233075   0.096   5.626   4.060
10726SOL     OW33076   6.566   6.783   4.595
10726SOL    HW133077   6.653   6.829   4.613
10726SOL    HW233078   6.571   6.689   4.628
10727SOL     OW33079   1.861   5.322   5.655
10727SOL    HW133080   1.768   5.295   5.628
10727SOL    HW233081   1.856   5.399   5.719
10728SOL     OW33082   5.794   6.405   2.851
10728SOL    HW133083   5.718   6.386   2.788
10728SOL    HW233084   5.829   6.497   2.832
10729SOL     OW33085   6.653   1.636   2.453
10729SOL    HW133086   6.694   1.598   2.370
10729SOL    HW233087   6.682   1.582   2.532
10730SOL     OW33088   2.689   6.553   2.136
10730SOL    HW133089   2.753   6.556   2.058
10730SOL    HW233090   2.603   6.597   2.109
10731SOL     OW33091   2.359   5.404   0.654
10731SOL    HW133092   2.435   5.339   0.655
10731SOL    HW233093   2.379   5.479   0.717
10732SOL     OW33094   6.510   0.160   2.933
10732SOL    HW133095   6.439   0.189   2.998
10732SOL    HW233096   6.561   0.083   2.971
10733SOL     OW33097   6.155   2.216   6.864
10733SOL    HW133098   6.126   2.243   6.772
10733SOL    HW233099   6.241   2.262   6.887
10734SOL     OW33100   0.662   0.463   6.229
10734SOL    HW133101   0.664   0.537   6.296
10734SOL    HW233102   0.589   0.399   6.252
10735SOL     OW33103   0.981   4.922   2.280
10735SOL    HW133104   1.027   4.861   2.345
10735SOL    HW233105   0.882   4.908   2.286
10736SOL     OW33106   0.595   1.270   3.235
10736SOL    HW133107   0.600   1.170   3.240
10736SOL    HW233108   0.516   1.301   3.288
10737SOL     OW33109   0.799   1.863   0.805
10737SOL    HW133110   0.780   1.783   0.749
10737SOL    HW233111   0.833   1.834   0.894
10738SOL     OW33112   2.156   0.235   2.686
10738SOL    HW133113   2.218   0.309   2.659
10738SOL    HW233114   2.174   0.209   2.780
10739SOL     OW33115   6.772   1.965   2.382
10739SOL    HW133116   6.742   1.899   2.313
10739SOL    HW233117   6.779   2.056   2.341
10740SOL     OW33118   1.362   6.083   5.623
10740SOL    HW133119   1.374   6.180   5.645
10740SOL    HW233120   1.450   6.037   5.629
10741SOL     OW33121   1.992   1.314   3.135
10741SOL    HW133122   2.034   1.370   3.206
10741SOL    HW233123   2.009   1.356   3.045
10742SOL     OW33124   5.735   0.103   2.131
10742SOL    HW133125   5.651   0.156   2.116
10742SOL    HW233126   5.727   0.015   2.085
10743SOL     OW33127   2.974   1.620   4.610
10743SOL    HW133128   3.029   1.689   4.656
10743SOL    HW233129   2.935   1.657   4.526
10744SOL     OW33130   3.171   1.565   2.182
10744SOL    HW133131   3.081   1.595   2.212
10744SOL    HW233132   3.230   1.645   2.168
10745SOL     OW33133   2.064   4.617   0.469
10745SOL    HW133134   2.158   4.651   0.463
10745SOL    HW233135   2.003   4.692   0.494
10746SOL     OW33136   2.339   5.550   0.900
10746SOL    HW133137   2.377   5.638   0.926
10746SOL    HW233138   2.249   5.562   0.861
10747SOL     OW33139   5.333   1.402   3.160
10747SOL    HW133140   5.356   1.471   3.229
10747SOL    HW233141   5.378   1.425   3.074
10748SOL     OW33142   5.317   5.722   1.138
10748SOL    HW133143   5.230   5.672   1.148
10748SOL    HW233144   5.386   5.661   1.101
10749SOL     OW33145   7.002   4.592   2.535
10749SOL    HW133146   6.969   4.643   2.614
10749SOL    HW233147   6.975   4.639   2.451
10750SOL     OW33148   4.824   3.981   4.564
10750SOL    HW133149   4.838   3.885   4.540
10750SOL    HW233150   4.877   4.002   4.646
10751SOL     OW33151   1.694   3.126   5.080
10751SOL    HW133152   1.684   3.188   5.158
10751SOL    HW233153   1.611   3.072   5.070
10752SOL     OW33154   5.979   4.553   6.908
10752SOL    HW133155   5.989   4.463   6.950
10752SOL    HW233156   5.885   4.586   6.923
10753SOL     OW33157   5.304   0.258   3.620
10753SOL    HW133158   5.318   0.309   3.704
10753SOL    HW233159   5.211   0.272   3.587
10754SOL     OW33160   1.313   2.757   2.241
10754SOL    HW133161   1.332   2.855   2.233
10754SOL    HW233162   1.368   2.719   2.316
10755SOL     OW33163   6.909   2.162   0.661
10755SOL    HW133164   6.900   2.081   0.603
10755SOL    HW233165   6.828   2.219   0.649
10756SOL     OW33166   6.608   2.474   0.093
10756SOL    HW133167   6.528   2.525   0.125
10756SOL    HW233168   6.626   2.496   7.027
10757SOL     OW33169   0.089   4.041   0.926
10757SOL    HW133170   0.037   4.070   0.846
10757SOL    HW233171   0.177   4.005   0.898
10758SOL     OW33172   0.574   5.436   5.660
10758SOL    HW133173   0.673   5.424   5.669
10758SOL    HW233174   0.534   5.352   5.622
10759SOL     OW33175   1.608   3.318   6.225
10759SOL    HW133176   1.692   3.349   6.179
10759SOL    HW233177   1.559   3.397   6.262
10760SOL     OW33178   0.680   5.575   1.002
10760SOL    HW133179   0.614   5.542   1.071
10760SOL    HW233180   0.727   5.655   1.038
10761SOL     OW33181   0.941   2.538   6.177
10761SOL    HW133182   1.040   2.546   6.189
10761SOL    HW233183   0.918   2.447   6.145
10762SOL     OW33184   4.739   0.960   5.705
10762SOL    HW133185   4.649   0.986   5.673
10762SOL    HW233186   4.809   1.004   5.648
10763SOL     OW33187   4.733   0.291   1.859
10763SOL    HW133188   4.705   0.282   1.763
10763SOL    HW233189   4.713   0.206   1.907
10764SOL     OW33190   5.395   1.513   6.130
10764SOL    HW133191   5.369   1.577   6.202
10764SOL    HW233192   5.465   1.556   6.072
10765SOL     OW33193   5.761   1.527   2.247
10765SOL    HW133194   5.758   1.427   2.239
10765SOL    HW233195   5.729   1.568   2.162
10766SOL     OW33196   2.276   4.086   0.104
10766SOL    HW133197   2.303   3.996   0.070
10766SOL    HW233198   2.178   4.099   0.089
10767SOL     OW33199   1.623   6.498   0.893
10767SOL    HW133200   1.703   6.485   0.834
10767SOL    HW233201   1.595   6.594   0.890
10768SOL     OW33202   5.222   5.766   6.886
10768SOL    HW133203   5.137   5.727   6.922
10768SOL    HW233204   5.292   5.762   6.957
10769SOL     OW33205   2.721   4.354   5.295
10769SOL    HW133206   2.798   4.395   5.245
10769SOL    HW233207   2.636   4.395   5.264
10770SOL     OW33208   5.578   0.451   4.442
10770SOL    HW133209   5.587   0.354   4.465
10770SOL    HW233210   5.494   0.487   4.483
10771SOL     OW33211   4.169   0.007   5.604
10771SOL    HW133212   4.120   0.089   5.574
10771SOL    HW233213   4.268   0.021   5.591
10772SOL     OW33214   6.646   6.550   3.602
10772SOL    HW133215   6.626   6.633   3.550
10772SOL    HW233216   6.652   6.572   3.699
10773SOL     OW33217   0.011   4.404   6.891
10773SOL    HW133218   0.030   4.492   6.934
10773SOL    HW233219   6.996   4.419   6.803
10774SOL     OW33220   1.539   2.371   1.442
10774SOL    HW133221   1.568   2.275   1.449
10774SOL    HW233222   1.567   2.420   1.524
10775SOL     OW33223   2.242   4.180   0.943
10775SOL    HW133224   2.179   4.195   0.867
10775SOL    HW233225   2.304   4.258   0.950
10776SOL     OW33226   0.138   6.662   2.041
10776SOL    HW133227   0.185   6.641   1.956
10776SOL    HW233228   0.039   6.665   2.025
10777SOL     OW33229   4.005   0.382   3.193
10777SOL    HW133230   3.954   0.467   3.200
10777SOL    HW233231   3.962   0.312   3.249
10778SOL     OW33232   6.291   6.390   4.790
10778SOL    HW133233   6.288   6.455   4.714
10778SOL    HW233234   6.198   6.363   4.815
10779SOL     OW33235   6.684   4.537   2.390
10779SOL    HW133236   6.646   4.488   2.469
10779SOL    HW233237   6.625   4.520   2.310
10780SOL     OW33238   0.497   5.590   4.080
10780SOL    HW133239   0.404   5.574   4.049
10780SOL    HW233240   0.515   5.688   4.082
10781SOL     OW33241   5.189   1.479   4.307
10781SOL    HW133242   5.274   1.531   4.310
10781SOL    HW233243   5.165   1.460   4.212
10782SOL     OW33244   6.113   2.990   4.057
10782SOL    HW133245   6.178   2.970   3.983
10782SOL    HW233246   6.122   2.920   4.128
10783SOL     OW33247   2.163   3.088   2.356
10783SOL    HW133248   2.107   3.028   2.414
10783SOL    HW233249   2.127   3.087   2.263
10784SOL     OW33250   2.646   6.967   2.339
10784SOL    HW133251   2.609   6.971   2.246
10784SOL    HW233252   2.677   6.873   2.358
10785SOL     OW33253   1.470   5.032   1.579
10785SOL    HW133254   1.489   4.940   1.543
10785SOL    HW233255   1.497   5.100   1.512
10786SOL     OW33256   5.100   2.005   2.108
10786SOL    HW133257   5.098   1.908   2.130
10786SOL    HW233258   5.010   2.045   2.123
10787SOL     OW33259   3.225   1.222   4.355
10787SOL    HW133260   3.238   1.189   4.261
10787SOL    HW233261   3.280   1.304   4.370
10788SOL     OW33262   2.117   3.928   0.471
10788SOL    HW133263   2.122   3.913   0.570
10788SOL    HW233264   2.150   4.020   0.450
10789SOL     OW33265   5.910   0.430   0.168
10789SOL    HW133266   5.953   0.512   0.132
10789SOL    HW233267   5.819   0.420   0.129
10790SOL     OW33268   0.026   0.885   5.918
10790SOL    HW133269   6.990   0.810   5.926
10790SOL    HW233270   0.109   0.861   5.967
10791SOL     OW33271   1.810   1.669   1.748
10791SOL    HW133272   1.796   1.575   1.716
10791SOL    HW233273   1.765   1.732   1.685
10792SOL     OW33274   3.399   2.942   1.668
10792SOL    HW133275   3.338   2.924   1.591
10792SOL    HW233276   3.358   2.908   1.752
10793SOL     OW33277   5.480   2.482   3.988
10793SOL    HW133278   5.540   2.426   4.044
10793SOL    HW233279   5.531   2.560   3.952
10794SOL     OW33280   3.773   4.082   1.893
10794SOL    HW133281   3.833   4.071   1.972
10794SOL    HW233282   3.680   4.105   1.924
10795SOL     OW33283   6.154   3.805   2.534
10795SOL    HW133284   6.126   3.886   2.586
10795SOL    HW233285   6.243   3.822   2.490
10796SOL     OW33286   3.764   0.246   6.290
10796SOL    HW133287   3.743   0.157   6.249
10796SOL    HW233288   3.815   0.232   6.375
10797SOL     OW33289   4.086   2.761   0.425
10797SOL    HW133290   4.104   2.855   0.397
10797SOL    HW233291   4.034   2.760   0.510
10798SOL     OW33292   2.450   0.373   0.130
10798SOL    HW133293   2.442   0.370   0.230
10798SOL    HW233294   2.392   0.446   0.094
10799SOL     OW33295   3.408   1.749   2.435
10799SOL    HW133296   3.384   1.653   2.448
10799SOL    HW233297   3.441   1.787   2.522
10800SOL     OW33298   1.942   6.273   0.860
10800SOL    HW133299   1.924   6.224   0.945
10800SOL    HW233300   1.907   6.220   0.783
10801SOL     OW33301   1.932   6.678   4.608
10801SOL    HW133302   1.847   6.691   4.659
10801SOL    HW233303   2.009   6.717   4.659
10802SOL     OW33304   2.394   2.754   4.250
10802SOL    HW133305   2.456   2.805   4.311
10802SOL    HW233306   2.312   2.727   4.301
10803SOL     OW33307   5.099   4.457   5.322
10803SOL    HW133308   5.170   4.489   5.261
10803SOL    HW233309   5.137   4.440   5.413
10804SOL     OW33310   6.992   4.421   0.695
10804SOL    HW133311   0.010   4.422   0.783
10804SOL    HW233312   6.929   4.498   0.691
10805SOL     OW33313   3.776   0.172   6.788
10805SOL    HW133314   3.863   0.204   6.825
10805SOL    HW233315   3.712   0.155   6.863
10806SOL     OW33316   5.985   4.277   0.020
10806SOL    HW133317   5.934   4.191   0.027
10806SOL    HW233318   6.083   4.258   0.018
10807SOL     OW33319   3.563   6.997   3.702
10807SOL    HW133320   3.611   6.909   3.709
10807SOL    HW233321   3.559   0.010   3.793
10808SOL     OW33322   6.998   3.694   0.011
10808SOL    HW133323   0.049   3.731   0.058
10808SOL    HW233324   6.916   3.722   0.060
10809SOL     OW33325   2.844   0.592   4.343
10809SOL    HW133326   2.763   0.630   4.388
10809SOL    HW233327   2.876   0.656   4.273
10810SOL     OW33328   0.623   1.363   5.561
10810SOL    HW133329   0.704   1.324   5.605
10810SOL    HW233330   0.541   1.320   5.598
10811SOL     OW33331   3.793   5.260   5.528
10811SOL    HW133332   3.869   5.225   5.473
10811SOL    HW233333   3.816   5.350   5.565
10812SOL     OW33334   0.500   2.876   2.380
10812SOL    HW133335   0.571   2.938   2.346
10812SOL    HW233336   0.457   2.829   2.303
10813SOL     OW33337   2.518   6.052   1.496
10813SOL    HW133338   2.546   5.999   1.576
10813SOL    HW233339   2.522   5.994   1.415
10814SOL     OW33340   1.716   0.252   5.837
10814SOL    HW133341   1.730   0.166   5.789
10814SOL    HW233342   1.721   0.237   5.936
10815SOL     OW33343   4.651   4.617   3.342
10815SOL    HW133344   4.645   4.527   3.384
10815SOL    HW233345   4.739   4.627   3.296
10816SOL     OW33346   1.896   1.413   2.217
10816SOL    HW133347   1.839   1.332   2.230
10816SOL    HW233348   1.837   1.493   2.209
10817SOL     OW33349   5.091   6.192   3.055
10817SOL    HW133350   5.019   6.244   3.010
10817SOL    HW233351   5.156   6.255   3.098
10818SOL     OW33352   5.765   2.541   5.684
10818SOL    HW133353   5.838   2.608   5.668
10818SOL    HW233354   5.734   2.504   5.597
10819SOL     OW33355   1.125   3.645   6.727
10819SOL    HW133356   1.035   3.652   6.684
10819SOL    HW233357   1.171   3.563   6.695
10820SOL     OW33358   0.220   6.754   3.765
10820SOL    HW133359   0.226   6.737   3.863
10820SOL    HW233360   0.214   6.853   3.749
10821SOL     OW33361   6.159   5.970   2.692
10821SOL    HW133362   6.132   5.874   2.680
10821SOL    HW233363   6.214   5.979   2.775
10822SOL     OW33364   1.280   3.481   2.915
10822SOL    HW133365   1.213   3.543   2.955
10822SOL    HW233366   1.345   3.533   2.859
10823SOL     OW33367   1.648   5.875   1.832
10823SOL    HW133368   1.631   5.792   1.885
10823SOL    HW233369   1.576   5.886   1.763
10824SOL     OW33370   5.124   6.840   3.458
10824SOL    HW133371   5.200   6.867   3.517
10824SOL    HW233372   5.087   6.752   3.487
10825SOL     OW33373   2.561   1.720   0.625
10825SOL    HW133374   2.518   1.729   0.715
10825SOL    HW233375   2.530   1.795   0.566
10826SOL     OW33376   6.507   3.270   2.272
10826SOL    HW133377   6.487   3.288   2.368
10826SOL    HW233378   6.582   3.330   2.242
10827SOL     OW33379   6.366   3.733   3.857
10827SOL    HW133380   6.359   3.692   3.948
10827SOL    HW233381   6.462   3.741   3.831
10828SOL     OW33382   0.836   5.962   1.744
10828SOL    HW133383   0.745   5.970   1.786
10828SOL    HW233384   0.843   6.026   1.668
10829SOL     OW33385   2.507   3.366   1.307
10829SOL    HW133386   2.551   3.279   1.331
10829SOL    HW233387   2.410   3.350   1.289
10830SOL     OW33388   5.902   2.685   4.114
10830SOL    HW133389   5.972   2.652   4.051
10830SOL    HW233390   5.934   2.768   4.158
10831SOL     OW33391   5.009   0.343   1.896
10831SOL    HW133392   5.036   0.423   1.843
10831SOL    HW233393   4.911   0.328   1.885
10832SOL     OW33394   0.642   2.070   0.900
10832SOL    HW133395   0.701   2.011   0.846
10832SOL    HW233396   0.619   2.023   0.986
10833SOL     OW33397   2.362   0.616   3.640
10833SOL    HW133398   2.336   0.707   3.608
10833SOL    HW233399   2.304   0.588   3.716
10834SOL     OW33400   0.196   1.135   5.212
10834SOL    HW133401   0.161   1.226   5.191
10834SOL    HW233402   0.291   1.143   5.244
10835SOL     OW33403   6.150   1.439   1.427
10835SOL    HW133404   6.094   1.459   1.346
10835SOL    HW233405   6.238   1.486   1.420
10836SOL     OW33406   6.610   1.798   5.355
10836SOL    HW133407   6.683   1.791   5.287
10836SOL    HW233408   6.543   1.866   5.325
10837SOL     OW33409   0.001   4.634   0.038
10837SOL    HW133410   6.999   4.724   0.010
10837SOL    HW233411   0.080   4.644   0.098
10838SOL     OW33412   5.731   0.710   5.546
10838SOL    HW133413   5.694   0.619   5.526
10838SOL    HW233414   5.831   0.708   5.541
10839SOL     OW33415   2.940   2.841   7.015
10839SOL    HW133416   3.039   2.852   7.023
10839SOL    HW233417   2.896   2.931   7.016
10840SOL     OW33418   3.751   5.913   1.445
10840SOL    HW133419   3.794   5.883   1.360
10840SOL    HW233420   3.718   6.007   1.434
10841SOL     OW33421   3.247   5.814   5.707
10841SOL    HW133422   3.149   5.810   5.728
10841SOL    HW233423   3.288   5.889   5.759
10842SOL     OW33424   6.178   2.631   1.219
10842SOL    HW133425   6.201   2.690   1.141
10842SOL    HW233426   6.250   2.564   1.233
10843SOL     OW33427   0.783   1.822   1.481
10843SOL    HW133428   0.774   1.737   1.429
10843SOL    HW233429   0.879   1.836   1.506
10844SOL     OW33430   6.778   6.547   4.503
10844SOL    HW133431   6.739   6.484   4.571
10844SOL    HW233432   6.836   6.495   4.440
10845SOL     OW33433   2.044   1.063   1.574
10845SOL    HW133434   2.105   1.137   1.603
10845SOL    HW233435   2.075   0.977   1.613
10846SOL     OW33436   4.717   1.957   0.825
10846SOL    HW133437   4.758   2.006   0.902
10846SOL    HW233438   4.619   1.974   0.823
10847SOL     OW33439   2.375   2.080   5.969
10847SOL    HW133440   2.377   1.993   6.019
10847SOL    HW233441   2.282   2.098   5.938
10848SOL     OW33442   2.750   1.614   6.767
10848SOL    HW133443   2.742   1.690   6.702
10848SOL    HW233444   2.828   1.629   6.827
10849SOL     OW33445   3.760   4.976   3.833
10849SOL    HW133446   3.809   4.937   3.911
10849SOL    HW233447   3.662   4.960   3.843
10850SOL     OW33448   3.925   6.824   6.943
10850SOL    HW133449   3.892   6.731   6.957
10850SOL    HW233450   3.853   6.879   6.900
10851SOL     OW33451   2.954   2.625   6.114
10851SOL    HW133452   2.930   2.557   6.184
10851SOL    HW233453   3.041   2.600   6.071
10852SOL     OW33454   0.237   0.396   6.754
10852SOL    HW133455   0.301   0.321   6.774
10852SOL    HW233456   0.143   0.362   6.757
10853SOL     OW33457   3.983   1.773   4.405
10853SOL    HW133458   4.078   1.784   4.376
10853SOL    HW233459   3.946   1.861   4.434
10854SOL     OW33460   5.992   0.242   6.804
10854SOL    HW133461   5.923   0.313   6.788
10854SOL    HW233462   6.016   0.241   6.901
10855SOL     OW33463   2.851   6.008   2.798
10855SOL    HW133464   2.783   6.070   2.836
10855SOL    HW233465   2.811   5.917   2.785
10856SOL     OW33466   6.234   0.227   1.070
10856SOL    HW133467   6.160   0.195   1.010
10856SOL    HW233468   6.322   0.203   1.030
10857SOL     OW33469   6.328   3.026   3.128
10857SOL    HW133470   6.258   3.098   3.125
10857SOL    HW233471   6.402   3.055   3.189
10858SOL     OW33472   2.021   3.159   6.675
10858SOL    HW133473   1.983   3.249   6.700
10858SOL    HW233474   2.033   3.155   6.575
10859SOL     OW33475   1.465   3.554   3.550
10859SOL    HW133476   1.480   3.456   3.552
10859SOL    HW233477   1.544   3.599   3.508
10860SOL     OW33478   6.370   1.022   6.921
10860SOL    HW133479   6.422   0.980   6.846
10860SOL    HW233480   6.411   1.109   6.946
10861SOL     OW33481   3.701   2.670   1.821
10861SOL    HW133482   3.786   2.704   1.782
10861SOL    HW233483   3.708   2.571   1.835
10862SOL     OW33484   2.407   1.864   6.152
10862SOL    HW133485   2.489   1.917   6.175
10862SOL    HW233486   2.363   1.833   6.236
10863SOL     OW33487   2.835   0.706   3.123
10863SOL    HW133488   2.780   0.778   3.165
10863SOL    HW233489   2.775   0.634   3.088
10864SOL     OW33490   1.965   4.521   1.694
10864SOL    HW133491   2.039   4.460   1.665
10864SOL    HW233492   1.877   4.483   1.667
10865SOL     OW33493   6.056   3.077   3.590
10865SOL    HW133494   5.971   3.109   3.547
10865SOL    HW233495   6.133   3.132   3.557
10866SOL     OW33496   5.753   3.077   0.931
10866SOL    HW133497   5.717   3.063   0.839
10866SOL    HW233498   5.804   2.997   0.960
10867SOL     OW33499   3.101   2.767   0.358
10867SOL    HW133500   3.194   2.741   0.330
10867SOL    HW233501   3.090   2.751   0.456
10868SOL     OW33502   1.272   2.008   2.920
10868SOL    HW133503   1.275   2.096   2.872
10868SOL    HW233504   1.222   2.019   3.006
10869NA      NA33505   0.781   1.951   6.398
10870NA      NA33506   4.459   4.626   5.157
10871NA      NA33507   1.718   4.667   2.683
10872NA      NA33508   5.078   4.364   3.791
10873NA      NA33509   4.387   2.443   5.196
10874NA      NA33510   3.122   4.734   1.573
10875NA      NA33511   1.056   4.746   0.118
10876NA      NA33512   3.978   4.367   1.563
10877NA      NA33513   4.523   4.041   1.021
10878NA      NA33514   3.789   1.298   5.730
10879NA      NA33515   4.951   5.666   1.744
10880NA      NA33516   1.539   0.389   5.749
10881NA      NA33517   4.902   4.948   1.947
10882NA      NA33518   3.516   3.418   0.502
   7.02991   7.02991   7.02991
