Generated by trjconv : CNT in water t= 347.00000
33518
    1C        C    1   2.840   2.765   4.747
    1C        C    2   2.900   2.720   4.866
    1C        C    3   2.847   2.777   4.983
    1C        C    4   2.848   2.777   4.259
    1C        C    5   2.899   2.727   4.381
    1C        C    6   2.846   2.773   4.504
    1C        C    7   3.011   2.640   4.623
    1C        C    8   2.893   2.718   4.625
    1C        C    9   3.077   2.605   4.743
    1C        C   10   3.015   2.638   4.865
    1C        C   11   3.184   2.493   4.974
    1C        C   12   3.068   2.572   4.977
    1C        C   13   2.845   2.770   3.772
    1C        C   14   2.897   2.721   3.894
    1C        C   15   2.846   2.772   4.016
    1C        C   16   3.018   2.649   4.139
    1C        C   17   2.901   2.727   4.138
    1C        C   18   3.083   2.617   4.261
    1C        C   19   3.016   2.647   4.382
    1C        C   20   3.207   2.552   4.501
    1C        C   21   3.075   2.603   4.502
    1C        C   22   3.277   2.537   4.623
    1C        C   23   3.207   2.548   4.745
    1C        C   24   3.414   2.477   4.864
    1C        C   25   3.272   2.498   4.862
    1C        C   26   3.490   2.476   4.982
    1C        C   27   2.857   2.775   3.281
    1C        C   28   2.909   2.731   3.405
    1C        C   29   2.854   2.774   3.528
    1C        C   30   3.013   2.638   3.652
    1C        C   31   2.898   2.720   3.651
    1C        C   32   3.074   2.599   3.774
    1C        C   33   3.012   2.639   3.895
    1C        C   34   3.206   2.553   4.015
    1C        C   35   3.076   2.607   4.017
    1C        C   36   3.275   2.531   4.137
    1C        C   37   3.214   2.564   4.259
    1C        C   38   3.419   2.510   4.381
    1C        C   39   3.280   2.536   4.381
    1C        C   40   3.486   2.495   4.504
    1C        C   41   3.415   2.505   4.625
    1C        C   42   3.631   2.482   4.740
    1C        C   43   3.488   2.482   4.744
    1C        C   44   3.704   2.486   4.861
    1C        C   45   3.629   2.481   4.979
    1C        C   46   2.836   2.752   2.792
    1C        C   47   2.892   2.710   2.915
    1C        C   48   2.846   2.762   3.038
    1C        C   49   3.017   2.635   3.160
    1C        C   50   2.905   2.721   3.159
    1C        C   51   3.074   2.601   3.284
    1C        C   52   3.014   2.637   3.407
    1C        C   53   3.204   2.546   3.528
    1C        C   54   3.075   2.602   3.530
    1C        C   55   3.273   2.522   3.649
    1C        C   56   3.204   2.543   3.770
    1C        C   57   3.411   2.498   3.892
    1C        C   58   3.273   2.530   3.893
    1C        C   59   3.484   2.496   4.013
    1C        C   60   3.414   2.506   4.136
    1C        C   61   3.627   2.503   4.256
    1C        C   62   3.486   2.502   4.257
    1C        C   63   3.700   2.504   4.377
    1C        C   64   3.627   2.493   4.498
    1C        C   65   3.835   2.539   4.621
    1C        C   66   3.700   2.497   4.618
    1C        C   67   3.904   2.560   4.743
    1C        C   68   3.839   2.526   4.863
    1C        C   69   4.050   2.589   4.978
    1C        C   70   3.923   2.530   4.975
    1C        C   71   2.828   2.737   2.304
    1C        C   72   2.881   2.694   2.428
    1C        C   73   2.830   2.742   2.551
    1C        C   74   3.009   2.625   2.670
    1C        C   75   2.889   2.700   2.672
    1C        C   76   3.071   2.590   2.792
    1C        C   77   3.009   2.631   2.913
    1C        C   78   3.201   2.542   3.037
    1C        C   79   3.071   2.597   3.035
    1C        C   80   3.269   2.524   3.160
    1C        C   81   3.204   2.546   3.284
    1C        C   82   3.412   2.501   3.400
    1C        C   83   3.273   2.527   3.406
    1C        C   84   3.481   2.494   3.523
    1C        C   85   3.413   2.501   3.647
    1C        C   86   3.623   2.498   3.768
    1C        C   87   3.481   2.493   3.770
    1C        C   88   3.692   2.520   3.889
    1C        C   89   3.625   2.508   4.013
    1C        C   90   3.836   2.542   4.135
    1C        C   91   3.698   2.514   4.134
    1C        C   92   3.903   2.570   4.256
    1C        C   93   3.837   2.539   4.377
    1C        C   94   4.025   2.635   4.499
    1C        C   95   3.903   2.564   4.500
    1C        C   96   4.089   2.673   4.619
    1C        C   97   4.030   2.626   4.739
    1C        C   98   4.184   2.771   4.861
    1C        C   99   4.094   2.659   4.862
    1C        C  100   4.207   2.845   4.977
    1C        C  101   2.818   2.733   2.069
    1C        C  102   2.989   2.590   2.185
    1C        C  103   2.875   2.677   2.184
    1C        C  104   3.062   2.579   2.307
    1C        C  105   2.999   2.617   2.427
    1C        C  106   3.198   2.533   2.550
    1C        C  107   3.069   2.589   2.547
    1C        C  108   3.267   2.514   2.671
    1C        C  109   3.201   2.536   2.794
    1C        C  110   3.411   2.501   2.914
    1C        C  111   3.271   2.519   2.916
    1C        C  112   3.481   2.493   3.037
    1C        C  113   3.409   2.505   3.157
    1C        C  114   3.623   2.497   3.280
    1C        C  115   3.482   2.496   3.278
    1C        C  116   3.694   2.511   3.402
    1C        C  117   3.622   2.501   3.524
    1C        C  118   3.829   2.547   3.646
    1C        C  119   3.693   2.507   3.646
    1C        C  120   3.896   2.576   3.766
    1C        C  121   3.828   2.557   3.889
    1C        C  122   4.015   2.650   4.010
    1C        C  123   3.897   2.573   4.011
    1C        C  124   4.083   2.677   4.131
    1C        C  125   4.028   2.637   4.254
    1C        C  126   4.195   2.765   4.375
    1C        C  127   4.086   2.674   4.377
    1C        C  128   4.242   2.820   4.496
    1C        C  129   4.194   2.767   4.618
    1C        C  130   4.323   2.936   4.739
    1C        C  131   4.242   2.819   4.740
    1C        C  132   4.352   3.002   4.860
    1C        C  133   4.288   2.959   4.976
    1C        C  134   3.174   2.466   2.080
    1C        C  135   3.039   2.502   2.084
    1C        C  136   3.256   2.471   2.193
    1C        C  137   3.193   2.522   2.309
    1C        C  138   3.405   2.485   2.427
    1C        C  139   3.265   2.502   2.429
    1C        C  140   3.477   2.486   2.549
    1C        C  141   3.407   2.490   2.671
    1C        C  142   3.621   2.497   2.790
    1C        C  143   3.480   2.494   2.791
    1C        C  144   3.692   2.509   2.912
    1C        C  145   3.623   2.493   3.034
    1C        C  146   3.827   2.544   3.157
    1C        C  147   3.692   2.503   3.157
    1C        C  148   3.897   2.571   3.277
    1C        C  149   3.830   2.547   3.399
    1C        C  150   4.023   2.629   3.521
    1C        C  151   3.895   2.570   3.523
    1C        C  152   4.084   2.669   3.643
    1C        C  153   4.024   2.636   3.766
    1C        C  154   4.197   2.760   3.885
    1C        C  155   4.081   2.679   3.888
    1C        C  156   4.248   2.808   4.008
    1C        C  157   4.197   2.761   4.131
    1C        C  158   4.336   2.920   4.254
    1C        C  159   4.251   2.807   4.253
    1C        C  160   4.371   2.986   4.374
    1C        C  161   4.330   2.931   4.497
    1C        C  162   4.434   3.118   4.616
    1C        C  163   4.369   2.993   4.618
    1C        C  164   4.462   3.186   4.736
    1C        C  165   4.426   3.122   4.857
    1C        C  166   4.506   3.320   4.975
    1C        C  167   4.472   3.185   4.974
    1C        C  168   3.473   2.430   2.074
    1C        C  169   3.396   2.453   2.189
    1C        C  170   3.616   2.465   2.306
    1C        C  171   3.474   2.461   2.307
    1C        C  172   3.689   2.486   2.425
    1C        C  173   3.618   2.494   2.546
    1C        C  174   3.828   2.536   2.664
    1C        C  175   3.691   2.503   2.667
    1C        C  176   3.894   2.561   2.787
    1C        C  177   3.829   2.542   2.910
    1C        C  178   4.021   2.626   3.031
    1C        C  179   3.892   2.568   3.034
    1C        C  180   4.085   2.664   3.151
    1C        C  181   4.024   2.633   3.275
    1C        C  182   4.195   2.752   3.396
    1C        C  183   4.085   2.663   3.399
    1C        C  184   4.241   2.807   3.518
    1C        C  185   4.195   2.756   3.641
    1C        C  186   4.341   2.913   3.763
    1C        C  187   4.252   2.803   3.762
    1C        C  188   4.378   2.972   3.885
    1C        C  189   4.341   2.914   4.009
    1C        C  190   4.445   3.100   4.129
    1C        C  191   4.378   2.975   4.131
    1C        C  192   4.467   3.172   4.248
    1C        C  193   4.442   3.109   4.372
    1C        C  194   4.504   3.314   4.490
    1C        C  195   4.465   3.179   4.492
    1C        C  196   4.520   3.386   4.611
    1C        C  197   4.502   3.323   4.736
    1C        C  198   4.550   3.533   4.851
    1C        C  199   4.529   3.392   4.857
    1C        C  200   4.581   3.621   4.961
    1C        C  201   3.613   2.425   2.069
    1C        C  202   3.824   2.509   2.179
    1C        C  203   3.690   2.460   2.184
    1C        C  204   3.894   2.538   2.299
    1C        C  205   3.826   2.521   2.422
    1C        C  206   4.019   2.621   2.540
    1C        C  207   3.895   2.553   2.541
    1C        C  208   4.080   2.657   2.663
    1C        C  209   4.023   2.620   2.787
    1C        C  210   4.196   2.744   2.905
    1C        C  211   4.080   2.663   2.909
    1C        C  212   4.252   2.791   3.026
    1C        C  213   4.194   2.754   3.149
    1C        C  214   4.335   2.908   3.270
    1C        C  215   4.245   2.799   3.273
    1C        C  216   4.371   2.969   3.393
    1C        C  217   4.332   2.915   3.517
    1C        C  218   4.439   3.097   3.639
    1C        C  219   4.377   2.970   3.639
    1C        C  220   4.463   3.167   3.760
    1C        C  221   4.439   3.100   3.882
    1C        C  222   4.495   3.303   4.006
    1C        C  223   4.465   3.165   4.005
    1C        C  224   4.515   3.377   4.125
    1C        C  225   4.501   3.309   4.248
    1C        C  226   4.524   3.524   4.366
    1C        C  227   4.519   3.383   4.367
    1C        C  228   4.525   3.597   4.487
    1C        C  229   4.530   3.527   4.609
    1C        C  230   4.504   3.742   4.726
    1C        C  231   4.535   3.603   4.728
    1C        C  232   4.496   3.817   4.845
    1C        C  233   4.552   3.758   4.959
    1C        C  234   4.017   2.610   2.059
    1C        C  235   3.894   2.545   2.063
    1C        C  236   4.083   2.646   2.178
    1C        C  237   4.020   2.606   2.297
    1C        C  238   4.196   2.732   2.420
    1C        C  239   4.081   2.649   2.417
    1C        C  240   4.249   2.785   2.540
    1C        C  241   4.192   2.743   2.662
    1C        C  242   4.338   2.900   2.782
    1C        C  243   4.246   2.793   2.782
    1C        C  244   4.377   2.961   2.903
    1C        C  245   4.337   2.904   3.026
    1C        C  246   4.447   3.087   3.146
    1C        C  247   4.376   2.965   3.148
    1C        C  248   4.468   3.155   3.269
    1C        C  249   4.434   3.096   3.393
    1C        C  250   4.500   3.297   3.516
    1C        C  251   4.463   3.161   3.515
    1C        C  252   4.510   3.370   3.637
    1C        C  253   4.497   3.304   3.761
    1C        C  254   4.518   3.513   3.879
    1C        C  255   4.511   3.371   3.884
    1C        C  256   4.521   3.588   3.998
    1C        C  257   4.524   3.518   4.120
    1C        C  258   4.494   3.730   4.243
    1C        C  259   4.519   3.591   4.241
    1C        C  260   4.472   3.800   4.364
    1C        C  261   4.495   3.735   4.487
    1C        C  262   4.420   3.939   4.603
    1C        C  263   4.478   3.810   4.605
    1C        C  264   4.400   4.012   4.722
    1C        C  265   4.438   3.945   4.841
    1C        C  266   4.318   4.128   4.956
    1C        C  267   4.398   4.014   4.956
    1C        C  268   4.259   2.775   2.061
    1C        C  269   4.200   2.725   2.177
    1C        C  270   4.344   2.885   2.295
    1C        C  271   4.252   2.777   2.298
    1C        C  272   4.378   2.950   2.415
    1C        C  273   4.339   2.894   2.539
    1C        C  274   4.446   3.080   2.659
    1C        C  275   4.380   2.955   2.659
    1C        C  276   4.473   3.150   2.779
    1C        C  277   4.443   3.086   2.901
    1C        C  278   4.504   3.289   3.026
    1C        C  279   4.474   3.151   3.023
    1C        C  280   4.507   3.362   3.147
    1C        C  281   4.498   3.293   3.269
    1C        C  282   4.517   3.504   3.387
    1C        C  283   4.509   3.363   3.392
    1C        C  284   4.510   3.575   3.508
    1C        C  285   4.514   3.511   3.634
    1C        C  286   4.487   3.722   3.751
    1C        C  287   4.509   3.583   3.756
    1C        C  288   4.472   3.791   3.874
    1C        C  289   4.496   3.727   3.998
    1C        C  290   4.421   3.926   4.116
    1C        C  291   4.479   3.797   4.119
    1C        C  292   4.388   3.993   4.236
    1C        C  293   4.424   3.933   4.359
    1C        C  294   4.321   4.122   4.475
    1C        C  295   4.393   4.001   4.478
    1C        C  296   4.278   4.181   4.596
    1C        C  297   4.322   4.131   4.720
    1C        C  298   4.196   4.312   4.838
    1C        C  299   4.283   4.198   4.840
    1C        C  300   4.168   4.402   4.945
    1C        C  301   4.352   2.879   2.059
    1C        C  302   4.470   3.065   2.175
    1C        C  303   4.396   2.943   2.175
    1C        C  304   4.484   3.139   2.295
    1C        C  305   4.448   3.074   2.415
    1C        C  306   4.503   3.281   2.533
    1C        C  307   4.476   3.142   2.535
    1C        C  308   4.510   3.352   2.654
    1C        C  309   4.506   3.287   2.779
    1C        C  310   4.521   3.497   2.900
    1C        C  311   4.516   3.356   2.902
    1C        C  312   4.516   3.571   3.021
    1C        C  313   4.516   3.503   3.145
    1C        C  314   4.484   3.715   3.262
    1C        C  315   4.511   3.576   3.266
    1C        C  316   4.465   3.783   3.384
    1C        C  317   4.486   3.715   3.505
    1C        C  318   4.425   3.920   3.625
    1C        C  319   4.471   3.787   3.626
    1C        C  320   4.389   3.982   3.746
    1C        C  321   4.418   3.921   3.870
    1C        C  322   4.310   4.104   3.989
    1C        C  323   4.384   3.984   3.992
    1C        C  324   4.276   4.168   4.110
    1C        C  325   4.324   4.118   4.234
    1C        C  326   4.183   4.282   4.353
    1C        C  327   4.281   4.181   4.353
    1C        C  328   4.136   4.339   4.474
    1C        C  329   4.191   4.293   4.595
    1C        C  330   4.022   4.431   4.713
    1C        C  331   4.138   4.348   4.714
    1C        C  332   3.972   4.493   4.829
    1C        C  333   4.051   4.480   4.944
    1C        C  334   4.553   3.265   2.061
    1C        C  335   4.535   3.127   2.063
    1C        C  336   4.536   3.349   2.173
    1C        C  337   4.514   3.278   2.293
    1C        C  338   4.523   3.494   2.411
    1C        C  339   4.518   3.353   2.413
    1C        C  340   4.515   3.564   2.534
    1C        C  341   4.514   3.494   2.656
    1C        C  342   4.490   3.706   2.772
    1C        C  343   4.516   3.567   2.777
    1C        C  344   4.467   3.775   2.893
    1C        C  345   4.489   3.709   3.016
    1C        C  346   4.419   3.912   3.135
    1C        C  347   4.469   3.780   3.137
    1C        C  348   4.384   3.977   3.256
    1C        C  349   4.412   3.914   3.379
    1C        C  350   4.313   4.100   3.500
    1C        C  351   4.388   3.980   3.502
    1C        C  352   4.272   4.158   3.622
    1C        C  353   4.313   4.101   3.745
    1C        C  354   4.172   4.261   3.867
    1C        C  355   4.270   4.160   3.866
    1C        C  356   4.122   4.316   3.988
    1C        C  357   4.176   4.268   4.110
    1C        C  358   4.007   4.399   4.228
    1C        C  359   4.126   4.323   4.230
    1C        C  360   3.949   4.441   4.350
    1C        C  361   4.015   4.411   4.472
    1C        C  362   3.824   4.510   4.594
    1C        C  363   3.952   4.451   4.592
    1C        C  364   3.759   4.545   4.714
    1C        C  365   3.839   4.542   4.830
    1C        C  366   3.627   4.591   4.949
    1C        C  367   3.765   4.572   4.945
    1C        C  368   4.510   3.561   2.053
    1C        C  369   4.532   3.490   2.171
    1C        C  370   4.499   3.705   2.284
    1C        C  371   4.522   3.566   2.289
    1C        C  372   4.481   3.772   2.407
    1C        C  373   4.495   3.704   2.530
    1C        C  374   4.415   3.904   2.647
    1C        C  375   4.469   3.774   2.650
    1C        C  376   4.388   3.971   2.769
    1C        C  377   4.419   3.908   2.892
    1C        C  378   4.311   4.093   3.010
    1C        C  379   4.385   3.973   3.012
    1C        C  380   4.270   4.152   3.132
    1C        C  381   4.308   4.096   3.256
    1C        C  382   4.174   4.260   3.376
    1C        C  383   4.268   4.154   3.378
    1C        C  384   4.120   4.305   3.499
    1C        C  385   4.173   4.260   3.621
    1C        C  386   4.004   4.387   3.744
    1C        C  387   4.120   4.306   3.744
    1C        C  388   3.942   4.431   3.863
    1C        C  389   4.007   4.397   3.984
    1C        C  390   3.816   4.490   4.107
    1C        C  391   3.943   4.429   4.106
    1C        C  392   3.751   4.519   4.229
    1C        C  393   3.820   4.499   4.350
    1C        C  394   3.615   4.548   4.471
    1C        C  395   3.755   4.527   4.472
    1C        C  396   3.544   4.559   4.593
    1C        C  397   3.619   4.562   4.713
    1C        C  398   3.409   4.551   4.840
    1C        C  399   3.548   4.571   4.835
    1C        C  400   3.336   4.522   4.956
    1C        C  401   4.499   3.700   2.047
    1C        C  402   4.451   3.914   2.164
    1C        C  403   4.485   3.777   2.163
    1C        C  404   4.410   3.974   2.285
    1C        C  405   4.431   3.904   2.406
    1C        C  406   4.319   4.092   2.524
    1C        C  407   4.392   3.971   2.525
    1C        C  408   4.269   4.145   2.645
    1C        C  409   4.309   4.088   2.767
    1C        C  410   4.171   4.251   2.887
    1C        C  411   4.271   4.150   2.888
    1C        C  412   4.117   4.297   3.009
    1C        C  413   4.171   4.253   3.132
    1C        C  414   4.003   4.381   3.252
    1C        C  415   4.122   4.305   3.253
    1C        C  416   3.941   4.416   3.374
    1C        C  417   4.003   4.384   3.498
    1C        C  418   3.815   4.478   3.617
    1C        C  419   3.945   4.423   3.620
    1C        C  420   3.748   4.509   3.737
    1C        C  421   3.813   4.488   3.860
    1C        C  422   3.610   4.533   3.986
    1C        C  423   3.750   4.512   3.984
    1C        C  424   3.540   4.536   4.108
    1C        C  425   3.611   4.539   4.231
    1C        C  426   3.399   4.550   4.354
    1C        C  427   3.540   4.554   4.352
    1C        C  428   3.331   4.540   4.477
    1C        C  429   3.403   4.549   4.598
    1C        C  430   3.194   4.511   4.721
    1C        C  431   3.333   4.541   4.721
    1C        C  432   3.121   4.493   4.841
    1C        C  433   3.200   4.493   4.957
    1C        C  434   4.381   4.118   2.049
    1C        C  435   4.440   3.991   2.048
    1C        C  436   4.297   4.157   2.159
    1C        C  437   4.330   4.091   2.281
    1C        C  438   4.177   4.245   2.400
    1C        C  439   4.279   4.147   2.400
    1C        C  440   4.121   4.294   2.519
    1C        C  441   4.169   4.246   2.643
    1C        C  442   4.001   4.375   2.765
    1C        C  443   4.117   4.295   2.764
    1C        C  444   3.943   4.417   2.887
    1C        C  445   4.002   4.379   3.009
    1C        C  446   3.809   4.470   3.127
    1C        C  447   3.940   4.415   3.131
    1C        C  448   3.745   4.498   3.250
    1C        C  449   3.812   4.473   3.372
    1C        C  450   3.608   4.527   3.495
    1C        C  451   3.746   4.495   3.494
    1C        C  452   3.539   4.540   3.618
    1C        C  453   3.609   4.534   3.741
    1C        C  454   3.398   4.535   3.866
    1C        C  455   3.539   4.538   3.864
    1C        C  456   3.329   4.522   3.989
    1C        C  457   3.399   4.532   4.111
    1C        C  458   3.191   4.500   4.236
    1C        C  459   3.328   4.535   4.232
    1C        C  460   3.125   4.480   4.359
    1C        C  461   3.193   4.510   4.479
    1C        C  462   2.994   4.430   4.602
    1C        C  463   3.125   4.484   4.601
    1C        C  464   2.922   4.403   4.721
    1C        C  465   2.986   4.445   4.841
    1C        C  466   2.796   4.339   4.959
    1C        C  467   2.902   4.430   4.956
    1C        C  468   4.123   4.290   2.041
    1C        C  469   4.184   4.244   2.159
    1C        C  470   4.009   4.376   2.277
    1C        C  471   4.124   4.292   2.278
    1C        C  472   3.942   4.408   2.398
    1C        C  473   4.005   4.376   2.520
    1C        C  474   3.815   4.471   2.643
    1C        C  475   3.943   4.413   2.641
    1C        C  476   3.746   4.500   2.763
    1C        C  477   3.815   4.477   2.884
    1C        C  478   3.605   4.521   3.009
    1C        C  479   3.744   4.496   3.005
    1C        C  480   3.533   4.529   3.131
    1C        C  481   3.607   4.528   3.251
    1C        C  482   3.395   4.530   3.376
    1C        C  483   3.537   4.536   3.374
    1C        C  484   3.325   4.529   3.498
    1C        C  485   3.398   4.541   3.618
    1C        C  486   3.194   4.495   3.745
    1C        C  487   3.331   4.530   3.742
    1C        C  488   3.126   4.470   3.866
    1C        C  489   3.190   4.492   3.989
    1C        C  490   3.000   4.410   4.112
    1C        C  491   3.125   4.476   4.114
    1C        C  492   2.940   4.379   4.236
    1C        C  493   2.998   4.419   4.359
    1C        C  494   2.828   4.297   4.485
    1C        C  495   2.933   4.391   4.481
    1C        C  496   2.768   4.253   4.606
    1C        C  497   2.812   4.313   4.725
    1C        C  498   2.661   4.162   4.847
    1C        C  499   2.749   4.272   4.845
    1C        C  500   2.592   4.114   4.960
    1C        C  501   4.003   4.360   2.040
    1C        C  502   3.812   4.461   2.157
    1C        C  503   3.943   4.409   2.157
    1C        C  504   3.743   4.483   2.278
    1C        C  505   3.812   4.462   2.399
    1C        C  506   3.607   4.515   2.520
    1C        C  507   3.744   4.484   2.522
    1C        C  508   3.534   4.519   2.641
    1C        C  509   3.605   4.514   2.763
    1C        C  510   3.395   4.524   2.884
    1C        C  511   3.536   4.527   2.886
    1C        C  512   3.324   4.520   3.006
    1C        C  513   3.392   4.532   3.130
    1C        C  514   3.188   4.488   3.254
    1C        C  515   3.325   4.525   3.254
    1C        C  516   3.123   4.466   3.377
    1C        C  517   3.188   4.493   3.499
    1C        C  518   3.002   4.402   3.622
    1C        C  519   3.125   4.470   3.624
    1C        C  520   2.944   4.365   3.745
    1C        C  521   3.001   4.403   3.869
    1C        C  522   2.829   4.282   3.995
    1C        C  523   2.943   4.365   3.991
    1C        C  524   2.783   4.233   4.119
    1C        C  525   2.833   4.286   4.240
    1C        C  526   2.691   4.133   4.365
    1C        C  527   2.780   4.243   4.364
    1C        C  528   2.647   4.077   4.487
    1C        C  529   2.681   4.142   4.608
    1C        C  530   2.578   3.959   4.732
    1C        C  531   2.629   4.092   4.729
    1C        C  532   2.541   3.899   4.855
    1C        C  533   2.524   3.992   4.962
    1C        C  534   3.616   4.546   2.039
    1C        C  535   3.752   4.512   2.040
    1C        C  536   3.534   4.531   2.155
    1C        C  537   3.605   4.516   2.278
    1C        C  538   3.392   4.511   2.399
    1C        C  539   3.533   4.520   2.400
    1C        C  540   3.323   4.499   2.522
    1C        C  541   3.392   4.516   2.643
    1C        C  542   3.183   4.479   2.764
    1C        C  543   3.320   4.513   2.765
    1C        C  544   3.117   4.465   2.888
    1C        C  545   3.187   4.485   3.009
    1C        C  546   2.998   4.395   3.133
    1C        C  547   3.121   4.464   3.132
    1C        C  548   2.935   4.366   3.256
    1C        C  549   2.995   4.406   3.378
    1C        C  550   2.828   4.278   3.504
    1C        C  551   2.936   4.368   3.501
    1C        C  552   2.780   4.227   3.627
    1C        C  553   2.832   4.280   3.748
    1C        C  554   2.697   4.118   3.874
    1C        C  555   2.784   4.230   3.871
    1C        C  556   2.657   4.062   3.997
    1C        C  557   2.695   4.122   4.119
    1C        C  558   2.599   3.940   4.245
    1C        C  559   2.657   4.068   4.244
    1C        C  560   2.565   3.877   4.367
    1C        C  561   2.587   3.949   4.487
    1C        C  562   2.528   3.751   4.614
    1C        C  563   2.562   3.888   4.611
    1C        C  564   2.514   3.679   4.734
    1C        C  565   2.517   3.757   4.853
    1C        C  566   2.533   3.544   4.976
    1C        C  567   2.523   3.682   4.971
    1C        C  568   3.325   4.474   2.041
    1C        C  569   3.394   4.507   2.158
    1C        C  570   3.181   4.470   2.279
    1C        C  571   3.319   4.503   2.279
    1C        C  572   3.114   4.447   2.401
    1C        C  573   3.184   4.471   2.522
    1C        C  574   2.984   4.398   2.648
    1C        C  575   3.113   4.456   2.643
    1C        C  576   2.925   4.360   2.770
    1C        C  577   2.994   4.396   2.888
    1C        C  578   2.828   4.267   3.016
    1C        C  579   2.937   4.356   3.011
    1C        C  580   2.779   4.217   3.139
    1C        C  581   2.829   4.272   3.259
    1C        C  582   2.690   4.116   3.383
    1C        C  583   2.776   4.228   3.382
    1C        C  584   2.649   4.061   3.507
    1C        C  585   2.689   4.120   3.628
    1C        C  586   2.590   3.935   3.755
    1C        C  587   2.652   4.062   3.752
    1C        C  588   2.566   3.870   3.878
    1C        C  589   2.591   3.937   4.000
    1C        C  590   2.529   3.738   4.127
    1C        C  591   2.567   3.874   4.124
    1C        C  592   2.524   3.668   4.250
    1C        C  593   2.532   3.740   4.371
    1C        C  594   2.512   3.533   4.496
    1C        C  595   2.518   3.674   4.496
    1C        C  596   2.518   3.462   4.618
    1C        C  597   2.513   3.537   4.738
    1C        C  598   2.530   3.325   4.860
    1C        C  599   2.528   3.466   4.859
    1C        C  600   2.532   3.250   4.978
    1C        C  601   3.192   4.436   2.041
    1C        C  602   2.979   4.393   2.160
    1C        C  603   3.115   4.439   2.157
    1C        C  604   2.919   4.356   2.283
    1C        C  605   2.987   4.387   2.403
    1C        C  606   2.816   4.268   2.526
    1C        C  607   2.926   4.357   2.527
    1C        C  608   2.767   4.218   2.648
    1C        C  609   2.816   4.270   2.770
    1C        C  610   2.688   4.107   2.895
    1C        C  611   2.773   4.220   2.895
    1C        C  612   2.652   4.049   3.018
    1C        C  613   2.688   4.109   3.141
    1C        C  614   2.585   3.927   3.267
    1C        C  615   2.647   4.054   3.264
    1C        C  616   2.565   3.862   3.391
    1C        C  617   2.592   3.931   3.511
    1C        C  618   2.524   3.732   3.638
    1C        C  619   2.565   3.867   3.634
    1C        C  620   2.512   3.663   3.761
    1C        C  621   2.527   3.734   3.882
    1C        C  622   2.509   3.525   4.008
    1C        C  623   2.520   3.666   4.006
    1C        C  624   2.513   3.454   4.130
    1C        C  625   2.512   3.528   4.250
    1C        C  626   2.530   3.321   4.377
    1C        C  627   2.509   3.460   4.375
    1C        C  628   2.553   3.252   4.498
    1C        C  629   2.532   3.321   4.620
    1C        C  630   2.595   3.118   4.740
    1C        C  631   2.541   3.250   4.741
    1C        C  632   2.621   3.051   4.863
    1C        C  633   2.560   3.113   4.977
    1C        C  634   2.777   4.305   2.053
    1C        C  635   2.893   4.383   2.046
    1C        C  636   2.742   4.231   2.167
    1C        C  637   2.806   4.269   2.286
    1C        C  638   2.670   4.106   2.408
    1C        C  639   2.757   4.217   2.408
    1C        C  640   2.632   4.048   2.531
    1C        C  641   2.682   4.105   2.651
    1C        C  642   2.577   3.924   2.776
    1C        C  643   2.645   4.047   2.774
    1C        C  644   2.553   3.860   2.900
    1C        C  645   2.587   3.923   3.021
    1C        C  646   2.524   3.723   3.148
    1C        C  647   2.562   3.859   3.145
    1C        C  648   2.518   3.654   3.271
    1C        C  649   2.532   3.724   3.393
    1C        C  650   2.507   3.518   3.520
    1C        C  651   2.514   3.659   3.517
    1C        C  652   2.517   3.451   3.644
    1C        C  653   2.502   3.522   3.765
    1C        C  654   2.525   3.312   3.889
    1C        C  655   2.502   3.451   3.887
    1C        C  656   2.538   3.243   4.011
    1C        C  657   2.527   3.313   4.134
    1C        C  658   2.581   3.111   4.257
    1C        C  659   2.539   3.246   4.258
    1C        C  660   2.631   3.055   4.377
    1C        C  661   2.598   3.118   4.499
    1C        C  662   2.708   2.936   4.623
    1C        C  663   2.622   3.049   4.620
    1C        C  664   2.752   2.877   4.743
    1C        C  665   2.703   2.934   4.863
    1C        C  666   2.748   2.875   4.982
    1C        C  667   2.681   4.020   2.053
    1C        C  668   2.683   4.102   2.166
    1C        C  669   2.575   3.915   2.288
    1C        C  670   2.635   4.043   2.286
    1C        C  671   2.547   3.851   2.411
    1C        C  672   2.571   3.921   2.531
    1C        C  673   2.517   3.719   2.660
    1C        C  674   2.551   3.855   2.655
    1C        C  675   2.505   3.650   2.783
    1C        C  676   2.519   3.722   2.904
    1C        C  677   2.502   3.511   3.031
    1C        C  678   2.512   3.652   3.026
    1C        C  679   2.504   3.440   3.153
    1C        C  680   2.504   3.514   3.273
    1C        C  681   2.529   3.308   3.401
    1C        C  682   2.501   3.447   3.398
    1C        C  683   2.552   3.240   3.523
    1C        C  684   2.534   3.310   3.644
    1C        C  685   2.603   3.113   3.771
    1C        C  686   2.547   3.243   3.768
    1C        C  687   2.633   3.052   3.895
    1C        C  688   2.594   3.113   4.016
    1C        C  689   2.705   2.934   4.136
    1C        C  690   2.617   3.045   4.138
    1C        C  691   2.757   2.885   4.258
    1C        C  692   2.716   2.943   4.380
    1C        C  693   2.756   2.882   4.501
    1C        C  694   2.628   3.890   2.055
    1C        C  695   2.524   3.703   2.173
    1C        C  696   2.572   3.835   2.171
    1C        C  697   2.503   3.639   2.298
    1C        C  698   2.515   3.714   2.417
    1C        C  699   2.484   3.506   2.542
    1C        C  700   2.497   3.647   2.540
    1C        C  701   2.499   3.436   2.664
    1C        C  702   2.505   3.509   2.785
    1C        C  703   2.527   3.301   2.911
    1C        C  704   2.505   3.441   2.909
    1C        C  705   2.543   3.230   3.032
    1C        C  706   2.528   3.300   3.154
    1C        C  707   2.599   3.106   3.276
    1C        C  708   2.550   3.239   3.279
    1C        C  709   2.632   3.046   3.400
    1C        C  710   2.600   3.108   3.523
    1C        C  711   2.705   2.929   3.647
    1C        C  712   2.628   3.047   3.648
    1C        C  713   2.755   2.879   3.769
    1C        C  714   2.711   2.934   3.892
    1C        C  715   2.755   2.880   4.015
    1C        C  716   2.444   3.497   2.062
    1C        C  717   2.492   3.628   2.059
    1C        C  718   2.459   3.420   2.182
    1C        C  719   2.481   3.499   2.299
    1C        C  720   2.513   3.293   2.423
    1C        C  721   2.483   3.431   2.423
    1C        C  722   2.539   3.226   2.545
    1C        C  723   2.524   3.297   2.666
    1C        C  724   2.594   3.099   2.790
    1C        C  725   2.543   3.231   2.790
    1C        C  726   2.623   3.033   2.911
    1C        C  727   2.591   3.097   3.033
    1C        C  728   2.711   2.924   3.157
    1C        C  729   2.630   3.040   3.156
    1C        C  730   2.755   2.873   3.282
    1C        C  731   2.715   2.932   3.404
    1C        C  732   2.758   2.877   3.527
    1C        C  733   2.487   3.196   2.070
    1C        C  734   2.486   3.280   2.183
    1C        C  735   2.586   3.088   2.303
    1C        C  736   2.530   3.219   2.304
    1C        C  737   2.617   3.025   2.426
    1C        C  738   2.589   3.094   2.545
    1C        C  739   2.697   2.913   2.668
    1C        C  740   2.622   3.033   2.668
    1C        C  741   2.743   2.858   2.790
    1C        C  742   2.698   2.912   2.912
    1C        C  743   2.749   2.865   3.035
    1C        C  744   2.540   3.068   2.073
    1C        C  745   2.688   2.900   2.185
    1C        C  746   2.610   3.017   2.184
    1C        C  747   2.734   2.844   2.307
    1C        C  748   2.692   2.905   2.427
    1C        C  749   2.738   2.850   2.549
    1C        C  750   2.737   2.846   2.066
    1C        C  751   3.654   2.325   1.968
    1C        O  752   3.685   2.207   2.003
    1C        O  753   3.704   2.356   1.841
    1C        C  754   4.634   3.055   1.979
    1C        O  755   4.609   3.025   1.859
    1C        O  756   4.767   3.038   2.018
    1C        C  757   4.447   4.212   1.956
    1C        O  758   4.554   4.269   1.992
    1C        O  759   4.470   4.170   1.824
    1C        C  760   3.582   4.666   1.960
    1C        O  761   3.629   4.779   1.989
    1C        O  762   3.588   4.658   1.820
    1C        C  763   2.882   4.492   1.946
    1C        O  764   2.905   4.474   1.823
    1C        O  765   2.865   4.629   1.972
    1C        C  766   2.352   3.472   1.949
    1C        O  767   2.377   3.430   1.833
    1C        O  768   2.216   3.446   1.973
    1C        C  769   4.652   3.564   5.078
    1C        O  770   4.607   3.571   5.195
    1C        O  771   4.787   3.528   5.073
    1C        C  772   4.241   4.409   5.074
    1C        O  773   4.186   4.393   5.186
    1C        O  774   4.347   4.499   5.079
    1C        C  775   4.142   2.540   5.084
    1C        O  776   4.257   2.492   5.061
    1C        O  777   4.151   2.610   5.204
    1C        C  778   2.879   4.546   5.045
    1C        O  779   2.782   4.620   5.013
    1C        O  780   2.886   4.533   5.184
    1C        C  781   2.469   3.044   5.072
    1C        O  782   2.368   2.987   5.024
    1C        O  783   2.504   3.021   5.205
    1C        C  784   2.386   4.006   5.016
    1C        O  785   2.297   4.066   4.950
    1C        O  786   2.351   3.962   5.144
    1C        C  787   2.962   2.433   1.978
    1C        O  788   2.977   2.452   1.855
    1C        O  789   2.844   2.373   2.020
    1C        C  790   3.170   2.369   5.055
    1C        O  791   3.158   2.251   5.013
    1C        O  792   3.164   2.362   5.194
    1C        H  793   4.277   3.029   5.056
    1C        H  794   4.153   2.822   5.066
    1C        H  795   4.467   3.133   5.067
    1C        H  796   4.459   3.375   5.054
    1C        H  797   4.592   3.814   5.041
    1C        H  798   4.434   3.976   5.050
    1C        H  799   4.316   4.178   5.050
    1C        H  800   4.015   4.522   5.036
    1C        H  801   3.814   4.589   5.039
    1C        H  802   3.588   4.637   5.037
    1C        H  803   3.387   4.493   5.046
    1C        H  804   3.144   4.526   5.041
    1C        H  805   3.896   2.469   5.059
    1C        H  806   3.678   2.473   5.074
    1C        H  807   3.005   2.566   5.063
    1C        H  808   3.446   2.450   5.077
    1C        H  809   2.905   2.768   5.073
    1C        H  810   2.704   2.897   5.077
    1C        H  811   2.483   3.295   5.062
    1C        H  812   2.580   3.498   5.060
    1C        H  813   2.492   3.731   5.061
    1C        H  814   2.556   4.188   5.028
    1C        H  815   2.763   4.301   5.053
    1C        H  816   2.684   2.854   1.973
    1C        H  817   2.815   2.682   1.975
    1C        H  818   3.220   2.468   1.983
    1C        H  819   3.420   2.375   2.000
    1C        H  820   3.859   2.511   1.968
    1C        H  821   4.079   2.588   1.975
    1C        H  822   4.273   2.703   1.983
    1C        H  823   4.421   2.873   1.977
    1C        H  824   4.504   3.304   1.974
    1C        H  825   4.469   3.502   1.974
    1C        H  826   4.512   3.745   1.951
    1C        H  827   3.821   4.550   1.968
    1C        H  828   3.978   4.402   1.945
    1C        H  829   4.176   4.293   1.948
    1C        H  830   4.517   3.979   1.975
    1C        H  831   2.614   3.840   1.961
    1C        H  832   2.747   4.038   1.971
    1C        H  833   2.715   4.304   1.966
    1C        H  834   3.360   4.505   1.945
    1C        H  835   3.145   4.429   1.945
    1C        H  836   2.482   2.992   2.025
    1C        H  837   2.416   3.218   1.993
    1C        H  838   2.556   3.650   1.976
    2V3OU   H29  839   2.802   3.544   3.722
    2V3OU   C27  840   2.790   3.504   3.826
    2V3OU   H27  841   2.736   3.573   3.896
    2V3OU   H28  842   2.735   3.407   3.811
    2V3OU   O11  843   2.912   3.467   3.891
    2V3OU   C15  844   2.923   3.399   4.010
    2V3OU   C13  845   3.050   3.372   4.066
    2V3OU   C14  846   3.076   3.267   4.154
    2V3OU   C16  847   2.977   3.183   4.205
    2V3OU    H6  848   2.993   3.102   4.277
    2V3OU   C12  849   3.213   3.229   4.196
    2V3OU    O2  850   3.234   3.133   4.273
    2V3OU   C10  851   3.322   3.305   4.134
    2V3OU    C8  852   3.452   3.265   4.163
    2V3OU   O10  853   3.485   3.148   4.224
    2V3OU   H26  854   3.398   3.117   4.255
    2V3OU    C6  855   3.559   3.351   4.124
    2V3OU    C5  856   3.538   3.467   4.050
    2V3OU    C4  857   3.698   3.299   4.129
    2V3OU    H4  858   3.718   3.232   4.218
    2V3OU    H5  859   3.710   3.230   4.040
    2V3OU    C2  860   3.816   3.397   4.128
    2V3OU    O6  861   3.798   3.468   4.251
    2V3OU   H21  862   3.758   3.552   4.224
    2V3OU    C3  863   3.780   3.493   4.014
    2V3OU    H2  864   3.867   3.562   4.002
    2V3OU    H3  865   3.778   3.426   3.925
    2V3OU   C25  866   3.951   3.325   4.118
    2V3OU    O7  867   3.998   3.292   4.010
    2V3OU   C26  868   4.027   3.288   4.244
    2V3OU   H22  869   4.061   3.385   4.288
    2V3OU   H23  870   4.120   3.231   4.217
    2V3OU    O8  871   3.952   3.211   4.336
    2V3OU   H24  872   3.923   3.267   4.410
    2V3OU    C1  873   3.648   3.567   4.028
    2V3OU    H1  874   3.628   3.622   3.931
    2V3OU    O3  875   3.654   3.654   4.141
    2V3OU   C19  876   3.613   3.791   4.135
    2V3OU    H9  877   3.515   3.803   4.079
    2V3OU    O4  878   3.717   3.843   4.054
    2V3OU   C20  879   3.846   3.875   4.107
    2V3OU   H10  880   3.887   3.770   4.114
    2V3OU   C24  881   3.610   3.859   4.272
    2V3OU   H16  882   3.548   3.796   4.341
    2V3OU   H17  883   3.560   3.957   4.253
    2V3OU   C23  884   3.749   3.873   4.335
    2V3OU   H15  885   3.789   3.769   4.359
    2V3OU    N1  886   3.730   3.954   4.454
    2V3OU   H19  887   3.806   3.920   4.510
    2V3OU   H20  888   3.644   3.938   4.503
    2V3OU   C21  889   3.851   3.946   4.243
    2V3OU   H11  890   3.950   3.917   4.289
    2V3OU    O5  891   3.832   4.087   4.241
    2V3OU   H18  892   3.774   4.115   4.313
    2V3OU   C22  893   3.914   3.952   3.995
    2V3OU   H12  894   3.858   4.048   3.978
    2V3OU   H13  895   3.907   3.895   3.899
    2V3OU   H14  896   4.024   3.959   4.013
    2V3OU   C11  897   3.156   3.473   4.054
    2V3OU    O1  898   3.130   3.582   3.999
    2V3OU    C9  899   3.296   3.427   4.066
    2V3OU    C7  900   3.403   3.505   4.024
    2V3OU    O9  901   3.386   3.614   3.940
    2V3OU   H25  902   3.290   3.628   3.942
    2V3OU   C17  903   2.827   3.313   4.067
    2V3OU    H7  904   2.736   3.343   4.014
    2V3OU   C18  905   2.848   3.215   4.163
    2V3OU    H8  906   2.785   3.174   4.243
    3SOL     OW  907   2.806   4.216   5.575
    3SOL    HW1  908   2.851   4.285   5.631
    3SOL    HW2  909   2.707   4.232   5.573
    4SOL     OW  910   6.775   0.344   6.784
    4SOL    HW1  911   6.724   0.258   6.785
    4SOL    HW2  912   6.821   0.354   6.695
    5SOL     OW  913   5.087   1.456   2.669
    5SOL    HW1  914   5.049   1.390   2.734
    5SOL    HW2  915   5.013   1.494   2.613
    6SOL     OW  916   5.167   2.177   2.982
    6SOL    HW1  917   5.142   2.165   3.078
    6SOL    HW2  918   5.263   2.203   2.976
    7SOL     OW  919   0.856   3.861   4.166
    7SOL    HW1  920   0.823   3.769   4.188
    7SOL    HW2  921   0.811   3.927   4.226
    8SOL     OW  922   2.919   1.849   5.249
    8SOL    HW1  923   2.997   1.866   5.188
    8SOL    HW2  924   2.887   1.936   5.287
    9SOL     OW  925   6.355   1.492   5.699
    9SOL    HW1  926   6.313   1.416   5.750
    9SOL    HW2  927   6.454   1.476   5.691
   10SOL     OW  928   3.757   4.921   4.339
   10SOL    HW1  929   3.761   4.821   4.349
   10SOL    HW2  930   3.748   4.944   4.243
   11SOL     OW  931   1.924   1.336   6.952
   11SOL    HW1  932   1.916   1.394   0.012
   11SOL    HW2  933   1.869   1.376   6.878
   12SOL     OW  934   2.610   4.628   4.101
   12SOL    HW1  935   2.648   4.587   4.018
   12SOL    HW2  936   2.535   4.571   4.135
   13SOL     OW  937   3.339   6.164   3.129
   13SOL    HW1  938   3.319   6.262   3.140
   13SOL    HW2  939   3.314   6.135   3.037
   14SOL     OW  940   4.295   4.367   6.591
   14SOL    HW1  941   4.293   4.363   6.491
   14SOL    HW2  942   4.390   4.375   6.622
   15SOL     OW  943   0.573   6.521   6.211
   15SOL    HW1  944   0.567   6.477   6.121
   15SOL    HW2  945   0.529   6.610   6.207
   16SOL     OW  946   5.712   2.459   6.365
   16SOL    HW1  947   5.810   2.477   6.352
   16SOL    HW2  948   5.665   2.545   6.384
   17SOL     OW  949   5.432   0.480   6.392
   17SOL    HW1  950   5.433   0.437   6.482
   17SOL    HW2  951   5.525   0.486   6.356
   18SOL     OW  952   3.896   1.422   5.142
   18SOL    HW1  953   3.926   1.499   5.199
   18SOL    HW2  954   3.886   1.340   5.198
   19SOL     OW  955   0.449   2.055   2.765
   19SOL    HW1  956   0.391   2.118   2.816
   19SOL    HW2  957   0.488   1.987   2.827
   20SOL     OW  958   5.463   2.157   5.378
   20SOL    HW1  959   5.369   2.176   5.348
   20SOL    HW2  960   5.497   2.076   5.331
   21SOL     OW  961   3.178   0.271   3.170
   21SOL    HW1  962   3.242   0.202   3.202
   21SOL    HW2  963   3.085   0.243   3.194
   22SOL     OW  964   0.977   6.321   6.102
   22SOL    HW1  965   1.019   6.411   6.108
   22SOL    HW2  966   1.001   6.268   6.183
   23SOL     OW  967   3.962   5.530   2.433
   23SOL    HW1  968   3.931   5.486   2.517
   23SOL    HW2  969   4.044   5.483   2.399
   24SOL     OW  970   3.833   0.020   2.237
   24SOL    HW1  971   3.774   0.097   2.261
   24SOL    HW2  972   3.822   7.020   2.139
   25SOL     OW  973   2.635   6.978   4.293
   25SOL    HW1  974   2.627   0.029   4.362
   25SOL    HW2  975   2.710   6.917   4.317
   26SOL     OW  976   0.556   2.178   6.870
   26SOL    HW1  977   0.568   2.263   6.818
   26SOL    HW2  978   0.622   2.110   6.839
   27SOL     OW  979   1.268   1.399   1.984
   27SOL    HW1  980   1.297   1.485   1.942
   27SOL    HW2  981   1.326   1.379   2.063
   28SOL     OW  982   0.938   0.669   4.435
   28SOL    HW1  983   0.841   0.692   4.443
   28SOL    HW2  984   0.984   0.687   4.522
   29SOL     OW  985   6.208   1.211   1.165
   29SOL    HW1  986   6.151   1.175   1.238
   29SOL    HW2  987   6.227   1.308   1.182
   30SOL     OW  988   3.289   0.507   5.096
   30SOL    HW1  989   3.253   0.430   5.150
   30SOL    HW2  990   3.276   0.592   5.146
   31SOL     OW  991   0.344   2.411   5.172
   31SOL    HW1  992   0.378   2.420   5.079
   31SOL    HW2  993   0.337   2.501   5.215
   32SOL     OW  994   1.354   1.736   2.669
   32SOL    HW1  995   1.330   1.817   2.722
   32SOL    HW2  996   1.436   1.694   2.708
   33SOL     OW  997   0.683   3.853   5.318
   33SOL    HW1  998   0.729   3.764   5.311
   33SOL    HW2  999   0.652   3.882   5.228
   34SOL     OW 1000   2.501   5.694   4.916
   34SOL    HW1 1001   2.477   5.767   4.853
   34SOL    HW2 1002   2.432   5.686   4.987
   35SOL     OW 1003   4.789   1.751   5.316
   35SOL    HW1 1004   4.877   1.711   5.288
   35SOL    HW2 1005   4.729   1.759   5.237
   36SOL     OW 1006   5.375   1.264   3.939
   36SOL    HW1 1007   5.398   1.343   3.882
   36SOL    HW2 1008   5.404   1.281   4.033
   37SOL     OW 1009   1.876   1.577   4.409
   37SOL    HW1 1010   1.839   1.651   4.466
   37SOL    HW2 1011   1.804   1.544   4.348
   38SOL     OW 1012   2.303   4.019   1.671
   38SOL    HW1 1013   2.381   4.069   1.706
   38SOL    HW2 1014   2.218   4.058   1.708
   39SOL     OW 1015   6.559   4.879   6.419
   39SOL    HW1 1016   6.634   4.939   6.447
   39SOL    HW2 1017   6.593   4.810   6.354
   40SOL     OW 1018   3.124   1.174   6.570
   40SOL    HW1 1019   3.192   1.247   6.581
   40SOL    HW2 1020   3.162   1.104   6.509
   41SOL     OW 1021   6.697   3.847   2.669
   41SOL    HW1 1022   6.699   3.942   2.700
   41SOL    HW2 1023   6.629   3.837   2.596
   42SOL     OW 1024   3.354   6.410   4.056
   42SOL    HW1 1025   3.447   6.402   4.021
   42SOL    HW2 1026   3.333   6.506   4.073
   43SOL     OW 1027   4.052   0.031   5.376
   43SOL    HW1 1028   4.042   0.130   5.376
   43SOL    HW2 1029   4.136   0.005   5.328
   44SOL     OW 1030   6.067   2.751   4.956
   44SOL    HW1 1031   6.078   2.772   5.053
   44SOL    HW2 1032   5.971   2.760   4.931
   45SOL     OW 1033   4.257   5.629   1.270
   45SOL    HW1 1034   4.220   5.716   1.304
   45SOL    HW2 1035   4.222   5.612   1.178
   46SOL     OW 1036   0.392   2.689   4.100
   46SOL    HW1 1037   0.336   2.654   4.175
   46SOL    HW2 1038   0.423   2.612   4.043
   47SOL     OW 1039   5.235   3.880   1.370
   47SOL    HW1 1040   5.260   3.794   1.413
   47SOL    HW2 1041   5.253   3.874   1.272
   48SOL     OW 1042   0.052   2.258   6.238
   48SOL    HW1 1043   6.986   2.307   6.241
   48SOL    HW2 1044   0.127   2.324   6.249
   49SOL     OW 1045   5.187   2.915   1.451
   49SOL    HW1 1046   5.235   2.927   1.364
   49SOL    HW2 1047   5.104   2.861   1.436
   50SOL     OW 1048   6.109   1.869   5.691
   50SOL    HW1 1049   6.026   1.854   5.745
   50SOL    HW2 1050   6.129   1.967   5.685
   51SOL     OW 1051   2.203   6.072   2.803
   51SOL    HW1 1052   2.197   5.980   2.764
   51SOL    HW2 1053   2.242   6.134   2.735
   52SOL     OW 1054   5.300   2.576   1.790
   52SOL    HW1 1055   5.316   2.580   1.888
   52SOL    HW2 1056   5.255   2.661   1.761
   53SOL     OW 1057   4.913   0.074   3.728
   53SOL    HW1 1058   5.012   0.070   3.719
   53SOL    HW2 1059   4.871   0.007   3.667
   54SOL     OW 1060   5.332   6.432   6.996
   54SOL    HW1 1061   5.252   6.401   0.028
   54SOL    HW2 1062   5.397   6.357   6.988
   55SOL     OW 1063   2.295   2.224   5.538
   55SOL    HW1 1064   2.243   2.307   5.560
   55SOL    HW2 1065   2.390   2.249   5.517
   56SOL     OW 1066   1.308   1.673   1.487
   56SOL    HW1 1067   1.244   1.606   1.450
   56SOL    HW2 1068   1.259   1.737   1.546
   57SOL     OW 1069   3.768   1.395   0.211
   57SOL    HW1 1070   3.857   1.405   0.255
   57SOL    HW2 1071   3.778   1.405   0.112
   58SOL     OW 1072   0.582   0.195   6.094
   58SOL    HW1 1073   0.495   0.147   6.085
   58SOL    HW2 1074   0.647   0.161   6.025
   59SOL     OW 1075   6.596   3.439   6.479
   59SOL    HW1 1076   6.625   3.535   6.467
   59SOL    HW2 1077   6.508   3.436   6.525
   60SOL     OW 1078   5.514   1.696   3.718
   60SOL    HW1 1079   5.604   1.739   3.719
   60SOL    HW2 1080   5.475   1.697   3.809
   61SOL     OW 1081   0.240   0.865   3.969
   61SOL    HW1 1082   0.243   0.765   3.957
   61SOL    HW2 1083   0.330   0.898   3.997
   62SOL     OW 1084   1.241   1.395   1.194
   62SOL    HW1 1085   1.218   1.336   1.271
   62SOL    HW2 1086   1.170   1.388   1.124
   63SOL     OW 1087   3.895   0.719   4.318
   63SOL    HW1 1088   3.919   0.644   4.379
   63SOL    HW2 1089   3.829   0.778   4.362
   64SOL     OW 1090   0.903   3.547   6.425
   64SOL    HW1 1091   0.973   3.612   6.454
   64SOL    HW2 1092   0.852   3.516   6.506
   65SOL     OW 1093   1.080   6.552   5.826
   65SOL    HW1 1094   0.988   6.576   5.857
   65SOL    HW2 1095   1.079   6.459   5.788
   66SOL     OW 1096   3.563   0.211   3.248
   66SOL    HW1 1097   3.571   0.292   3.308
   66SOL    HW2 1098   3.653   0.192   3.207
   67SOL     OW 1099   0.201   2.678   6.274
   67SOL    HW1 1100   0.239   2.587   6.292
   67SOL    HW2 1101   0.269   2.747   6.298
   68SOL     OW 1102   6.795   1.365   6.101
   68SOL    HW1 1103   6.847   1.302   6.043
   68SOL    HW2 1104   6.699   1.364   6.073
   69SOL     OW 1105   1.831   3.458   6.060
   69SOL    HW1 1106   1.875   3.442   6.148
   69SOL    HW2 1107   1.847   3.380   5.999
   70SOL     OW 1108   5.206   4.454   5.075
   70SOL    HW1 1109   5.159   4.480   5.159
   70SOL    HW2 1110   5.270   4.526   5.049
   71SOL     OW 1111   4.838   1.607   3.396
   71SOL    HW1 1112   4.870   1.572   3.484
   71SOL    HW2 1113   4.911   1.598   3.328
   72SOL     OW 1114   0.803   1.162   2.936
   72SOL    HW1 1115   0.722   1.127   2.889
   72SOL    HW2 1116   0.775   1.212   3.018
   73SOL     OW 1117   2.965   0.313   0.766
   73SOL    HW1 1118   3.044   0.307   0.827
   73SOL    HW2 1119   2.892   0.364   0.811
   74SOL     OW 1120   2.606   1.835   6.562
   74SOL    HW1 1121   2.553   1.836   6.477
   74SOL    HW2 1122   2.704   1.845   6.540
   75SOL     OW 1123   3.724   1.104   1.590
   75SOL    HW1 1124   3.692   1.033   1.528
   75SOL    HW2 1125   3.690   1.085   1.682
   76SOL     OW 1126   2.037   4.217   5.884
   76SOL    HW1 1127   1.940   4.224   5.909
   76SOL    HW2 1128   2.067   4.122   5.895
   77SOL     OW 1129   2.133   5.761   3.662
   77SOL    HW1 1130   2.088   5.681   3.624
   77SOL    HW2 1131   2.091   5.785   3.750
   78SOL     OW 1132   4.219   1.279   1.274
   78SOL    HW1 1133   4.181   1.302   1.363
   78SOL    HW2 1134   4.182   1.192   1.243
   79SOL     OW 1135   2.317   5.921   2.311
   79SOL    HW1 1136   2.306   6.020   2.324
   79SOL    HW2 1137   2.411   5.895   2.335
   80SOL     OW 1138   4.651   2.075   5.003
   80SOL    HW1 1139   4.708   2.088   5.085
   80SOL    HW2 1140   4.559   2.046   5.030
   81SOL     OW 1141   1.690   0.226   0.380
   81SOL    HW1 1142   1.765   0.259   0.323
   81SOL    HW2 1143   1.695   0.269   0.470
   82SOL     OW 1144   0.438   6.235   1.693
   82SOL    HW1 1145   0.524   6.202   1.732
   82SOL    HW2 1146   0.445   6.334   1.677
   83SOL     OW 1147   0.051   1.353   6.010
   83SOL    HW1 1148   0.122   1.339   6.078
   83SOL    HW2 1149   0.027   1.266   5.967
   84SOL     OW 1150   6.357   4.014   3.131
   84SOL    HW1 1151   6.389   3.969   3.214
   84SOL    HW2 1152   6.324   3.944   3.067
   85SOL     OW 1153   2.059   0.347   3.520
   85SOL    HW1 1154   2.132   0.382   3.462
   85SOL    HW2 1155   2.093   0.338   3.614
   86SOL     OW 1156   6.427   1.048   6.343
   86SOL    HW1 1157   6.367   0.987   6.292
   86SOL    HW2 1158   6.428   1.138   6.299
   87SOL     OW 1159   4.191   4.076   0.880
   87SOL    HW1 1160   4.278   4.115   0.850
   87SOL    HW2 1161   4.190   4.068   0.980
   88SOL     OW 1162   3.040   1.959   5.817
   88SOL    HW1 1163   2.991   1.970   5.903
   88SOL    HW2 1164   2.999   1.884   5.764
   89SOL     OW 1165   2.941   3.538   1.431
   89SOL    HW1 1166   2.906   3.448   1.408
   89SOL    HW2 1167   2.982   3.579   1.350
   90SOL     OW 1168   4.978   4.454   1.828
   90SOL    HW1 1169   5.029   4.370   1.808
   90SOL    HW2 1170   4.946   4.451   1.922
   91SOL     OW 1171   6.201   5.544   6.777
   91SOL    HW1 1172   6.146   5.533   6.694
   91SOL    HW2 1173   6.289   5.498   6.765
   92SOL     OW 1174   4.959   3.459   1.125
   92SOL    HW1 1175   4.910   3.442   1.211
   92SOL    HW2 1176   5.032   3.393   1.114
   93SOL     OW 1177   3.017   3.562   0.589
   93SOL    HW1 1178   2.998   3.519   0.677
   93SOL    HW2 1179   3.043   3.492   0.523
   94SOL     OW 1180   2.581   6.059   0.688
   94SOL    HW1 1181   2.499   6.113   0.669
   94SOL    HW2 1182   2.573   5.969   0.644
   95SOL     OW 1183   1.487   0.941   3.645
   95SOL    HW1 1184   1.443   0.860   3.606
   95SOL    HW2 1185   1.584   0.941   3.620
   96SOL     OW 1186   4.688   5.838   6.904
   96SOL    HW1 1187   4.697   5.826   6.805
   96SOL    HW2 1188   4.746   5.914   6.934
   97SOL     OW 1189   2.070   4.525   5.028
   97SOL    HW1 1190   2.104   4.603   4.975
   97SOL    HW2 1191   2.118   4.442   5.000
   98SOL     OW 1192   0.875   2.280   0.907
   98SOL    HW1 1193   0.956   2.234   0.942
   98SOL    HW2 1194   0.836   2.226   0.832
   99SOL     OW 1195   3.554   4.137   3.120
   99SOL    HW1 1196   3.526   4.088   3.203
   99SOL    HW2 1197   3.624   4.205   3.144
  100SOL     OW 1198   6.487   0.196   4.400
  100SOL    HW1 1199   6.420   0.148   4.457
  100SOL    HW2 1200   6.440   0.256   4.337
  101SOL     OW 1201   0.530   5.511   2.130
  101SOL    HW1 1202   0.615   5.563   2.128
  101SOL    HW2 1203   0.511   5.472   2.040
  102SOL     OW 1204   2.889   6.453   2.146
  102SOL    HW1 1205   2.874   6.436   2.244
  102SOL    HW2 1206   2.827   6.395   2.093
  103SOL     OW 1207   1.601   1.541   2.497
  103SOL    HW1 1208   1.629   1.574   2.587
  103SOL    HW2 1209   1.505   1.513   2.501
  104SOL     OW 1210   1.736   5.118   2.397
  104SOL    HW1 1211   1.818   5.171   2.418
  104SOL    HW2 1212   1.737   5.033   2.449
  105SOL     OW 1213   5.056   1.642   6.639
  105SOL    HW1 1214   5.025   1.737   6.641
  105SOL    HW2 1215   5.100   1.622   6.552
  106SOL     OW 1216   4.899   5.052   1.623
  106SOL    HW1 1217   4.919   5.103   1.707
  106SOL    HW2 1218   4.838   4.975   1.645
  107SOL     OW 1219   6.425   0.625   6.735
  107SOL    HW1 1220   6.393   0.696   6.672
  107SOL    HW2 1221   6.475   0.669   6.810
  108SOL     OW 1222   2.994   0.029   5.259
  108SOL    HW1 1223   2.934   6.971   5.247
  108SOL    HW2 1224   2.967   0.079   5.342
  109SOL     OW 1225   3.148   0.840   2.567
  109SOL    HW1 1226   3.209   0.911   2.531
  109SOL    HW2 1227   3.156   0.837   2.667
  110SOL     OW 1228   2.738   5.335   4.736
  110SOL    HW1 1229   2.706   5.424   4.703
  110SOL    HW2 1230   2.709   5.322   4.831
  111SOL     OW 1231   0.504   1.649   2.512
  111SOL    HW1 1232   0.443   1.691   2.580
  111SOL    HW2 1233   0.450   1.616   2.435
  112SOL     OW 1234   4.870   6.661   6.295
  112SOL    HW1 1235   4.902   6.618   6.379
  112SOL    HW2 1236   4.815   6.741   6.317
  113SOL     OW 1237   6.651   5.480   2.568
  113SOL    HW1 1238   6.649   5.403   2.505
  113SOL    HW2 1239   6.658   5.445   2.662
  114SOL     OW 1240   0.664   5.188   2.702
  114SOL    HW1 1241   0.645   5.155   2.610
  114SOL    HW2 1242   0.739   5.253   2.700
  115SOL     OW 1243   5.615   0.959   3.525
  115SOL    HW1 1244   5.672   0.986   3.447
  115SOL    HW2 1245   5.599   1.039   3.583
  116SOL     OW 1246   6.887   6.229   1.154
  116SOL    HW1 1247   6.951   6.179   1.212
  116SOL    HW2 1248   6.919   6.324   1.143
  117SOL     OW 1249   2.157   0.862   0.265
  117SOL    HW1 1250   2.064   0.844   0.297
  117SOL    HW2 1251   2.170   0.818   0.176
  118SOL     OW 1252   1.564   1.370   3.653
  118SOL    HW1 1253   1.658   1.400   3.634
  118SOL    HW2 1254   1.511   1.447   3.688
  119SOL     OW 1255   0.266   6.610   6.825
  119SOL    HW1 1256   0.234   6.587   6.733
  119SOL    HW2 1257   0.281   6.709   6.832
  120SOL     OW 1258   4.703   0.275   4.663
  120SOL    HW1 1259   4.617   0.236   4.630
  120SOL    HW2 1260   4.705   0.373   4.644
  121SOL     OW 1261   1.739   3.913   0.080
  121SOL    HW1 1262   1.752   4.003   0.123
  121SOL    HW2 1263   1.814   3.895   0.016
  122SOL     OW 1264   1.726   3.709   0.424
  122SOL    HW1 1265   1.792   3.676   0.356
  122SOL    HW2 1266   1.644   3.653   0.420
  123SOL     OW 1267   1.079   0.851   0.936
  123SOL    HW1 1268   1.147   0.902   0.883
  123SOL    HW2 1269   0.988   0.867   0.897
  124SOL     OW 1270   3.165   1.948   0.395
  124SOL    HW1 1271   3.067   1.956   0.378
  124SOL    HW2 1272   3.198   2.029   0.443
  125SOL     OW 1273   3.767   2.813   0.271
  125SOL    HW1 1274   3.674   2.832   0.301
  125SOL    HW2 1275   3.824   2.893   0.289
  126SOL     OW 1276   3.089   3.146   3.262
  126SOL    HW1 1277   3.043   3.155   3.174
  126SOL    HW2 1278   3.176   3.099   3.249
  127SOL     OW 1279   6.807   6.105   5.828
  127SOL    HW1 1280   6.766   6.097   5.737
  127SOL    HW2 1281   6.819   6.201   5.852
  128SOL     OW 1282   5.113   3.094   2.607
  128SOL    HW1 1283   5.163   3.083   2.521
  128SOL    HW2 1284   5.168   3.146   2.671
  129SOL     OW 1285   2.681   4.636   1.049
  129SOL    HW1 1286   2.749   4.703   1.079
  129SOL    HW2 1287   2.711   4.594   0.963
  130SOL     OW 1288   6.309   0.657   4.802
  130SOL    HW1 1289   6.258   0.679   4.719
  130SOL    HW2 1290   6.303   0.733   4.866
  131SOL     OW 1291   5.703   0.413   4.236
  131SOL    HW1 1292   5.636   0.386   4.306
  131SOL    HW2 1293   5.725   0.510   4.247
  132SOL     OW 1294   3.783   3.287   1.337
  132SOL    HW1 1295   3.877   3.260   1.358
  132SOL    HW2 1296   3.722   3.253   1.408
  133SOL     OW 1297   5.323   1.203   3.570
  133SOL    HW1 1298   5.267   1.133   3.527
  133SOL    HW2 1299   5.329   1.186   3.668
  134SOL     OW 1300   0.575   0.865   2.526
  134SOL    HW1 1301   0.618   0.905   2.607
  134SOL    HW2 1302   0.488   0.824   2.552
  135SOL     OW 1303   5.233   3.373   4.178
  135SOL    HW1 1304   5.174   3.417   4.111
  135SOL    HW2 1305   5.212   3.275   4.182
  136SOL     OW 1306   2.645   6.078   4.591
  136SOL    HW1 1307   2.685   6.022   4.518
  136SOL    HW2 1308   2.553   6.106   4.564
  137SOL     OW 1309   4.336   1.110   4.442
  137SOL    HW1 1310   4.346   1.202   4.480
  137SOL    HW2 1311   4.240   1.082   4.445
  138SOL     OW 1312   0.953   4.995   3.372
  138SOL    HW1 1313   1.002   5.066   3.321
  138SOL    HW2 1314   0.903   4.937   3.308
  139SOL     OW 1315   2.530   5.683   6.618
  139SOL    HW1 1316   2.482   5.716   6.699
  139SOL    HW2 1317   2.491   5.725   6.536
  140SOL     OW 1318   1.663   6.481   2.754
  140SOL    HW1 1319   1.587   6.444   2.701
  140SOL    HW2 1320   1.698   6.410   2.816
  141SOL     OW 1321   6.660   3.723   6.878
  141SOL    HW1 1322   6.639   3.637   6.833
  141SOL    HW2 1323   6.713   3.781   6.816
  142SOL     OW 1324   2.022   3.705   1.409
  142SOL    HW1 1325   1.966   3.653   1.474
  142SOL    HW2 1326   2.114   3.667   1.406
  143SOL     OW 1327   5.523   6.257   1.166
  143SOL    HW1 1328   5.424   6.241   1.172
  143SOL    HW2 1329   5.560   6.274   1.257
  144SOL     OW 1330   3.054   4.890   3.685
  144SOL    HW1 1331   3.065   4.840   3.771
  144SOL    HW2 1332   3.137   4.881   3.630
  145SOL     OW 1333   0.953   5.134   2.475
  145SOL    HW1 1334   0.974   5.139   2.572
  145SOL    HW2 1335   0.933   5.039   2.449
  146SOL     OW 1336   5.542   0.730   5.449
  146SOL    HW1 1337   5.536   0.682   5.537
  146SOL    HW2 1338   5.487   0.814   5.454
  147SOL     OW 1339   5.333   1.390   4.997
  147SOL    HW1 1340   5.262   1.460   4.988
  147SOL    HW2 1341   5.312   1.313   4.936
  148SOL     OW 1342   1.111   5.172   1.531
  148SOL    HW1 1343   1.091   5.086   1.578
  148SOL    HW2 1344   1.138   5.153   1.436
  149SOL     OW 1345   2.922   2.336   5.351
  149SOL    HW1 1346   3.005   2.330   5.295
  149SOL    HW2 1347   2.894   2.431   5.358
  150SOL     OW 1348   4.407   0.823   6.001
  150SOL    HW1 1349   4.425   0.803   5.905
  150SOL    HW2 1350   4.449   0.753   6.059
  151SOL     OW 1351   4.342   0.854   1.661
  151SOL    HW1 1352   4.311   0.767   1.622
  151SOL    HW2 1353   4.263   0.904   1.696
  152SOL     OW 1354   6.813   1.375   0.365
  152SOL    HW1 1355   6.888   1.437   0.342
  152SOL    HW2 1356   6.750   1.420   0.428
  153SOL     OW 1357   3.160   0.573   3.590
  153SOL    HW1 1358   3.101   0.549   3.667
  153SOL    HW2 1359   3.248   0.605   3.624
  154SOL     OW 1360   6.648   2.530   0.291
  154SOL    HW1 1361   6.644   2.541   0.191
  154SOL    HW2 1362   6.613   2.439   0.315
  155SOL     OW 1363   0.635   0.071   1.612
  155SOL    HW1 1364   0.655   0.015   1.692
  155SOL    HW2 1365   0.536   0.084   1.605
  156SOL     OW 1366   6.396   1.581   0.514
  156SOL    HW1 1367   6.313   1.527   0.498
  156SOL    HW2 1368   6.374   1.658   0.574
  157SOL     OW 1369   5.752   2.895   0.344
  157SOL    HW1 1370   5.840   2.917   0.388
  157SOL    HW2 1371   5.720   2.975   0.292
  158SOL     OW 1372   1.492   2.478   1.844
  158SOL    HW1 1373   1.590   2.460   1.844
  158SOL    HW2 1374   1.463   2.499   1.938
  159SOL     OW 1375   4.440   4.808   1.241
  159SOL    HW1 1376   4.495   4.742   1.292
  159SOL    HW2 1377   4.410   4.766   1.155
  160SOL     OW 1378   6.482   0.449   1.572
  160SOL    HW1 1379   6.561   0.484   1.623
  160SOL    HW2 1380   6.476   0.495   1.484
  161SOL     OW 1381   0.961   6.700   1.083
  161SOL    HW1 1382   0.862   6.699   1.066
  161SOL    HW2 1383   0.986   6.787   1.125
  162SOL     OW 1384   2.988   6.405   0.461
  162SOL    HW1 1385   2.900   6.450   0.474
  162SOL    HW2 1386   2.974   6.310   0.432
  163SOL     OW 1387   0.124   5.301   3.151
  163SOL    HW1 1388   0.190   5.291   3.226
  163SOL    HW2 1389   0.134   5.223   3.088
  164SOL     OW 1390   0.795   1.961   2.701
  164SOL    HW1 1391   0.728   1.910   2.754
  164SOL    HW2 1392   0.783   1.941   2.603
  165SOL     OW 1393   6.352   5.800   1.958
  165SOL    HW1 1394   6.370   5.896   1.979
  165SOL    HW2 1395   6.397   5.742   2.026
  166SOL     OW 1396   6.631   3.891   1.645
  166SOL    HW1 1397   6.558   3.867   1.709
  166SOL    HW2 1398   6.719   3.866   1.684
  167SOL     OW 1399   5.306   1.482   6.767
  167SOL    HW1 1400   5.215   1.466   6.804
  167SOL    HW2 1401   5.305   1.563   6.709
  168SOL     OW 1402   3.623   2.572   1.099
  168SOL    HW1 1403   3.567   2.566   1.182
  168SOL    HW2 1404   3.617   2.664   1.061
  169SOL     OW 1405   6.018   2.800   0.081
  169SOL    HW1 1406   5.996   2.895   0.106
  169SOL    HW2 1407   6.026   2.745   0.164
  170SOL     OW 1408   0.324   5.852   3.613
  170SOL    HW1 1409   0.265   5.926   3.643
  170SOL    HW2 1410   0.330   5.853   3.513
  171SOL     OW 1411   1.660   3.541   6.589
  171SOL    HW1 1412   1.570   3.556   6.548
  171SOL    HW2 1413   1.657   3.460   6.648
  172SOL     OW 1414   6.039   2.728   2.401
  172SOL    HW1 1415   6.099   2.790   2.452
  172SOL    HW2 1416   5.948   2.728   2.442
  173SOL     OW 1417   5.846   1.340   4.468
  173SOL    HW1 1418   5.875   1.325   4.562
  173SOL    HW2 1419   5.786   1.266   4.439
  174SOL     OW 1420   5.129   5.233   5.084
  174SOL    HW1 1421   5.161   5.173   5.011
  174SOL    HW2 1422   5.188   5.313   5.091
  175SOL     OW 1423   2.950   0.443   1.227
  175SOL    HW1 1424   3.046   0.432   1.252
  175SOL    HW2 1425   2.894   0.380   1.280
  176SOL     OW 1426   4.935   4.316   3.390
  176SOL    HW1 1427   4.927   4.314   3.489
  176SOL    HW2 1428   5.006   4.252   3.361
  177SOL     OW 1429   5.428   2.513   5.492
  177SOL    HW1 1430   5.423   2.432   5.433
  177SOL    HW2 1431   5.378   2.495   5.577
  178SOL     OW 1432   3.010   4.846   4.248
  178SOL    HW1 1433   2.927   4.791   4.239
  178SOL    HW2 1434   3.027   4.865   4.345
  179SOL     OW 1435   4.092   6.294   0.080
  179SOL    HW1 1436   4.101   6.333   7.009
  179SOL    HW2 1437   4.167   6.230   0.097
  180SOL     OW 1438   2.703   6.391   0.281
  180SOL    HW1 1439   2.782   6.442   0.247
  180SOL    HW2 1440   2.619   6.442   0.260
  181SOL     OW 1441   3.065   2.397   5.603
  181SOL    HW1 1442   3.163   2.381   5.591
  181SOL    HW2 1443   3.019   2.392   5.515
  182SOL     OW 1444   4.845   3.285   6.810
  182SOL    HW1 1445   4.873   3.291   6.906
  182SOL    HW2 1446   4.786   3.206   6.797
  183SOL     OW 1447   4.229   1.868   3.777
  183SOL    HW1 1448   4.227   1.870   3.877
  183SOL    HW2 1449   4.136   1.878   3.741
  184SOL     OW 1450   0.748   6.804   3.146
  184SOL    HW1 1451   0.680   6.778   3.215
  184SOL    HW2 1452   0.832   6.835   3.192
  185SOL     OW 1453   1.137   1.693   3.968
  185SOL    HW1 1454   1.177   1.683   4.059
  185SOL    HW2 1455   1.055   1.750   3.974
  186SOL     OW 1456   5.757   6.450   4.108
  186SOL    HW1 1457   5.682   6.412   4.162
  186SOL    HW2 1458   5.772   6.392   4.028
  187SOL     OW 1459   4.292   5.709   2.228
  187SOL    HW1 1460   4.199   5.721   2.194
  187SOL    HW2 1461   4.353   5.691   2.151
  188SOL     OW 1462   1.096   1.891   2.959
  188SOL    HW1 1463   1.190   1.915   2.937
  188SOL    HW2 1464   1.039   1.972   2.956
  189SOL     OW 1465   6.863   4.449   6.724
  189SOL    HW1 1466   6.842   4.355   6.748
  189SOL    HW2 1467   6.847   4.508   6.803
  190SOL     OW 1468   5.910   4.868   6.846
  190SOL    HW1 1469   5.991   4.893   6.899
  190SOL    HW2 1470   5.880   4.947   6.792
  191SOL     OW 1471   6.612   1.372   5.728
  191SOL    HW1 1472   6.601   1.294   5.666
  191SOL    HW2 1473   6.660   1.446   5.681
  192SOL     OW 1474   0.617   4.927   1.429
  192SOL    HW1 1475   0.671   5.005   1.460
  192SOL    HW2 1476   0.671   4.870   1.368
  193SOL     OW 1477   4.484   5.005   5.517
  193SOL    HW1 1478   4.547   4.928   5.517
  193SOL    HW2 1479   4.433   5.007   5.603
  194SOL     OW 1480   4.144   6.714   1.654
  194SOL    HW1 1481   4.143   6.618   1.626
  194SOL    HW2 1482   4.195   6.767   1.587
  195SOL     OW 1483   2.770   0.433   3.655
  195SOL    HW1 1484   2.776   0.497   3.578
  195SOL    HW2 1485   2.710   0.470   3.725
  196SOL     OW 1486   3.185   0.310   6.834
  196SOL    HW1 1487   3.268   0.262   6.861
  196SOL    HW2 1488   3.210   0.391   6.781
  197SOL     OW 1489   3.057   5.710   6.691
  197SOL    HW1 1490   2.973   5.681   6.646
  197SOL    HW2 1491   3.048   5.697   6.790
  198SOL     OW 1492   3.937   6.467   0.826
  198SOL    HW1 1493   3.955   6.446   0.729
  198SOL    HW2 1494   4.004   6.532   0.859
  199SOL     OW 1495   6.608   0.951   2.502
  199SOL    HW1 1496   6.615   0.867   2.556
  199SOL    HW2 1497   6.650   0.937   2.413
  200SOL     OW 1498   0.922   3.350   2.472
  200SOL    HW1 1499   0.916   3.335   2.373
  200SOL    HW2 1500   1.001   3.301   2.508
  201SOL     OW 1501   3.095   6.473   5.787
  201SOL    HW1 1502   3.085   6.374   5.775
  201SOL    HW2 1503   3.179   6.504   5.742
  202SOL     OW 1504   5.054   0.360   5.156
  202SOL    HW1 1505   5.064   0.449   5.199
  202SOL    HW2 1506   4.963   0.351   5.116
  203SOL     OW 1507   4.635   2.658   5.554
  203SOL    HW1 1508   4.712   2.626   5.610
  203SOL    HW2 1509   4.607   2.749   5.586
  204SOL     OW 1510   0.816   0.162   0.010
  204SOL    HW1 1511   0.750   0.225   6.991
  204SOL    HW2 1512   0.909   0.190   7.006
  205SOL     OW 1513   0.799   1.453   1.559
  205SOL    HW1 1514   0.740   1.534   1.562
  205SOL    HW2 1515   0.776   1.393   1.635
  206SOL     OW 1516   0.034   5.297   1.951
  206SOL    HW1 1517   0.016   5.376   2.009
  206SOL    HW2 1518   0.128   5.267   1.964
  207SOL     OW 1519   4.255   0.754   5.507
  207SOL    HW1 1520   4.210   0.706   5.431
  207SOL    HW2 1521   4.188   0.769   5.580
  208SOL     OW 1522   5.591   4.209   5.600
  208SOL    HW1 1523   5.499   4.222   5.638
  208SOL    HW2 1524   5.637   4.297   5.594
  209SOL     OW 1525   0.668   5.692   5.765
  209SOL    HW1 1526   0.697   5.610   5.716
  209SOL    HW2 1527   0.748   5.744   5.793
  210SOL     OW 1528   4.252   2.215   2.384
  210SOL    HW1 1529   4.266   2.257   2.473
  210SOL    HW2 1530   4.250   2.116   2.393
  211SOL     OW 1531   1.205   6.936   3.398
  211SOL    HW1 1532   1.256   6.928   3.312
  211SOL    HW2 1533   1.266   6.967   3.471
  212SOL     OW 1534   1.948   4.684   1.961
  212SOL    HW1 1535   1.908   4.774   1.945
  212SOL    HW2 1536   1.993   4.652   1.877
  213SOL     OW 1537   4.467   0.792   6.884
  213SOL    HW1 1538   4.504   0.717   6.938
  213SOL    HW2 1539   4.462   0.764   6.788
  214SOL     OW 1540   2.209   5.858   2.617
  214SOL    HW1 1541   2.308   5.846   2.616
  214SOL    HW2 1542   2.170   5.820   2.533
  215SOL     OW 1543   3.483   4.153   2.323
  215SOL    HW1 1544   3.508   4.236   2.273
  215SOL    HW2 1545   3.398   4.116   2.285
  216SOL     OW 1546   1.526   0.030   4.820
  216SOL    HW1 1547   1.548   0.015   4.917
  216SOL    HW2 1548   1.610   0.054   4.771
  217SOL     OW 1549   2.018   2.719   4.836
  217SOL    HW1 1550   1.985   2.669   4.757
  217SOL    HW2 1551   2.117   2.729   4.831
  218SOL     OW 1552   1.035   2.739   5.065
  218SOL    HW1 1553   1.055   2.743   4.967
  218SOL    HW2 1554   1.102   2.682   5.111
  219SOL     OW 1555   3.908   4.817   5.813
  219SOL    HW1 1556   3.894   4.807   5.715
  219SOL    HW2 1557   4.006   4.807   5.834
  220SOL     OW 1558   3.190   4.991   0.158
  220SOL    HW1 1559   3.099   4.997   0.118
  220SOL    HW2 1560   3.217   4.895   0.165
  221SOL     OW 1561   5.681   4.026   2.624
  221SOL    HW1 1562   5.623   4.025   2.706
  221SOL    HW2 1563   5.687   3.933   2.587
  222SOL     OW 1564   1.633   4.836   5.318
  222SOL    HW1 1565   1.668   4.801   5.405
  222SOL    HW2 1566   1.612   4.759   5.258
  223SOL     OW 1567   0.761   3.265   0.642
  223SOL    HW1 1568   0.778   3.190   0.706
  223SOL    HW2 1569   0.723   3.229   0.557
  224SOL     OW 1570   2.592   2.290   3.593
  224SOL    HW1 1571   2.584   2.387   3.616
  224SOL    HW2 1572   2.667   2.249   3.645
  225SOL     OW 1573   5.246   1.078   6.443
  225SOL    HW1 1574   5.298   1.003   6.484
  225SOL    HW2 1575   5.213   1.139   6.515
  226SOL     OW 1576   0.863   6.382   6.633
  226SOL    HW1 1577   0.814   6.460   6.670
  226SOL    HW2 1578   0.833   6.365   6.539
  227SOL     OW 1579   1.020   4.741   3.063
  227SOL    HW1 1580   1.041   4.701   2.973
  227SOL    HW2 1581   1.090   4.810   3.084
  228SOL     OW 1582   3.157   0.411   3.916
  228SOL    HW1 1583   3.256   0.413   3.900
  228SOL    HW2 1584   3.124   0.505   3.930
  229SOL     OW 1585   6.463   5.556   1.113
  229SOL    HW1 1586   6.475   5.458   1.096
  229SOL    HW2 1587   6.543   5.606   1.080
  230SOL     OW 1588   2.460   4.710   3.300
  230SOL    HW1 1589   2.508   4.755   3.375
  230SOL    HW2 1590   2.450   4.612   3.321
  231SOL     OW 1591   6.262   2.569   5.970
  231SOL    HW1 1592   6.252   2.473   5.998
  231SOL    HW2 1593   6.213   2.584   5.884
  232SOL     OW 1594   0.692   4.401   6.140
  232SOL    HW1 1595   0.792   4.398   6.145
  232SOL    HW2 1596   0.662   4.490   6.106
  233SOL     OW 1597   2.367   1.210   4.482
  233SOL    HW1 1598   2.387   1.268   4.402
  233SOL    HW2 1599   2.437   1.226   4.552
  234SOL     OW 1600   2.685   5.288   5.355
  234SOL    HW1 1601   2.733   5.211   5.398
  234SOL    HW2 1602   2.752   5.355   5.324
  235SOL     OW 1603   4.072   3.230   2.214
  235SOL    HW1 1604   3.994   3.168   2.224
  235SOL    HW2 1605   4.122   3.207   2.131
  236SOL     OW 1606   5.992   3.354   6.597
  236SOL    HW1 1607   6.048   3.302   6.661
  236SOL    HW2 1608   5.936   3.292   6.543
  237SOL     OW 1609   0.732   6.523   0.749
  237SOL    HW1 1610   0.825   6.501   0.778
  237SOL    HW2 1611   0.724   6.515   0.650
  238SOL     OW 1612   6.761   3.057   0.591
  238SOL    HW1 1613   6.759   3.135   0.654
  238SOL    HW2 1614   6.845   3.004   0.606
  239SOL     OW 1615   6.624   4.841   0.218
  239SOL    HW1 1616   6.573   4.832   0.133
  239SOL    HW2 1617   6.618   4.756   0.270
  240SOL     OW 1618   0.401   3.472   6.045
  240SOL    HW1 1619   0.464   3.395   6.046
  240SOL    HW2 1620   0.378   3.496   5.950
  241SOL     OW 1621   0.760   0.310   3.927
  241SOL    HW1 1622   0.690   0.256   3.881
  241SOL    HW2 1623   0.770   0.398   3.881
  242SOL     OW 1624   0.901   2.326   6.229
  242SOL    HW1 1625   0.928   2.411   6.183
  242SOL    HW2 1626   0.865   2.347   6.320
  243SOL     OW 1627   4.479   0.272   5.960
  243SOL    HW1 1628   4.443   0.241   5.872
  243SOL    HW2 1629   4.503   0.369   5.954
  244SOL     OW 1630   4.770   3.010   4.004
  244SOL    HW1 1631   4.757   3.039   4.099
  244SOL    HW2 1632   4.865   2.984   3.990
  245SOL     OW 1633   6.735   2.459   4.194
  245SOL    HW1 1634   6.715   2.556   4.210
  245SOL    HW2 1635   6.672   2.403   4.248
  246SOL     OW 1636   5.311   3.654   3.693
  246SOL    HW1 1637   5.251   3.635   3.615
  246SOL    HW2 1638   5.406   3.657   3.662
  247SOL     OW 1639   2.774   1.450   3.089
  247SOL    HW1 1640   2.867   1.438   3.054
  247SOL    HW2 1641   2.764   1.541   3.129
  248SOL     OW 1642   4.918   2.381   4.413
  248SOL    HW1 1643   4.830   2.356   4.452
  248SOL    HW2 1644   4.942   2.475   4.441
  249SOL     OW 1645   3.309   6.771   5.162
  249SOL    HW1 1646   3.277   6.811   5.077
  249SOL    HW2 1647   3.273   6.822   5.240
  250SOL     OW 1648   5.305   1.610   5.801
  250SOL    HW1 1649   5.223   1.601   5.745
  250SOL    HW2 1650   5.375   1.547   5.768
  251SOL     OW 1651   4.566   3.553   5.936
  251SOL    HW1 1652   4.538   3.596   6.022
  251SOL    HW2 1653   4.637   3.608   5.893
  252SOL     OW 1654   6.917   1.136   5.933
  252SOL    HW1 1655   6.902   1.116   5.836
  252SOL    HW2 1656   6.875   1.065   5.989
  253SOL     OW 1657   2.575   4.502   0.280
  253SOL    HW1 1658   2.624   4.450   0.211
  253SOL    HW2 1659   2.563   4.446   0.362
  254SOL     OW 1660   6.146   2.573   3.702
  254SOL    HW1 1661   6.172   2.662   3.740
  254SOL    HW2 1662   6.192   2.500   3.752
  255SOL     OW 1663   2.922   1.861   4.147
  255SOL    HW1 1664   2.998   1.812   4.104
  255SOL    HW2 1665   2.845   1.798   4.160
  256SOL     OW 1666   6.832   5.004   0.212
  256SOL    HW1 1667   6.888   5.000   0.295
  256SOL    HW2 1668   6.756   4.939   0.221
  257SOL     OW 1669   3.219   5.593   5.359
  257SOL    HW1 1670   3.216   5.582   5.260
  257SOL    HW2 1671   3.269   5.517   5.400
  258SOL     OW 1672   5.195   3.605   4.737
  258SOL    HW1 1673   5.232   3.620   4.829
  258SOL    HW2 1674   5.233   3.520   4.700
  259SOL     OW 1675   1.660   3.123   2.940
  259SOL    HW1 1676   1.657   3.023   2.934
  259SOL    HW2 1677   1.586   3.155   3.000
  260SOL     OW 1678   4.634   0.329   0.677
  260SOL    HW1 1679   4.689   0.343   0.595
  260SOL    HW2 1680   4.656   0.240   0.717
  261SOL     OW 1681   0.681   3.595   1.262
  261SOL    HW1 1682   0.611   3.607   1.192
  261SOL    HW2 1683   0.639   3.571   1.349
  262SOL     OW 1684   0.764   4.597   2.370
  262SOL    HW1 1685   0.710   4.545   2.435
  262SOL    HW2 1686   0.731   4.579   2.277
  263SOL     OW 1687   6.813   1.800   4.659
  263SOL    HW1 1688   6.836   1.819   4.755
  263SOL    HW2 1689   6.768   1.880   4.619
  264SOL     OW 1690   6.870   3.557   5.799
  264SOL    HW1 1691   6.967   3.574   5.818
  264SOL    HW2 1692   6.854   3.562   5.701
  265SOL     OW 1693   5.356   3.983   3.484
  265SOL    HW1 1694   5.389   4.027   3.567
  265SOL    HW2 1695   5.328   3.889   3.505
  266SOL     OW 1696   3.239   2.194   6.915
  266SOL    HW1 1697   3.315   2.133   6.893
  266SOL    HW2 1698   3.275   2.284   6.940
  267SOL     OW 1699   1.004   2.778   0.068
  267SOL    HW1 1700   0.948   2.856   0.042
  267SOL    HW2 1701   1.049   2.741   7.008
  268SOL     OW 1702   4.701   5.394   4.784
  268SOL    HW1 1703   4.624   5.454   4.806
  268SOL    HW2 1704   4.770   5.400   4.857
  269SOL     OW 1705   1.854   1.996   6.678
  269SOL    HW1 1706   1.764   2.030   6.651
  269SOL    HW2 1707   1.853   1.896   6.681
  270SOL     OW 1708   4.777   0.982   2.344
  270SOL    HW1 1709   4.828   0.896   2.336
  270SOL    HW2 1710   4.735   1.004   2.256
  271SOL     OW 1711   2.000   1.774   0.872
  271SOL    HW1 1712   2.070   1.785   0.943
  271SOL    HW2 1713   1.914   1.814   0.903
  272SOL     OW 1714   3.902   5.630   4.060
  272SOL    HW1 1715   3.943   5.704   4.006
  272SOL    HW2 1716   3.975   5.576   4.101
  273SOL     OW 1717   1.473   5.378   5.043
  273SOL    HW1 1718   1.420   5.462   5.045
  273SOL    HW2 1719   1.549   5.387   4.979
  274SOL     OW 1720   5.091   2.853   3.549
  274SOL    HW1 1721   5.155   2.922   3.516
  274SOL    HW2 1722   5.006   2.859   3.497
  275SOL     OW 1723   0.902   5.344   6.024
  275SOL    HW1 1724   0.915   5.282   5.946
  275SOL    HW2 1725   0.816   5.322   6.070
  276SOL     OW 1726   6.493   5.606   4.127
  276SOL    HW1 1727   6.440   5.686   4.100
  276SOL    HW2 1728   6.468   5.528   4.070
  277SOL     OW 1729   2.833   0.784   6.051
  277SOL    HW1 1730   2.747   0.759   6.006
  277SOL    HW2 1731   2.831   0.881   6.075
  278SOL     OW 1732   5.288   3.516   2.385
  278SOL    HW1 1733   5.362   3.570   2.426
  278SOL    HW2 1734   5.215   3.504   2.452
  279SOL     OW 1735   6.526   3.000   3.990
  279SOL    HW1 1736   6.448   2.939   3.983
  279SOL    HW2 1737   6.606   2.957   3.950
  280SOL     OW 1738   4.911   6.671   4.198
  280SOL    HW1 1739   4.877   6.607   4.268
  280SOL    HW2 1740   4.833   6.710   4.149
  281SOL     OW 1741   3.492   5.199   3.815
  281SOL    HW1 1742   3.561   5.190   3.744
  281SOL    HW2 1743   3.476   5.111   3.858
  282SOL     OW 1744   3.838   2.054   5.564
  282SOL    HW1 1745   3.758   2.113   5.572
  282SOL    HW2 1746   3.909   2.084   5.627
  283SOL     OW 1747   6.190   6.630   5.015
  283SOL    HW1 1748   6.156   6.561   4.952
  283SOL    HW2 1749   6.209   6.715   4.966
  284SOL     OW 1750   0.494   4.566   4.245
  284SOL    HW1 1751   0.438   4.504   4.190
  284SOL    HW2 1752   0.460   4.659   4.234
  285SOL     OW 1753   5.318   6.354   0.412
  285SOL    HW1 1754   5.282   6.271   0.369
  285SOL    HW2 1755   5.259   6.432   0.389
  286SOL     OW 1756   3.852   4.943   5.473
  286SOL    HW1 1757   3.921   4.992   5.525
  286SOL    HW2 1758   3.841   4.985   5.383
  287SOL     OW 1759   1.526   5.628   6.090
  287SOL    HW1 1760   1.506   5.544   6.141
  287SOL    HW2 1761   1.595   5.608   6.020
  288SOL     OW 1762   4.036   0.677   1.094
  288SOL    HW1 1763   3.953   0.725   1.123
  288SOL    HW2 1764   4.044   0.592   1.145
  289SOL     OW 1765   1.406   5.738   5.713
  289SOL    HW1 1766   1.479   5.706   5.774
  289SOL    HW2 1767   1.408   5.684   5.628
  290SOL     OW 1768   4.541   0.270   2.914
  290SOL    HW1 1769   4.577   0.184   2.950
  290SOL    HW2 1770   4.580   0.347   2.964
  291SOL     OW 1771   4.190   1.283   3.774
  291SOL    HW1 1772   4.104   1.315   3.733
  291SOL    HW2 1773   4.168   1.220   3.849
  292SOL     OW 1774   3.903   0.608   3.563
  292SOL    HW1 1775   3.990   0.652   3.587
  292SOL    HW2 1776   3.916   0.551   3.482
  293SOL     OW 1777   4.543   6.041   1.680
  293SOL    HW1 1778   4.469   6.088   1.631
  293SOL    HW2 1779   4.611   6.108   1.710
  294SOL     OW 1780   5.825   6.143   6.098
  294SOL    HW1 1781   5.787   6.175   6.185
  294SOL    HW2 1782   5.839   6.044   6.102
  295SOL     OW 1783   1.275   2.727   5.826
  295SOL    HW1 1784   1.177   2.710   5.823
  295SOL    HW2 1785   1.323   2.649   5.786
  296SOL     OW 1786   6.370   2.055   1.306
  296SOL    HW1 1787   6.326   2.133   1.350
  296SOL    HW2 1788   6.468   2.072   1.297
  297SOL     OW 1789   4.838   4.935   3.393
  297SOL    HW1 1790   4.825   4.987   3.308
  297SOL    HW2 1791   4.896   4.855   3.374
  298SOL     OW 1792   3.912   0.739   0.401
  298SOL    HW1 1793   3.863   0.803   0.460
  298SOL    HW2 1794   4.009   0.740   0.425
  299SOL     OW 1795   3.307   1.656   0.247
  299SOL    HW1 1796   3.301   1.675   0.149
  299SOL    HW2 1797   3.374   1.717   0.289
  300SOL     OW 1798   3.737   0.769   2.461
  300SOL    HW1 1799   3.667   0.805   2.400
  300SOL    HW2 1800   3.804   0.717   2.408
  301SOL     OW 1801   4.956   0.399   1.707
  301SOL    HW1 1802   4.967   0.415   1.609
  301SOL    HW2 1803   4.909   0.312   1.722
  302SOL     OW 1804   0.655   0.145   2.049
  302SOL    HW1 1805   0.622   0.220   2.106
  302SOL    HW2 1806   0.706   0.181   1.971
  303SOL     OW 1807   5.813   5.948   1.665
  303SOL    HW1 1808   5.856   6.010   1.729
  303SOL    HW2 1809   5.754   5.884   1.714
  304SOL     OW 1810   1.916   6.402   5.972
  304SOL    HW1 1811   1.904   6.303   5.966
  304SOL    HW2 1812   2.011   6.426   5.952
  305SOL     OW 1813   1.479   2.805   0.896
  305SOL    HW1 1814   1.396   2.759   0.865
  305SOL    HW2 1815   1.454   2.885   0.950
  306SOL     OW 1816   0.349   1.101   2.592
  306SOL    HW1 1817   0.447   1.106   2.570
  306SOL    HW2 1818   0.302   1.045   2.523
  307SOL     OW 1819   3.319   3.937   0.753
  307SOL    HW1 1820   3.372   3.979   0.827
  307SOL    HW2 1821   3.281   3.850   0.783
  308SOL     OW 1822   5.832   2.721   4.284
  308SOL    HW1 1823   5.763   2.654   4.260
  308SOL    HW2 1824   5.923   2.678   4.284
  309SOL     OW 1825   1.648   6.332   0.083
  309SOL    HW1 1826   1.690   6.343   7.014
  309SOL    HW2 1827   1.697   6.386   0.151
  310SOL     OW 1828   5.931   6.253   3.877
  310SOL    HW1 1829   5.847   6.275   3.826
  310SOL    HW2 1830   5.997   6.211   3.815
  311SOL     OW 1831   2.445   4.448   2.302
  311SOL    HW1 1832   2.354   4.409   2.313
  311SOL    HW2 1833   2.470   4.497   2.385
  312SOL     OW 1834   4.166   2.292   4.471
  312SOL    HW1 1835   4.105   2.256   4.400
  312SOL    HW2 1836   4.116   2.299   4.557
  313SOL     OW 1837   2.930   3.670   2.706
  313SOL    HW1 1838   2.956   3.766   2.702
  313SOL    HW2 1839   2.992   3.616   2.650
  314SOL     OW 1840   2.030   5.067   5.150
  314SOL    HW1 1841   1.965   5.091   5.078
  314SOL    HW2 1842   2.103   5.009   5.112
  315SOL     OW 1843   0.398   1.851   3.555
  315SOL    HW1 1844   0.401   1.761   3.598
  315SOL    HW2 1845   0.396   1.922   3.626
  316SOL     OW 1846   3.832   1.619   4.410
  316SOL    HW1 1847   3.761   1.603   4.341
  316SOL    HW2 1848   3.918   1.642   4.365
  317SOL     OW 1849   1.264   1.393   1.605
  317SOL    HW1 1850   1.200   1.401   1.529
  317SOL    HW2 1851   1.213   1.391   1.691
  318SOL     OW 1852   5.912   0.597   6.458
  318SOL    HW1 1853   5.913   0.673   6.523
  318SOL    HW2 1854   5.822   0.555   6.456
  319SOL     OW 1855   6.644   2.116   3.473
  319SOL    HW1 1856   6.639   2.213   3.497
  319SOL    HW2 1857   6.672   2.063   3.553
  320SOL     OW 1858   6.440   3.062   0.022
  320SOL    HW1 1859   6.453   3.047   0.119
  320SOL    HW2 1860   6.389   3.147   0.007
  321SOL     OW 1861   4.142   2.211   0.849
  321SOL    HW1 1862   4.228   2.263   0.847
  321SOL    HW2 1863   4.148   2.140   0.918
  322SOL     OW 1864   3.875   2.966   4.267
  322SOL    HW1 1865   3.870   2.924   4.357
  322SOL    HW2 1866   3.917   3.056   4.274
  323SOL     OW 1867   1.323   2.406   4.461
  323SOL    HW1 1868   1.407   2.441   4.504
  323SOL    HW2 1869   1.327   2.422   4.363
  324SOL     OW 1870   2.192   6.816   3.756
  324SOL    HW1 1871   2.098   6.788   3.739
  324SOL    HW2 1872   2.249   6.735   3.774
  325SOL     OW 1873   1.371   3.840   2.545
  325SOL    HW1 1874   1.421   3.849   2.632
  325SOL    HW2 1875   1.290   3.783   2.559
  326SOL     OW 1876   1.186   4.183   5.486
  326SOL    HW1 1877   1.138   4.267   5.462
  326SOL    HW2 1878   1.282   4.190   5.458
  327SOL     OW 1879   2.533   4.600   2.504
  327SOL    HW1 1880   2.514   4.698   2.502
  327SOL    HW2 1881   2.519   4.565   2.596
  328SOL     OW 1882   1.949   4.898   1.361
  328SOL    HW1 1883   2.021   4.883   1.429
  328SOL    HW2 1884   1.890   4.816   1.356
  329SOL     OW 1885   2.452   3.927   6.009
  329SOL    HW1 1886   2.447   4.020   6.043
  329SOL    HW2 1887   2.424   3.925   5.913
  330SOL     OW 1888   3.637   6.473   0.188
  330SOL    HW1 1889   3.549   6.443   0.225
  330SOL    HW2 1890   3.623   6.555   0.131
  331SOL     OW 1891   5.959   5.180   1.056
  331SOL    HW1 1892   5.894   5.139   1.120
  331SOL    HW2 1893   5.931   5.274   1.036
  332SOL     OW 1894   5.691   2.060   3.898
  332SOL    HW1 1895   5.706   1.972   3.852
  332SOL    HW2 1896   5.594   2.083   3.894
  333SOL     OW 1897   4.425   0.894   5.183
  333SOL    HW1 1898   4.393   0.931   5.270
  333SOL    HW2 1899   4.517   0.928   5.164
  334SOL     OW 1900   3.671   2.320   0.950
  334SOL    HW1 1901   3.764   2.294   0.972
  334SOL    HW2 1902   3.644   2.399   1.004
  335SOL     OW 1903   4.273   0.138   6.582
  335SOL    HW1 1904   4.318   0.150   6.671
  335SOL    HW2 1905   4.238   0.226   6.550
  336SOL     OW 1906   3.054   1.417   2.947
  336SOL    HW1 1907   3.122   1.491   2.953
  336SOL    HW2 1908   2.991   1.436   2.872
  337SOL     OW 1909   1.063   2.606   6.048
  337SOL    HW1 1910   1.162   2.599   6.056
  337SOL    HW2 1911   1.038   2.612   5.951
  338SOL     OW 1912   3.613   3.203   1.553
  338SOL    HW1 1913   3.683   3.159   1.610
  338SOL    HW2 1914   3.531   3.145   1.551
  339SOL     OW 1915   4.251   5.261   4.382
  339SOL    HW1 1916   4.203   5.346   4.402
  339SOL    HW2 1917   4.322   5.245   4.450
  340SOL     OW 1918   4.997   3.441   4.957
  340SOL    HW1 1919   4.922   3.487   5.005
  340SOL    HW2 1920   5.078   3.439   5.015
  341SOL     OW 1921   5.510   6.751   4.088
  341SOL    HW1 1922   5.554   6.750   3.998
  341SOL    HW2 1923   5.494   6.657   4.118
  342SOL     OW 1924   4.899   3.038   0.100
  342SOL    HW1 1925   4.990   3.052   0.138
  342SOL    HW2 1926   4.845   3.121   0.111
  343SOL     OW 1927   0.198   6.611   2.521
  343SOL    HW1 1928   0.198   6.628   2.619
  343SOL    HW2 1929   0.260   6.675   2.475
  344SOL     OW 1930   1.025   2.393   1.903
  344SOL    HW1 1931   0.947   2.340   1.870
  344SOL    HW2 1932   1.087   2.332   1.952
  345SOL     OW 1933   6.109   1.965   4.197
  345SOL    HW1 1934   6.011   1.977   4.185
  345SOL    HW2 1935   6.127   1.927   4.288
  346SOL     OW 1936   1.647   0.177   2.578
  346SOL    HW1 1937   1.577   0.119   2.620
  346SOL    HW2 1938   1.737   0.150   2.612
  347SOL     OW 1939   3.022   5.622   0.014
  347SOL    HW1 1940   3.100   5.576   6.993
  347SOL    HW2 1941   2.937   5.592   6.991
  348SOL     OW 1942   5.129   5.029   3.146
  348SOL    HW1 1943   5.134   4.956   3.078
  348SOL    HW2 1944   5.093   5.112   3.104
  349SOL     OW 1945   6.644   4.693   2.134
  349SOL    HW1 1946   6.741   4.670   2.138
  349SOL    HW2 1947   6.596   4.645   2.208
  350SOL     OW 1948   2.954   3.169   0.807
  350SOL    HW1 1949   2.858   3.150   0.823
  350SOL    HW2 1950   3.010   3.100   0.852
  351SOL     OW 1951   2.773   3.230   0.560
  351SOL    HW1 1952   2.829   3.210   0.480
  351SOL    HW2 1953   2.739   3.145   0.599
  352SOL     OW 1954   3.727   6.586   3.430
  352SOL    HW1 1955   3.778   6.503   3.452
  352SOL    HW2 1956   3.635   6.562   3.400
  353SOL     OW 1957   2.907   0.438   6.413
  353SOL    HW1 1958   3.000   0.402   6.427
  353SOL    HW2 1959   2.854   0.372   6.360
  354SOL     OW 1960   4.697   2.475   1.464
  354SOL    HW1 1961   4.795   2.459   1.474
  354SOL    HW2 1962   4.647   2.391   1.486
  355SOL     OW 1963   1.830   3.830   2.402
  355SOL    HW1 1964   1.769   3.894   2.355
  355SOL    HW2 1965   1.777   3.757   2.445
  356SOL     OW 1966   2.387   1.128   5.086
  356SOL    HW1 1967   2.419   1.213   5.044
  356SOL    HW2 1968   2.460   1.091   5.144
  357SOL     OW 1969   6.506   5.984   4.716
  357SOL    HW1 1970   6.479   5.973   4.812
  357SOL    HW2 1971   6.463   5.912   4.661
  358SOL     OW 1972   4.515   6.681   0.602
  358SOL    HW1 1973   4.478   6.765   0.562
  358SOL    HW2 1974   4.593   6.650   0.548
  359SOL     OW 1975   3.005   0.989   2.179
  359SOL    HW1 1976   2.981   0.960   2.272
  359SOL    HW2 1977   3.052   0.914   2.132
  360SOL     OW 1978   1.829   3.676   4.592
  360SOL    HW1 1979   1.770   3.754   4.577
  360SOL    HW2 1980   1.925   3.704   4.584
  361SOL     OW 1981   6.524   5.789   2.846
  361SOL    HW1 1982   6.571   5.871   2.815
  361SOL    HW2 1983   6.486   5.740   2.768
  362SOL     OW 1984   3.368   3.032   1.513
  362SOL    HW1 1985   3.427   3.019   1.433
  362SOL    HW2 1986   3.279   3.065   1.484
  363SOL     OW 1987   5.315   4.665   2.996
  363SOL    HW1 1988   5.276   4.757   2.988
  363SOL    HW2 1989   5.286   4.610   2.917
  364SOL     OW 1990   6.729   5.133   6.991
  364SOL    HW1 1991   6.718   5.074   6.911
  364SOL    HW2 1992   6.773   5.082   0.044
  365SOL     OW 1993   4.324   0.249   0.989
  365SOL    HW1 1994   4.246   0.294   0.944
  365SOL    HW2 1995   4.340   0.291   1.078
  366SOL     OW 1996   5.788   2.263   6.589
  366SOL    HW1 1997   5.799   2.321   6.669
  366SOL    HW2 1998   5.767   2.319   6.509
  367SOL     OW 1999   6.061   2.368   6.310
  367SOL    HW1 2000   6.034   2.283   6.355
  367SOL    HW2 2001   6.033   2.446   6.368
  368SOL     OW 2002   0.000   2.587   5.482
  368SOL    HW1 2003   0.044   2.502   5.513
  368SOL    HW2 2004   0.051   2.624   5.405
  369SOL     OW 2005   5.815   4.626   3.055
  369SOL    HW1 2006   5.850   4.666   3.139
  369SOL    HW2 2007   5.851   4.533   3.044
  370SOL     OW 2008   0.890   2.302   4.130
  370SOL    HW1 2009   0.892   2.312   4.030
  370SOL    HW2 2010   0.887   2.393   4.172
  371SOL     OW 2011   1.731   4.383   6.480
  371SOL    HW1 2012   1.643   4.360   6.521
  371SOL    HW2 2013   1.783   4.299   6.466
  372SOL     OW 2014   2.025   6.643   5.495
  372SOL    HW1 2015   1.949   6.585   5.522
  372SOL    HW2 2016   2.042   6.712   5.566
  373SOL     OW 2017   5.527   6.171   5.474
  373SOL    HW1 2018   5.492   6.138   5.562
  373SOL    HW2 2019   5.614   6.220   5.488
  374SOL     OW 2020   2.616   2.538   3.206
  374SOL    HW1 2021   2.682   2.609   3.232
  374SOL    HW2 2022   2.659   2.448   3.215
  375SOL     OW 2023   0.996   4.451   4.405
  375SOL    HW1 2024   0.915   4.505   4.430
  375SOL    HW2 2025   1.045   4.424   4.487
  376SOL     OW 2026   1.421   1.649   5.234
  376SOL    HW1 2027   1.429   1.738   5.279
  376SOL    HW2 2028   1.480   1.647   5.153
  377SOL     OW 2029   1.661   2.070   6.972
  377SOL    HW1 2030   1.755   2.092   6.945
  377SOL    HW2 2031   1.657   1.974   7.001
  378SOL     OW 2032   4.113   1.637   0.829
  378SOL    HW1 2033   4.170   1.715   0.803
  378SOL    HW2 2034   4.128   1.562   0.764
  379SOL     OW 2035   5.514   2.510   0.108
  379SOL    HW1 2036   5.426   2.538   0.147
  379SOL    HW2 2037   5.583   2.580   0.127
  380SOL     OW 2038   3.156   1.376   1.471
  380SOL    HW1 2039   3.236   1.363   1.529
  380SOL    HW2 2040   3.121   1.286   1.443
  381SOL     OW 2041   1.832   4.025   3.794
  381SOL    HW1 2042   1.813   3.962   3.869
  381SOL    HW2 2043   1.812   3.980   3.707
  382SOL     OW 2044   6.065   1.093   6.944
  382SOL    HW1 2045   6.001   1.158   6.983
  382SOL    HW2 2046   6.108   1.040   7.017
  383SOL     OW 2047   3.724   3.411   7.005
  383SOL    HW1 2048   3.818   3.377   6.995
  383SOL    HW2 2049   3.723   3.509   6.984
  384SOL     OW 2050   6.939   4.985   5.200
  384SOL    HW1 2051   6.914   5.081   5.205
  384SOL    HW2 2052   7.016   4.974   5.138
  385SOL     OW 2053   3.283   5.326   5.432
  385SOL    HW1 2054   3.211   5.323   5.363
  385SOL    HW2 2055   3.364   5.279   5.398
  386SOL     OW 2056   3.139   6.724   4.219
  386SOL    HW1 2057   3.194   6.769   4.289
  386SOL    HW2 2058   3.088   6.648   4.260
  387SOL     OW 2059   0.714   5.454   2.557
  387SOL    HW1 2060   0.618   5.426   2.543
  387SOL    HW2 2061   0.719   5.553   2.565
  388SOL     OW 2062   2.044   2.315   6.557
  388SOL    HW1 2063   1.950   2.338   6.530
  388SOL    HW2 2064   2.065   2.222   6.527
  389SOL     OW 2065   3.419   3.706   2.836
  389SOL    HW1 2066   3.516   3.718   2.858
  389SOL    HW2 2067   3.364   3.717   2.919
  390SOL     OW 2068   2.821   1.064   3.435
  390SOL    HW1 2069   2.823   1.127   3.358
  390SOL    HW2 2070   2.877   0.984   3.415
  391SOL     OW 2071   2.577   2.408   5.923
  391SOL    HW1 2072   2.617   2.416   5.831
  391SOL    HW2 2073   2.583   2.312   5.953
  392SOL     OW 2074   1.554   4.362   0.751
  392SOL    HW1 2075   1.632   4.409   0.711
  392SOL    HW2 2076   1.553   4.266   0.722
  393SOL     OW 2077   0.590   4.743   6.645
  393SOL    HW1 2078   0.620   4.677   6.577
  393SOL    HW2 2079   0.669   4.782   6.692
  394SOL     OW 2080   0.085   1.085   6.686
  394SOL    HW1 2081   0.072   1.016   6.614
  394SOL    HW2 2082   0.003   1.088   6.744
  395SOL     OW 2083   4.884   3.678   3.482
  395SOL    HW1 2084   4.897   3.637   3.573
  395SOL    HW2 2085   4.872   3.777   3.492
  396SOL     OW 2086   3.901   4.000   2.038
  396SOL    HW1 2087   3.878   3.930   2.106
  396SOL    HW2 2088   3.942   4.079   2.084
  397SOL     OW 2089   4.552   2.068   5.521
  397SOL    HW1 2090   4.550   2.164   5.547
  397SOL    HW2 2091   4.468   2.044   5.473
  398SOL     OW 2092   0.735   6.386   2.294
  398SOL    HW1 2093   0.774   6.385   2.386
  398SOL    HW2 2094   0.704   6.478   2.272
  399SOL     OW 2095   5.242   5.914   2.575
  399SOL    HW1 2096   5.255   5.942   2.670
  399SOL    HW2 2097   5.201   5.988   2.523
  400SOL     OW 2098   5.974   6.714   5.676
  400SOL    HW1 2099   5.992   6.810   5.653
  400SOL    HW2 2100   5.890   6.707   5.729
  401SOL     OW 2101   5.069   0.923   5.541
  401SOL    HW1 2102   5.002   0.947   5.612
  401SOL    HW2 2103   5.153   0.890   5.585
  402SOL     OW 2104   5.830   0.425   3.049
  402SOL    HW1 2105   5.799   0.350   2.990
  402SOL    HW2 2106   5.926   0.412   3.071
  403SOL     OW 2107   4.424   1.810   4.472
  403SOL    HW1 2108   4.480   1.887   4.442
  403SOL    HW2 2109   4.475   1.755   4.538
  404SOL     OW 2110   1.385   6.135   3.817
  404SOL    HW1 2111   1.377   6.124   3.916
  404SOL    HW2 2112   1.413   6.048   3.776
  405SOL     OW 2113   1.703   3.751   2.131
  405SOL    HW1 2114   1.670   3.830   2.181
  405SOL    HW2 2115   1.781   3.710   2.179
  406SOL     OW 2116   1.245   4.186   4.550
  406SOL    HW1 2117   1.303   4.221   4.476
  406SOL    HW2 2118   1.183   4.117   4.514
  407SOL     OW 2119   2.234   0.554   3.426
  407SOL    HW1 2120   2.291   0.472   3.425
  407SOL    HW2 2121   2.218   0.584   3.332
  408SOL     OW 2122   0.956   2.131   2.984
  408SOL    HW1 2123   0.935   2.172   2.895
  408SOL    HW2 2124   0.910   2.183   3.056
  409SOL     OW 2125   6.548   2.712   0.915
  409SOL    HW1 2126   6.570   2.774   0.839
  409SOL    HW2 2127   6.449   2.709   0.929
  410SOL     OW 2128   1.320   0.135   0.698
  410SOL    HW1 2129   1.319   0.215   0.638
  410SOL    HW2 2130   1.227   0.100   0.709
  411SOL     OW 2131   5.248   6.887   0.060
  411SOL    HW1 2132   5.292   6.843   7.002
  411SOL    HW2 2133   5.172   6.944   0.027
  412SOL     OW 2134   5.499   6.543   3.752
  412SOL    HW1 2135   5.438   6.518   3.827
  412SOL    HW2 2136   5.488   6.478   3.677
  413SOL     OW 2137   5.490   5.412   2.037
  413SOL    HW1 2138   5.406   5.465   2.051
  413SOL    HW2 2139   5.468   5.314   2.043
  414SOL     OW 2140   4.111   5.194   3.437
  414SOL    HW1 2141   4.157   5.110   3.408
  414SOL    HW2 2142   4.095   5.190   3.535
  415SOL     OW 2143   1.283   5.852   6.468
  415SOL    HW1 2144   1.371   5.846   6.420
  415SOL    HW2 2145   1.271   5.770   6.524
  416SOL     OW 2146   5.027   5.707   4.003
  416SOL    HW1 2147   5.119   5.668   4.013
  416SOL    HW2 2148   5.020   5.789   4.060
  417SOL     OW 2149   2.742   5.089   0.560
  417SOL    HW1 2150   2.681   5.123   0.489
  417SOL    HW2 2151   2.743   4.989   0.558
  418SOL     OW 2152   4.192   5.973   1.089
  418SOL    HW1 2153   4.104   5.987   1.136
  418SOL    HW2 2154   4.260   5.941   1.155
  419SOL     OW 2155   1.321   0.256   0.962
  419SOL    HW1 2156   1.350   0.347   0.991
  419SOL    HW2 2157   1.338   0.245   0.864
  420SOL     OW 2158   6.164   1.774   6.851
  420SOL    HW1 2159   6.116   1.708   6.909
  420SOL    HW2 2160   6.232   1.726   6.796
  421SOL     OW 2161   0.042   4.299   6.357
  421SOL    HW1 2162   0.023   4.242   6.278
  421SOL    HW2 2163   0.045   4.395   6.329
  422SOL     OW 2164   5.498   4.300   0.262
  422SOL    HW1 2165   5.528   4.346   0.178
  422SOL    HW2 2166   5.403   4.324   0.281
  423SOL     OW 2167   0.848   2.577   0.168
  423SOL    HW1 2168   0.886   2.667   0.146
  423SOL    HW2 2169   0.868   2.513   0.093
  424SOL     OW 2170   2.427   3.628   0.620
  424SOL    HW1 2171   2.392   3.587   0.535
  424SOL    HW2 2172   2.500   3.570   0.656
  425SOL     OW 2173   5.562   1.224   2.440
  425SOL    HW1 2174   5.508   1.176   2.508
  425SOL    HW2 2175   5.515   1.309   2.413
  426SOL     OW 2176   4.655   2.183   3.763
  426SOL    HW1 2177   4.647   2.273   3.721
  426SOL    HW2 2178   4.575   2.128   3.738
  427SOL     OW 2179   5.195   5.668   2.956
  427SOL    HW1 2180   5.268   5.614   2.913
  427SOL    HW2 2181   5.120   5.680   2.890
  428SOL     OW 2182   4.342   0.534   4.402
  428SOL    HW1 2183   4.285   0.516   4.481
  428SOL    HW2 2184   4.424   0.477   4.406
  429SOL     OW 2185   1.888   3.364   1.051
  429SOL    HW1 2186   1.891   3.454   1.094
  429SOL    HW2 2187   1.900   3.293   1.121
  430SOL     OW 2188   6.735   0.334   5.155
  430SOL    HW1 2189   6.718   0.240   5.126
  430SOL    HW2 2190   6.756   0.391   5.075
  431SOL     OW 2191   3.240   0.078   0.444
  431SOL    HW1 2192   3.320   0.057   0.388
  431SOL    HW2 2193   3.157   0.071   0.389
  432SOL     OW 2194   6.742   1.914   1.403
  432SOL    HW1 2195   6.701   1.969   1.330
  432SOL    HW2 2196   6.723   1.817   1.386
  433SOL     OW 2197   3.096   6.428   4.916
  433SOL    HW1 2198   3.152   6.345   4.906
  433SOL    HW2 2199   3.008   6.404   4.957
  434SOL     OW 2200   3.176   6.143   1.975
  434SOL    HW1 2201   3.267   6.101   1.977
  434SOL    HW2 2202   3.182   6.237   2.008
  435SOL     OW 2203   5.028   2.428   5.713
  435SOL    HW1 2204   5.053   2.341   5.756
  435SOL    HW2 2205   5.111   2.482   5.697
  436SOL     OW 2206   3.277   6.103   0.919
  436SOL    HW1 2207   3.343   6.117   0.846
  436SOL    HW2 2208   3.219   6.184   0.928
  437SOL     OW 2209   1.113   0.622   6.694
  437SOL    HW1 2210   1.036   0.686   6.692
  437SOL    HW2 2211   1.079   0.529   6.704
  438SOL     OW 2212   2.116   3.738   2.481
  438SOL    HW1 2213   2.148   3.676   2.553
  438SOL    HW2 2214   2.043   3.694   2.429
  439SOL     OW 2215   6.174   4.385   3.307
  439SOL    HW1 2216   6.175   4.323   3.229
  439SOL    HW2 2217   6.144   4.336   3.389
  440SOL     OW 2218   1.792   1.570   5.163
  440SOL    HW1 2219   1.762   1.622   5.243
  440SOL    HW2 2220   1.815   1.477   5.191
  441SOL     OW 2221   0.981   2.797   4.087
  441SOL    HW1 2222   0.920   2.862   4.133
  441SOL    HW2 2223   1.068   2.793   4.136
  442SOL     OW 2224   2.847   4.825   6.257
  442SOL    HW1 2225   2.891   4.878   6.329
  442SOL    HW2 2226   2.872   4.728   6.268
  443SOL     OW 2227   6.161   4.424   4.659
  443SOL    HW1 2228   6.091   4.391   4.722
  443SOL    HW2 2229   6.118   4.454   4.574
  444SOL     OW 2230   5.314   1.625   6.075
  444SOL    HW1 2231   5.267   1.558   6.131
  444SOL    HW2 2232   5.305   1.601   5.979
  445SOL     OW 2233   0.600   5.074   3.051
  445SOL    HW1 2234   0.534   5.148   3.039
  445SOL    HW2 2235   0.618   5.032   2.962
  446SOL     OW 2236   4.038   4.804   3.128
  446SOL    HW1 2237   4.072   4.751   3.050
  446SOL    HW2 2238   3.941   4.827   3.113
  447SOL     OW 2239   0.382   2.865   6.381
  447SOL    HW1 2240   0.308   2.930   6.365
  447SOL    HW2 2241   0.410   2.868   6.477
  448SOL     OW 2242   2.428   0.701   3.762
  448SOL    HW1 2243   2.480   0.616   3.773
  448SOL    HW2 2244   2.340   0.680   3.718
  449SOL     OW 2245   4.215   1.073   3.981
  449SOL    HW1 2246   4.220   1.148   4.047
  449SOL    HW2 2247   4.128   1.025   3.990
  450SOL     OW 2248   1.366   6.010   3.440
  450SOL    HW1 2249   1.376   5.983   3.535
  450SOL    HW2 2250   1.298   6.083   3.432
  451SOL     OW 2251   1.870   1.415   3.830
  451SOL    HW1 2252   1.908   1.464   3.751
  451SOL    HW2 2253   1.914   1.447   3.914
  452SOL     OW 2254   6.105   5.905   0.966
  452SOL    HW1 2255   6.065   5.977   1.022
  452SOL    HW2 2256   6.198   5.929   0.942
  453SOL     OW 2257   3.917   0.964   5.758
  453SOL    HW1 2258   3.872   1.042   5.803
  453SOL    HW2 2259   4.007   0.950   5.800
  454SOL     OW 2260   0.117   4.639   6.825
  454SOL    HW1 2261   0.029   4.687   6.821
  454SOL    HW2 2262   0.186   4.699   6.866
  455SOL     OW 2263   6.230   2.867   3.164
  455SOL    HW1 2264   6.264   2.848   3.256
  455SOL    HW2 2265   6.292   2.826   3.097
  456SOL     OW 2266   5.949   6.724   3.905
  456SOL    HW1 2267   5.961   6.626   3.919
  456SOL    HW2 2268   5.955   6.745   3.808
  457SOL     OW 2269   2.189   3.095   3.957
  457SOL    HW1 2270   2.120   3.161   3.987
  457SOL    HW2 2271   2.230   3.051   4.037
  458SOL     OW 2272   4.438   5.259   3.278
  458SOL    HW1 2273   4.404   5.306   3.359
  458SOL    HW2 2274   4.415   5.311   3.197
  459SOL     OW 2275   1.714   0.043   5.277
  459SOL    HW1 2276   1.814   0.039   5.270
  459SOL    HW2 2277   1.673   7.019   5.197
  460SOL     OW 2278   1.622   0.215   3.384
  460SOL    HW1 2279   1.569   0.287   3.429
  460SOL    HW2 2280   1.619   0.132   3.438
  461SOL     OW 2281   6.694   7.010   6.181
  461SOL    HW1 2282   6.703   0.060   6.251
  461SOL    HW2 2283   6.690   6.920   6.223
  462SOL     OW 2284   3.352   3.101   6.273
  462SOL    HW1 2285   3.370   3.120   6.177
  462SOL    HW2 2286   3.291   3.170   6.311
  463SOL     OW 2287   6.635   5.785   3.130
  463SOL    HW1 2288   6.596   5.793   3.039
  463SOL    HW2 2289   6.597   5.856   3.189
  464SOL     OW 2290   2.203   2.174   5.214
  464SOL    HW1 2291   2.210   2.269   5.244
  464SOL    HW2 2292   2.206   2.113   5.293
  465SOL     OW 2293   0.408   2.614   5.613
  465SOL    HW1 2294   0.368   2.643   5.526
  465SOL    HW2 2295   0.487   2.671   5.634
  466SOL     OW 2296   0.822   5.823   2.812
  466SOL    HW1 2297   0.753   5.772   2.761
  466SOL    HW2 2298   0.780   5.866   2.891
  467SOL     OW 2299   1.588   1.450   0.635
  467SOL    HW1 2300   1.685   1.428   0.629
  467SOL    HW2 2301   1.553   1.472   0.545
  468SOL     OW 2302   3.396   0.232   6.538
  468SOL    HW1 2303   3.484   0.258   6.578
  468SOL    HW2 2304   3.361   0.150   6.583
  469SOL     OW 2305   2.828   3.423   6.679
  469SOL    HW1 2306   2.857   3.365   6.603
  469SOL    HW2 2307   2.864   3.516   6.666
  470SOL     OW 2308   4.154   6.903   2.015
  470SOL    HW1 2309   4.077   6.900   1.951
  470SOL    HW2 2310   4.158   6.992   2.060
  471SOL     OW 2311   2.292   2.249   3.819
  471SOL    HW1 2312   2.219   2.316   3.834
  471SOL    HW2 2313   2.256   2.157   3.831
  472SOL     OW 2314   5.708   3.344   6.526
  472SOL    HW1 2315   5.623   3.378   6.488
  472SOL    HW2 2316   5.771   3.319   6.452
  473SOL     OW 2317   0.951   2.815   3.333
  473SOL    HW1 2318   0.890   2.891   3.356
  473SOL    HW2 2319   1.035   2.851   3.293
  474SOL     OW 2320   5.240   5.840   4.192
  474SOL    HW1 2321   5.278   5.809   4.279
  474SOL    HW2 2322   5.314   5.864   4.129
  475SOL     OW 2323   5.998   0.916   6.153
  475SOL    HW1 2324   5.916   0.927   6.209
  475SOL    HW2 2325   6.069   0.979   6.185
  476SOL     OW 2326   0.029   3.892   3.326
  476SOL    HW1 2327   0.022   3.839   3.241
  476SOL    HW2 2328   0.098   3.852   3.385
  477SOL     OW 2329   1.481   5.176   3.778
  477SOL    HW1 2330   1.430   5.112   3.836
  477SOL    HW2 2331   1.562   5.206   3.827
  478SOL     OW 2332   3.071   6.525   1.848
  478SOL    HW1 2333   2.986   6.578   1.838
  478SOL    HW2 2334   3.149   6.587   1.855
  479SOL     OW 2335   4.079   2.001   5.885
  479SOL    HW1 2336   3.997   1.957   5.921
  479SOL    HW2 2337   4.053   2.067   5.814
  480SOL     OW 2338   1.898   0.977   0.088
  480SOL    HW1 2339   1.943   1.000   0.002
  480SOL    HW2 2340   1.806   0.941   0.069
  481SOL     OW 2341   1.949   6.953   0.179
  481SOL    HW1 2342   1.968   6.890   0.254
  481SOL    HW2 2343   1.927   6.900   0.096
  482SOL     OW 2344   4.454   4.900   2.554
  482SOL    HW1 2345   4.368   4.921   2.509
  482SOL    HW2 2346   4.476   4.972   2.620
  483SOL     OW 2347   6.561   1.604   1.936
  483SOL    HW1 2348   6.466   1.578   1.917
  483SOL    HW2 2349   6.617   1.589   1.854
  484SOL     OW 2350   1.944   3.615   4.884
  484SOL    HW1 2351   1.973   3.520   4.872
  484SOL    HW2 2352   1.911   3.652   4.797
  485SOL     OW 2353   3.150   5.381   2.392
  485SOL    HW1 2354   3.108   5.435   2.319
  485SOL    HW2 2355   3.139   5.284   2.371
  486SOL     OW 2356   6.450   1.294   0.140
  486SOL    HW1 2357   6.543   1.303   0.104
  486SOL    HW2 2358   6.453   1.248   0.228
  487SOL     OW 2359   1.052   0.642   1.252
  487SOL    HW1 2360   1.003   0.709   1.197
  487SOL    HW2 2361   0.987   0.598   1.315
  488SOL     OW 2362   1.108   1.496   2.273
  488SOL    HW1 2363   1.177   1.499   2.201
  488SOL    HW2 2364   1.094   1.589   2.309
  489SOL     OW 2365   3.909   5.859   6.037
  489SOL    HW1 2366   3.814   5.871   6.011
  489SOL    HW2 2367   3.914   5.815   6.127
  490SOL     OW 2368   6.240   5.783   2.929
  490SOL    HW1 2369   6.337   5.808   2.927
  490SOL    HW2 2370   6.205   5.792   3.022
  491SOL     OW 2371   0.591   2.849   2.821
  491SOL    HW1 2372   0.581   2.938   2.777
  491SOL    HW2 2373   0.566   2.776   2.756
  492SOL     OW 2374   1.810   0.578   5.221
  492SOL    HW1 2375   1.832   0.612   5.130
  492SOL    HW2 2376   1.894   0.548   5.267
  493SOL     OW 2377   4.819   5.531   5.460
  493SOL    HW1 2378   4.858   5.615   5.423
  493SOL    HW2 2379   4.730   5.550   5.500
  494SOL     OW 2380   0.213   6.523   6.537
  494SOL    HW1 2381   0.299   6.544   6.490
  494SOL    HW2 2382   0.140   6.580   6.499
  495SOL     OW 2383   4.982   6.032   3.318
  495SOL    HW1 2384   4.904   5.983   3.359
  495SOL    HW2 2385   5.032   5.969   3.259
  496SOL     OW 2386   5.311   3.976   1.828
  496SOL    HW1 2387   5.390   3.917   1.847
  496SOL    HW2 2388   5.319   4.014   1.736
  497SOL     OW 2389   2.982   1.277   4.907
  497SOL    HW1 2390   3.033   1.251   4.988
  497SOL    HW2 2391   3.044   1.312   4.837
  498SOL     OW 2392   1.839   3.480   1.406
  498SOL    HW1 2393   1.859   3.517   1.496
  498SOL    HW2 2394   1.912   3.417   1.379
  499SOL     OW 2395   2.091   6.671   4.942
  499SOL    HW1 2396   1.997   6.670   4.975
  499SOL    HW2 2397   2.129   6.579   4.948
  500SOL     OW 2398   0.712   3.211   4.277
  500SOL    HW1 2399   0.806   3.216   4.310
  500SOL    HW2 2400   0.694   3.287   4.215
  501SOL     OW 2401   3.317   5.408   1.169
  501SOL    HW1 2402   3.340   5.460   1.252
  501SOL    HW2 2403   3.234   5.446   1.128
  502SOL     OW 2404   0.485   4.079   0.305
  502SOL    HW1 2405   0.566   4.023   0.324
  502SOL    HW2 2406   0.473   4.087   0.206
  503SOL     OW 2407   6.905   5.328   6.894
  503SOL    HW1 2408   6.825   5.284   6.936
  503SOL    HW2 2409   6.893   5.330   6.795
  504SOL     OW 2410   1.193   5.338   2.500
  504SOL    HW1 2411   1.213   5.313   2.595
  504SOL    HW2 2412   1.129   5.272   2.461
  505SOL     OW 2413   3.086   5.866   5.251
  505SOL    HW1 2414   3.056   5.936   5.187
  505SOL    HW2 2415   3.123   5.788   5.201
  506SOL     OW 2416   2.397   4.705   3.916
  506SOL    HW1 2417   2.333   4.628   3.920
  506SOL    HW2 2418   2.482   4.678   3.961
  507SOL     OW 2419   3.241   6.415   3.257
  507SOL    HW1 2420   3.197   6.492   3.212
  507SOL    HW2 2421   3.171   6.354   3.295
  508SOL     OW 2422   0.398   3.980   2.385
  508SOL    HW1 2423   0.344   3.897   2.373
  508SOL    HW2 2424   0.347   4.044   2.442
  509SOL     OW 2425   3.371   1.265   1.613
  509SOL    HW1 2426   3.420   1.304   1.691
  509SOL    HW2 2427   3.327   1.179   1.640
  510SOL     OW 2428   6.202   4.842   0.489
  510SOL    HW1 2429   6.135   4.899   0.440
  510SOL    HW2 2430   6.294   4.876   0.469
  511SOL     OW 2431   0.477   1.593   5.430
  511SOL    HW1 2432   0.455   1.613   5.335
  511SOL    HW2 2433   0.576   1.581   5.439
  512SOL     OW 2434   6.995   3.011   0.325
  512SOL    HW1 2435   0.049   3.072   0.298
  512SOL    HW2 2436   6.950   3.046   0.407
  513SOL     OW 2437   6.250   6.688   3.688
  513SOL    HW1 2438   6.315   6.657   3.757
  513SOL    HW2 2439   6.268   6.784   3.666
  514SOL     OW 2440   6.553   2.072   4.000
  514SOL    HW1 2441   6.602   2.001   3.951
  514SOL    HW2 2442   6.455   2.063   3.984
  515SOL     OW 2443   1.099   0.869   6.280
  515SOL    HW1 2444   1.006   0.833   6.289
  515SOL    HW2 2445   1.154   0.837   6.357
  516SOL     OW 2446   2.626   4.645   1.868
  516SOL    HW1 2447   2.593   4.577   1.933
  516SOL    HW2 2448   2.726   4.650   1.873
  517SOL     OW 2449   4.437   5.833   1.812
  517SOL    HW1 2450   4.356   5.824   1.754
  517SOL    HW2 2451   4.491   5.912   1.782
  518SOL     OW 2452   2.795   2.281   3.199
  518SOL    HW1 2453   2.886   2.251   3.227
  518SOL    HW2 2454   2.726   2.230   3.251
  519SOL     OW 2455   0.333   0.452   4.637
  519SOL    HW1 2456   0.349   0.353   4.636
  519SOL    HW2 2457   0.409   0.498   4.681
  520SOL     OW 2458   6.819   3.988   0.985
  520SOL    HW1 2459   6.833   4.044   1.066
  520SOL    HW2 2460   6.721   3.973   0.971
  521SOL     OW 2461   6.628   4.411   4.895
  521SOL    HW1 2462   6.719   4.452   4.890
  521SOL    HW2 2463   6.569   4.455   4.828
  522SOL     OW 2464   3.595   3.158   4.509
  522SOL    HW1 2465   3.616   3.147   4.412
  522SOL    HW2 2466   3.527   3.091   4.537
  523SOL     OW 2467   0.173   5.071   1.624
  523SOL    HW1 2468   0.192   5.050   1.720
  523SOL    HW2 2469   0.177   5.170   1.610
  524SOL     OW 2470   0.290   1.341   1.680
  524SOL    HW1 2471   0.312   1.247   1.705
  524SOL    HW2 2472   0.346   1.403   1.736
  525SOL     OW 2473   2.384   3.313   5.620
  525SOL    HW1 2474   2.372   3.325   5.522
  525SOL    HW2 2475   2.454   3.243   5.637
  526SOL     OW 2476   4.146   6.810   4.151
  526SOL    HW1 2477   4.175   6.745   4.081
  526SOL    HW2 2478   4.226   6.844   4.200
  527SOL     OW 2479   6.355   2.564   0.142
  527SOL    HW1 2480   6.410   2.481   0.139
  527SOL    HW2 2481   6.260   2.541   0.162
  528SOL     OW 2482   0.828   1.833   3.502
  528SOL    HW1 2483   0.826   1.738   3.532
  528SOL    HW2 2484   0.764   1.845   3.426
  529SOL     OW 2485   1.800   6.986   3.751
  529SOL    HW1 2486   1.811   0.064   3.764
  529SOL    HW2 2487   1.785   6.942   3.839
  530SOL     OW 2488   3.433   3.378   4.552
  530SOL    HW1 2489   3.476   3.287   4.547
  530SOL    HW2 2490   3.347   3.371   4.602
  531SOL     OW 2491   0.549   1.398   3.335
  531SOL    HW1 2492   0.581   1.337   3.263
  531SOL    HW2 2493   0.491   1.347   3.399
  532SOL     OW 2494   0.971   2.691   6.747
  532SOL    HW1 2495   0.927   2.657   6.664
  532SOL    HW2 2496   1.070   2.684   6.737
  533SOL     OW 2497   4.504   6.795   3.891
  533SOL    HW1 2498   4.587   6.797   3.948
  533SOL    HW2 2499   4.431   6.748   3.940
  534SOL     OW 2500   5.019   6.506   2.609
  534SOL    HW1 2501   4.955   6.455   2.552
  534SOL    HW2 2502   5.086   6.552   2.551
  535SOL     OW 2503   0.990   3.573   4.263
  535SOL    HW1 2504   0.891   3.571   4.256
  535SOL    HW2 2505   1.027   3.646   4.205
  536SOL     OW 2506   6.947   5.052   1.448
  536SOL    HW1 2507   6.992   5.092   1.528
  536SOL    HW2 2508   7.016   5.032   1.378
  537SOL     OW 2509   2.969   6.598   4.418
  537SOL    HW1 2510   2.905   6.521   4.426
  537SOL    HW2 2511   3.015   6.613   4.505
  538SOL     OW 2512   1.313   4.439   3.108
  538SOL    HW1 2513   1.384   4.490   3.156
  538SOL    HW2 2514   1.246   4.405   3.174
  539SOL     OW 2515   1.416   5.958   0.878
  539SOL    HW1 2516   1.335   5.910   0.844
  539SOL    HW2 2517   1.445   6.027   0.812
  540SOL     OW 2518   0.929   0.165   3.108
  540SOL    HW1 2519   0.940   0.084   3.165
  540SOL    HW2 2520   0.896   0.241   3.164
  541SOL     OW 2521   4.581   5.891   3.998
  541SOL    HW1 2522   4.511   5.940   4.049
  541SOL    HW2 2523   4.537   5.828   3.933
  542SOL     OW 2524   6.711   0.173   6.379
  542SOL    HW1 2525   6.646   0.180   6.455
  542SOL    HW2 2526   6.799   0.210   6.407
  543SOL     OW 2527   1.272   3.743   5.707
  543SOL    HW1 2528   1.264   3.842   5.696
  543SOL    HW2 2529   1.329   3.723   5.787
  544SOL     OW 2530   2.978   3.823   0.492
  544SOL    HW1 2531   2.986   3.726   0.517
  544SOL    HW2 2532   2.977   3.879   0.574
  545SOL     OW 2533   2.735   1.065   2.601
  545SOL    HW1 2534   2.712   1.106   2.690
  545SOL    HW2 2535   2.700   1.123   2.528
  546SOL     OW 2536   1.958   2.706   0.692
  546SOL    HW1 2537   1.908   2.659   0.620
  546SOL    HW2 2538   1.964   2.648   0.773
  547SOL     OW 2539   3.281   1.128   0.088
  547SOL    HW1 2540   3.307   1.066   0.013
  547SOL    HW2 2541   3.354   1.130   0.156
  548SOL     OW 2542   3.724   2.985   2.530
  548SOL    HW1 2543   3.752   2.986   2.626
  548SOL    HW2 2544   3.795   2.941   2.475
  549SOL     OW 2545   4.607   3.242   0.685
  549SOL    HW1 2546   4.535   3.235   0.616
  549SOL    HW2 2547   4.684   3.294   0.648
  550SOL     OW 2548   6.826   5.077   3.607
  550SOL    HW1 2549   6.903   5.037   3.557
  550SOL    HW2 2550   6.789   5.154   3.554
  551SOL     OW 2551   0.958   0.491   2.262
  551SOL    HW1 2552   0.909   0.563   2.212
  551SOL    HW2 2553   0.993   0.423   2.197
  552SOL     OW 2554   4.830   4.039   0.048
  552SOL    HW1 2555   4.739   4.046   0.090
  552SOL    HW2 2556   4.854   3.943   0.035
  553SOL     OW 2557   1.654   6.140   1.920
  553SOL    HW1 2558   1.725   6.208   1.938
  553SOL    HW2 2559   1.575   6.158   1.979
  554SOL     OW 2560   5.624   6.908   5.714
  554SOL    HW1 2561   5.618   6.958   5.800
  554SOL    HW2 2562   5.685   6.957   5.652
  555SOL     OW 2563   1.513   5.040   3.260
  555SOL    HW1 2564   1.552   5.025   3.351
  555SOL    HW2 2565   1.426   5.087   3.268
  556SOL     OW 2566   5.403   2.236   3.910
  556SOL    HW1 2567   5.372   2.234   3.815
  556SOL    HW2 2568   5.462   2.316   3.924
  557SOL     OW 2569   0.835   4.489   0.451
  557SOL    HW1 2570   0.850   4.424   0.377
  557SOL    HW2 2571   0.921   4.508   0.498
  558SOL     OW 2572   2.982   3.410   4.494
  558SOL    HW1 2573   2.964   3.333   4.555
  558SOL    HW2 2574   3.072   3.448   4.514
  559SOL     OW 2575   6.529   5.540   7.000
  559SOL    HW1 2576   6.616   5.550   6.952
  559SOL    HW2 2577   6.539   5.574   0.073
  560SOL     OW 2578   4.576   4.266   6.953
  560SOL    HW1 2579   4.571   4.227   0.024
  560SOL    HW2 2580   4.565   4.365   6.958
  561SOL     OW 2581   6.398   1.682   0.232
  561SOL    HW1 2582   6.416   1.633   0.317
  561SOL    HW2 2583   6.461   1.650   0.161
  562SOL     OW 2584   5.532   0.924   6.037
  562SOL    HW1 2585   5.509   0.863   6.113
  562SOL    HW2 2586   5.528   0.873   5.951
  563SOL     OW 2587   2.010   0.477   3.238
  563SOL    HW1 2588   2.092   0.433   3.201
  563SOL    HW2 2589   2.023   0.496   3.335
  564SOL     OW 2590   2.604   2.474   6.790
  564SOL    HW1 2591   2.557   2.402   6.740
  564SOL    HW2 2592   2.539   2.543   6.819
  565SOL     OW 2593   3.492   2.498   5.858
  565SOL    HW1 2594   3.440   2.571   5.815
  565SOL    HW2 2595   3.440   2.459   5.934
  566SOL     OW 2596   6.366   5.162   4.542
  566SOL    HW1 2597   6.337   5.248   4.583
  566SOL    HW2 2598   6.407   5.103   4.612
  567SOL     OW 2599   3.853   3.815   2.390
  567SOL    HW1 2600   3.851   3.795   2.292
  567SOL    HW2 2601   3.812   3.905   2.407
  568SOL     OW 2602   4.183   1.855   0.143
  568SOL    HW1 2603   4.129   1.779   0.108
  568SOL    HW2 2604   4.186   1.850   0.243
  569SOL     OW 2605   1.265   4.010   6.315
  569SOL    HW1 2606   1.334   3.939   6.302
  569SOL    HW2 2607   1.177   3.967   6.336
  570SOL     OW 2608   2.964   6.191   6.917
  570SOL    HW1 2609   2.938   6.154   6.828
  570SOL    HW2 2610   2.928   6.284   6.926
  571SOL     OW 2611   3.180   0.645   2.366
  571SOL    HW1 2612   3.189   0.712   2.440
  571SOL    HW2 2613   3.188   0.553   2.403
  572SOL     OW 2614   2.644   4.683   5.665
  572SOL    HW1 2615   2.684   4.676   5.756
  572SOL    HW2 2616   2.717   4.688   5.596
  573SOL     OW 2617   5.446   1.176   6.017
  573SOL    HW1 2618   5.373   1.157   5.951
  573SOL    HW2 2619   5.497   1.092   6.036
  574SOL     OW 2620   3.672   1.997   4.291
  574SOL    HW1 2621   3.656   1.993   4.192
  574SOL    HW2 2622   3.687   1.904   4.326
  575SOL     OW 2623   5.975   3.584   0.269
  575SOL    HW1 2624   5.929   3.619   0.187
  575SOL    HW2 2625   5.907   3.563   0.339
  576SOL     OW 2626   1.008   2.321   2.770
  576SOL    HW1 2627   1.006   2.396   2.704
  576SOL    HW2 2628   1.061   2.348   2.851
  577SOL     OW 2629   2.088   1.519   2.619
  577SOL    HW1 2630   2.179   1.496   2.585
  577SOL    HW2 2631   2.028   1.440   2.608
  578SOL     OW 2632   6.074   4.971   3.350
  578SOL    HW1 2633   6.054   4.930   3.262
  578SOL    HW2 2634   6.147   5.038   3.340
  579SOL     OW 2635   1.447   3.139   2.115
  579SOL    HW1 2636   1.395   3.118   2.032
  579SOL    HW2 2637   1.516   3.069   2.130
  580SOL     OW 2638   6.444   4.839   6.762
  580SOL    HW1 2639   6.444   4.805   6.857
  580SOL    HW2 2640   6.406   4.768   6.702
  581SOL     OW 2641   3.042   3.163   2.575
  581SOL    HW1 2642   3.085   3.227   2.512
  581SOL    HW2 2643   2.974   3.211   2.630
  582SOL     OW 2644   5.547   5.588   2.541
  582SOL    HW1 2645   5.614   5.570   2.613
  582SOL    HW2 2646   5.588   5.646   2.471
  583SOL     OW 2647   2.757   5.254   5.729
  583SOL    HW1 2648   2.672   5.306   5.732
  583SOL    HW2 2649   2.736   5.156   5.733
  584SOL     OW 2650   1.863   3.716   6.541
  584SOL    HW1 2651   1.773   3.678   6.565
  584SOL    HW2 2652   1.935   3.658   6.580
  585SOL     OW 2653   5.633   2.991   6.388
  585SOL    HW1 2654   5.555   2.996   6.451
  585SOL    HW2 2655   5.717   3.003   6.440
  586SOL     OW 2656   3.758   1.603   6.652
  586SOL    HW1 2657   3.852   1.579   6.677
  586SOL    HW2 2658   3.705   1.519   6.642
  587SOL     OW 2659   2.755   1.628   5.192
  587SOL    HW1 2660   2.797   1.584   5.113
  587SOL    HW2 2661   2.815   1.700   5.226
  588SOL     OW 2662   2.324   4.599   0.924
  588SOL    HW1 2663   2.380   4.556   0.995
  588SOL    HW2 2664   2.230   4.611   0.958
  589SOL     OW 2665   3.196   5.143   1.442
  589SOL    HW1 2666   3.114   5.192   1.414
  589SOL    HW2 2667   3.266   5.151   1.371
  590SOL     OW 2668   5.300   2.765   2.229
  590SOL    HW1 2669   5.371   2.803   2.289
  590SOL    HW2 2670   5.228   2.834   2.216
  591SOL     OW 2671   3.957   6.114   3.818
  591SOL    HW1 2672   4.015   6.133   3.897
  591SOL    HW2 2673   3.950   6.196   3.761
  592SOL     OW 2674   3.408   0.386   1.548
  592SOL    HW1 2675   3.444   0.293   1.557
  592SOL    HW2 2676   3.387   0.422   1.639
  593SOL     OW 2677   4.619   2.291   3.371
  593SOL    HW1 2678   4.676   2.210   3.385
  593SOL    HW2 2679   4.655   2.367   3.424
  594SOL     OW 2680   5.101   2.085   6.077
  594SOL    HW1 2681   5.117   1.987   6.094
  594SOL    HW2 2682   5.171   2.138   6.125
  595SOL     OW 2683   5.911   0.274   3.756
  595SOL    HW1 2684   5.870   0.330   3.684
  595SOL    HW2 2685   5.883   0.309   3.846
  596SOL     OW 2686   1.452   4.356   2.509
  596SOL    HW1 2687   1.375   4.294   2.521
  596SOL    HW2 2688   1.428   4.446   2.547
  597SOL     OW 2689   3.670   6.893   6.609
  597SOL    HW1 2690   3.649   6.936   6.522
  597SOL    HW2 2691   3.672   6.793   6.598
  598SOL     OW 2692   3.159   4.052   6.692
  598SOL    HW1 2693   3.107   3.983   6.742
  598SOL    HW2 2694   3.157   4.139   6.743
  599SOL     OW 2695   1.865   6.446   2.554
  599SOL    HW1 2696   1.803   6.460   2.632
  599SOL    HW2 2697   1.913   6.359   2.564
  600SOL     OW 2698   0.569   0.528   1.112
  600SOL    HW1 2699   0.509   0.465   1.064
  600SOL    HW2 2700   0.573   0.502   1.209
  601SOL     OW 2701   2.937   6.246   3.609
  601SOL    HW1 2702   2.949   6.191   3.691
  601SOL    HW2 2703   3.002   6.216   3.539
  602SOL     OW 2704   2.058   3.037   6.614
  602SOL    HW1 2705   1.988   2.989   6.560
  602SOL    HW2 2706   2.127   2.971   6.644
  603SOL     OW 2707   4.204   1.488   3.253
  603SOL    HW1 2708   4.137   1.554   3.288
  603SOL    HW2 2709   4.186   1.471   3.156
  604SOL     OW 2710   0.899   3.784   1.606
  604SOL    HW1 2711   0.889   3.825   1.516
  604SOL    HW2 2712   0.809   3.780   1.651
  605SOL     OW 2713   6.371   6.003   2.207
  605SOL    HW1 2714   6.303   5.948   2.255
  605SOL    HW2 2715   6.422   6.059   2.272
  606SOL     OW 2716   4.712   0.673   6.356
  606SOL    HW1 2717   4.668   0.763   6.354
  606SOL    HW2 2718   4.787   0.671   6.289
  607SOL     OW 2719   5.301   0.836   5.649
  607SOL    HW1 2720   5.398   0.834   5.674
  607SOL    HW2 2721   5.262   0.745   5.665
  608SOL     OW 2722   3.817   6.108   6.926
  608SOL    HW1 2723   3.862   6.111   6.837
  608SOL    HW2 2724   3.719   6.094   6.914
  609SOL     OW 2725   4.022   3.209   3.750
  609SOL    HW1 2726   4.048   3.258   3.834
  609SOL    HW2 2727   4.000   3.114   3.773
  610SOL     OW 2728   4.996   2.314   2.529
  610SOL    HW1 2729   4.979   2.412   2.522
  610SOL    HW2 2730   4.941   2.265   2.461
  611SOL     OW 2731   2.248   0.418   6.894
  611SOL    HW1 2732   2.276   0.329   6.857
  611SOL    HW2 2733   2.255   0.487   6.822
  612SOL     OW 2734   3.871   6.552   6.296
  612SOL    HW1 2735   3.949   6.613   6.280
  612SOL    HW2 2736   3.803   6.600   6.352
  613SOL     OW 2737   4.189   6.780   5.916
  613SOL    HW1 2738   4.286   6.757   5.906
  613SOL    HW2 2739   4.138   6.743   5.838
  614SOL     OW 2740   5.832   3.986   1.119
  614SOL    HW1 2741   5.821   3.988   1.020
  614SOL    HW2 2742   5.759   3.931   1.160
  615SOL     OW 2743   0.461   1.843   1.141
  615SOL    HW1 2744   0.397   1.821   1.067
  615SOL    HW2 2745   0.507   1.760   1.172
  616SOL     OW 2746   0.039   2.245   3.492
  616SOL    HW1 2747   0.133   2.274   3.512
  616SOL    HW2 2748   7.007   2.246   3.577
  617SOL     OW 2749   0.014   3.956   6.944
  617SOL    HW1 2750   0.104   3.997   6.957
  617SOL    HW2 2751   0.024   3.864   6.907
  618SOL     OW 2752   0.177   3.429   6.898
  618SOL    HW1 2753   0.253   3.414   6.962
  618SOL    HW2 2754   0.147   3.342   6.861
  619SOL     OW 2755   5.168   0.188   6.419
  619SOL    HW1 2756   5.175   0.105   6.474
  619SOL    HW2 2757   5.099   0.175   6.349
  620SOL     OW 2758   5.108   2.162   1.571
  620SOL    HW1 2759   5.123   2.234   1.638
  620SOL    HW2 2760   5.192   2.146   1.520
  621SOL     OW 2761   2.521   6.808   5.724
  621SOL    HW1 2762   2.442   6.763   5.766
  621SOL    HW2 2763   2.523   6.904   5.751
  622SOL     OW 2764   0.794   1.772   4.883
  622SOL    HW1 2765   0.836   1.745   4.969
  622SOL    HW2 2766   0.718   1.711   4.862
  623SOL     OW 2767   1.085   6.266   5.839
  623SOL    HW1 2768   1.120   6.176   5.812
  623SOL    HW2 2769   1.069   6.268   5.937
  624SOL     OW 2770   6.923   0.918   0.225
  624SOL    HW1 2771   6.996   0.960   0.171
  624SOL    HW2 2772   6.891   0.982   0.294
  625SOL     OW 2773   1.948   2.319   0.997
  625SOL    HW1 2774   1.943   2.313   1.097
  625SOL    HW2 2775   1.856   2.315   0.958
  626SOL     OW 2776   0.293   5.867   3.163
  626SOL    HW1 2777   0.303   5.933   3.089
  626SOL    HW2 2778   0.260   5.913   3.245
  627SOL     OW 2779   6.242   6.325   0.881
  627SOL    HW1 2780   6.307   6.251   0.898
  627SOL    HW2 2781   6.149   6.288   0.878
  628SOL     OW 2782   5.191   5.308   5.549
  628SOL    HW1 2783   5.223   5.251   5.625
  628SOL    HW2 2784   5.245   5.289   5.467
  629SOL     OW 2785   0.632   0.423   6.248
  629SOL    HW1 2786   0.576   0.487   6.196
  629SOL    HW2 2787   0.624   0.332   6.208
  630SOL     OW 2788   0.332   1.782   0.704
  630SOL    HW1 2789   0.344   1.732   0.618
  630SOL    HW2 2790   0.325   1.717   0.780
  631SOL     OW 2791   4.190   1.072   5.212
  631SOL    HW1 2792   4.245   1.061   5.129
  631SOL    HW2 2793   4.099   1.033   5.197
  632SOL     OW 2794   4.931   1.997   1.298
  632SOL    HW1 2795   4.877   2.078   1.273
  632SOL    HW2 2796   4.933   1.988   1.398
  633SOL     OW 2797   2.983   3.927   6.838
  633SOL    HW1 2798   2.921   3.968   6.771
  633SOL    HW2 2799   2.973   3.827   6.836
  634SOL     OW 2800   3.039   3.982   3.014
  634SOL    HW1 2801   3.131   4.015   3.034
  634SOL    HW2 2802   2.980   3.996   3.094
  635SOL     OW 2803   4.647   5.899   0.818
  635SOL    HW1 2804   4.558   5.865   0.847
  635SOL    HW2 2805   4.647   5.999   0.818
  636SOL     OW 2806   2.832   6.733   6.247
  636SOL    HW1 2807   2.915   6.748   6.302
  636SOL    HW2 2808   2.774   6.666   6.293
  637SOL     OW 2809   0.261   2.839   3.092
  637SOL    HW1 2810   0.221   2.838   3.001
  637SOL    HW2 2811   0.305   2.928   3.108
  638SOL     OW 2812   5.887   3.425   4.066
  638SOL    HW1 2813   5.823   3.350   4.082
  638SOL    HW2 2814   5.850   3.510   4.103
  639SOL     OW 2815   4.922   3.470   2.837
  639SOL    HW1 2816   4.875   3.464   2.749
  639SOL    HW2 2817   4.914   3.383   2.885
  640SOL     OW 2818   0.245   5.252   3.957
  640SOL    HW1 2819   0.321   5.312   3.982
  640SOL    HW2 2820   0.162   5.281   4.006
  641SOL     OW 2821   0.407   4.884   4.776
  641SOL    HW1 2822   0.364   4.819   4.839
  641SOL    HW2 2823   0.449   4.959   4.828
  642SOL     OW 2824   0.385   2.917   3.917
  642SOL    HW1 2825   0.404   2.845   3.983
  642SOL    HW2 2826   0.460   2.922   3.851
  643SOL     OW 2827   6.149   0.121   6.237
  643SOL    HW1 2828   6.199   0.187   6.181
  643SOL    HW2 2829   6.169   0.137   6.334
  644SOL     OW 2830   1.513   6.985   4.429
  644SOL    HW1 2831   1.465   0.015   4.500
  644SOL    HW2 2832   1.455   6.911   4.395
  645SOL     OW 2833   4.226   6.797   4.823
  645SOL    HW1 2834   4.126   6.787   4.815
  645SOL    HW2 2835   4.249   6.827   4.915
  646SOL     OW 2836   3.706   1.226   4.786
  646SOL    HW1 2837   3.737   1.258   4.696
  646SOL    HW2 2838   3.678   1.304   4.841
  647SOL     OW 2839   4.987   2.473   5.020
  647SOL    HW1 2840   4.989   2.526   4.935
  647SOL    HW2 2841   5.026   2.382   5.003
  648SOL     OW 2842   0.536   4.130   4.131
  648SOL    HW1 2843   0.469   4.164   4.198
  648SOL    HW2 2844   0.498   4.139   4.039
  649SOL     OW 2845   2.438   3.722   1.053
  649SOL    HW1 2846   2.514   3.681   1.104
  649SOL    HW2 2847   2.447   3.821   1.052
  650SOL     OW 2848   6.784   4.126   1.219
  650SOL    HW1 2849   6.730   4.102   1.300
  650SOL    HW2 2850   6.730   4.186   1.160
  651SOL     OW 2851   1.525   0.164   5.896
  651SOL    HW1 2852   1.481   0.096   5.837
  651SOL    HW2 2853   1.490   0.156   5.989
  652SOL     OW 2854   4.686   0.039   3.068
  652SOL    HW1 2855   4.690   6.970   3.026
  652SOL    HW2 2856   4.675   0.029   3.167
  653SOL     OW 2857   1.396   5.738   6.989
  653SOL    HW1 2858   1.451   5.734   0.051
  653SOL    HW2 2859   1.362   5.647   6.966
  654SOL     OW 2860   1.054   6.234   6.930
  654SOL    HW1 2861   1.133   6.188   6.891
  654SOL    HW2 2862   0.986   6.249   6.858
  655SOL     OW 2863   0.085   5.670   1.365
  655SOL    HW1 2864   7.019   5.621   1.358
  655SOL    HW2 2865   0.160   5.609   1.338
  656SOL     OW 2866   2.848   5.981   0.535
  656SOL    HW1 2867   2.772   6.013   0.592
  656SOL    HW2 2868   2.869   6.051   0.466
  657SOL     OW 2869   3.664   3.672   1.303
  657SOL    HW1 2870   3.585   3.616   1.327
  657SOL    HW2 2871   3.722   3.622   1.240
  658SOL     OW 2872   1.412   3.369   6.026
  658SOL    HW1 2873   1.425   3.281   5.980
  658SOL    HW2 2874   1.485   3.432   6.000
  659SOL     OW 2875   2.764   5.982   4.368
  659SOL    HW1 2876   2.778   5.954   4.274
  659SOL    HW2 2877   2.820   6.062   4.388
  660SOL     OW 2878   5.447   3.694   2.488
  660SOL    HW1 2879   5.439   3.782   2.535
  660SOL    HW2 2880   5.543   3.678   2.462
  661SOL     OW 2881   4.943   3.891   4.092
  661SOL    HW1 2882   4.911   3.888   3.997
  661SOL    HW2 2883   4.953   3.798   4.127
  662SOL     OW 2884   4.210   0.312   5.570
  662SOL    HW1 2885   4.301   0.310   5.612
  662SOL    HW2 2886   4.141   0.288   5.639
  663SOL     OW 2887   1.197   4.012   0.393
  663SOL    HW1 2888   1.289   4.049   0.399
  663SOL    HW2 2889   1.193   3.922   0.437
  664SOL     OW 2890   1.256   5.585   5.933
  664SOL    HW1 2891   1.346   5.546   5.951
  664SOL    HW2 2892   1.261   5.647   5.855
  665SOL     OW 2893   4.615   5.305   1.227
  665SOL    HW1 2894   4.714   5.289   1.233
  665SOL    HW2 2895   4.591   5.387   1.277
  666SOL     OW 2896   4.263   2.194   1.966
  666SOL    HW1 2897   4.297   2.262   2.031
  666SOL    HW2 2898   4.164   2.201   1.959
  667SOL     OW 2899   6.632   3.870   3.705
  667SOL    HW1 2900   6.656   3.895   3.799
  667SOL    HW2 2901   6.557   3.929   3.673
  668SOL     OW 2902   5.077   5.804   6.882
  668SOL    HW1 2903   4.993   5.845   6.918
  668SOL    HW2 2904   5.065   5.781   6.786
  669SOL     OW 2905   3.079   5.851   2.876
  669SOL    HW1 2906   3.007   5.873   2.811
  669SOL    HW2 2907   3.051   5.881   2.967
  670SOL     OW 2908   2.775   3.051   1.788
  670SOL    HW1 2909   2.710   2.978   1.768
  670SOL    HW2 2910   2.727   3.139   1.791
  671SOL     OW 2911   2.393   5.875   6.453
  671SOL    HW1 2912   2.302   5.884   6.412
  671SOL    HW2 2913   2.427   5.966   6.478
  672SOL     OW 2914   0.977   4.914   1.830
  672SOL    HW1 2915   1.064   4.887   1.872
  672SOL    HW2 2916   0.902   4.889   1.890
  673SOL     OW 2917   6.231   0.421   1.368
  673SOL    HW1 2918   6.199   0.401   1.461
  673SOL    HW2 2919   6.194   0.352   1.305
  674SOL     OW 2920   6.489   3.664   4.765
  674SOL    HW1 2921   6.586   3.656   4.790
  674SOL    HW2 2922   6.455   3.575   4.735
  675SOL     OW 2923   6.898   1.423   4.968
  675SOL    HW1 2924   6.946   1.471   4.894
  675SOL    HW2 2925   6.965   1.386   5.032
  676SOL     OW 2926   3.576   5.226   2.569
  676SOL    HW1 2927   3.548   5.200   2.661
  676SOL    HW2 2928   3.674   5.245   2.568
  677SOL     OW 2929   6.225   1.614   6.600
  677SOL    HW1 2930   6.232   1.595   6.502
  677SOL    HW2 2931   6.269   1.541   6.652
  678SOL     OW 2932   0.838   1.704   5.195
  678SOL    HW1 2933   0.925   1.754   5.203
  678SOL    HW2 2934   0.762   1.765   5.217
  679SOL     OW 2935   4.692   0.940   4.125
  679SOL    HW1 2936   4.642   0.918   4.042
  679SOL    HW2 2937   4.632   0.929   4.204
  680SOL     OW 2938   5.130   5.720   6.036
  680SOL    HW1 2939   5.033   5.697   6.046
  680SOL    HW2 2940   5.165   5.682   5.950
  681SOL     OW 2941   5.645   6.585   1.340
  681SOL    HW1 2942   5.560   6.558   1.295
  681SOL    HW2 2943   5.634   6.675   1.381
  682SOL     OW 2944   1.309   6.957   6.875
  682SOL    HW1 2945   1.320   6.993   6.967
  682SOL    HW2 2946   1.398   6.948   6.832
  683SOL     OW 2947   3.678   1.591   7.016
  683SOL    HW1 2948   3.589   1.631   6.997
  683SOL    HW2 2949   3.736   1.659   0.040
  684SOL     OW 2950   5.944   1.419   6.828
  684SOL    HW1 2951   5.867   1.415   6.765
  684SOL    HW2 2952   6.025   1.378   6.786
  685SOL     OW 2953   4.854   0.446   4.970
  685SOL    HW1 2954   4.794   0.517   5.008
  685SOL    HW2 2955   4.928   0.488   4.919
  686SOL     OW 2956   5.883   3.070   3.359
  686SOL    HW1 2957   5.833   3.046   3.442
  686SOL    HW2 2958   5.824   3.121   3.298
  687SOL     OW 2959   6.794   2.432   4.558
  687SOL    HW1 2960   6.740   2.402   4.637
  687SOL    HW2 2961   6.747   2.507   4.513
  688SOL     OW 2962   1.901   3.100   0.213
  688SOL    HW1 2963   1.893   3.172   0.145
  688SOL    HW2 2964   1.832   3.030   0.196
  689SOL     OW 2965   0.483   4.240   5.507
  689SOL    HW1 2966   0.580   4.264   5.512
  689SOL    HW2 2967   0.437   4.268   5.591
  690SOL     OW 2968   0.683   3.951   3.557
  690SOL    HW1 2969   0.715   3.911   3.472
  690SOL    HW2 2970   0.613   3.893   3.598
  691SOL     OW 2971   2.558   1.526   6.496
  691SOL    HW1 2972   2.470   1.570   6.480
  691SOL    HW2 2973   2.547   1.454   6.565
  692SOL     OW 2974   3.857   6.463   3.113
  692SOL    HW1 2975   3.759   6.478   3.122
  692SOL    HW2 2976   3.900   6.476   3.202
  693SOL     OW 2977   6.441   1.706   2.894
  693SOL    HW1 2978   6.426   1.752   2.982
  693SOL    HW2 2979   6.414   1.768   2.820
  694SOL     OW 2980   3.487   6.749   2.661
  694SOL    HW1 2981   3.463   6.677   2.727
  694SOL    HW2 2982   3.578   6.730   2.622
  695SOL     OW 2983   4.423   4.814   5.978
  695SOL    HW1 2984   4.451   4.902   6.015
  695SOL    HW2 2985   4.475   4.795   5.895
  696SOL     OW 2986   2.810   5.371   2.174
  696SOL    HW1 2987   2.734   5.435   2.173
  696SOL    HW2 2988   2.894   5.419   2.150
  697SOL     OW 2989   1.450   2.901   4.683
  697SOL    HW1 2990   1.441   2.988   4.733
  697SOL    HW2 2991   1.480   2.919   4.589
  698SOL     OW 2992   5.414   0.004   6.771
  698SOL    HW1 2993   5.462   7.017   6.684
  698SOL    HW2 2994   5.458   6.966   6.839
  699SOL     OW 2995   0.998   3.981   0.241
  699SOL    HW1 2996   1.011   3.892   0.198
  699SOL    HW2 2997   1.068   3.995   0.310
  700SOL     OW 2998   2.886   1.358   4.079
  700SOL    HW1 2999   2.856   1.294   4.150
  700SOL    HW2 3000   2.878   1.314   3.989
  701SOL     OW 3001   0.176   4.354   5.573
  701SOL    HW1 3002   0.136   4.295   5.503
  701SOL    HW2 3003   0.208   4.297   5.650
  702SOL     OW 3004   6.180   5.828   6.225
  702SOL    HW1 3005   6.229   5.880   6.294
  702SOL    HW2 3006   6.238   5.815   6.145
  703SOL     OW 3007   4.036   3.672   6.572
  703SOL    HW1 3008   4.038   3.611   6.652
  703SOL    HW2 3009   3.997   3.623   6.494
  704SOL     OW 3010   1.803   1.681   6.500
  704SOL    HW1 3011   1.833   1.619   6.428
  704SOL    HW2 3012   1.866   1.676   6.577
  705SOL     OW 3013   5.524   7.013   3.398
  705SOL    HW1 3014   5.533   6.919   3.365
  705SOL    HW2 3015   5.545   7.016   3.496
  706SOL     OW 3016   4.294   2.342   3.784
  706SOL    HW1 3017   4.225   2.326   3.855
  706SOL    HW2 3018   4.347   2.258   3.769
  707SOL     OW 3019   4.609   6.987   2.555
  707SOL    HW1 3020   4.669   7.005   2.476
  707SOL    HW2 3021   4.544   6.914   2.531
  708SOL     OW 3022   3.927   0.584   1.672
  708SOL    HW1 3023   3.876   0.610   1.590
  708SOL    HW2 3024   3.928   0.485   1.682
  709SOL     OW 3025   1.532   5.224   0.207
  709SOL    HW1 3026   1.523   5.194   0.112
  709SOL    HW2 3027   1.448   5.202   0.257
  710SOL     OW 3028   3.575   3.325   2.070
  710SOL    HW1 3029   3.549   3.386   2.145
  710SOL    HW2 3030   3.667   3.290   2.086
  711SOL     OW 3031   0.210   1.768   5.710
  711SOL    HW1 3032   0.198   1.835   5.783
  711SOL    HW2 3033   0.291   1.713   5.729
  712SOL     OW 3034   3.190   3.673   0.830
  712SOL    HW1 3035   3.111   3.614   0.839
  712SOL    HW2 3036   3.273   3.623   0.856
  713SOL     OW 3037   3.581   2.973   0.046
  713SOL    HW1 3038   3.532   2.923   0.118
  713SOL    HW2 3039   3.590   2.914   6.986
  714SOL     OW 3040   6.705   4.797   4.919
  714SOL    HW1 3041   6.639   4.839   4.981
  714SOL    HW2 3042   6.756   4.868   4.871
  715SOL     OW 3043   5.232   6.529   0.669
  715SOL    HW1 3044   5.259   6.433   0.675
  715SOL    HW2 3045   5.281   6.573   0.593
  716SOL     OW 3046   1.183   6.165   0.917
  716SOL    HW1 3047   1.091   6.189   0.945
  716SOL    HW2 3048   1.201   6.069   0.941
  717SOL     OW 3049   5.916   5.095   6.674
  717SOL    HW1 3050   5.962   5.133   6.754
  717SOL    HW2 3051   5.972   5.111   6.592
  718SOL     OW 3052   4.589   2.323   5.661
  718SOL    HW1 3053   4.561   2.247   5.720
  718SOL    HW2 3054   4.518   2.392   5.659
  719SOL     OW 3055   6.568   2.422   0.885
  719SOL    HW1 3056   6.654   2.377   0.910
  719SOL    HW2 3057   6.581   2.521   0.885
  720SOL     OW 3058   3.536   1.058   6.423
  720SOL    HW1 3059   3.491   1.012   6.346
  720SOL    HW2 3060   3.486   1.039   6.507
  721SOL     OW 3061   2.044   0.409   4.205
  721SOL    HW1 3062   2.048   0.331   4.268
  721SOL    HW2 3063   2.137   0.443   4.189
  722SOL     OW 3064   2.256   6.926   5.021
  722SOL    HW1 3065   2.192   6.992   4.982
  722SOL    HW2 3066   2.221   6.833   5.008
  723SOL     OW 3067   1.725   3.746   3.149
  723SOL    HW1 3068   1.760   3.659   3.185
  723SOL    HW2 3069   1.634   3.732   3.110
  724SOL     OW 3070   1.476   2.529   4.704
  724SOL    HW1 3071   1.388   2.481   4.709
  724SOL    HW2 3072   1.485   2.591   4.783
  725SOL     OW 3073   3.512   5.488   0.574
  725SOL    HW1 3074   3.448   5.460   0.503
  725SOL    HW2 3075   3.603   5.503   0.535
  726SOL     OW 3076   4.022   4.895   0.752
  726SOL    HW1 3077   3.933   4.858   0.723
  726SOL    HW2 3078   4.085   4.894   0.675
  727SOL     OW 3079   5.035   5.328   6.166
  727SOL    HW1 3080   5.041   5.326   6.265
  727SOL    HW2 3081   4.994   5.414   6.136
  728SOL     OW 3082   6.768   3.053   4.459
  728SOL    HW1 3083   6.759   3.038   4.557
  728SOL    HW2 3084   6.677   3.064   4.418
  729SOL     OW 3085   1.952   1.873   0.218
  729SOL    HW1 3086   1.877   1.879   0.284
  729SOL    HW2 3087   1.945   1.787   0.168
  730SOL     OW 3088   5.072   0.926   2.957
  730SOL    HW1 3089   5.035   0.937   2.865
  730SOL    HW2 3090   5.117   0.837   2.966
  731SOL     OW 3091   5.923   4.403   5.856
  731SOL    HW1 3092   5.865   4.474   5.897
  731SOL    HW2 3093   5.998   4.383   5.918
  732SOL     OW 3094   0.776   3.014   1.123
  732SOL    HW1 3095   0.762   2.922   1.087
  732SOL    HW2 3096   0.775   3.011   1.223
  733SOL     OW 3097   5.358   5.291   5.301
  733SOL    HW1 3098   5.399   5.247   5.221
  733SOL    HW2 3099   5.431   5.324   5.362
  734SOL     OW 3100   6.467   4.431   2.717
  734SOL    HW1 3101   6.547   4.433   2.656
  734SOL    HW2 3102   6.395   4.489   2.679
  735SOL     OW 3103   4.338   2.894   0.399
  735SOL    HW1 3104   4.384   2.931   0.319
  735SOL    HW2 3105   4.262   2.835   0.370
  736SOL     OW 3106   0.250   0.144   2.838
  736SOL    HW1 3107   0.340   0.171   2.873
  736SOL    HW2 3108   0.219   0.211   2.770
  737SOL     OW 3109   4.678   2.327   6.192
  737SOL    HW1 3110   4.766   2.296   6.227
  737SOL    HW2 3111   4.673   2.426   6.194
  738SOL     OW 3112   2.222   4.048   2.536
  738SOL    HW1 3113   2.279   4.094   2.605
  738SOL    HW2 3114   2.205   4.111   2.460
  739SOL     OW 3115   3.749   0.334   4.749
  739SOL    HW1 3116   3.678   0.265   4.740
  739SOL    HW2 3117   3.815   0.305   4.818
  740SOL     OW 3118   4.396   6.908   0.361
  740SOL    HW1 3119   4.389   6.810   0.343
  740SOL    HW2 3120   4.310   6.941   0.399
  741SOL     OW 3121   2.329   5.823   2.945
  741SOL    HW1 3122   2.298   5.731   2.922
  741SOL    HW2 3123   2.360   5.869   2.861
  742SOL     OW 3124   1.670   6.654   1.541
  742SOL    HW1 3125   1.576   6.661   1.575
  742SOL    HW2 3126   1.703   6.745   1.515
  743SOL     OW 3127   0.581   4.533   4.980
  743SOL    HW1 3128   0.593   4.631   4.968
  743SOL    HW2 3129   0.483   4.512   4.989
  744SOL     OW 3130   5.528   6.941   6.527
  744SOL    HW1 3131   5.439   6.911   6.492
  744SOL    HW2 3132   5.590   6.956   6.450
  745SOL     OW 3133   1.044   5.067   4.188
  745SOL    HW1 3134   1.018   5.148   4.136
  745SOL    HW2 3135   1.038   4.986   4.129
  746SOL     OW 3136   0.965   5.590   5.986
  746SOL    HW1 3137   0.939   5.495   6.002
  746SOL    HW2 3138   1.064   5.596   5.974
  747SOL     OW 3139   4.380   6.568   4.869
  747SOL    HW1 3140   4.291   6.536   4.903
  747SOL    HW2 3141   4.369   6.658   4.827
  748SOL     OW 3142   3.104   4.848   2.352
  748SOL    HW1 3143   3.202   4.826   2.353
  748SOL    HW2 3144   3.066   4.828   2.261
  749SOL     OW 3145   6.565   4.470   5.203
  749SOL    HW1 3146   6.595   4.464   5.107
  749SOL    HW2 3147   6.469   4.445   5.209
  750SOL     OW 3148   2.077   2.564   1.272
  750SOL    HW1 3149   2.072   2.636   1.341
  750SOL    HW2 3150   2.004   2.497   1.289
  751SOL     OW 3151   4.357   2.864   6.002
  751SOL    HW1 3152   4.392   2.883   5.911
  751SOL    HW2 3153   4.257   2.858   5.999
  752SOL     OW 3154   3.507   1.803   2.088
  752SOL    HW1 3155   3.476   1.794   1.994
  752SOL    HW2 3156   3.607   1.796   2.091
  753SOL     OW 3157   1.526   2.943   4.434
  753SOL    HW1 3158   1.599   3.003   4.401
  753SOL    HW2 3159   1.546   2.848   4.410
  754SOL     OW 3160   5.345   2.800   6.251
  754SOL    HW1 3161   5.328   2.890   6.292
  754SOL    HW2 3162   5.373   2.811   6.156
  755SOL     OW 3163   1.506   4.954   5.821
  755SOL    HW1 3164   1.570   4.999   5.760
  755SOL    HW2 3165   1.501   4.857   5.798
  756SOL     OW 3166   3.279   0.477   1.785
  756SOL    HW1 3167   3.194   0.478   1.836
  756SOL    HW2 3168   3.285   0.558   1.726
  757SOL     OW 3169   0.740   6.747   3.419
  757SOL    HW1 3170   0.794   6.825   3.451
  757SOL    HW2 3171   0.669   6.725   3.486
  758SOL     OW 3172   3.884   0.041   1.860
  758SOL    HW1 3173   3.834   0.127   1.858
  758SOL    HW2 3174   3.842   6.999   1.926
  759SOL     OW 3175   0.644   0.907   0.573
  759SOL    HW1 3176   0.617   0.829   0.517
  759SOL    HW2 3177   0.610   0.894   0.666
  760SOL     OW 3178   4.885   0.174   5.744
  760SOL    HW1 3179   4.898   0.273   5.734
  760SOL    HW2 3180   4.957   0.125   5.695
  761SOL     OW 3181   5.627   3.473   5.247
  761SOL    HW1 3182   5.641   3.465   5.149
  761SOL    HW2 3183   5.618   3.382   5.288
  762SOL     OW 3184   2.071   0.402   4.820
  762SOL    HW1 3185   2.026   0.405   4.731
  762SOL    HW2 3186   2.093   0.494   4.850
  763SOL     OW 3187   4.465   4.667   6.649
  763SOL    HW1 3188   4.428   4.640   6.737
  763SOL    HW2 3189   4.507   4.588   6.604
  764SOL     OW 3190   4.336   0.818   4.075
  764SOL    HW1 3191   4.305   0.905   4.037
  764SOL    HW2 3192   4.384   0.835   4.161
  765SOL     OW 3193   1.220   6.058   1.216
  765SOL    HW1 3194   1.202   5.968   1.175
  765SOL    HW2 3195   1.300   6.052   1.275
  766SOL     OW 3196   1.694   3.541   0.110
  766SOL    HW1 3197   1.601   3.550   0.148
  766SOL    HW2 3198   1.696   3.580   0.018
  767SOL     OW 3199   5.834   5.566   2.279
  767SOL    HW1 3200   5.867   5.544   2.371
  767SOL    HW2 3201   5.822   5.481   2.228
  768SOL     OW 3202   1.552   6.399   1.672
  768SOL    HW1 3203   1.574   6.489   1.710
  768SOL    HW2 3204   1.607   6.384   1.589
  769SOL     OW 3205   3.618   0.594   4.460
  769SOL    HW1 3206   3.569   0.573   4.545
  769SOL    HW2 3207   3.716   0.578   4.474
  770SOL     OW 3208   2.125   3.829   3.340
  770SOL    HW1 3209   2.140   3.743   3.291
  770SOL    HW2 3210   2.041   3.872   3.307
  771SOL     OW 3211   2.132   5.358   2.267
  771SOL    HW1 3212   2.178   5.440   2.233
  771SOL    HW2 3213   2.191   5.310   2.331
  772SOL     OW 3214   6.444   5.192   0.762
  772SOL    HW1 3215   6.522   5.209   0.821
  772SOL    HW2 3216   6.362   5.234   0.803
  773SOL     OW 3217   0.216   3.852   4.005
  773SOL    HW1 3218   0.120   3.826   4.020
  773SOL    HW2 3219   0.220   3.923   3.935
  774SOL     OW 3220   1.685   1.971   1.700
  774SOL    HW1 3221   1.658   2.051   1.646
  774SOL    HW2 3222   1.661   1.986   1.796
  775SOL     OW 3223   0.694   2.203   2.778
  775SOL    HW1 3224   0.725   2.111   2.755
  775SOL    HW2 3225   0.621   2.230   2.715
  776SOL     OW 3226   0.568   0.054   5.466
  776SOL    HW1 3227   0.617   0.103   5.538
  776SOL    HW2 3228   0.592   6.978   5.469
  777SOL     OW 3229   3.074   4.931   1.021
  777SOL    HW1 3230   3.102   5.023   0.993
  777SOL    HW2 3231   3.152   4.884   1.060
  778SOL     OW 3232   3.402   1.747   2.747
  778SOL    HW1 3233   3.460   1.803   2.688
  778SOL    HW2 3234   3.427   1.651   2.738
  779SOL     OW 3235   0.297   2.200   2.944
  779SOL    HW1 3236   0.370   2.259   2.978
  779SOL    HW2 3237   0.233   2.181   3.019
  780SOL     OW 3238   5.910   3.740   3.853
  780SOL    HW1 3239   6.005   3.752   3.824
  780SOL    HW2 3240   5.900   3.770   3.948
  781SOL     OW 3241   5.385   1.151   0.094
  781SOL    HW1 3242   5.419   1.228   0.148
  781SOL    HW2 3243   5.342   1.084   0.155
  782SOL     OW 3244   1.680   3.695   6.923
  782SOL    HW1 3245   1.637   3.757   6.858
  782SOL    HW2 3246   1.689   3.741   7.012
  783SOL     OW 3247   4.047   5.030   1.222
  783SOL    HW1 3248   3.979   4.980   1.275
  783SOL    HW2 3249   4.002   5.075   1.145
  784SOL     OW 3250   4.954   6.543   0.077
  784SOL    HW1 3251   4.979   6.613   0.010
  784SOL    HW2 3252   4.987   6.454   0.046
  785SOL     OW 3253   0.181   2.837   2.841
  785SOL    HW1 3254   0.186   2.922   2.789
  785SOL    HW2 3255   0.087   2.802   2.837
  786SOL     OW 3256   1.093   0.570   0.947
  786SOL    HW1 3257   1.054   0.661   0.957
  786SOL    HW2 3258   1.099   0.526   1.037
  787SOL     OW 3259   2.909   0.772   6.593
  787SOL    HW1 3260   2.984   0.836   6.576
  787SOL    HW2 3261   2.902   0.754   6.691
  788SOL     OW 3262   3.340   2.351   6.063
  788SOL    HW1 3263   3.265   2.410   6.035
  788SOL    HW2 3264   3.387   2.393   6.142
  789SOL     OW 3265   5.231   3.602   1.062
  789SOL    HW1 3266   5.215   3.551   0.978
  789SOL    HW2 3267   5.166   3.573   1.132
  790SOL     OW 3268   2.505   0.842   4.193
  790SOL    HW1 3269   2.478   0.754   4.233
  790SOL    HW2 3270   2.604   0.855   4.204
  791SOL     OW 3271   3.804   5.973   3.464
  791SOL    HW1 3272   3.743   6.041   3.423
  791SOL    HW2 3273   3.781   5.961   3.560
  792SOL     OW 3274   0.572   0.729   1.533
  792SOL    HW1 3275   0.591   0.827   1.543
  792SOL    HW2 3276   0.523   0.696   1.614
  793SOL     OW 3277   5.311   5.960   2.843
  793SOL    HW1 3278   5.268   6.044   2.875
  793SOL    HW2 3279   5.254   5.882   2.870
  794SOL     OW 3280   2.881   3.948   5.580
  794SOL    HW1 3281   2.805   3.893   5.545
  794SOL    HW2 3282   2.855   4.045   5.578
  795SOL     OW 3283   3.836   6.872   5.079
  795SOL    HW1 3284   3.933   6.892   5.084
  795SOL    HW2 3285   3.783   6.956   5.093
  796SOL     OW 3286   1.178   1.876   6.485
  796SOL    HW1 3287   1.085   1.888   6.522
  796SOL    HW2 3288   1.219   1.794   6.526
  797SOL     OW 3289   5.199   2.792   1.692
  797SOL    HW1 3290   5.106   2.763   1.668
  797SOL    HW2 3291   5.231   2.859   1.625
  798SOL     OW 3292   5.101   6.774   1.827
  798SOL    HW1 3293   5.173   6.817   1.773
  798SOL    HW2 3294   5.105   6.809   1.921
  799SOL     OW 3295   6.433   1.122   5.292
  799SOL    HW1 3296   6.531   1.120   5.275
  799SOL    HW2 3297   6.410   1.202   5.348
  800SOL     OW 3298   5.149   1.812   2.580
  800SOL    HW1 3299   5.057   1.852   2.587
  800SOL    HW2 3300   5.207   1.850   2.653
  801SOL     OW 3301   2.140   3.295   4.342
  801SOL    HW1 3302   2.137   3.300   4.442
  801SOL    HW2 3303   2.048   3.308   4.306
  802SOL     OW 3304   4.404   0.741   0.674
  802SOL    HW1 3305   4.445   0.650   0.678
  802SOL    HW2 3306   4.313   0.735   0.633
  803SOL     OW 3307   0.209   6.146   4.993
  803SOL    HW1 3308   0.223   6.213   5.065
  803SOL    HW2 3309   0.189   6.057   5.034
  804SOL     OW 3310   5.629   6.037   0.147
  804SOL    HW1 3311   5.611   6.018   0.050
  804SOL    HW2 3312   5.698   5.975   0.182
  805SOL     OW 3313   3.726   1.299   5.714
  805SOL    HW1 3314   3.695   1.290   5.809
  805SOL    HW2 3315   3.658   1.258   5.653
  806SOL     OW 3316   5.059   1.163   3.883
  806SOL    HW1 3317   5.090   1.086   3.940
  806SOL    HW2 3318   4.959   1.164   3.879
  807SOL     OW 3319   0.896   2.007   4.735
  807SOL    HW1 3320   0.871   1.927   4.790
  807SOL    HW2 3321   0.876   1.988   4.639
  808SOL     OW 3322   4.919   3.051   6.259
  808SOL    HW1 3323   4.956   3.075   6.169
  808SOL    HW2 3324   4.922   2.952   6.271
  809SOL     OW 3325   0.665   4.768   1.710
  809SOL    HW1 3326   0.761   4.744   1.725
  809SOL    HW2 3327   0.648   4.780   1.613
  810SOL     OW 3328   3.429   2.833   0.726
  810SOL    HW1 3329   3.468   2.768   0.661
  810SOL    HW2 3330   3.366   2.895   0.678
  811SOL     OW 3331   3.815   5.620   4.342
  811SOL    HW1 3332   3.868   5.661   4.268
  811SOL    HW2 3333   3.878   5.578   4.408
  812SOL     OW 3334   0.376   1.851   1.548
  812SOL    HW1 3335   0.323   1.879   1.468
  812SOL    HW2 3336   0.315   1.833   1.625
  813SOL     OW 3337   3.600   5.545   4.962
  813SOL    HW1 3338   3.607   5.645   4.956
  813SOL    HW2 3339   3.641   5.503   4.881
  814SOL     OW 3340   6.151   6.143   2.773
  814SOL    HW1 3341   6.148   6.089   2.689
  814SOL    HW2 3342   6.081   6.215   2.768
  815SOL     OW 3343   0.333   3.863   3.132
  815SOL    HW1 3344   0.384   3.896   3.053
  815SOL    HW2 3345   0.248   3.820   3.102
  816SOL     OW 3346   6.406   6.759   0.415
  816SOL    HW1 3347   6.475   6.824   0.446
  816SOL    HW2 3348   6.361   6.794   0.333
  817SOL     OW 3349   1.952   3.549   1.639
  817SOL    HW1 3350   2.048   3.578   1.642
  817SOL    HW2 3351   1.909   3.568   1.727
  818SOL     OW 3352   6.642   2.805   1.582
  818SOL    HW1 3353   6.635   2.706   1.581
  818SOL    HW2 3354   6.553   2.845   1.606
  819SOL     OW 3355   5.216   3.006   3.036
  819SOL    HW1 3356   5.316   3.004   3.034
  819SOL    HW2 3357   5.180   2.955   2.958
  820SOL     OW 3358   2.506   3.068   5.716
  820SOL    HW1 3359   2.540   3.007   5.789
  820SOL    HW2 3360   2.583   3.096   5.658
  821SOL     OW 3361   1.736   4.257   6.917
  821SOL    HW1 3362   1.778   4.347   6.929
  821SOL    HW2 3363   1.765   4.196   6.991
  822SOL     OW 3364   1.756   4.294   4.537
  822SOL    HW1 3365   1.763   4.272   4.635
  822SOL    HW2 3366   1.834   4.254   4.489
  823SOL     OW 3367   4.732   4.174   6.043
  823SOL    HW1 3368   4.822   4.198   6.078
  823SOL    HW2 3369   4.720   4.075   6.050
  824SOL     OW 3370   5.297   0.772   5.179
  824SOL    HW1 3371   5.351   0.727   5.108
  824SOL    HW2 3372   5.347   0.850   5.215
  825SOL     OW 3373   1.513   4.112   1.094
  825SOL    HW1 3374   1.425   4.102   1.047
  825SOL    HW2 3375   1.498   4.119   1.192
  826SOL     OW 3376   5.290   3.358   6.169
  826SOL    HW1 3377   5.376   3.311   6.190
  826SOL    HW2 3378   5.306   3.456   6.163
  827SOL     OW 3379   3.217   4.763   6.173
  827SOL    HW1 3380   3.170   4.846   6.203
  827SOL    HW2 3381   3.313   4.768   6.199
  828SOL     OW 3382   5.115   6.161   5.753
  828SOL    HW1 3383   5.017   6.184   5.751
  828SOL    HW2 3384   5.168   6.242   5.731
  829SOL     OW 3385   3.051   3.323   3.659
  829SOL    HW1 3386   3.031   3.415   3.693
  829SOL    HW2 3387   3.099   3.271   3.729
  830SOL     OW 3388   4.617   4.888   6.634
  830SOL    HW1 3389   4.535   4.832   6.618
  830SOL    HW2 3390   4.616   4.967   6.573
  831SOL     OW 3391   5.758   1.145   6.188
  831SOL    HW1 3392   5.694   1.199   6.242
  831SOL    HW2 3393   5.753   1.049   6.215
  832SOL     OW 3394   2.976   0.723   1.312
  832SOL    HW1 3395   2.978   0.623   1.310
  832SOL    HW2 3396   2.885   0.755   1.287
  833SOL     OW 3397   0.265   4.140   6.405
  833SOL    HW1 3398   0.277   4.072   6.333
  833SOL    HW2 3399   0.186   4.198   6.385
  834SOL     OW 3400   3.060   3.710   1.255
  834SOL    HW1 3401   3.111   3.785   1.298
  834SOL    HW2 3402   2.976   3.747   1.215
  835SOL     OW 3403   3.407   0.574   4.664
  835SOL    HW1 3404   3.367   0.482   4.662
  835SOL    HW2 3405   3.358   0.631   4.729
  836SOL     OW 3406   3.629   6.391   6.659
  836SOL    HW1 3407   3.641   6.376   6.757
  836SOL    HW2 3408   3.605   6.304   6.615
  837SOL     OW 3409   5.439   6.182   7.018
  837SOL    HW1 3410   5.362   6.119   0.002
  837SOL    HW2 3411   5.507   6.157   0.067
  838SOL     OW 3412   1.866   0.052   4.073
  838SOL    HW1 3413   1.825   6.988   4.041
  838SOL    HW2 3414   1.805   0.097   4.138
  839SOL     OW 3415   2.354   2.577   2.162
  839SOL    HW1 3416   2.416   2.506   2.196
  839SOL    HW2 3417   2.368   2.589   2.064
  840SOL     OW 3418   5.796   7.019   7.012
  840SOL    HW1 3419   5.805   0.098   7.013
  840SOL    HW2 3420   5.846   6.982   6.933
  841SOL     OW 3421   4.435   5.061   0.548
  841SOL    HW1 3422   4.507   5.113   0.502
  841SOL    HW2 3423   4.349   5.074   0.500
  842SOL     OW 3424   4.368   5.854   4.606
  842SOL    HW1 3425   4.290   5.792   4.594
  842SOL    HW2 3426   4.451   5.801   4.617
  843SOL     OW 3427   2.551   1.728   0.205
  843SOL    HW1 3428   2.546   1.715   0.106
  843SOL    HW2 3429   2.646   1.728   0.235
  844SOL     OW 3430   5.853   0.039   1.241
  844SOL    HW1 3431   5.831   0.071   1.148
  844SOL    HW2 3432   5.841   0.114   1.305
  845SOL     OW 3433   5.871   3.782   5.441
  845SOL    HW1 3434   5.950   3.774   5.501
  845SOL    HW2 3435   5.868   3.704   5.379
  846SOL     OW 3436   2.608   1.434   0.246
  846SOL    HW1 3437   2.587   1.396   0.336
  846SOL    HW2 3438   2.603   1.534   0.250
  847SOL     OW 3439   1.143   4.179   0.729
  847SOL    HW1 3440   1.069   4.178   0.661
  847SOL    HW2 3441   1.179   4.272   0.738
  848SOL     OW 3442   6.011   0.843   6.631
  848SOL    HW1 3443   6.027   0.941   6.643
  848SOL    HW2 3444   5.999   0.800   6.720
  849SOL     OW 3445   0.714   4.640   5.998
  849SOL    HW1 3446   0.807   4.674   5.987
  849SOL    HW2 3447   0.683   4.599   5.912
  850SOL     OW 3448   5.574   0.906   4.144
  850SOL    HW1 3449   5.586   0.860   4.056
  850SOL    HW2 3450   5.582   1.005   4.131
  851SOL     OW 3451   0.491   0.902   1.866
  851SOL    HW1 3452   0.530   0.878   1.955
  851SOL    HW2 3453   0.496   0.822   1.805
  852SOL     OW 3454   1.155   2.279   0.406
  852SOL    HW1 3455   1.194   2.317   0.323
  852SOL    HW2 3456   1.131   2.353   0.469
  853SOL     OW 3457   1.840   4.529   2.495
  853SOL    HW1 3458   1.813   4.494   2.585
  853SOL    HW2 3459   1.781   4.488   2.425
  854SOL     OW 3460   4.645   5.905   2.064
  854SOL    HW1 3461   4.673   5.849   2.143
  854SOL    HW2 3462   4.596   5.986   2.096
  855SOL     OW 3463   0.032   0.282   1.018
  855SOL    HW1 3464   6.977   0.284   1.083
  855SOL    HW2 3465   0.001   0.243   0.931
  856SOL     OW 3466   1.224   1.964   5.078
  856SOL    HW1 3467   1.156   2.036   5.086
  856SOL    HW2 3468   1.315   2.002   5.094
  857SOL     OW 3469   6.141   4.131   2.344
  857SOL    HW1 3470   6.098   4.116   2.433
  857SOL    HW2 3471   6.081   4.185   2.286
  858SOL     OW 3472   2.658   4.191   1.268
  858SOL    HW1 3473   2.576   4.244   1.289
  858SOL    HW2 3474   2.638   4.123   1.199
  859SOL     OW 3475   4.697   5.668   6.635
  859SOL    HW1 3476   4.676   5.757   6.595
  859SOL    HW2 3477   4.783   5.634   6.598
  860SOL     OW 3478   3.915   4.188   0.580
  860SOL    HW1 3479   3.954   4.267   0.533
  860SOL    HW2 3480   3.913   4.205   0.679
  861SOL     OW 3481   2.574   0.620   4.358
  861SOL    HW1 3482   2.485   0.578   4.378
  861SOL    HW2 3483   2.643   0.549   4.347
  862SOL     OW 3484   0.313   4.217   5.816
  862SOL    HW1 3485   0.388   4.152   5.829
  862SOL    HW2 3486   0.337   4.304   5.859
  863SOL     OW 3487   0.534   0.449   0.393
  863SOL    HW1 3488   0.460   0.419   0.334
  863SOL    HW2 3489   0.535   0.549   0.398
  864SOL     OW 3490   5.100   4.649   3.928
  864SOL    HW1 3491   5.078   4.696   3.843
  864SOL    HW2 3492   5.156   4.569   3.908
  865SOL     OW 3493   2.195   6.414   5.364
  865SOL    HW1 3494   2.147   6.377   5.284
  865SOL    HW2 3495   2.152   6.500   5.391
  866SOL     OW 3496   1.912   2.858   2.026
  866SOL    HW1 3497   1.907   2.932   1.959
  866SOL    HW2 3498   1.857   2.882   2.107
  867SOL     OW 3499   3.927   2.727   0.978
  867SOL    HW1 3500   3.837   2.757   0.946
  867SOL    HW2 3501   3.920   2.636   1.019
  868SOL     OW 3502   5.955   6.837   1.438
  868SOL    HW1 3503   5.886   6.774   1.474
  868SOL    HW2 3504   5.915   6.892   1.364
  869SOL     OW 3505   6.674   5.282   3.453
  869SOL    HW1 3506   6.728   5.367   3.457
  869SOL    HW2 3507   6.585   5.297   3.497
  870SOL     OW 3508   5.512   3.689   0.357
  870SOL    HW1 3509   5.444   3.629   0.399
  870SOL    HW2 3510   5.591   3.698   0.418
  871SOL     OW 3511   5.606   3.461   2.719
  871SOL    HW1 3512   5.529   3.449   2.656
  871SOL    HW2 3513   5.689   3.424   2.678
  872SOL     OW 3514   6.034   4.418   4.176
  872SOL    HW1 3515   5.943   4.424   4.216
  872SOL    HW2 3516   6.099   4.467   4.234
  873SOL     OW 3517   5.842   6.778   3.639
  873SOL    HW1 3518   5.870   6.861   3.591
  873SOL    HW2 3519   5.784   6.723   3.580
  874SOL     OW 3520   0.888   4.929   4.810
  874SOL    HW1 3521   0.973   4.981   4.818
  874SOL    HW2 3522   0.888   4.878   4.724
  875SOL     OW 3523   4.170   2.696   0.394
  875SOL    HW1 3524   4.180   2.681   0.492
  875SOL    HW2 3525   4.139   2.611   0.351
  876SOL     OW 3526   0.665   6.052   3.535
  876SOL    HW1 3527   0.717   6.038   3.619
  876SOL    HW2 3528   0.567   6.056   3.556
  877SOL     OW 3529   3.323   4.668   0.999
  877SOL    HW1 3530   3.336   4.765   0.979
  877SOL    HW2 3531   3.298   4.657   1.095
  878SOL     OW 3532   4.581   6.237   5.343
  878SOL    HW1 3533   4.613   6.142   5.352
  878SOL    HW2 3534   4.574   6.278   5.434
  879SOL     OW 3535   3.030   2.126   2.020
  879SOL    HW1 3536   3.017   2.058   2.092
  879SOL    HW2 3537   2.968   2.203   2.036
  880SOL     OW 3538   2.831   4.375   6.627
  880SOL    HW1 3539   2.769   4.390   6.705
  880SOL    HW2 3540   2.809   4.440   6.554
  881SOL     OW 3541   4.521   4.681   5.314
  881SOL    HW1 3542   4.560   4.720   5.398
  881SOL    HW2 3543   4.538   4.743   5.238
  882SOL     OW 3544   1.450   1.661   4.375
  882SOL    HW1 3545   1.392   1.581   4.360
  882SOL    HW2 3546   1.407   1.721   4.442
  883SOL     OW 3547   4.823   5.227   5.967
  883SOL    HW1 3548   4.867   5.196   5.883
  883SOL    HW2 3549   4.873   5.306   6.003
  884SOL     OW 3550   7.002   3.388   0.872
  884SOL    HW1 3551   6.984   3.290   0.878
  884SOL    HW2 3552   6.952   3.426   0.794
  885SOL     OW 3553   4.917   6.267   6.863
  885SOL    HW1 3554   4.850   6.332   6.828
  885SOL    HW2 3555   4.993   6.258   6.798
  886SOL     OW 3556   3.185   0.267   0.917
  886SOL    HW1 3557   3.217   0.190   0.862
  886SOL    HW2 3558   3.162   0.236   1.009
  887SOL     OW 3559   4.442   0.281   4.478
  887SOL    HW1 3560   4.458   0.237   4.390
  887SOL    HW2 3561   4.356   0.248   4.518
  888SOL     OW 3562   6.269   6.898   3.112
  888SOL    HW1 3563   6.209   6.822   3.141
  888SOL    HW2 3564   6.362   6.880   3.142
  889SOL     OW 3565   1.526   6.490   5.244
  889SOL    HW1 3566   1.619   6.493   5.209
  889SOL    HW2 3567   1.462   6.520   5.173
  890SOL     OW 3568   2.814   5.076   2.167
  890SOL    HW1 3569   2.758   5.039   2.093
  890SOL    HW2 3570   2.815   5.175   2.162
  891SOL     OW 3571   5.822   3.907   1.686
  891SOL    HW1 3572   5.817   3.829   1.747
  891SOL    HW2 3573   5.898   3.966   1.715
  892SOL     OW 3574   4.082   3.946   0.341
  892SOL    HW1 3575   4.057   3.937   0.437
  892SOL    HW2 3576   4.081   4.042   0.314
  893SOL     OW 3577   2.084   1.098   2.210
  893SOL    HW1 3578   2.158   1.091   2.277
  893SOL    HW2 3579   2.122   1.099   2.118
  894SOL     OW 3580   1.935   2.882   4.415
  894SOL    HW1 3581   1.890   2.874   4.325
  894SOL    HW2 3582   2.034   2.886   4.402
  895SOL     OW 3583   2.139   5.900   4.592
  895SOL    HW1 3584   2.072   5.936   4.527
  895SOL    HW2 3585   2.226   5.948   4.581
  896SOL     OW 3586   5.131   6.961   2.394
  896SOL    HW1 3587   5.191   6.926   2.466
  896SOL    HW2 3588   5.164   0.029   2.363
  897SOL     OW 3589   5.720   0.448   0.121
  897SOL    HW1 3590   5.631   0.458   0.166
  897SOL    HW2 3591   5.756   0.538   0.097
  898SOL     OW 3592   3.829   5.718   2.815
  898SOL    HW1 3593   3.744   5.748   2.858
  898SOL    HW2 3594   3.907   5.749   2.870
  899SOL     OW 3595   0.181   5.128   0.222
  899SOL    HW1 3596   0.260   5.149   0.165
  899SOL    HW2 3597   0.118   5.205   0.222
  900SOL     OW 3598   5.024   6.252   1.442
  900SOL    HW1 3599   5.116   6.217   1.459
  900SOL    HW2 3600   4.962   6.175   1.427
  901SOL     OW 3601   0.650   1.353   5.258
  901SOL    HW1 3602   0.680   1.315   5.345
  901SOL    HW2 3603   0.722   1.411   5.220
  902SOL     OW 3604   0.098   2.008   6.382
  902SOL    HW1 3605   0.063   1.925   6.339
  902SOL    HW2 3606   0.083   2.086   6.322
  903SOL     OW 3607   6.802   3.936   6.606
  903SOL    HW1 3608   6.718   3.979   6.640
  903SOL    HW2 3609   6.880   3.995   6.626
  904SOL     OW 3610   1.385   1.805   4.150
  904SOL    HW1 3611   1.420   1.898   4.163
  904SOL    HW2 3612   1.427   1.744   4.218
  905SOL     OW 3613   4.483   3.115   5.997
  905SOL    HW1 3614   4.448   3.070   6.079
  905SOL    HW2 3615   4.508   3.045   5.930
  906SOL     OW 3616   0.025   3.756   6.778
  906SOL    HW1 3617   0.072   3.819   6.715
  906SOL    HW2 3618   0.042   3.662   6.750
  907SOL     OW 3619   5.584   3.080   3.582
  907SOL    HW1 3620   5.571   3.128   3.495
  907SOL    HW2 3621   5.658   3.124   3.633
  908SOL     OW 3622   1.942   6.760   3.689
  908SOL    HW1 3623   1.912   6.671   3.722
  908SOL    HW2 3624   1.878   6.830   3.720
  909SOL     OW 3625   1.880   6.581   1.219
  909SOL    HW1 3626   1.945   6.535   1.158
  909SOL    HW2 3627   1.877   6.533   1.307
  910SOL     OW 3628   2.539   0.298   0.584
  910SOL    HW1 3629   2.602   0.225   0.557
  910SOL    HW2 3630   2.454   0.290   0.533
  911SOL     OW 3631   6.751   5.847   1.202
  911SOL    HW1 3632   6.667   5.797   1.221
  911SOL    HW2 3633   6.778   5.833   1.107
  912SOL     OW 3634   6.412   1.192   4.825
  912SOL    HW1 3635   6.421   1.155   4.732
  912SOL    HW2 3636   6.329   1.248   4.831
  913SOL     OW 3637   2.544   0.377   3.294
  913SOL    HW1 3638   2.496   0.461   3.269
  913SOL    HW2 3639   2.570   0.327   3.212
  914SOL     OW 3640   3.130   5.297   5.220
  914SOL    HW1 3641   3.062   5.238   5.262
  914SOL    HW2 3642   3.092   5.341   5.139
  915SOL     OW 3643   1.257   3.205   0.505
  915SOL    HW1 3644   1.290   3.274   0.569
  915SOL    HW2 3645   1.334   3.169   0.452
  916SOL     OW 3646   1.481   2.562   2.530
  916SOL    HW1 3647   1.425   2.489   2.569
  916SOL    HW2 3648   1.423   2.621   2.473
  917SOL     OW 3649   5.233   0.493   1.653
  917SOL    HW1 3650   5.245   0.417   1.589
  917SOL    HW2 3651   5.153   0.476   1.710
  918SOL     OW 3652   2.679   5.793   6.885
  918SOL    HW1 3653   2.696   5.862   6.955
  918SOL    HW2 3654   2.641   5.836   6.804
  919SOL     OW 3655   6.948   5.373   2.448
  919SOL    HW1 3656   6.934   5.467   2.419
  919SOL    HW2 3657   6.944   5.368   2.548
  920SOL     OW 3658   1.556   0.080   3.131
  920SOL    HW1 3659   1.590   0.113   3.219
  920SOL    HW2 3660   1.629   0.031   3.083
  921SOL     OW 3661   5.181   4.587   4.456
  921SOL    HW1 3662   5.197   4.538   4.542
  921SOL    HW2 3663   5.134   4.527   4.391
  922SOL     OW 3664   3.343   3.136   6.723
  922SOL    HW1 3665   3.283   3.127   6.803
  922SOL    HW2 3666   3.417   3.200   6.743
  923SOL     OW 3667   3.065   4.943   6.751
  923SOL    HW1 3668   2.979   4.922   6.797
  923SOL    HW2 3669   3.141   4.925   6.814
  924SOL     OW 3670   6.237   2.735   2.090
  924SOL    HW1 3671   6.147   2.759   2.054
  924SOL    HW2 3672   6.287   2.680   2.023
  925SOL     OW 3673   6.411   1.876   5.433
  925SOL    HW1 3674   6.336   1.810   5.443
  925SOL    HW2 3675   6.478   1.861   5.506
  926SOL     OW 3676   6.160   1.432   0.317
  926SOL    HW1 3677   6.202   1.430   0.226
  926SOL    HW2 3678   6.127   1.340   0.340
  927SOL     OW 3679   5.255   4.424   3.894
  927SOL    HW1 3680   5.342   4.445   3.938
  927SOL    HW2 3681   5.240   4.325   3.894
  928SOL     OW 3682   1.853   0.462   0.879
  928SOL    HW1 3683   1.821   0.367   0.879
  928SOL    HW2 3684   1.780   0.522   0.847
  929SOL     OW 3685   0.300   1.575   0.890
  929SOL    HW1 3686   0.202   1.554   0.893
  929SOL    HW2 3687   0.338   1.569   0.982
  930SOL     OW 3688   5.738   5.681   4.678
  930SOL    HW1 3689   5.829   5.680   4.720
  930SOL    HW2 3690   5.744   5.717   4.585
  931SOL     OW 3691   6.444   3.571   3.132
  931SOL    HW1 3692   6.466   3.607   3.222
  931SOL    HW2 3693   6.473   3.637   3.062
  932SOL     OW 3694   1.789   6.893   1.478
  932SOL    HW1 3695   1.817   6.951   1.554
  932SOL    HW2 3696   1.827   6.928   1.393
  933SOL     OW 3697   0.209   5.806   2.446
  933SOL    HW1 3698   0.164   5.870   2.508
  933SOL    HW2 3699   0.228   5.851   2.359
  934SOL     OW 3700   2.052   0.861   4.406
  934SOL    HW1 3701   2.066   0.792   4.335
  934SOL    HW2 3702   1.965   0.844   4.452
  935SOL     OW 3703   5.103   3.996   5.188
  935SOL    HW1 3704   5.132   4.074   5.133
  935SOL    HW2 3705   5.068   3.924   5.129
  936SOL     OW 3706   1.229   0.831   6.011
  936SOL    HW1 3707   1.217   0.747   5.959
  936SOL    HW2 3708   1.171   0.828   6.093
  937SOL     OW 3709   4.840   2.045   5.230
  937SOL    HW1 3710   4.811   1.967   5.285
  937SOL    HW2 3711   4.912   2.016   5.166
  938SOL     OW 3712   0.202   5.078   6.289
  938SOL    HW1 3713   0.213   5.089   6.388
  938SOL    HW2 3714   0.288   5.101   6.243
  939SOL     OW 3715   4.975   1.731   5.004
  939SOL    HW1 3716   4.914   1.687   4.937
  939SOL    HW2 3717   4.985   1.671   5.083
  940SOL     OW 3718   0.233   3.107   2.798
  940SOL    HW1 3719   0.278   3.088   2.711
  940SOL    HW2 3720   0.294   3.160   2.856
  941SOL     OW 3721   6.402   0.583   4.302
  941SOL    HW1 3722   6.381   0.499   4.253
  941SOL    HW2 3723   6.420   0.562   4.399
  942SOL     OW 3724   5.229   0.838   3.876
  942SOL    HW1 3725   5.131   0.855   3.885
  942SOL    HW2 3726   5.272   0.916   3.831
  943SOL     OW 3727   1.088   3.214   3.484
  943SOL    HW1 3728   1.157   3.188   3.551
  943SOL    HW2 3729   1.123   3.288   3.427
  944SOL     OW 3730   5.895   3.269   6.113
  944SOL    HW1 3731   5.830   3.324   6.060
  944SOL    HW2 3732   5.987   3.279   6.073
  945SOL     OW 3733   6.698   4.148   5.935
  945SOL    HW1 3734   6.680   4.187   6.025
  945SOL    HW2 3735   6.757   4.068   5.944
  946SOL     OW 3736   5.026   2.772   6.007
  946SOL    HW1 3737   4.978   2.687   6.028
  946SOL    HW2 3738   5.125   2.757   6.017
  947SOL     OW 3739   3.053   3.129   4.966
  947SOL    HW1 3740   3.104   3.213   4.987
  947SOL    HW2 3741   3.117   3.055   4.947
  948SOL     OW 3742   4.566   0.917   0.817
  948SOL    HW1 3743   4.491   0.983   0.815
  948SOL    HW2 3744   4.541   0.837   0.763
  949SOL     OW 3745   7.018   6.317   6.457
  949SOL    HW1 3746   0.051   6.294   6.376
  949SOL    HW2 3747   0.041   6.393   6.505
  950SOL     OW 3748   4.222   5.295   2.133
  950SOL    HW1 3749   4.135   5.283   2.086
  950SOL    HW2 3750   4.294   5.316   2.066
  951SOL     OW 3751   1.817   0.366   2.282
  951SOL    HW1 3752   1.767   0.390   2.365
  951SOL    HW2 3753   1.850   0.271   2.290
  952SOL     OW 3754   5.717   1.290   2.214
  952SOL    HW1 3755   5.675   1.257   2.298
  952SOL    HW2 3756   5.802   1.239   2.197
  953SOL     OW 3757   5.226   5.625   5.360
  953SOL    HW1 3758   5.236   5.526   5.373
  953SOL    HW2 3759   5.129   5.649   5.357
  954SOL     OW 3760   5.051   6.109   0.609
  954SOL    HW1 3761   5.143   6.139   0.581
  954SOL    HW2 3762   5.015   6.046   0.540
  955SOL     OW 3763   0.090   4.891   3.271
  955SOL    HW1 3764   0.038   4.892   3.186
  955SOL    HW2 3765   0.061   4.967   3.329
  956SOL     OW 3766   0.901   2.197   2.473
  956SOL    HW1 3767   0.878   2.105   2.444
  956SOL    HW2 3768   0.959   2.193   2.554
  957SOL     OW 3769   1.236   4.828   4.411
  957SOL    HW1 3770   1.328   4.851   4.443
  957SOL    HW2 3771   1.184   4.787   4.486
  958SOL     OW 3772   4.729   2.337   1.857
  958SOL    HW1 3773   4.699   2.427   1.825
  958SOL    HW2 3774   4.719   2.270   1.784
  959SOL     OW 3775   2.466   4.767   3.034
  959SOL    HW1 3776   2.438   4.769   3.130
  959SOL    HW2 3777   2.547   4.710   3.023
  960SOL     OW 3778   0.165   6.009   3.872
  960SOL    HW1 3779   0.076   5.998   3.828
  960SOL    HW2 3780   0.154   6.063   3.956
  961SOL     OW 3781   5.034   0.039   3.335
  961SOL    HW1 3782   5.095   6.980   3.331
  961SOL    HW2 3783   4.940   0.009   3.324
  962SOL     OW 3784   1.579   1.287   4.446
  962SOL    HW1 3785   1.545   1.340   4.368
  962SOL    HW2 3786   1.610   1.350   4.517
  963SOL     OW 3787   6.404   1.113   5.845
  963SOL    HW1 3788   6.449   1.107   5.755
  963SOL    HW2 3789   6.354   1.028   5.862
  964SOL     OW 3790   6.459   3.320   0.521
  964SOL    HW1 3791   6.403   3.398   0.549
  964SOL    HW2 3792   6.533   3.352   0.461
  965SOL     OW 3793   5.658   1.742   1.291
  965SOL    HW1 3794   5.678   1.769   1.385
  965SOL    HW2 3795   5.669   1.820   1.230
  966SOL     OW 3796   5.655   1.550   2.540
  966SOL    HW1 3797   5.628   1.646   2.546
  966SOL    HW2 3798   5.588   1.500   2.486
  967SOL     OW 3799   2.462   5.215   1.463
  967SOL    HW1 3800   2.392   5.219   1.534
  967SOL    HW2 3801   2.515   5.131   1.474
  968SOL     OW 3802   4.760   2.524   2.348
  968SOL    HW1 3803   4.721   2.575   2.272
  968SOL    HW2 3804   4.838   2.574   2.385
  969SOL     OW 3805   4.585   5.919   6.623
  969SOL    HW1 3806   4.537   5.996   6.665
  969SOL    HW2 3807   4.608   5.941   6.528
  970SOL     OW 3808   4.870   1.028   5.213
  970SOL    HW1 3809   4.934   1.042   5.137
  970SOL    HW2 3810   4.889   0.940   5.257
  971SOL     OW 3811   0.316   1.998   3.173
  971SOL    HW1 3812   0.227   2.033   3.204
  971SOL    HW2 3813   0.377   2.074   3.152
  972SOL     OW 3814   6.000   3.838   1.296
  972SOL    HW1 3815   5.958   3.905   1.235
  972SOL    HW2 3816   5.941   3.825   1.376
  973SOL     OW 3817   6.833   4.200   0.390
  973SOL    HW1 3818   6.797   4.132   0.325
  973SOL    HW2 3819   6.856   4.155   0.476
  974SOL     OW 3820   4.318   0.239   2.448
  974SOL    HW1 3821   4.348   0.333   2.439
  974SOL    HW2 3822   4.303   0.218   2.545
  975SOL     OW 3823   2.362   5.755   5.970
  975SOL    HW1 3824   2.349   5.704   5.885
  975SOL    HW2 3825   2.388   5.693   6.043
  976SOL     OW 3826   6.319   2.908   2.445
  976SOL    HW1 3827   6.385   2.893   2.372
  976SOL    HW2 3828   6.275   2.997   2.433
  977SOL     OW 3829   2.339   0.859   3.977
  977SOL    HW1 3830   2.358   0.783   3.915
  977SOL    HW2 3831   2.413   0.865   4.045
  978SOL     OW 3832   4.258   4.173   5.595
  978SOL    HW1 3833   4.293   4.138   5.682
  978SOL    HW2 3834   4.179   4.118   5.566
  979SOL     OW 3835   6.907   1.847   1.658
  979SOL    HW1 3836   6.846   1.774   1.628
  979SOL    HW2 3837   6.968   1.873   1.582
  980SOL     OW 3838   4.674   1.946   4.044
  980SOL    HW1 3839   4.605   1.899   3.990
  980SOL    HW2 3840   4.730   1.879   4.093
  981SOL     OW 3841   1.557   1.598   5.006
  981SOL    HW1 3842   1.575   1.601   4.908
  981SOL    HW2 3843   1.643   1.582   5.055
  982SOL     OW 3844   2.395   1.943   3.336
  982SOL    HW1 3845   2.407   1.951   3.435
  982SOL    HW2 3846   2.383   1.847   3.312
  983SOL     OW 3847   5.550   2.431   3.697
  983SOL    HW1 3848   5.628   2.491   3.714
  983SOL    HW2 3849   5.466   2.479   3.723
  984SOL     OW 3850   3.230   1.299   3.778
  984SOL    HW1 3851   3.288   1.229   3.820
  984SOL    HW2 3852   3.236   1.383   3.833
  985SOL     OW 3853   5.200   5.007   6.749
  985SOL    HW1 3854   5.265   5.017   6.825
  985SOL    HW2 3855   5.225   4.927   6.695
  986SOL     OW 3856   5.280   4.630   7.001
  986SOL    HW1 3857   5.315   4.722   6.979
  986SOL    HW2 3858   5.206   4.607   6.938
  987SOL     OW 3859   4.283   6.243   1.060
  987SOL    HW1 3860   4.231   6.159   1.046
  987SOL    HW2 3861   4.234   6.302   1.125
  988SOL     OW 3862   3.684   2.899   1.871
  988SOL    HW1 3863   3.609   2.858   1.924
  988SOL    HW2 3864   3.689   2.857   1.781
  989SOL     OW 3865   6.531   1.084   5.583
  989SOL    HW1 3866   6.560   1.013   5.519
  989SOL    HW2 3867   6.541   1.174   5.541
  990SOL     OW 3868   4.509   0.838   1.966
  990SOL    HW1 3869   4.555   0.751   1.947
  990SOL    HW2 3870   4.549   0.878   2.049
  991SOL     OW 3871   1.886   2.636   5.400
  991SOL    HW1 3872   1.845   2.666   5.314
  991SOL    HW2 3873   1.925   2.715   5.447
  992SOL     OW 3874   0.941   3.531   0.857
  992SOL    HW1 3875   1.001   3.452   0.840
  992SOL    HW2 3876   0.995   3.606   0.895
  993SOL     OW 3877   1.288   4.818   2.293
  993SOL    HW1 3878   1.244   4.845   2.378
  993SOL    HW2 3879   1.376   4.865   2.283
  994SOL     OW 3880   3.151   3.524   2.602
  994SOL    HW1 3881   3.224   3.506   2.667
  994SOL    HW2 3882   3.161   3.464   2.522
  995SOL     OW 3883   3.141   2.532   6.029
  995SOL    HW1 3884   3.185   2.609   5.984
  995SOL    HW2 3885   3.050   2.518   5.991
  996SOL     OW 3886   2.115   4.743   4.829
  996SOL    HW1 3887   2.155   4.681   4.761
  996SOL    HW2 3888   2.064   4.815   4.782
  997SOL     OW 3889   6.909   0.588   2.242
  997SOL    HW1 3890   6.873   0.680   2.232
  997SOL    HW2 3891   6.976   0.570   2.170
  998SOL     OW 3892   4.658   6.483   4.069
  998SOL    HW1 3893   4.703   6.553   4.013
  998SOL    HW2 3894   4.719   6.405   4.080
  999SOL     OW 3895   5.699   5.165   1.928
  999SOL    HW1 3896   5.685   5.243   1.866
  999SOL    HW2 3897   5.681   5.194   2.022
 1000SOL     OW 3898   1.395   0.912   2.251
 1000SOL    HW1 3899   1.457   0.865   2.188
 1000SOL    HW2 3900   1.309   0.931   2.204
 1001SOL     OW 3901   5.916   6.773   0.600
 1001SOL    HW1 3902   5.943   6.710   0.673
 1001SOL    HW2 3903   5.894   6.722   0.518
 1002SOL     OW 3904   6.006   2.201   6.883
 1002SOL    HW1 3905   5.933   2.137   6.908
 1002SOL    HW2 3906   6.083   2.150   6.846
 1003SOL     OW 3907   2.009   6.227   1.645
 1003SOL    HW1 3908   2.048   6.319   1.637
 1003SOL    HW2 3909   2.041   6.185   1.730
 1004SOL     OW 3910   0.487   0.533   1.367
 1004SOL    HW1 3911   0.535   0.603   1.419
 1004SOL    HW2 3912   0.391   0.530   1.394
 1005SOL     OW 3913   0.634   1.484   2.751
 1005SOL    HW1 3914   0.565   1.420   2.784
 1005SOL    HW2 3915   0.630   1.568   2.806
 1006SOL     OW 3916   1.408   5.511   1.395
 1006SOL    HW1 3917   1.498   5.469   1.381
 1006SOL    HW2 3918   1.395   5.532   1.491
 1007SOL     OW 3919   5.410   0.143   4.192
 1007SOL    HW1 3920   5.463   0.213   4.240
 1007SOL    HW2 3921   5.383   0.072   4.257
 1008SOL     OW 3922   2.424   3.243   5.327
 1008SOL    HW1 3923   2.357   3.295   5.273
 1008SOL    HW2 3924   2.459   3.167   5.273
 1009SOL     OW 3925   0.379   6.361   4.619
 1009SOL    HW1 3926   0.451   6.352   4.688
 1009SOL    HW2 3927   0.298   6.309   4.647
 1010SOL     OW 3928   3.502   2.249   6.526
 1010SOL    HW1 3929   3.514   2.193   6.608
 1010SOL    HW2 3930   3.410   2.234   6.490
 1011SOL     OW 3931   2.325   5.280   2.470
 1011SOL    HW1 3932   2.323   5.288   2.570
 1011SOL    HW2 3933   2.382   5.203   2.444
 1012SOL     OW 3934   6.538   0.091   0.080
 1012SOL    HW1 3935   6.638   0.094   0.072
 1012SOL    HW2 3936   6.511   0.099   0.176
 1013SOL     OW 3937   0.534   1.116   6.028
 1013SOL    HW1 3938   0.560   1.174   6.105
 1013SOL    HW2 3939   0.517   1.173   5.947
 1014SOL     OW 3940   5.055   5.722   6.634
 1014SOL    HW1 3941   5.014   5.656   6.570
 1014SOL    HW2 3942   5.096   5.797   6.583
 1015SOL     OW 3943   2.598   6.666   5.491
 1015SOL    HW1 3944   2.555   6.727   5.559
 1015SOL    HW2 3945   2.659   6.603   5.537
 1016SOL     OW 3946   3.454   3.276   0.459
 1016SOL    HW1 3947   3.446   3.287   0.559
 1016SOL    HW2 3948   3.537   3.225   0.438
 1017SOL     OW 3949   4.669   2.886   1.226
 1017SOL    HW1 3950   4.735   2.813   1.205
 1017SOL    HW2 3951   4.591   2.878   1.164
 1018SOL     OW 3952   1.383   3.441   4.151
 1018SOL    HW1 3953   1.344   3.533   4.148
 1018SOL    HW2 3954   1.336   3.387   4.221
 1019SOL     OW 3955   0.643   0.731   6.647
 1019SOL    HW1 3956   0.669   0.672   6.572
 1019SOL    HW2 3957   0.584   0.805   6.613
 1020SOL     OW 3958   0.953   6.405   1.273
 1020SOL    HW1 3959   0.981   6.492   1.232
 1020SOL    HW2 3960   0.960   6.333   1.205
 1021SOL     OW 3961   5.679   1.332   1.109
 1021SOL    HW1 3962   5.717   1.401   1.171
 1021SOL    HW2 3963   5.751   1.301   1.047
 1022SOL     OW 3964   4.020   4.323   6.176
 1022SOL    HW1 3965   4.057   4.278   6.095
 1022SOL    HW2 3966   3.982   4.412   6.150
 1023SOL     OW 3967   0.259   6.994   1.867
 1023SOL    HW1 3968   0.318   6.936   1.923
 1023SOL    HW2 3969   0.164   6.968   1.881
 1024SOL     OW 3970   5.871   3.819   4.099
 1024SOL    HW1 3971   5.854   3.898   4.158
 1024SOL    HW2 3972   5.813   3.743   4.127
 1025SOL     OW 3973   3.401   3.533   0.358
 1025SOL    HW1 3974   3.371   3.441   0.381
 1025SOL    HW2 3975   3.321   3.592   0.345
 1026SOL     OW 3976   2.156   2.351   1.589
 1026SOL    HW1 3977   2.147   2.277   1.656
 1026SOL    HW2 3978   2.128   2.319   1.499
 1027SOL     OW 3979   2.866   5.799   0.962
 1027SOL    HW1 3980   2.911   5.888   0.967
 1027SOL    HW2 3981   2.921   5.737   0.905
 1028SOL     OW 3982   3.963   5.960   0.104
 1028SOL    HW1 3983   3.892   6.020   0.069
 1028SOL    HW2 3984   4.048   6.012   0.116
 1029SOL     OW 3985   1.298   0.601   6.919
 1029SOL    HW1 3986   1.237   0.622   6.842
 1029SOL    HW2 3987   1.290   0.504   6.942
 1030SOL     OW 3988   3.764   3.968   1.641
 1030SOL    HW1 3989   3.770   4.057   1.688
 1030SOL    HW2 3990   3.677   3.961   1.593
 1031SOL     OW 3991   5.371   5.378   0.799
 1031SOL    HW1 3992   5.427   5.304   0.761
 1031SOL    HW2 3993   5.354   5.360   0.896
 1032SOL     OW 3994   1.788   1.772   4.558
 1032SOL    HW1 3995   1.875   1.812   4.584
 1032SOL    HW2 3996   1.733   1.841   4.510
 1033SOL     OW 3997   1.522   6.475   0.829
 1033SOL    HW1 3998   1.547   6.557   0.881
 1033SOL    HW2 3999   1.587   6.402   0.849
 1034SOL     OW 4000   1.215   5.888   5.186
 1034SOL    HW1 4001   1.130   5.871   5.234
 1034SOL    HW2 4002   1.288   5.905   5.252
 1035SOL     OW 4003   1.780   0.866   3.941
 1035SOL    HW1 4004   1.829   0.781   3.961
 1035SOL    HW2 4005   1.846   0.940   3.926
 1036SOL     OW 4006   2.858   0.749   1.983
 1036SOL    HW1 4007   2.808   0.776   1.901
 1036SOL    HW2 4008   2.919   0.823   2.011
 1037SOL     OW 4009   1.898   0.487   1.248
 1037SOL    HW1 4010   1.969   0.490   1.177
 1037SOL    HW2 4011   1.907   0.402   1.301
 1038SOL     OW 4012   0.998   1.319   5.441
 1038SOL    HW1 4013   1.020   1.323   5.343
 1038SOL    HW2 4014   0.916   1.263   5.454
 1039SOL     OW 4015   3.124   3.170   5.782
 1039SOL    HW1 4016   3.198   3.236   5.777
 1039SOL    HW2 4017   3.098   3.141   5.690
 1040SOL     OW 4018   4.702   2.803   2.596
 1040SOL    HW1 4019   4.763   2.878   2.571
 1040SOL    HW2 4020   4.669   2.817   2.690
 1041SOL     OW 4021   6.488   6.803   4.205
 1041SOL    HW1 4022   6.432   6.743   4.149
 1041SOL    HW2 4023   6.429   6.865   4.257
 1042SOL     OW 4024   3.788   4.866   2.177
 1042SOL    HW1 4025   3.873   4.830   2.138
 1042SOL    HW2 4026   3.710   4.827   2.128
 1043SOL     OW 4027   4.336   1.535   5.145
 1043SOL    HW1 4028   4.337   1.571   5.238
 1043SOL    HW2 4029   4.375   1.443   5.145
 1044SOL     OW 4030   4.801   4.184   1.898
 1044SOL    HW1 4031   4.857   4.142   1.969
 1044SOL    HW2 4032   4.708   4.198   1.932
 1045SOL     OW 4033   3.005   6.175   2.778
 1045SOL    HW1 4034   2.999   6.105   2.706
 1045SOL    HW2 4035   2.913   6.209   2.799
 1046SOL     OW 4036   1.776   6.486   0.259
 1046SOL    HW1 4037   1.870   6.458   0.278
 1046SOL    HW2 4038   1.754   6.568   0.311
 1047SOL     OW 4039   1.250   6.386   2.336
 1047SOL    HW1 4040   1.346   6.412   2.327
 1047SOL    HW2 4041   1.193   6.450   2.285
 1048SOL     OW 4042   4.737   5.771   5.639
 1048SOL    HW1 4043   4.699   5.779   5.730
 1048SOL    HW2 4044   4.669   5.731   5.577
 1049SOL     OW 4045   6.560   4.838   4.421
 1049SOL    HW1 4046   6.483   4.827   4.359
 1049SOL    HW2 4047   6.529   4.823   4.515
 1050SOL     OW 4048   3.215   5.265   0.239
 1050SOL    HW1 4049   3.120   5.293   0.229
 1050SOL    HW2 4050   3.222   5.167   0.222
 1051SOL     OW 4051   3.176   5.167   0.942
 1051SOL    HW1 4052   3.259   5.201   0.985
 1051SOL    HW2 4053   3.154   5.223   0.862
 1052SOL     OW 4054   4.096   0.055   4.328
 1052SOL    HW1 4055   4.108   0.153   4.310
 1052SOL    HW2 4056   4.186   0.012   4.338
 1053SOL     OW 4057   5.295   5.327   3.141
 1053SOL    HW1 4058   5.285   5.388   3.220
 1053SOL    HW2 4059   5.217   5.340   3.080
 1054SOL     OW 4060   2.614   4.278   5.839
 1054SOL    HW1 4061   2.615   4.374   5.867
 1054SOL    HW2 4062   2.566   4.269   5.752
 1055SOL     OW 4063   6.178   6.724   4.317
 1055SOL    HW1 4064   6.087   6.765   4.310
 1055SOL    HW2 4065   6.196   6.669   4.236
 1056SOL     OW 4066   1.624   5.588   5.832
 1056SOL    HW1 4067   1.582   5.498   5.846
 1056SOL    HW2 4068   1.671   5.589   5.744
 1057SOL     OW 4069   3.739   3.514   2.740
 1057SOL    HW1 4070   3.793   3.598   2.751
 1057SOL    HW2 4071   3.730   3.494   2.643
 1058SOL     OW 4072   5.092   1.051   2.038
 1058SOL    HW1 4073   5.123   1.034   2.132
 1058SOL    HW2 4074   5.169   1.083   1.983
 1059SOL     OW 4075   2.235   0.354   0.852
 1059SOL    HW1 4076   2.307   0.285   0.841
 1059SOL    HW2 4077   2.262   0.438   0.805
 1060SOL     OW 4078   0.266   3.434   4.483
 1060SOL    HW1 4079   0.193   3.381   4.526
 1060SOL    HW2 4080   0.355   3.395   4.508
 1061SOL     OW 4081   5.042   3.813   1.725
 1061SOL    HW1 4082   5.027   3.911   1.713
 1061SOL    HW2 4083   5.045   3.791   1.822
 1062SOL     OW 4084   6.133   5.035   5.514
 1062SOL    HW1 4085   6.103   5.037   5.419
 1062SOL    HW2 4086   6.223   5.078   5.521
 1063SOL     OW 4087   1.202   4.844   1.503
 1063SOL    HW1 4088   1.272   4.820   1.434
 1063SOL    HW2 4089   1.111   4.837   1.461
 1064SOL     OW 4090   1.580   4.072   1.998
 1064SOL    HW1 4091   1.507   4.135   2.023
 1064SOL    HW2 4092   1.542   3.996   1.944
 1065SOL     OW 4093   4.535   0.815   4.576
 1065SOL    HW1 4094   4.465   0.842   4.641
 1065SOL    HW2 4095   4.617   0.871   4.590
 1066SOL     OW 4096   5.131   0.795   4.202
 1066SOL    HW1 4097   5.151   0.890   4.176
 1066SOL    HW2 4098   5.048   0.765   4.155
 1067SOL     OW 4099   1.325   3.102   6.875
 1067SOL    HW1 4100   1.291   3.056   6.956
 1067SOL    HW2 4101   1.389   3.042   6.827
 1068SOL     OW 4102   4.866   4.669   2.322
 1068SOL    HW1 4103   4.875   4.619   2.408
 1068SOL    HW2 4104   4.771   4.699   2.312
 1069SOL     OW 4105   5.142   4.727   0.985
 1069SOL    HW1 4106   5.120   4.630   0.973
 1069SOL    HW2 4107   5.199   4.738   1.067
 1070SOL     OW 4108   1.381   1.195   1.041
 1070SOL    HW1 4109   1.337   1.256   1.107
 1070SOL    HW2 4110   1.388   1.241   0.953
 1071SOL     OW 4111   3.103   6.622   3.859
 1071SOL    HW1 4112   3.159   6.607   3.778
 1071SOL    HW2 4113   3.037   6.548   3.868
 1072SOL     OW 4114   1.834   5.961   1.039
 1072SOL    HW1 4115   1.847   5.983   0.942
 1072SOL    HW2 4116   1.871   5.870   1.058
 1073SOL     OW 4117   3.463   6.500   2.890
 1073SOL    HW1 4118   3.364   6.502   2.877
 1073SOL    HW2 4119   3.503   6.434   2.826
 1074SOL     OW 4120   2.452   5.075   0.797
 1074SOL    HW1 4121   2.430   4.978   0.786
 1074SOL    HW2 4122   2.370   5.125   0.823
 1075SOL     OW 4123   4.637   6.060   3.732
 1075SOL    HW1 4124   4.661   6.048   3.828
 1075SOL    HW2 4125   4.701   6.009   3.675
 1076SOL     OW 4126   0.203   4.974   5.381
 1076SOL    HW1 4127   0.176   4.887   5.339
 1076SOL    HW2 4128   0.292   5.002   5.346
 1077SOL     OW 4129   5.854   0.224   0.493
 1077SOL    HW1 4130   5.758   0.197   0.488
 1077SOL    HW2 4131   5.890   0.241   0.401
 1078SOL     OW 4132   1.776   0.948   2.830
 1078SOL    HW1 4133   1.763   1.012   2.754
 1078SOL    HW2 4134   1.767   0.854   2.797
 1079SOL     OW 4135   1.671   5.757   2.440
 1079SOL    HW1 4136   1.680   5.695   2.362
 1079SOL    HW2 4137   1.729   5.837   2.427
 1080SOL     OW 4138   1.961   4.980   3.567
 1080SOL    HW1 4139   2.059   4.971   3.585
 1080SOL    HW2 4140   1.943   5.068   3.524
 1081SOL     OW 4141   0.263   6.510   6.034
 1081SOL    HW1 4142   0.329   6.564   5.982
 1081SOL    HW2 4143   0.171   6.545   6.018
 1082SOL     OW 4144   3.129   1.001   5.894
 1082SOL    HW1 4145   3.216   1.029   5.936
 1082SOL    HW2 4146   3.072   1.082   5.879
 1083SOL     OW 4147   4.034   3.868   1.267
 1083SOL    HW1 4148   3.976   3.933   1.316
 1083SOL    HW2 4149   3.986   3.834   1.187
 1084SOL     OW 4150   6.494   6.413   0.458
 1084SOL    HW1 4151   6.476   6.441   0.364
 1084SOL    HW2 4152   6.407   6.401   0.506
 1085SOL     OW 4153   1.560   4.245   3.671
 1085SOL    HW1 4154   1.647   4.230   3.626
 1085SOL    HW2 4155   1.489   4.259   3.602
 1086SOL     OW 4156   6.929   5.664   2.328
 1086SOL    HW1 4157   6.832   5.644   2.341
 1086SOL    HW2 4158   6.946   5.761   2.348
 1087SOL     OW 4159   6.077   2.637   5.782
 1087SOL    HW1 4160   6.040   2.702   5.716
 1087SOL    HW2 4161   6.010   2.623   5.855
 1088SOL     OW 4162   5.851   4.677   3.400
 1088SOL    HW1 4163   5.884   4.618   3.326
 1088SOL    HW2 4164   5.846   4.772   3.367
 1089SOL     OW 4165   1.504   0.342   4.537
 1089SOL    HW1 4166   1.562   0.336   4.455
 1089SOL    HW2 4167   1.462   0.252   4.554
 1090SOL     OW 4168   2.341   1.683   3.304
 1090SOL    HW1 4169   2.337   1.608   3.371
 1090SOL    HW2 4170   2.392   1.652   3.224
 1091SOL     OW 4171   1.981   2.916   5.019
 1091SOL    HW1 4172   2.018   2.909   5.112
 1091SOL    HW2 4173   1.996   2.831   4.970
 1092SOL     OW 4174   2.059   3.308   0.843
 1092SOL    HW1 4175   2.158   3.312   0.859
 1092SOL    HW2 4176   2.010   3.340   0.924
 1093SOL     OW 4177   2.018   1.957   2.597
 1093SOL    HW1 4178   1.995   2.045   2.639
 1093SOL    HW2 4179   2.112   1.961   2.563
 1094SOL     OW 4180   1.009   6.306   3.021
 1094SOL    HW1 4181   0.925   6.337   3.065
 1094SOL    HW2 4182   1.088   6.338   3.073
 1095SOL     OW 4183   0.025   2.337   5.635
 1095SOL    HW1 4184   0.048   2.336   5.732
 1095SOL    HW2 4185   0.080   2.268   5.587
 1096SOL     OW 4186   3.541   4.443   1.657
 1096SOL    HW1 4187   3.572   4.517   1.717
 1096SOL    HW2 4188   3.448   4.416   1.683
 1097SOL     OW 4189   1.309   4.464   4.029
 1097SOL    HW1 4190   1.392   4.426   3.988
 1097SOL    HW2 4191   1.334   4.517   4.110
 1098SOL     OW 4192   5.075   3.142   0.734
 1098SOL    HW1 4193   5.092   3.055   0.781
 1098SOL    HW2 4194   5.017   3.200   0.790
 1099SOL     OW 4195   4.098   1.360   4.951
 1099SOL    HW1 4196   4.081   1.439   4.892
 1099SOL    HW2 4197   4.037   1.363   5.029
 1100SOL     OW 4198   2.787   2.080   6.996
 1100SOL    HW1 4199   2.703   2.122   6.963
 1100SOL    HW2 4200   2.804   2.109   0.069
 1101SOL     OW 4201   5.824   2.502   0.792
 1101SOL    HW1 4202   5.768   2.561   0.850
 1101SOL    HW2 4203   5.863   2.556   0.718
 1102SOL     OW 4204   1.012   5.519   3.438
 1102SOL    HW1 4205   1.106   5.513   3.403
 1102SOL    HW2 4206   1.012   5.499   3.536
 1103SOL     OW 4207   2.998   1.603   0.877
 1103SOL    HW1 4208   2.965   1.602   0.783
 1103SOL    HW2 4209   2.981   1.514   0.920
 1104SOL     OW 4210   2.302   3.156   6.122
 1104SOL    HW1 4211   2.277   3.179   6.028
 1104SOL    HW2 4212   2.236   3.091   6.159
 1105SOL     OW 4213   5.549   3.653   4.747
 1105SOL    HW1 4214   5.512   3.692   4.831
 1105SOL    HW2 4215   5.646   3.676   4.740
 1106SOL     OW 4216   0.771   1.710   0.162
 1106SOL    HW1 4217   0.717   1.666   0.233
 1106SOL    HW2 4218   0.866   1.717   0.192
 1107SOL     OW 4219   0.903   0.453   6.197
 1107SOL    HW1 4220   0.958   0.436   6.115
 1107SOL    HW2 4221   0.806   0.436   6.176
 1108SOL     OW 4222   2.629   0.678   5.877
 1108SOL    HW1 4223   2.581   0.660   5.790
 1108SOL    HW2 4224   2.562   0.696   5.949
 1109SOL     OW 4225   4.460   6.080   4.767
 1109SOL    HW1 4226   4.431   6.004   4.708
 1109SOL    HW2 4227   4.381   6.115   4.817
 1110SOL     OW 4228   2.801   1.642   2.553
 1110SOL    HW1 4229   2.808   1.582   2.632
 1110SOL    HW2 4230   2.778   1.589   2.472
 1111SOL     OW 4231   5.256   5.711   0.367
 1111SOL    HW1 4232   5.296   5.803   0.367
 1111SOL    HW2 4233   5.260   5.673   0.275
 1112SOL     OW 4234   5.874   1.407   2.687
 1112SOL    HW1 4235   5.797   1.432   2.628
 1112SOL    HW2 4236   5.887   1.478   2.756
 1113SOL     OW 4237   6.910   3.498   2.481
 1113SOL    HW1 4238   7.000   3.540   2.484
 1113SOL    HW2 4239   6.861   3.530   2.400
 1114SOL     OW 4240   4.377   0.893   6.603
 1114SOL    HW1 4241   4.467   0.927   6.630
 1114SOL    HW2 4242   4.306   0.948   6.648
 1115SOL     OW 4243   4.227   2.970   0.016
 1115SOL    HW1 4244   4.319   2.960   0.054
 1115SOL    HW2 4245   4.177   3.040   0.067
 1116SOL     OW 4246   5.546   5.664   5.048
 1116SOL    HW1 4247   5.520   5.734   4.982
 1116SOL    HW2 4248   5.523   5.573   5.012
 1117SOL     OW 4249   1.942   3.081   1.581
 1117SOL    HW1 4250   1.925   3.013   1.509
 1117SOL    HW2 4251   1.906   3.046   1.668
 1118SOL     OW 4252   2.271   4.333   1.590
 1118SOL    HW1 4253   2.238   4.417   1.633
 1118SOL    HW2 4254   2.195   4.268   1.581
 1119SOL     OW 4255   4.167   4.095   1.516
 1119SOL    HW1 4256   4.098   4.114   1.446
 1119SOL    HW2 4257   4.181   4.177   1.572
 1120SOL     OW 4258   5.220   6.477   4.965
 1120SOL    HW1 4259   5.180   6.569   4.962
 1120SOL    HW2 4260   5.147   6.409   4.954
 1121SOL     OW 4261   5.184   4.122   2.012
 1121SOL    HW1 4262   5.240   4.053   1.967
 1121SOL    HW2 4263   5.167   4.197   1.948
 1122SOL     OW 4264   4.952   3.608   5.894
 1122SOL    HW1 4265   4.871   3.662   5.872
 1122SOL    HW2 4266   5.034   3.661   5.873
 1123SOL     OW 4267   5.460   1.663   2.760
 1123SOL    HW1 4268   5.474   1.716   2.676
 1123SOL    HW2 4269   5.378   1.607   2.751
 1124SOL     OW 4270   5.912   4.388   5.329
 1124SOL    HW1 4271   5.889   4.367   5.234
 1124SOL    HW2 4272   5.983   4.325   5.360
 1125SOL     OW 4273   2.841   1.879   4.666
 1125SOL    HW1 4274   2.785   1.886   4.749
 1125SOL    HW2 4275   2.935   1.906   4.687
 1126SOL     OW 4276   5.665   6.630   0.700
 1126SOL    HW1 4277   5.763   6.639   0.715
 1126SOL    HW2 4278   5.647   6.629   0.601
 1127SOL     OW 4279   4.693   5.621   5.200
 1127SOL    HW1 4280   4.787   5.588   5.198
 1127SOL    HW2 4281   4.633   5.554   5.156
 1128SOL     OW 4282   5.223   2.217   5.267
 1128SOL    HW1 4283   5.266   2.248   5.182
 1128SOL    HW2 4284   5.161   2.287   5.301
 1129SOL     OW 4285   3.635   0.290   6.679
 1129SOL    HW1 4286   3.714   0.316   6.623
 1129SOL    HW2 4287   3.659   0.210   6.734
 1130SOL     OW 4288   1.685   4.295   1.303
 1130SOL    HW1 4289   1.650   4.384   1.275
 1130SOL    HW2 4290   1.610   4.237   1.335
 1131SOL     OW 4291   0.522   6.154   5.849
 1131SOL    HW1 4292   0.490   6.093   5.777
 1131SOL    HW2 4293   0.533   6.103   5.935
 1132SOL     OW 4294   5.037   0.358   0.089
 1132SOL    HW1 4295   5.127   0.400   0.073
 1132SOL    HW2 4296   5.001   0.390   0.177
 1133SOL     OW 4297   0.363   1.093   0.732
 1133SOL    HW1 4298   0.378   1.167   0.798
 1133SOL    HW2 4299   0.265   1.081   0.717
 1134SOL     OW 4300   5.084   1.943   0.984
 1134SOL    HW1 4301   5.000   1.993   1.006
 1134SOL    HW2 4302   5.102   1.877   1.057
 1135SOL     OW 4303   2.777   1.441   2.379
 1135SOL    HW1 4304   2.693   1.387   2.386
 1135SOL    HW2 4305   2.838   1.400   2.311
 1136SOL     OW 4306   3.649   5.060   4.830
 1136SOL    HW1 4307   3.630   5.152   4.796
 1136SOL    HW2 4308   3.571   5.027   4.883
 1137SOL     OW 4309   1.054   2.342   6.786
 1137SOL    HW1 4310   1.052   2.242   6.787
 1137SOL    HW2 4311   1.054   2.375   6.691
 1138SOL     OW 4312   0.606   0.928   6.355
 1138SOL    HW1 4313   0.686   0.872   6.333
 1138SOL    HW2 4314   0.636   1.020   6.380
 1139SOL     OW 4315   2.896   5.923   1.426
 1139SOL    HW1 4316   2.879   5.903   1.523
 1139SOL    HW2 4317   2.880   5.841   1.372
 1140SOL     OW 4318   3.481   1.023   1.951
 1140SOL    HW1 4319   3.579   1.009   1.940
 1140SOL    HW2 4320   3.433   0.936   1.941
 1141SOL     OW 4321   6.365   6.263   6.343
 1141SOL    HW1 4322   6.419   6.325   6.286
 1141SOL    HW2 4323   6.376   6.288   6.439
 1142SOL     OW 4324   4.241   0.868   4.662
 1142SOL    HW1 4325   4.153   0.881   4.709
 1142SOL    HW2 4326   4.228   0.881   4.563
 1143SOL     OW 4327   2.306   2.834   2.597
 1143SOL    HW1 4328   2.375   2.763   2.611
 1143SOL    HW2 4329   2.275   2.832   2.502
 1144SOL     OW 4330   6.208   4.748   5.346
 1144SOL    HW1 4331   6.279   4.809   5.313
 1144SOL    HW2 4332   6.119   4.778   5.313
 1145SOL     OW 4333   0.178   4.782   2.745
 1145SOL    HW1 4334   0.214   4.842   2.673
 1145SOL    HW2 4335   0.233   4.793   2.828
 1146SOL     OW 4336   5.077   0.827   1.282
 1146SOL    HW1 4337   5.135   0.902   1.248
 1146SOL    HW2 4338   5.079   0.751   1.217
 1147SOL     OW 4339   1.709   4.758   0.744
 1147SOL    HW1 4340   1.796   4.731   0.703
 1147SOL    HW2 4341   1.654   4.807   0.677
 1148SOL     OW 4342   4.206   6.816   0.049
 1148SOL    HW1 4343   4.194   6.722   0.081
 1148SOL    HW2 4344   4.302   6.831   0.026
 1149SOL     OW 4345   5.849   3.760   3.237
 1149SOL    HW1 4346   5.777   3.820   3.273
 1149SOL    HW2 4347   5.853   3.676   3.290
 1150SOL     OW 4348   1.853   4.381   0.831
 1150SOL    HW1 4349   1.832   4.323   0.909
 1150SOL    HW2 4350   1.879   4.325   0.752
 1151SOL     OW 4351   4.591   5.462   0.053
 1151SOL    HW1 4352   4.590   5.368   0.088
 1151SOL    HW2 4353   4.520   5.516   0.098
 1152SOL     OW 4354   0.827   5.923   5.813
 1152SOL    HW1 4355   0.799   6.019   5.807
 1152SOL    HW2 4356   0.840   5.899   5.909
 1153SOL     OW 4357   2.045   0.128   1.842
 1153SOL    HW1 4358   2.069   0.138   1.939
 1153SOL    HW2 4359   2.047   0.218   1.798
 1154SOL     OW 4360   0.703   4.191   1.655
 1154SOL    HW1 4361   0.718   4.283   1.691
 1154SOL    HW2 4362   0.727   4.123   1.724
 1155SOL     OW 4363   2.870   4.764   0.116
 1155SOL    HW1 4364   2.913   4.745   0.027
 1155SOL    HW2 4365   2.934   4.741   0.189
 1156SOL     OW 4366   1.828   0.763   4.540
 1156SOL    HW1 4367   1.770   0.686   4.513
 1156SOL    HW2 4368   1.771   0.841   4.564
 1157SOL     OW 4369   6.320   0.907   4.902
 1157SOL    HW1 4370   6.307   0.971   4.978
 1157SOL    HW2 4371   6.415   0.913   4.870
 1158SOL     OW 4372   0.412   5.304   5.782
 1158SOL    HW1 4373   0.485   5.241   5.754
 1158SOL    HW2 4374   0.351   5.258   5.845
 1159SOL     OW 4375   5.340   0.266   3.018
 1159SOL    HW1 4376   5.301   0.174   3.026
 1159SOL    HW2 4377   5.378   0.293   3.107
 1160SOL     OW 4378   4.025   3.808   1.578
 1160SOL    HW1 4379   3.929   3.830   1.594
 1160SOL    HW2 4380   4.052   3.839   1.487
 1161SOL     OW 4381   5.016   0.377   6.158
 1161SOL    HW1 4382   4.998   0.280   6.171
 1161SOL    HW2 4383   5.113   0.391   6.138
 1162SOL     OW 4384   3.502   2.379   0.540
 1162SOL    HW1 4385   3.503   2.423   0.630
 1162SOL    HW2 4386   3.571   2.307   0.538
 1163SOL     OW 4387   5.881   3.647   1.787
 1163SOL    HW1 4388   5.856   3.599   1.703
 1163SOL    HW2 4389   5.882   3.581   1.863
 1164SOL     OW 4390   5.254   2.590   4.275
 1164SOL    HW1 4391   5.330   2.527   4.259
 1164SOL    HW2 4392   5.171   2.553   4.232
 1165SOL     OW 4393   1.858   4.480   4.214
 1165SOL    HW1 4394   1.941   4.476   4.270
 1165SOL    HW2 4395   1.817   4.571   4.222
 1166SOL     OW 4396   3.929   1.036   0.261
 1166SOL    HW1 4397   3.983   0.958   0.228
 1166SOL    HW2 4398   3.976   1.121   0.237
 1167SOL     OW 4399   3.374   6.949   6.449
 1167SOL    HW1 4400   3.380   6.936   6.548
 1167SOL    HW2 4401   3.358   6.861   6.404
 1168SOL     OW 4402   6.832   1.121   3.006
 1168SOL    HW1 4403   6.782   1.082   3.084
 1168SOL    HW2 4404   6.927   1.090   3.009
 1169SOL     OW 4405   6.057   3.214   6.813
 1169SOL    HW1 4406   5.969   3.198   6.859
 1169SOL    HW2 4407   6.117   3.135   6.830
 1170SOL     OW 4408   4.924   0.825   1.990
 1170SOL    HW1 4409   4.989   0.897   2.010
 1170SOL    HW2 4410   4.888   0.787   2.076
 1171SOL     OW 4411   2.426   6.323   6.713
 1171SOL    HW1 4412   2.392   6.307   6.806
 1171SOL    HW2 4413   2.421   6.420   6.691
 1172SOL     OW 4414   3.575   4.039   2.865
 1172SOL    HW1 4415   3.481   4.049   2.834
 1172SOL    HW2 4416   3.582   4.069   2.960
 1173SOL     OW 4417   3.201   6.995   5.639
 1173SOL    HW1 4418   3.275   0.036   5.665
 1173SOL    HW2 4419   3.225   6.948   5.554
 1174SOL     OW 4420   3.311   4.174   0.932
 1174SOL    HW1 4421   3.241   4.104   0.919
 1174SOL    HW2 4422   3.349   4.200   0.843
 1175SOL     OW 4423   4.744   3.473   6.360
 1175SOL    HW1 4424   4.729   3.377   6.336
 1175SOL    HW2 4425   4.841   3.496   6.347
 1176SOL     OW 4426   5.811   4.549   0.456
 1176SOL    HW1 4427   5.903   4.554   0.495
 1176SOL    HW2 4428   5.756   4.625   0.490
 1177SOL     OW 4429   0.167   1.338   5.373
 1177SOL    HW1 4430   0.192   1.372   5.464
 1177SOL    HW2 4431   0.246   1.347   5.312
 1178SOL     OW 4432   3.791   2.868   1.283
 1178SOL    HW1 4433   3.787   2.927   1.364
 1178SOL    HW2 4434   3.854   2.793   1.300
 1179SOL     OW 4435   2.965   5.122   0.033
 1179SOL    HW1 4436   2.956   5.179   6.972
 1179SOL    HW2 4437   2.965   5.180   0.115
 1180SOL     OW 4438   2.938   6.827   3.771
 1180SOL    HW1 4439   3.005   6.765   3.812
 1180SOL    HW2 4440   2.847   6.803   3.804
 1181SOL     OW 4441   6.978   3.002   4.738
 1181SOL    HW1 4442   6.933   2.917   4.711
 1181SOL    HW2 4443   0.057   2.991   4.729
 1182SOL     OW 4444   1.747   5.536   3.332
 1182SOL    HW1 4445   1.748   5.604   3.258
 1182SOL    HW2 4446   1.705   5.451   3.299
 1183SOL     OW 4447   3.425   6.003   1.677
 1183SOL    HW1 4448   3.333   5.972   1.653
 1183SOL    HW2 4449   3.431   6.016   1.776
 1184SOL     OW 4450   4.165   1.045   5.475
 1184SOL    HW1 4451   4.076   1.002   5.488
 1184SOL    HW2 4452   4.184   1.053   5.377
 1185SOL     OW 4453   1.749   0.488   0.483
 1185SOL    HW1 4454   1.697   0.567   0.449
 1185SOL    HW2 4455   1.806   0.452   0.409
 1186SOL     OW 4456   6.182   6.754   6.243
 1186SOL    HW1 4457   6.260   6.773   6.303
 1186SOL    HW2 4458   6.207   6.683   6.178
 1187SOL     OW 4459   4.960   5.747   5.354
 1187SOL    HW1 4460   4.943   5.800   5.437
 1187SOL    HW2 4461   4.981   5.809   5.279
 1188SOL     OW 4462   3.256   6.128   6.603
 1188SOL    HW1 4463   3.164   6.149   6.570
 1188SOL    HW2 4464   3.255   6.124   6.703
 1189SOL     OW 4465   5.358   0.493   1.989
 1189SOL    HW1 4466   5.428   0.450   1.931
 1189SOL    HW2 4467   5.403   0.547   2.061
 1190SOL     OW 4468   4.061   4.886   4.274
 1190SOL    HW1 4469   4.015   4.901   4.362
 1190SOL    HW2 4470   4.071   4.973   4.227
 1191SOL     OW 4471   4.386   6.292   5.168
 1191SOL    HW1 4472   4.448   6.291   5.246
 1191SOL    HW2 4473   4.420   6.354   5.098
 1192SOL     OW 4474   5.251   5.244   2.764
 1192SOL    HW1 4475   5.183   5.261   2.835
 1192SOL    HW2 4476   5.329   5.196   2.804
 1193SOL     OW 4477   0.176   0.141   4.892
 1193SOL    HW1 4478   0.102   0.156   4.826
 1193SOL    HW2 4479   0.264   0.167   4.851
 1194SOL     OW 4480   0.066   1.601   1.045
 1194SOL    HW1 4481   0.086   1.696   1.022
 1194SOL    HW2 4482   0.023   1.597   1.135
 1195SOL     OW 4483   6.170   3.151   1.704
 1195SOL    HW1 4484   6.103   3.083   1.734
 1195SOL    HW2 4485   6.255   3.105   1.678
 1196SOL     OW 4486   0.336   4.223   1.783
 1196SOL    HW1 4487   0.372   4.289   1.717
 1196SOL    HW2 4488   0.359   4.131   1.754
 1197SOL     OW 4489   4.020   6.474   4.690
 1197SOL    HW1 4490   4.018   6.561   4.740
 1197SOL    HW2 4491   4.113   6.456   4.659
 1198SOL     OW 4492   1.998   3.000   2.802
 1198SOL    HW1 4493   1.932   3.070   2.775
 1198SOL    HW2 4494   1.951   2.929   2.856
 1199SOL     OW 4495   3.473   2.869   3.445
 1199SOL    HW1 4496   3.511   2.856   3.353
 1199SOL    HW2 4497   3.547   2.892   3.508
 1200SOL     OW 4498   3.621   4.195   4.612
 1200SOL    HW1 4499   3.654   4.268   4.673
 1200SOL    HW2 4500   3.685   4.118   4.615
 1201SOL     OW 4501   0.249   1.555   4.107
 1201SOL    HW1 4502   0.237   1.640   4.157
 1201SOL    HW2 4503   0.258   1.575   4.009
 1202SOL     OW 4504   5.973   1.295   6.086
 1202SOL    HW1 4505   5.925   1.373   6.046
 1202SOL    HW2 4506   5.906   1.232   6.126
 1203SOL     OW 4507   6.364   6.460   1.423
 1203SOL    HW1 4508   6.281   6.498   1.464
 1203SOL    HW2 4509   6.423   6.535   1.391
 1204SOL     OW 4510   4.271   1.681   1.333
 1204SOL    HW1 4511   4.360   1.644   1.357
 1204SOL    HW2 4512   4.243   1.646   1.244
 1205SOL     OW 4513   4.311   3.306   6.188
 1205SOL    HW1 4514   4.358   3.240   6.130
 1205SOL    HW2 4515   4.279   3.382   6.132
 1206SOL     OW 4516   1.115   2.389   4.665
 1206SOL    HW1 4517   1.195   2.379   4.606
 1206SOL    HW2 4518   1.106   2.309   4.723
 1207SOL     OW 4519   0.548   6.824   0.147
 1207SOL    HW1 4520   0.590   6.875   0.072
 1207SOL    HW2 4521   0.463   6.869   0.173
 1208SOL     OW 4522   3.161   4.055   2.553
 1208SOL    HW1 4523   3.143   4.121   2.479
 1208SOL    HW2 4524   3.173   3.964   2.515
 1209SOL     OW 4525   5.494   6.618   4.968
 1209SOL    HW1 4526   5.545   6.548   4.919
 1209SOL    HW2 4527   5.396   6.600   4.960
 1210SOL     OW 4528   4.547   6.692   3.642
 1210SOL    HW1 4529   4.453   6.714   3.616
 1210SOL    HW2 4530   4.568   6.735   3.729
 1211SOL     OW 4531   1.607   3.144   3.390
 1211SOL    HW1 4532   1.682   3.140   3.324
 1211SOL    HW2 4533   1.608   3.231   3.438
 1212SOL     OW 4534   0.043   1.303   5.134
 1212SOL    HW1 4535   0.064   1.329   5.228
 1212SOL    HW2 4536   0.104   1.229   5.105
 1213SOL     OW 4537   5.521   2.972   4.424
 1213SOL    HW1 4538   5.456   2.924   4.364
 1213SOL    HW2 4539   5.597   2.912   4.445
 1214SOL     OW 4540   1.218   2.802   5.424
 1214SOL    HW1 4541   1.189   2.892   5.454
 1214SOL    HW2 4542   1.234   2.803   5.325
 1215SOL     OW 4543   1.827   5.522   2.312
 1215SOL    HW1 4544   1.844   5.446   2.248
 1215SOL    HW2 4545   1.782   5.486   2.394
 1216SOL     OW 4546   7.017   0.462   0.670
 1216SOL    HW1 4547   0.027   0.525   0.598
 1216SOL    HW2 4548   6.920   0.478   0.690
 1217SOL     OW 4549   3.107   5.526   1.774
 1217SOL    HW1 4550   3.193   5.509   1.727
 1217SOL    HW2 4551   3.061   5.439   1.792
 1218SOL     OW 4552   0.511   3.554   5.043
 1218SOL    HW1 4553   0.524   3.511   5.132
 1218SOL    HW2 4554   0.599   3.561   4.996
 1219SOL     OW 4555   4.668   5.407   1.812
 1219SOL    HW1 4556   4.742   5.344   1.787
 1219SOL    HW2 4557   4.702   5.474   1.877
 1220SOL     OW 4558   5.933   4.069   3.272
 1220SOL    HW1 4559   5.900   4.095   3.181
 1220SOL    HW2 4560   5.904   3.975   3.292
 1221SOL     OW 4561   6.115   3.939   5.953
 1221SOL    HW1 4562   6.054   3.982   6.019
 1221SOL    HW2 4563   6.189   4.001   5.930
 1222SOL     OW 4564   0.067   0.671   0.052
 1222SOL    HW1 4565   0.044   0.735   7.000
 1222SOL    HW2 4566   7.006   0.655   0.108
 1223SOL     OW 4567   4.406   1.165   0.626
 1223SOL    HW1 4568   4.343   1.095   0.593
 1223SOL    HW2 4569   4.372   1.202   0.713
 1224SOL     OW 4570   3.207   5.518   6.877
 1224SOL    HW1 4571   3.200   5.500   6.779
 1224SOL    HW2 4572   3.257   5.444   6.922
 1225SOL     OW 4573   3.884   2.506   1.139
 1225SOL    HW1 4574   3.894   2.414   1.103
 1225SOL    HW2 4575   3.788   2.522   1.164
 1226SOL     OW 4576   4.883   6.276   0.778
 1226SOL    HW1 4577   4.791   6.237   0.770
 1226SOL    HW2 4578   4.939   6.246   0.700
 1227SOL     OW 4579   5.640   5.166   6.598
 1227SOL    HW1 4580   5.738   5.157   6.613
 1227SOL    HW2 4581   5.590   5.131   6.678
 1228SOL     OW 4582   4.010   2.602   0.711
 1228SOL    HW1 4583   3.919   2.635   0.685
 1228SOL    HW2 4584   4.038   2.645   0.797
 1229SOL     OW 4585   2.245   5.878   1.013
 1229SOL    HW1 4586   2.159   5.834   1.041
 1229SOL    HW2 4587   2.297   5.904   1.094
 1230SOL     OW 4588   5.316   5.725   2.337
 1230SOL    HW1 4589   5.302   5.821   2.314
 1230SOL    HW2 4590   5.259   5.701   2.416
 1231SOL     OW 4591   1.380   2.028   6.124
 1231SOL    HW1 4592   1.313   2.074   6.183
 1231SOL    HW2 4593   1.437   1.968   6.180
 1232SOL     OW 4594   5.480   1.134   5.610
 1232SOL    HW1 4595   5.570   1.106   5.578
 1232SOL    HW2 4596   5.489   1.209   5.675
 1233SOL     OW 4597   1.006   5.812   3.634
 1233SOL    HW1 4598   0.921   5.777   3.674
 1233SOL    HW2 4599   1.018   5.776   3.542
 1234SOL     OW 4600   6.300   2.716   5.607
 1234SOL    HW1 4601   6.375   2.650   5.604
 1234SOL    HW2 4602   6.246   2.701   5.690
 1235SOL     OW 4603   6.352   4.204   1.085
 1235SOL    HW1 4604   6.389   4.220   0.993
 1235SOL    HW2 4605   6.412   4.248   1.152
 1236SOL     OW 4606   4.177   1.481   1.950
 1236SOL    HW1 4607   4.199   1.541   2.026
 1236SOL    HW2 4608   4.260   1.437   1.917
 1237SOL     OW 4609   1.613   5.772   4.654
 1237SOL    HW1 4610   1.577   5.839   4.590
 1237SOL    HW2 4611   1.544   5.750   4.723
 1238SOL     OW 4612   0.675   0.248   4.827
 1238SOL    HW1 4613   0.726   0.300   4.759
 1238SOL    HW2 4614   0.700   0.278   4.919
 1239SOL     OW 4615   6.606   6.575   5.737
 1239SOL    HW1 4616   6.678   6.506   5.735
 1239SOL    HW2 4617   6.634   6.655   5.683
 1240SOL     OW 4618   6.107   5.427   2.118
 1240SOL    HW1 4619   6.194   5.396   2.078
 1240SOL    HW2 4620   6.112   5.420   2.217
 1241SOL     OW 4621   6.561   4.748   5.217
 1241SOL    HW1 4622   6.656   4.772   5.239
 1241SOL    HW2 4623   6.551   4.649   5.217
 1242SOL     OW 4624   2.024   3.305   0.577
 1242SOL    HW1 4625   2.015   3.338   0.671
 1242SOL    HW2 4626   2.120   3.306   0.550
 1243SOL     OW 4627   0.035   1.245   4.131
 1243SOL    HW1 4628   7.014   1.234   4.222
 1243SOL    HW2 4629   0.019   1.162   4.077
 1244SOL     OW 4630   5.272   6.709   5.394
 1244SOL    HW1 4631   5.226   6.638   5.447
 1244SOL    HW2 4632   5.205   6.773   5.357
 1245SOL     OW 4633   5.778   5.240   0.518
 1245SOL    HW1 4634   5.794   5.159   0.461
 1245SOL    HW2 4635   5.789   5.215   0.614
 1246SOL     OW 4636   3.444   1.101   2.217
 1246SOL    HW1 4637   3.352   1.123   2.250
 1246SOL    HW2 4638   3.444   1.100   2.117
 1247SOL     OW 4639   5.619   6.795   5.119
 1247SOL    HW1 4640   5.535   6.842   5.149
 1247SOL    HW2 4641   5.595   6.718   5.061
 1248SOL     OW 4642   1.313   6.617   3.530
 1248SOL    HW1 4643   1.270   6.690   3.477
 1248SOL    HW2 4644   1.255   6.535   3.527
 1249SOL     OW 4645   0.449   3.482   1.779
 1249SOL    HW1 4646   0.465   3.482   1.877
 1249SOL    HW2 4647   0.525   3.526   1.732
 1250SOL     OW 4648   6.234   4.074   3.950
 1250SOL    HW1 4649   6.164   4.146   3.944
 1250SOL    HW2 4650   6.203   3.994   3.900
 1251SOL     OW 4651   2.707   0.793   2.727
 1251SOL    HW1 4652   2.792   0.810   2.778
 1251SOL    HW2 4653   2.703   0.854   2.648
 1252SOL     OW 4654   4.006   4.739   6.825
 1252SOL    HW1 4655   4.029   4.651   6.782
 1252SOL    HW2 4656   4.044   4.814   6.771
 1253SOL     OW 4657   2.426   0.303   1.678
 1253SOL    HW1 4658   2.343   0.358   1.684
 1253SOL    HW2 4659   2.497   0.344   1.735
 1254SOL     OW 4660   6.821   2.869   3.002
 1254SOL    HW1 4661   6.728   2.904   2.986
 1254SOL    HW2 4662   6.885   2.917   2.943
 1255SOL     OW 4663   5.854   2.647   5.986
 1255SOL    HW1 4664   5.775   2.674   5.932
 1255SOL    HW2 4665   5.841   2.676   6.081
 1256SOL     OW 4666   0.428   6.456   3.985
 1256SOL    HW1 4667   0.465   6.546   4.007
 1256SOL    HW2 4668   0.328   6.460   3.985
 1257SOL     OW 4669   0.239   5.073   4.267
 1257SOL    HW1 4670   0.191   4.994   4.304
 1257SOL    HW2 4671   0.176   5.125   4.208
 1258SOL     OW 4672   2.116   5.179   2.669
 1258SOL    HW1 4673   2.109   5.083   2.642
 1258SOL    HW2 4674   2.066   5.193   2.755
 1259SOL     OW 4675   3.554   6.296   5.281
 1259SOL    HW1 4676   3.588   6.234   5.352
 1259SOL    HW2 4677   3.522   6.243   5.203
 1260SOL     OW 4678   2.981   1.555   1.520
 1260SOL    HW1 4679   2.926   1.581   1.441
 1260SOL    HW2 4680   3.041   1.479   1.496
 1261SOL     OW 4681   0.312   4.402   0.252
 1261SOL    HW1 4682   0.410   4.400   0.231
 1261SOL    HW2 4683   0.261   4.425   0.170
 1262SOL     OW 4684   5.077   5.978   1.642
 1262SOL    HW1 4685   5.034   6.003   1.556
 1262SOL    HW2 4686   5.010   5.980   1.715
 1263SOL     OW 4687   6.308   1.107   0.934
 1263SOL    HW1 4688   6.278   1.137   1.024
 1263SOL    HW2 4689   6.400   1.067   0.941
 1264SOL     OW 4690   0.639   3.585   1.557
 1264SOL    HW1 4691   0.675   3.492   1.554
 1264SOL    HW2 4692   0.675   3.632   1.637
 1265SOL     OW 4693   6.541   5.257   3.791
 1265SOL    HW1 4694   6.579   5.169   3.763
 1265SOL    HW2 4695   6.500   5.302   3.712
 1266SOL     OW 4696   1.897   1.119   3.908
 1266SOL    HW1 4697   1.833   1.151   3.979
 1266SOL    HW2 4698   1.912   1.193   3.842
 1267SOL     OW 4699   5.534   6.435   0.858
 1267SOL    HW1 4700   5.514   6.466   0.951
 1267SOL    HW2 4701   5.571   6.512   0.805
 1268SOL     OW 4702   4.781   2.235   0.291
 1268SOL    HW1 4703   4.830   2.168   0.347
 1268SOL    HW2 4704   4.760   2.315   0.348
 1269SOL     OW 4705   6.468   5.937   5.612
 1269SOL    HW1 4706   6.481   6.017   5.671
 1269SOL    HW2 4707   6.450   5.967   5.519
 1270SOL     OW 4708   2.187   3.218   4.589
 1270SOL    HW1 4709   2.278   3.203   4.551
 1270SOL    HW2 4710   2.153   3.133   4.629
 1271SOL     OW 4711   3.465   1.817   3.720
 1271SOL    HW1 4712   3.547   1.771   3.755
 1271SOL    HW2 4713   3.407   1.844   3.798
 1272SOL     OW 4714   6.122   5.580   0.652
 1272SOL    HW1 4715   6.176   5.587   0.736
 1272SOL    HW2 4716   6.156   5.502   0.598
 1273SOL     OW 4717   1.327   4.562   0.368
 1273SOL    HW1 4718   1.399   4.553   0.437
 1273SOL    HW2 4719   1.289   4.472   0.348
 1274SOL     OW 4720   6.140   3.009   1.462
 1274SOL    HW1 4721   6.166   3.077   1.394
 1274SOL    HW2 4722   6.137   3.053   1.552
 1275SOL     OW 4723   3.815   0.164   3.946
 1275SOL    HW1 4724   3.853   0.124   4.029
 1275SOL    HW2 4725   3.868   0.135   3.867
 1276SOL     OW 4726   0.280   0.931   4.309
 1276SOL    HW1 4727   0.291   0.953   4.212
 1276SOL    HW2 4728   0.187   0.899   4.326
 1277SOL     OW 4729   1.168   0.031   5.443
 1277SOL    HW1 4730   1.217   0.074   5.519
 1277SOL    HW2 4731   1.229   6.988   5.396
 1278SOL     OW 4732   1.267   0.813   4.870
 1278SOL    HW1 4733   1.366   0.811   4.856
 1278SOL    HW2 4734   1.242   0.748   4.941
 1279SOL     OW 4735   3.512   5.209   6.823
 1279SOL    HW1 4736   3.595   5.263   6.834
 1279SOL    HW2 4737   3.534   5.112   6.832
 1280SOL     OW 4738   3.564   5.982   4.100
 1280SOL    HW1 4739   3.628   5.953   4.029
 1280SOL    HW2 4740   3.505   6.054   4.065
 1281SOL     OW 4741   1.057   5.679   2.735
 1281SOL    HW1 4742   1.078   5.724   2.648
 1281SOL    HW2 4743   0.984   5.729   2.781
 1282SOL     OW 4744   0.089   0.877   6.242
 1282SOL    HW1 4745   0.167   0.935   6.217
 1282SOL    HW2 4746   0.091   0.793   6.188
 1283SOL     OW 4747   5.485   3.207   5.115
 1283SOL    HW1 4748   5.529   3.214   5.204
 1283SOL    HW2 4749   5.452   3.113   5.102
 1284SOL     OW 4750   4.377   2.462   1.889
 1284SOL    HW1 4751   4.281   2.447   1.910
 1284SOL    HW2 4752   4.405   2.398   1.817
 1285SOL     OW 4753   5.198   3.302   5.893
 1285SOL    HW1 4754   5.233   3.381   5.842
 1285SOL    HW2 4755   5.240   3.299   5.984
 1286SOL     OW 4756   5.129   4.042   2.786
 1286SOL    HW1 4757   5.129   3.967   2.719
 1286SOL    HW2 4758   5.197   4.023   2.857
 1287SOL     OW 4759   4.583   3.911   5.484
 1287SOL    HW1 4760   4.633   3.838   5.437
 1287SOL    HW2 4761   4.512   3.947   5.425
 1288SOL     OW 4762   6.129   3.303   0.411
 1288SOL    HW1 4763   6.179   3.237   0.355
 1288SOL    HW2 4764   6.065   3.254   0.470
 1289SOL     OW 4765   0.234   6.005   1.139
 1289SOL    HW1 4766   0.158   5.962   1.187
 1289SOL    HW2 4767   0.222   6.104   1.139
 1290SOL     OW 4768   1.086   0.161   6.937
 1290SOL    HW1 4769   1.133   0.090   6.886
 1290SOL    HW2 4770   1.124   0.167   0.009
 1291SOL     OW 4771   0.087   3.049   5.581
 1291SOL    HW1 4772   0.059   2.955   5.599
 1291SOL    HW2 4773   0.053   3.109   5.654
 1292SOL     OW 4774   6.108   5.740   2.693
 1292SOL    HW1 4775   6.156   5.761   2.779
 1292SOL    HW2 4776   6.152   5.789   2.618
 1293SOL     OW 4777   1.153   1.289   6.489
 1293SOL    HW1 4778   1.182   1.286   6.393
 1293SOL    HW2 4779   1.187   1.209   6.537
 1294SOL     OW 4780   1.441   3.533   0.295
 1294SOL    HW1 4781   1.343   3.544   0.281
 1294SOL    HW2 4782   1.461   3.539   0.393
 1295SOL     OW 4783   0.028   3.914   2.575
 1295SOL    HW1 4784   7.016   3.909   2.669
 1295SOL    HW2 4785   6.988   3.972   2.522
 1296SOL     OW 4786   3.574   0.119   6.087
 1296SOL    HW1 4787   3.534   0.192   6.142
 1296SOL    HW2 4788   3.673   0.132   6.079
 1297SOL     OW 4789   5.961   0.652   6.856
 1297SOL    HW1 4790   6.039   0.589   6.859
 1297SOL    HW2 4791   5.883   0.605   6.813
 1298SOL     OW 4792   6.704   4.476   3.377
 1298SOL    HW1 4793   6.656   4.563   3.362
 1298SOL    HW2 4794   6.791   4.477   3.328
 1299SOL     OW 4795   0.361   4.271   2.984
 1299SOL    HW1 4796   0.403   4.185   3.012
 1299SOL    HW2 4797   0.308   4.309   3.060
 1300SOL     OW 4798   3.361   4.115   1.948
 1300SOL    HW1 4799   3.330   4.080   2.036
 1300SOL    HW2 4800   3.454   4.149   1.956
 1301SOL     OW 4801   0.211   5.593   1.875
 1301SOL    HW1 4802   0.251   5.597   1.967
 1301SOL    HW2 4803   0.218   5.499   1.841
 1302SOL     OW 4804   3.258   0.089   5.256
 1302SOL    HW1 4805   3.160   0.083   5.237
 1302SOL    HW2 4806   3.310   0.060   5.176
 1303SOL     OW 4807   4.505   1.556   1.422
 1303SOL    HW1 4808   4.578   1.488   1.424
 1303SOL    HW2 4809   4.491   1.592   1.514
 1304SOL     OW 4810   0.983   1.301   6.717
 1304SOL    HW1 4811   1.013   1.379   6.772
 1304SOL    HW2 4812   1.019   1.310   6.624
 1305SOL     OW 4813   5.016   3.672   7.014
 1305SOL    HW1 4814   5.013   3.576   0.019
 1305SOL    HW2 4815   5.060   3.725   0.067
 1306SOL     OW 4816   0.806   4.094   5.688
 1306SOL    HW1 4817   0.717   4.050   5.681
 1306SOL    HW2 4818   0.871   4.048   5.627
 1307SOL     OW 4819   1.710   2.963   5.012
 1307SOL    HW1 4820   1.809   2.963   5.003
 1307SOL    HW2 4821   1.671   3.032   4.951
 1308SOL     OW 4822   4.278   5.338   4.786
 1308SOL    HW1 4823   4.223   5.270   4.835
 1308SOL    HW2 4824   4.346   5.291   4.730
 1309SOL     OW 4825   5.254   3.059   5.786
 1309SOL    HW1 4826   5.249   3.154   5.818
 1309SOL    HW2 4827   5.258   3.058   5.686
 1310SOL     OW 4828   0.304   3.980   4.933
 1310SOL    HW1 4829   0.366   4.044   4.889
 1310SOL    HW2 4830   0.353   3.928   5.003
 1311SOL     OW 4831   6.939   0.415   3.738
 1311SOL    HW1 4832   6.979   0.504   3.715
 1311SOL    HW2 4833   7.007   0.358   3.784
 1312SOL     OW 4834   0.892   0.225   6.400
 1312SOL    HW1 4835   0.890   0.292   6.325
 1312SOL    HW2 4836   0.866   0.271   6.485
 1313SOL     OW 4837   1.687   5.027   4.362
 1313SOL    HW1 4838   1.672   5.030   4.264
 1313SOL    HW2 4839   1.655   5.112   4.404
 1314SOL     OW 4840   3.371   1.421   5.882
 1314SOL    HW1 4841   3.400   1.503   5.832
 1314SOL    HW2 4842   3.307   1.368   5.826
 1315SOL     OW 4843   0.338   0.912   0.378
 1315SOL    HW1 4844   0.399   0.973   0.327
 1315SOL    HW2 4845   0.315   0.832   0.323
 1316SOL     OW 4846   2.825   6.391   4.486
 1316SOL    HW1 4847   2.755   6.388   4.415
 1316SOL    HW2 4848   2.870   6.302   4.492
 1317SOL     OW 4849   1.100   4.025   4.134
 1317SOL    HW1 4850   1.023   3.965   4.155
 1317SOL    HW2 4851   1.086   4.114   4.177
 1318SOL     OW 4852   0.134   1.037   0.527
 1318SOL    HW1 4853   0.129   1.135   0.509
 1318SOL    HW2 4854   0.186   0.992   0.454
 1319SOL     OW 4855   6.868   0.568   0.206
 1319SOL    HW1 4856   6.870   0.497   0.278
 1319SOL    HW2 4857   6.834   0.653   0.245
 1320SOL     OW 4858   5.822   3.936   0.338
 1320SOL    HW1 4859   5.832   4.035   0.347
 1320SOL    HW2 4860   5.864   3.891   0.417
 1321SOL     OW 4861   4.441   2.212   6.216
 1321SOL    HW1 4862   4.456   2.129   6.269
 1321SOL    HW2 4863   4.527   2.244   6.177
 1322SOL     OW 4864   4.297   0.492   3.766
 1322SOL    HW1 4865   4.353   0.547   3.705
 1322SOL    HW2 4866   4.354   0.456   3.840
 1323SOL     OW 4867   5.377   2.099   5.022
 1323SOL    HW1 4868   5.408   2.109   4.928
 1323SOL    HW2 4869   5.447   2.052   5.076
 1324SOL     OW 4870   0.753   2.618   0.593
 1324SOL    HW1 4871   0.758   2.604   0.692
 1324SOL    HW2 4872   0.663   2.590   0.559
 1325SOL     OW 4873   1.683   6.712   2.243
 1325SOL    HW1 4874   1.717   6.765   2.320
 1325SOL    HW2 4875   1.703   6.760   2.158
 1326SOL     OW 4876   4.970   3.041   4.820
 1326SOL    HW1 4877   4.935   3.129   4.788
 1326SOL    HW2 4878   4.902   2.969   4.803
 1327SOL     OW 4879   2.422   4.798   2.207
 1327SOL    HW1 4880   2.515   4.784   2.176
 1327SOL    HW2 4881   2.361   4.810   2.129
 1328SOL     OW 4882   1.409   2.423   0.892
 1328SOL    HW1 4883   1.393   2.464   0.982
 1328SOL    HW2 4884   1.506   2.402   0.883
 1329SOL     OW 4885   0.881   2.157   0.644
 1329SOL    HW1 4886   0.801   2.155   0.585
 1329SOL    HW2 4887   0.920   2.065   0.650
 1330SOL     OW 4888   6.667   1.296   1.611
 1330SOL    HW1 4889   6.586   1.238   1.613
 1330SOL    HW2 4890   6.746   1.245   1.645
 1331SOL     OW 4891   5.078   2.345   3.292
 1331SOL    HW1 4892   4.984   2.381   3.298
 1331SOL    HW2 4893   5.074   2.246   3.281
 1332SOL     OW 4894   3.264   0.269   0.149
 1332SOL    HW1 4895   3.299   0.316   0.230
 1332SOL    HW2 4896   3.316   0.299   0.069
 1333SOL     OW 4897   3.118   3.523   6.267
 1333SOL    HW1 4898   3.191   3.591   6.267
 1333SOL    HW2 4899   3.112   3.481   6.176
 1334SOL     OW 4900   7.010   2.258   4.928
 1334SOL    HW1 4901   7.008   2.355   4.950
 1334SOL    HW2 4902   7.020   2.246   4.829
 1335SOL     OW 4903   2.786   0.692   3.061
 1335SOL    HW1 4904   2.783   0.617   2.995
 1335SOL    HW2 4905   2.813   0.776   3.014
 1336SOL     OW 4906   1.648   1.185   6.507
 1336SOL    HW1 4907   1.715   1.157   6.576
 1336SOL    HW2 4908   1.603   1.269   6.537
 1337SOL     OW 4909   1.362   1.190   4.964
 1337SOL    HW1 4910   1.366   1.288   4.945
 1337SOL    HW2 4911   1.316   1.143   4.889
 1338SOL     OW 4912   5.121   2.468   6.273
 1338SOL    HW1 4913   5.169   2.386   6.303
 1338SOL    HW2 4914   5.090   2.456   6.179
 1339SOL     OW 4915   0.409   0.297   6.952
 1339SOL    HW1 4916   0.365   0.387   6.948
 1339SOL    HW2 4917   0.354   0.231   6.901
 1340SOL     OW 4918   0.474   1.810   1.972
 1340SOL    HW1 4919   0.378   1.809   1.943
 1340SOL    HW2 4920   0.479   1.824   2.071
 1341SOL     OW 4921   4.852   0.949   5.697
 1341SOL    HW1 4922   4.790   1.001   5.638
 1341SOL    HW2 4923   4.803   0.870   5.735
 1342SOL     OW 4924   1.357   4.627   6.122
 1342SOL    HW1 4925   1.424   4.661   6.188
 1342SOL    HW2 4926   1.388   4.539   6.085
 1343SOL     OW 4927   4.223   5.980   2.536
 1343SOL    HW1 4928   4.151   5.910   2.535
 1343SOL    HW2 4929   4.180   6.071   2.533
 1344SOL     OW 4930   6.839   4.366   3.831
 1344SOL    HW1 4931   6.906   4.295   3.853
 1344SOL    HW2 4932   6.804   4.351   3.738
 1345SOL     OW 4933   1.938   1.713   3.431
 1345SOL    HW1 4934   1.910   1.809   3.427
 1345SOL    HW2 4935   2.003   1.694   3.357
 1346SOL     OW 4936   0.978   6.941   3.234
 1346SOL    HW1 4937   1.059   6.946   3.293
 1346SOL    HW2 4938   0.985   6.860   3.176
 1347SOL     OW 4939   6.256   6.439   4.462
 1347SOL    HW1 4940   6.208   6.376   4.401
 1347SOL    HW2 4941   6.189   6.496   4.510
 1348SOL     OW 4942   5.354   5.103   3.317
 1348SOL    HW1 4943   5.268   5.075   3.275
 1348SOL    HW2 4944   5.416   5.138   3.247
 1349SOL     OW 4945   4.906   2.242   6.278
 1349SOL    HW1 4946   4.952   2.190   6.206
 1349SOL    HW2 4947   4.947   2.220   6.366
 1350SOL     OW 4948   4.312   4.038   6.270
 1350SOL    HW1 4949   4.300   4.132   6.301
 1350SOL    HW2 4950   4.243   4.016   6.201
 1351SOL     OW 4951   0.044   2.238   3.120
 1351SOL    HW1 4952   6.984   2.198   3.163
 1351SOL    HW2 4953   0.109   2.268   3.191
 1352SOL     OW 4954   6.908   0.542   3.474
 1352SOL    HW1 4955   6.935   0.592   3.556
 1352SOL    HW2 4956   6.880   0.449   3.498
 1353SOL     OW 4957   6.127   4.398   5.638
 1353SOL    HW1 4958   6.068   4.395   5.719
 1353SOL    HW2 4959   6.107   4.320   5.579
 1354SOL     OW 4960   0.640   1.534   0.347
 1354SOL    HW1 4961   0.571   1.588   0.395
 1354SOL    HW2 4962   0.692   1.480   0.414
 1355SOL     OW 4963   6.077   2.294   5.455
 1355SOL    HW1 4964   6.010   2.363   5.483
 1355SOL    HW2 4965   6.091   2.298   5.356
 1356SOL     OW 4966   3.209   3.156   3.803
 1356SOL    HW1 4967   3.221   3.088   3.732
 1356SOL    HW2 4968   3.291   3.214   3.808
 1357SOL     OW 4969   1.760   4.706   5.536
 1357SOL    HW1 4970   1.706   4.623   5.521
 1357SOL    HW2 4971   1.856   4.681   5.546
 1358SOL     OW 4972   4.178   1.308   5.489
 1358SOL    HW1 4973   4.185   1.209   5.480
 1358SOL    HW2 4974   4.082   1.334   5.500
 1359SOL     OW 4975   0.356   4.617   1.500
 1359SOL    HW1 4976   0.261   4.602   1.473
 1359SOL    HW2 4977   0.366   4.709   1.539
 1360SOL     OW 4978   4.114   3.891   1.886
 1360SOL    HW1 4979   4.043   3.959   1.905
 1360SOL    HW2 4980   4.182   3.930   1.824
 1361SOL     OW 4981   0.421   5.814   5.696
 1361SOL    HW1 4982   0.370   5.731   5.673
 1361SOL    HW2 4983   0.507   5.789   5.740
 1362SOL     OW 4984   3.231   3.887   3.950
 1362SOL    HW1 4985   3.235   3.858   4.045
 1362SOL    HW2 4986   3.141   3.866   3.912
 1363SOL     OW 4987   5.961   5.855   3.486
 1363SOL    HW1 4988   6.009   5.933   3.447
 1363SOL    HW2 4989   5.969   5.776   3.425
 1364SOL     OW 4990   0.089   2.144   0.109
 1364SOL    HW1 4991   0.024   2.097   0.050
 1364SOL    HW2 4992   0.152   2.197   0.054
 1365SOL     OW 4993   0.790   3.096   5.576
 1365SOL    HW1 4994   0.747   3.135   5.495
 1365SOL    HW2 4995   0.735   3.119   5.657
 1366SOL     OW 4996   1.211   4.359   0.089
 1366SOL    HW1 4997   1.303   4.320   0.085
 1366SOL    HW2 4998   1.173   4.366   7.017
 1367SOL     OW 4999   1.427   5.466   2.334
 1367SOL    HW1 5000   1.502   5.474   2.399
 1367SOL    HW2 5001   1.344   5.436   2.382
 1368SOL     OW 5002   6.860   7.003   3.112
 1368SOL    HW1 5003   6.922   0.052   3.074
 1368SOL    HW2 5004   6.766   0.014   3.103
 1369SOL     OW 5005   1.915   0.134   2.391
 1369SOL    HW1 5006   1.951   0.171   2.476
 1369SOL    HW2 5007   1.846   0.064   2.412
 1370SOL     OW 5008   5.303   1.525   4.098
 1370SOL    HW1 5009   5.243   1.501   4.022
 1370SOL    HW2 5010   5.257   1.501   4.184
 1371SOL     OW 5011   5.709   1.358   4.853
 1371SOL    HW1 5012   5.650   1.430   4.817
 1371SOL    HW2 5013   5.687   1.272   4.807
 1372SOL     OW 5014   1.007   1.934   0.729
 1372SOL    HW1 5015   1.028   1.858   0.791
 1372SOL    HW2 5016   1.091   1.984   0.709
 1373SOL     OW 5017   4.500   2.220   0.444
 1373SOL    HW1 5018   4.542   2.137   0.407
 1373SOL    HW2 5019   4.435   2.195   0.516
 1374SOL     OW 5020   4.412   2.336   0.827
 1374SOL    HW1 5021   4.430   2.434   0.817
 1374SOL    HW2 5022   4.492   2.284   0.797
 1375SOL     OW 5023   6.982   6.869   6.131
 1375SOL    HW1 5024   0.017   6.944   6.095
 1375SOL    HW2 5025   6.887   6.881   6.103
 1376SOL     OW 5026   4.308   4.735   4.950
 1376SOL    HW1 5027   4.209   4.731   4.930
 1376SOL    HW2 5028   4.332   4.661   5.012
 1377SOL     OW 5029   1.064   3.814   3.486
 1377SOL    HW1 5030   1.118   3.897   3.493
 1377SOL    HW2 5031   1.122   3.734   3.499
 1378SOL     OW 5032   5.880   2.338   4.869
 1378SOL    HW1 5033   5.783   2.319   4.888
 1378SOL    HW2 5034   5.907   2.292   4.784
 1379SOL     OW 5035   4.542   6.124   3.233
 1379SOL    HW1 5036   4.519   6.117   3.330
 1379SOL    HW2 5037   4.462   6.101   3.178
 1380SOL     OW 5038   0.702   6.404   3.511
 1380SOL    HW1 5039   0.653   6.324   3.476
 1380SOL    HW2 5040   0.726   6.463   3.434
 1381SOL     OW 5041   5.619   1.551   0.175
 1381SOL    HW1 5042   5.605   1.552   0.076
 1381SOL    HW2 5043   5.620   1.644   0.210
 1382SOL     OW 5044   5.647   3.319   1.413
 1382SOL    HW1 5045   5.653   3.283   1.320
 1382SOL    HW2 5046   5.565   3.376   1.422
 1383SOL     OW 5047   1.133   0.476   1.638
 1383SOL    HW1 5048   1.093   0.436   1.556
 1383SOL    HW2 5049   1.070   0.543   1.678
 1384SOL     OW 5050   4.269   0.689   1.931
 1384SOL    HW1 5051   4.257   0.621   1.859
 1384SOL    HW2 5052   4.358   0.735   1.919
 1385SOL     OW 5053   2.771   4.831   3.748
 1385SOL    HW1 5054   2.746   4.865   3.839
 1385SOL    HW2 5055   2.871   4.833   3.738
 1386SOL     OW 5056   3.186   1.199   4.319
 1386SOL    HW1 5057   3.215   1.108   4.288
 1386SOL    HW2 5058   3.090   1.214   4.293
 1387SOL     OW 5059   3.886   5.222   2.600
 1387SOL    HW1 5060   3.905   5.309   2.645
 1387SOL    HW2 5061   3.971   5.186   2.559
 1388SOL     OW 5062   6.704   0.537   2.919
 1388SOL    HW1 5063   6.614   0.551   2.878
 1388SOL    HW2 5064   6.737   0.446   2.895
 1389SOL     OW 5065   6.461   0.986   3.982
 1389SOL    HW1 5066   6.498   1.050   4.049
 1389SOL    HW2 5067   6.488   0.893   4.005
 1390SOL     OW 5068   6.921   3.075   6.589
 1390SOL    HW1 5069   6.871   3.124   6.517
 1390SOL    HW2 5070   6.873   2.990   6.611
 1391SOL     OW 5071   6.116   6.410   4.836
 1391SOL    HW1 5072   6.206   6.368   4.827
 1391SOL    HW2 5073   6.095   6.462   4.754
 1392SOL     OW 5074   5.486   6.440   5.725
 1392SOL    HW1 5075   5.493   6.345   5.696
 1392SOL    HW2 5076   5.517   6.500   5.651
 1393SOL     OW 5077   6.793   4.461   6.111
 1393SOL    HW1 5078   6.878   4.447   6.061
 1393SOL    HW2 5079   6.766   4.377   6.156
 1394SOL     OW 5080   3.755   5.354   5.469
 1394SOL    HW1 5081   3.799   5.298   5.539
 1394SOL    HW2 5082   3.808   5.347   5.384
 1395SOL     OW 5083   2.228   4.874   5.069
 1395SOL    HW1 5084   2.287   4.948   5.036
 1395SOL    HW2 5085   2.180   4.833   4.991
 1396SOL     OW 5086   0.547   1.598   4.872
 1396SOL    HW1 5087   0.508   1.547   4.795
 1396SOL    HW2 5088   0.492   1.680   4.888
 1397SOL     OW 5089   0.631   6.822   4.529
 1397SOL    HW1 5090   0.623   6.727   4.500
 1397SOL    HW2 5091   0.679   6.826   4.616
 1398SOL     OW 5092   2.977   1.118   6.808
 1398SOL    HW1 5093   2.881   1.105   6.784
 1398SOL    HW2 5094   3.027   1.150   6.727
 1399SOL     OW 5095   3.989   5.307   1.150
 1399SOL    HW1 5096   4.066   5.258   1.191
 1399SOL    HW2 5097   3.994   5.300   1.050
 1400SOL     OW 5098   6.962   1.663   3.948
 1400SOL    HW1 5099   6.992   1.694   3.858
 1400SOL    HW2 5100   6.952   1.741   4.009
 1401SOL     OW 5101   6.426   0.512   4.589
 1401SOL    HW1 5102   6.477   0.427   4.598
 1401SOL    HW2 5103   6.387   0.538   4.678
 1402SOL     OW 5104   6.085   3.921   6.427
 1402SOL    HW1 5105   6.181   3.946   6.433
 1402SOL    HW2 5106   6.075   3.839   6.371
 1403SOL     OW 5107   2.322   1.985   1.499
 1403SOL    HW1 5108   2.415   2.021   1.499
 1403SOL    HW2 5109   2.310   1.923   1.577
 1404SOL     OW 5110   6.469   6.937   6.896
 1404SOL    HW1 5111   6.420   6.984   6.822
 1404SOL    HW2 5112   6.447   6.981   6.983
 1405SOL     OW 5113   2.637   3.443   0.672
 1405SOL    HW1 5114   2.643   3.449   0.772
 1405SOL    HW2 5115   2.682   3.359   0.641
 1406SOL     OW 5116   0.737   5.475   0.634
 1406SOL    HW1 5117   0.806   5.486   0.706
 1406SOL    HW2 5118   0.650   5.514   0.664
 1407SOL     OW 5119   0.531   3.672   2.846
 1407SOL    HW1 5120   0.435   3.671   2.821
 1407SOL    HW2 5121   0.565   3.766   2.843
 1408SOL     OW 5122   5.534   0.885   5.761
 1408SOL    HW1 5123   5.490   0.974   5.748
 1408SOL    HW2 5124   5.631   0.898   5.780
 1409SOL     OW 5125   6.852   0.484   4.942
 1409SOL    HW1 5126   6.926   0.416   4.940
 1409SOL    HW2 5127   6.880   0.562   4.996
 1410SOL     OW 5128   1.841   3.881   6.099
 1410SOL    HW1 5129   1.793   3.823   6.033
 1410SOL    HW2 5130   1.851   3.831   6.185
 1411SOL     OW 5131   3.810   6.977   0.593
 1411SOL    HW1 5132   3.814   0.041   0.539
 1411SOL    HW2 5133   3.882   6.915   0.563
 1412SOL     OW 5134   1.260   2.033   0.962
 1412SOL    HW1 5135   1.206   2.056   0.881
 1412SOL    HW2 5136   1.216   1.956   1.010
 1413SOL     OW 5137   1.969   2.107   5.122
 1413SOL    HW1 5138   1.895   2.087   5.186
 1413SOL    HW2 5139   2.052   2.131   5.172
 1414SOL     OW 5140   2.907   1.497   1.772
 1414SOL    HW1 5141   2.868   1.405   1.778
 1414SOL    HW2 5142   2.924   1.520   1.676
 1415SOL     OW 5143   2.057   1.211   4.458
 1415SOL    HW1 5144   1.982   1.199   4.393
 1415SOL    HW2 5145   2.108   1.294   4.436
 1416SOL     OW 5146   4.585   4.961   4.066
 1416SOL    HW1 5147   4.582   4.871   4.022
 1416SOL    HW2 5148   4.656   4.962   4.136
 1417SOL     OW 5149   3.287   2.181   0.542
 1417SOL    HW1 5150   3.200   2.222   0.571
 1417SOL    HW2 5151   3.362   2.242   0.567
 1418SOL     OW 5152   3.288   4.094   3.030
 1418SOL    HW1 5153   3.376   4.120   3.069
 1418SOL    HW2 5154   3.301   4.064   2.936
 1419SOL     OW 5155   2.954   5.451   3.400
 1419SOL    HW1 5156   2.893   5.424   3.326
 1419SOL    HW2 5157   3.037   5.395   3.397
 1420SOL     OW 5158   1.820   6.509   1.857
 1420SOL    HW1 5159   1.750   6.581   1.850
 1420SOL    HW2 5160   1.793   6.430   1.802
 1421SOL     OW 5161   2.336   5.095   3.069
 1421SOL    HW1 5162   2.313   5.022   3.004
 1421SOL    HW2 5163   2.399   5.158   3.025
 1422SOL     OW 5164   1.075   4.108   6.891
 1422SOL    HW1 5165   1.159   4.057   6.912
 1422SOL    HW2 5166   1.033   4.139   6.976
 1423SOL     OW 5167   5.381   6.493   3.997
 1423SOL    HW1 5168   5.295   6.545   3.998
 1423SOL    HW2 5169   5.361   6.396   4.003
 1424SOL     OW 5170   6.795   4.575   6.964
 1424SOL    HW1 5171   6.817   4.666   6.927
 1424SOL    HW2 5172   6.696   4.562   6.963
 1425SOL     OW 5173   1.980   5.641   5.375
 1425SOL    HW1 5174   2.034   5.724   5.388
 1425SOL    HW2 5175   2.022   5.565   5.425
 1426SOL     OW 5176   2.497   3.570   6.700
 1426SOL    HW1 5177   2.581   3.610   6.737
 1426SOL    HW2 5178   2.426   3.640   6.694
 1427SOL     OW 5179   0.015   0.100   3.649
 1427SOL    HW1 5180   0.037   0.151   3.732
 1427SOL    HW2 5181   7.002   0.164   3.579
 1428SOL     OW 5182   0.657   2.407   6.766
 1428SOL    HW1 5183   0.636   2.487   6.710
 1428SOL    HW2 5184   0.722   2.432   6.837
 1429SOL     OW 5185   4.547   1.688   0.201
 1429SOL    HW1 5186   4.493   1.660   0.121
 1429SOL    HW2 5187   4.592   1.775   0.181
 1430SOL     OW 5188   1.697   5.281   4.232
 1430SOL    HW1 5189   1.750   5.351   4.281
 1430SOL    HW2 5190   1.610   5.267   4.278
 1431SOL     OW 5191   3.075   2.240   0.148
 1431SOL    HW1 5192   3.131   2.202   0.075
 1431SOL    HW2 5193   3.133   2.290   0.213
 1432SOL     OW 5194   2.720   1.925   1.819
 1432SOL    HW1 5195   2.773   1.877   1.749
 1432SOL    HW2 5196   2.750   2.020   1.825
 1433SOL     OW 5197   4.641   0.040   5.385
 1433SOL    HW1 5198   4.633   6.991   5.457
 1433SOL    HW2 5199   4.562   0.033   5.324
 1434SOL     OW 5200   1.218   0.569   5.946
 1434SOL    HW1 5201   1.129   0.561   5.901
 1434SOL    HW2 5202   1.220   0.511   6.028
 1435SOL     OW 5203   6.899   6.937   3.369
 1435SOL    HW1 5204   6.999   6.938   3.360
 1435SOL    HW2 5205   6.857   6.957   3.281
 1436SOL     OW 5206   5.487   4.004   6.143
 1436SOL    HW1 5207   5.446   3.922   6.184
 1436SOL    HW2 5208   5.458   4.085   6.194
 1437SOL     OW 5209   2.864   2.291   4.966
 1437SOL    HW1 5210   2.963   2.299   4.957
 1437SOL    HW2 5211   2.841   2.207   5.016
 1438SOL     OW 5212   2.161   6.454   1.590
 1438SOL    HW1 5213   2.228   6.458   1.664
 1438SOL    HW2 5214   2.094   6.528   1.602
 1439SOL     OW 5215   6.533   5.282   1.036
 1439SOL    HW1 5216   6.620   5.249   1.072
 1439SOL    HW2 5217   6.458   5.232   1.079
 1440SOL     OW 5218   3.464   3.501   6.439
 1440SOL    HW1 5219   3.459   3.494   6.340
 1440SOL    HW2 5220   3.392   3.562   6.472
 1441SOL     OW 5221   6.318   1.037   3.377
 1441SOL    HW1 5222   6.231   1.075   3.409
 1441SOL    HW2 5223   6.362   0.988   3.452
 1442SOL     OW 5224   6.860   5.807   6.904
 1442SOL    HW1 5225   6.863   5.812   7.003
 1442SOL    HW2 5226   6.933   5.864   6.865
 1443SOL     OW 5227   0.764   3.005   4.115
 1443SOL    HW1 5228   0.724   3.080   4.168
 1443SOL    HW2 5229   0.707   2.923   4.125
 1444SOL     OW 5230   5.073   5.623   0.934
 1444SOL    HW1 5231   5.107   5.717   0.928
 1444SOL    HW2 5232   5.033   5.608   1.025
 1445SOL     OW 5233   0.763   2.956   2.582
 1445SOL    HW1 5234   0.696   3.023   2.613
 1445SOL    HW2 5235   0.816   2.922   2.661
 1446SOL     OW 5236   5.463   2.001   0.054
 1446SOL    HW1 5237   5.405   2.054   7.013
 1446SOL    HW2 5238   5.504   1.924   0.005
 1447SOL     OW 5239   5.842   6.881   4.987
 1447SOL    HW1 5240   5.751   6.870   5.028
 1447SOL    HW2 5241   5.909   6.831   5.042
 1448SOL     OW 5242   7.010   2.313   5.225
 1448SOL    HW1 5243   6.949   2.354   5.157
 1448SOL    HW2 5244   6.964   2.234   5.267
 1449SOL     OW 5245   0.935   1.474   6.926
 1449SOL    HW1 5246   0.855   1.484   6.868
 1449SOL    HW2 5247   0.907   1.477   0.002
 1450SOL     OW 5248   0.971   2.265   1.454
 1450SOL    HW1 5249   0.911   2.230   1.383
 1450SOL    HW2 5250   0.967   2.207   1.535
 1451SOL     OW 5251   1.297   7.004   1.879
 1451SOL    HW1 5252   1.271   6.980   1.973
 1451SOL    HW2 5253   1.244   6.949   1.815
 1452SOL     OW 5254   4.332   1.346   4.557
 1452SOL    HW1 5255   4.335   1.346   4.657
 1452SOL    HW2 5256   4.312   1.438   4.525
 1453SOL     OW 5257   0.006   3.491   5.447
 1453SOL    HW1 5258   6.976   3.573   5.473
 1453SOL    HW2 5259   0.051   3.505   5.359
 1454SOL     OW 5260   0.116   2.774   2.183
 1454SOL    HW1 5261   0.042   2.826   2.143
 1454SOL    HW2 5262   0.156   2.714   2.114
 1455SOL     OW 5263   1.219   0.889   1.309
 1455SOL    HW1 5264   1.300   0.887   1.250
 1455SOL    HW2 5265   1.169   0.803   1.299
 1456SOL     OW 5266   6.643   6.308   5.414
 1456SOL    HW1 5267   6.655   6.218   5.371
 1456SOL    HW2 5268   6.715   6.370   5.384
 1457SOL     OW 5269   1.130   6.939   1.664
 1457SOL    HW1 5270   1.158   6.898   1.577
 1457SOL    HW2 5271   1.059   6.882   1.706
 1458SOL     OW 5272   5.635   5.589   3.597
 1458SOL    HW1 5273   5.590   5.518   3.544
 1458SOL    HW2 5274   5.682   5.548   3.675
 1459SOL     OW 5275   3.285   6.006   5.470
 1459SOL    HW1 5276   3.333   5.933   5.421
 1459SOL    HW2 5277   3.217   5.967   5.531
 1460SOL     OW 5278   0.636   6.381   5.377
 1460SOL    HW1 5279   0.602   6.379   5.283
 1460SOL    HW2 5280   0.615   6.294   5.421
 1461SOL     OW 5281   6.039   4.587   3.213
 1461SOL    HW1 5282   6.086   4.669   3.180
 1461SOL    HW2 5283   6.107   4.521   3.245
 1462SOL     OW 5284   1.383   0.345   6.994
 1462SOL    HW1 5285   1.422   0.335   6.902
 1462SOL    HW2 5286   1.323   0.268   7.013
 1463SOL     OW 5287   0.068   5.425   6.558
 1463SOL    HW1 5288   0.137   5.434   6.630
 1463SOL    HW2 5289   6.998   5.416   6.599
 1464SOL     OW 5290   0.256   6.255   1.266
 1464SOL    HW1 5291   0.273   6.187   1.337
 1464SOL    HW2 5292   0.268   6.347   1.304
 1465SOL     OW 5293   1.683   0.685   3.355
 1465SOL    HW1 5294   1.762   0.698   3.415
 1465SOL    HW2 5295   1.713   0.685   3.260
 1466SOL     OW 5296   1.566   2.320   2.302
 1466SOL    HW1 5297   1.581   2.225   2.272
 1466SOL    HW2 5298   1.502   2.365   2.238
 1467SOL     OW 5299   1.717   1.312   2.406
 1467SOL    HW1 5300   1.669   1.399   2.413
 1467SOL    HW2 5301   1.782   1.303   2.481
 1468SOL     OW 5302   3.469   6.411   2.355
 1468SOL    HW1 5303   3.377   6.414   2.394
 1468SOL    HW2 5304   3.468   6.453   2.264
 1469SOL     OW 5305   0.635   1.595   1.834
 1469SOL    HW1 5306   0.562   1.533   1.807
 1469SOL    HW2 5307   0.596   1.676   1.878
 1470SOL     OW 5308   1.219   2.064   2.455
 1470SOL    HW1 5309   1.263   1.991   2.402
 1470SOL    HW2 5310   1.154   2.024   2.520
 1471SOL     OW 5311   0.510   0.131   0.772
 1471SOL    HW1 5312   0.580   0.082   0.824
 1471SOL    HW2 5313   0.553   0.183   0.698
 1472SOL     OW 5314   3.084   5.037   5.364
 1472SOL    HW1 5315   3.110   5.004   5.273
 1472SOL    HW2 5316   3.157   5.016   5.429
 1473SOL     OW 5317   4.260   5.734   5.117
 1473SOL    HW1 5318   4.321   5.810   5.095
 1473SOL    HW2 5319   4.200   5.760   5.192
 1474SOL     OW 5320   5.688   5.301   2.553
 1474SOL    HW1 5321   5.662   5.395   2.533
 1474SOL    HW2 5322   5.691   5.249   2.468
 1475SOL     OW 5323   6.043   0.346   1.959
 1475SOL    HW1 5324   5.987   0.418   1.999
 1475SOL    HW2 5325   6.097   0.302   2.032
 1476SOL     OW 5326   3.190   0.780   0.817
 1476SOL    HW1 5327   3.193   0.784   0.916
 1476SOL    HW2 5328   3.133   0.855   0.782
 1477SOL     OW 5329   3.207   6.826   6.087
 1477SOL    HW1 5330   3.185   6.903   6.028
 1477SOL    HW2 5331   3.148   6.748   6.064
 1478SOL     OW 5332   5.814   5.494   6.051
 1478SOL    HW1 5333   5.866   5.578   6.035
 1478SOL    HW2 5334   5.800   5.447   5.963
 1479SOL     OW 5335   1.209   2.094   0.671
 1479SOL    HW1 5336   1.196   2.060   0.578
 1479SOL    HW2 5337   1.215   2.193   0.670
 1480SOL     OW 5338   3.311   1.167   4.800
 1480SOL    HW1 5339   3.252   1.237   4.761
 1480SOL    HW2 5340   3.269   1.077   4.788
 1481SOL     OW 5341   6.151   3.495   6.430
 1481SOL    HW1 5342   6.104   3.558   6.369
 1481SOL    HW2 5343   6.085   3.451   6.491
 1482SOL     OW 5344   4.724   1.222   1.661
 1482SOL    HW1 5345   4.765   1.147   1.609
 1482SOL    HW2 5346   4.655   1.185   1.723
 1483SOL     OW 5347   5.013   2.198   6.532
 1483SOL    HW1 5348   5.064   2.284   6.536
 1483SOL    HW2 5349   4.922   2.212   6.572
 1484SOL     OW 5350   5.603   4.221   4.933
 1484SOL    HW1 5351   5.687   4.169   4.922
 1484SOL    HW2 5352   5.538   4.168   4.988
 1485SOL     OW 5353   3.682   1.356   3.616
 1485SOL    HW1 5354   3.692   1.455   3.602
 1485SOL    HW2 5355   3.586   1.331   3.604
 1486SOL     OW 5356   5.270   1.586   2.525
 1486SOL    HW1 5357   5.217   1.670   2.534
 1486SOL    HW2 5358   5.226   1.513   2.577
 1487SOL     OW 5359   6.918   2.036   6.541
 1487SOL    HW1 5360   6.892   2.131   6.558
 1487SOL    HW2 5361   6.999   2.033   6.483
 1488SOL     OW 5362   5.386   0.922   3.352
 1488SOL    HW1 5363   5.463   0.931   3.414
 1488SOL    HW2 5364   5.376   0.827   3.324
 1489SOL     OW 5365   4.257   4.846   5.253
 1489SOL    HW1 5366   4.208   4.887   5.330
 1489SOL    HW2 5367   4.313   4.916   5.208
 1490SOL     OW 5368   0.869   3.020   2.059
 1490SOL    HW1 5369   0.859   3.042   1.962
 1490SOL    HW2 5370   0.809   3.079   2.113
 1491SOL     OW 5371   6.563   4.157   2.553
 1491SOL    HW1 5372   6.655   4.173   2.516
 1491SOL    HW2 5373   6.568   4.153   2.653
 1492SOL     OW 5374   6.209   1.095   2.683
 1492SOL    HW1 5375   6.239   1.037   2.607
 1492SOL    HW2 5376   6.110   1.088   2.693
 1493SOL     OW 5377   3.404   6.905   5.429
 1493SOL    HW1 5378   3.395   6.997   5.389
 1493SOL    HW2 5379   3.473   6.854   5.378
 1494SOL     OW 5380   4.885   1.656   6.996
 1494SOL    HW1 5381   4.796   1.613   6.981
 1494SOL    HW2 5382   4.882   1.751   6.965
 1495SOL     OW 5383   6.677   3.251   5.573
 1495SOL    HW1 5384   6.695   3.153   5.565
 1495SOL    HW2 5385   6.707   3.297   5.489
 1496SOL     OW 5386   0.203   1.826   1.752
 1496SOL    HW1 5387   0.166   1.855   1.841
 1496SOL    HW2 5388   0.130   1.830   1.684
 1497SOL     OW 5389   5.892   3.621   2.647
 1497SOL    HW1 5390   5.959   3.547   2.644
 1497SOL    HW2 5391   5.872   3.645   2.743
 1498SOL     OW 5392   2.546   4.855   6.803
 1498SOL    HW1 5393   2.459   4.869   6.755
 1498SOL    HW2 5394   2.528   4.826   6.897
 1499SOL     OW 5395   0.319   2.727   5.990
 1499SOL    HW1 5396   0.250   2.696   5.925
 1499SOL    HW2 5397   0.274   2.762   6.072
 1500SOL     OW 5398   6.812   6.993   6.946
 1500SOL    HW1 5399   6.829   0.047   7.010
 1500SOL    HW2 5400   6.844   7.020   6.855
 1501SOL     OW 5401   5.468   2.174   6.730
 1501SOL    HW1 5402   5.516   2.247   6.779
 1501SOL    HW2 5403   5.527   2.094   6.723
 1502SOL     OW 5404   4.141   0.001   0.279
 1502SOL    HW1 5405   4.156   6.985   0.188
 1502SOL    HW2 5406   4.049   0.040   0.284
 1503SOL     OW 5407   0.673   3.720   1.782
 1503SOL    HW1 5408   0.649   3.804   1.831
 1503SOL    HW2 5409   0.713   3.654   1.847
 1504SOL     OW 5410   0.428   0.156   4.795
 1504SOL    HW1 5411   0.523   0.188   4.800
 1504SOL    HW2 5412   0.424   0.072   4.741
 1505SOL     OW 5413   5.210   0.181   4.832
 1505SOL    HW1 5414   5.128   0.171   4.776
 1505SOL    HW2 5415   5.188   0.232   4.915
 1506SOL     OW 5416   0.582   6.036   0.069
 1506SOL    HW1 5417   0.656   5.983   0.110
 1506SOL    HW2 5418   0.545   6.100   0.137
 1507SOL     OW 5419   0.620   2.022   5.852
 1507SOL    HW1 5420   0.661   1.992   5.766
 1507SOL    HW2 5421   0.652   2.114   5.874
 1508SOL     OW 5422   6.760   1.775   2.049
 1508SOL    HW1 5423   6.692   1.722   1.997
 1508SOL    HW2 5424   6.741   1.766   2.147
 1509SOL     OW 5425   3.695   1.555   5.817
 1509SOL    HW1 5426   3.737   1.567   5.907
 1509SOL    HW2 5427   3.724   1.468   5.777
 1510SOL     OW 5428   4.939   2.003   4.916
 1510SOL    HW1 5429   4.971   1.912   4.943
 1510SOL    HW2 5430   4.841   1.999   4.897
 1511SOL     OW 5431   3.750   3.058   3.133
 1511SOL    HW1 5432   3.783   3.044   3.226
 1511SOL    HW2 5433   3.803   3.130   3.089
 1512SOL     OW 5434   0.343   5.178   1.398
 1512SOL    HW1 5435   0.304   5.093   1.362
 1512SOL    HW2 5436   0.391   5.159   1.484
 1513SOL     OW 5437   3.812   0.773   4.715
 1513SOL    HW1 5438   3.735   0.716   4.742
 1513SOL    HW2 5439   3.798   0.808   4.623
 1514SOL     OW 5440   4.016   2.225   5.703
 1514SOL    HW1 5441   3.979   2.286   5.633
 1514SOL    HW2 5442   4.105   2.190   5.673
 1515SOL     OW 5443   6.205   1.884   3.013
 1515SOL    HW1 5444   6.249   1.808   3.061
 1515SOL    HW2 5445   6.117   1.853   2.976
 1516SOL     OW 5446   6.955   6.403   6.888
 1516SOL    HW1 5447   6.905   6.316   6.882
 1516SOL    HW2 5448   0.025   6.393   6.849
 1517SOL     OW 5449   4.740   6.010   3.087
 1517SOL    HW1 5450   4.779   5.937   3.142
 1517SOL    HW2 5451   4.668   6.057   3.139
 1518SOL     OW 5452   1.243   2.458   6.927
 1518SOL    HW1 5453   1.236   2.414   7.016
 1518SOL    HW2 5454   1.184   2.410   6.861
 1519SOL     OW 5455   6.836   5.504   1.334
 1519SOL    HW1 5456   6.737   5.489   1.340
 1519SOL    HW2 5457   6.874   5.511   1.426
 1520SOL     OW 5458   0.352   4.216   2.057
 1520SOL    HW1 5459   0.323   4.227   1.962
 1520SOL    HW2 5460   0.407   4.133   2.065
 1521SOL     OW 5461   1.509   3.859   6.273
 1521SOL    HW1 5462   1.552   3.782   6.224
 1521SOL    HW2 5463   1.579   3.906   6.327
 1522SOL     OW 5464   5.545   6.066   5.113
 1522SOL    HW1 5465   5.457   6.027   5.140
 1522SOL    HW2 5466   5.541   6.166   5.120
 1523SOL     OW 5467   5.085   5.973   0.921
 1523SOL    HW1 5468   5.176   6.007   0.945
 1523SOL    HW2 5469   5.056   6.015   0.835
 1524SOL     OW 5470   2.549   2.383   2.191
 1524SOL    HW1 5471   2.528   2.285   2.181
 1524SOL    HW2 5472   2.641   2.401   2.158
 1525SOL     OW 5473   0.110   2.751   0.507
 1525SOL    HW1 5474   0.164   2.667   0.516
 1525SOL    HW2 5475   0.120   2.787   0.414
 1526SOL     OW 5476   6.568   0.152   6.630
 1526SOL    HW1 5477   6.539   0.248   6.638
 1526SOL    HW2 5478   6.500   0.093   6.674
 1527SOL     OW 5479   4.502   0.610   5.348
 1527SOL    HW1 5480   4.461   0.519   5.353
 1527SOL    HW2 5481   4.437   0.678   5.381
 1528SOL     OW 5482   4.591   5.365   2.588
 1528SOL    HW1 5483   4.674   5.390   2.638
 1528SOL    HW2 5484   4.585   5.418   2.504
 1529SOL     OW 5485   4.106   0.821   0.123
 1529SOL    HW1 5486   4.160   0.756   0.176
 1529SOL    HW2 5487   4.077   0.778   0.038
 1530SOL     OW 5488   3.289   2.142   1.887
 1530SOL    HW1 5489   3.351   2.158   1.963
 1530SOL    HW2 5490   3.195   2.156   1.917
 1531SOL     OW 5491   4.480   0.389   5.670
 1531SOL    HW1 5492   4.500   0.472   5.721
 1531SOL    HW2 5493   4.552   0.373   5.603
 1532SOL     OW 5494   3.196   3.306   6.439
 1532SOL    HW1 5495   3.246   3.295   6.525
 1532SOL    HW2 5496   3.183   3.403   6.420
 1533SOL     OW 5497   5.567   4.039   6.691
 1533SOL    HW1 5498   5.645   4.100   6.705
 1533SOL    HW2 5499   5.536   4.004   6.779
 1534SOL     OW 5500   2.213   4.642   6.652
 1534SOL    HW1 5501   2.160   4.567   6.612
 1534SOL    HW2 5502   2.218   4.630   6.751
 1535SOL     OW 5503   5.225   6.617   4.334
 1535SOL    HW1 5504   5.167   6.660   4.265
 1535SOL    HW2 5505   5.214   6.518   4.330
 1536SOL     OW 5506   3.837   4.768   5.251
 1536SOL    HW1 5507   3.793   4.830   5.315
 1536SOL    HW2 5508   3.799   4.676   5.262
 1537SOL     OW 5509   4.903   6.329   3.422
 1537SOL    HW1 5510   4.913   6.233   3.396
 1537SOL    HW2 5511   4.811   6.360   3.397
 1538SOL     OW 5512   4.192   5.441   6.227
 1538SOL    HW1 5513   4.099   5.430   6.264
 1538SOL    HW2 5514   4.257   5.396   6.288
 1539SOL     OW 5515   4.965   4.119   1.369
 1539SOL    HW1 5516   5.048   4.115   1.425
 1539SOL    HW2 5517   4.988   4.158   1.280
 1540SOL     OW 5518   1.388   6.460   6.200
 1540SOL    HW1 5519   1.443   6.378   6.188
 1540SOL    HW2 5520   1.376   6.506   6.112
 1541SOL     OW 5521   3.782   3.020   3.454
 1541SOL    HW1 5522   3.764   2.972   3.540
 1541SOL    HW2 5523   3.871   3.066   3.459
 1542SOL     OW 5524   5.473   6.616   2.343
 1542SOL    HW1 5525   5.500   6.665   2.260
 1542SOL    HW2 5526   5.395   6.557   2.323
 1543SOL     OW 5527   3.612   4.888   5.554
 1543SOL    HW1 5528   3.598   4.899   5.653
 1543SOL    HW2 5529   3.710   4.885   5.534
 1544SOL     OW 5530   3.218   3.282   2.943
 1544SOL    HW1 5531   3.278   3.203   2.958
 1544SOL    HW2 5532   3.262   3.345   2.879
 1545SOL     OW 5533   4.910   0.652   3.790
 1545SOL    HW1 5534   4.862   0.608   3.866
 1545SOL    HW2 5535   4.985   0.594   3.760
 1546SOL     OW 5536   3.993   6.286   5.823
 1546SOL    HW1 5537   4.024   6.235   5.904
 1546SOL    HW2 5538   4.059   6.359   5.803
 1547SOL     OW 5539   2.028   3.308   2.855
 1547SOL    HW1 5540   1.935   3.292   2.822
 1547SOL    HW2 5541   2.068   3.221   2.886
 1548SOL     OW 5542   5.513   3.917   5.588
 1548SOL    HW1 5543   5.428   3.897   5.540
 1548SOL    HW2 5544   5.536   4.013   5.576
 1549SOL     OW 5545   4.874   1.429   2.434
 1549SOL    HW1 5546   4.864   1.346   2.488
 1549SOL    HW2 5547   4.823   1.503   2.478
 1550SOL     OW 5548   3.314   3.461   0.101
 1550SOL    HW1 5549   3.348   3.506   0.183
 1550SOL    HW2 5550   3.381   3.393   0.070
 1551SOL     OW 5551   2.017   4.679   5.788
 1551SOL    HW1 5552   1.989   4.593   5.746
 1551SOL    HW2 5553   2.113   4.674   5.815
 1552SOL     OW 5554   0.293   5.498   6.725
 1552SOL    HW1 5555   0.272   5.572   6.789
 1552SOL    HW2 5556   0.367   5.527   6.664
 1553SOL     OW 5557   0.216   1.758   5.303
 1553SOL    HW1 5558   0.300   1.734   5.255
 1553SOL    HW2 5559   0.142   1.696   5.276
 1554SOL     OW 5560   4.221   1.815   3.341
 1554SOL    HW1 5561   4.150   1.761   3.297
 1554SOL    HW2 5562   4.293   1.837   3.274
 1555SOL     OW 5563   5.217   2.211   6.880
 1555SOL    HW1 5564   5.173   2.300   6.876
 1555SOL    HW2 5565   5.295   2.209   6.817
 1556SOL     OW 5566   3.471   0.891   0.733
 1556SOL    HW1 5567   3.522   0.889   0.646
 1556SOL    HW2 5568   3.427   0.980   0.743
 1557SOL     OW 5569   2.443   1.749   6.285
 1557SOL    HW1 5570   2.494   1.776   6.203
 1557SOL    HW2 5571   2.392   1.665   6.266
 1558SOL     OW 5572   5.197   0.795   4.472
 1558SOL    HW1 5573   5.114   0.783   4.417
 1558SOL    HW2 5574   5.246   0.709   4.479
 1559SOL     OW 5575   0.340   2.662   6.998
 1559SOL    HW1 5576   0.245   2.674   6.969
 1559SOL    HW2 5577   0.351   2.570   0.016
 1560SOL     OW 5578   1.415   1.418   5.860
 1560SOL    HW1 5579   1.470   1.502   5.860
 1560SOL    HW2 5580   1.320   1.441   5.884
 1561SOL     OW 5581   6.122   6.384   4.066
 1561SOL    HW1 5582   6.066   6.426   4.137
 1561SOL    HW2 5583   6.064   6.353   3.990
 1562SOL     OW 5584   3.911   6.441   2.665
 1562SOL    HW1 5585   3.935   6.537   2.679
 1562SOL    HW2 5586   3.820   6.435   2.624
 1563SOL     OW 5587   1.814   0.950   6.181
 1563SOL    HW1 5588   1.756   0.931   6.102
 1563SOL    HW2 5589   1.893   0.889   6.180
 1564SOL     OW 5590   1.138   2.984   3.192
 1564SOL    HW1 5591   1.071   3.056   3.170
 1564SOL    HW2 5592   1.224   3.027   3.219
 1565SOL     OW 5593   4.480   4.878   4.767
 1565SOL    HW1 5594   4.417   4.895   4.690
 1565SOL    HW2 5595   4.454   4.794   4.814
 1566SOL     OW 5596   4.993   4.891   3.823
 1566SOL    HW1 5597   4.943   4.886   3.737
 1566SOL    HW2 5598   5.071   4.952   3.813
 1567SOL     OW 5599   5.481   5.333   0.391
 1567SOL    HW1 5600   5.492   5.243   0.433
 1567SOL    HW2 5601   5.553   5.347   0.323
 1568SOL     OW 5602   1.563   5.969   1.117
 1568SOL    HW1 5603   1.502   5.986   1.039
 1568SOL    HW2 5604   1.658   5.977   1.087
 1569SOL     OW 5605   4.270   6.460   3.845
 1569SOL    HW1 5606   4.320   6.375   3.858
 1569SOL    HW2 5607   4.326   6.537   3.876
 1570SOL     OW 5608   2.016   6.816   0.389
 1570SOL    HW1 5609   1.963   6.887   0.435
 1570SOL    HW2 5610   2.001   6.729   0.436
 1571SOL     OW 5611   5.328   1.570   1.963
 1571SOL    HW1 5612   5.370   1.479   1.968
 1571SOL    HW2 5613   5.324   1.609   2.055
 1572SOL     OW 5614   0.747   6.534   0.476
 1572SOL    HW1 5615   0.821   6.471   0.454
 1572SOL    HW2 5616   0.761   6.620   0.426
 1573SOL     OW 5617   5.624   3.869   1.959
 1573SOL    HW1 5618   5.585   3.782   1.930
 1573SOL    HW2 5619   5.646   3.865   2.056
 1574SOL     OW 5620   0.144   0.930   2.477
 1574SOL    HW1 5621   0.121   0.933   2.379
 1574SOL    HW2 5622   0.064   0.956   2.531
 1575SOL     OW 5623   3.264   1.449   0.742
 1575SOL    HW1 5624   3.222   1.419   0.656
 1575SOL    HW2 5625   3.256   1.548   0.750
 1576SOL     OW 5626   1.601   0.462   3.063
 1576SOL    HW1 5627   1.511   0.434   3.097
 1576SOL    HW2 5628   1.653   0.505   3.137
 1577SOL     OW 5629   2.942   0.908   5.177
 1577SOL    HW1 5630   2.856   0.869   5.142
 1577SOL    HW2 5631   3.017   0.846   5.155
 1578SOL     OW 5632   6.167   2.908   5.454
 1578SOL    HW1 5633   6.227   2.834   5.483
 1578SOL    HW2 5634   6.221   2.981   5.413
 1579SOL     OW 5635   0.669   1.611   2.208
 1579SOL    HW1 5636   0.705   1.614   2.301
 1579SOL    HW2 5637   0.712   1.682   2.153
 1580SOL     OW 5638   2.957   3.723   4.552
 1580SOL    HW1 5639   2.942   3.656   4.478
 1580SOL    HW2 5640   2.928   3.683   4.639
 1581SOL     OW 5641   0.676   3.770   4.529
 1581SOL    HW1 5642   0.662   3.860   4.488
 1581SOL    HW2 5643   0.597   3.746   4.586
 1582SOL     OW 5644   1.729   0.233   3.892
 1582SOL    HW1 5645   1.827   0.218   3.879
 1582SOL    HW2 5646   1.715   0.303   3.963
 1583SOL     OW 5647   1.248   4.602   3.676
 1583SOL    HW1 5648   1.201   4.681   3.636
 1583SOL    HW2 5649   1.183   4.549   3.730
 1584SOL     OW 5650   1.129   6.730   5.560
 1584SOL    HW1 5651   1.190   6.760   5.634
 1584SOL    HW2 5652   1.157   6.638   5.530
 1585SOL     OW 5653   6.033   1.107   3.503
 1585SOL    HW1 5654   6.057   1.184   3.444
 1585SOL    HW2 5655   5.937   1.083   3.490
 1586SOL     OW 5656   3.419   4.963   2.003
 1586SOL    HW1 5657   3.460   5.047   1.966
 1586SOL    HW2 5658   3.489   4.892   2.010
 1587SOL     OW 5659   3.271   5.398   6.161
 1587SOL    HW1 5660   3.333   5.400   6.239
 1587SOL    HW2 5661   3.229   5.308   6.154
 1588SOL     OW 5662   4.597   1.505   3.101
 1588SOL    HW1 5663   4.541   1.436   3.147
 1588SOL    HW2 5664   4.586   1.497   3.002
 1589SOL     OW 5665   5.852   3.503   1.530
 1589SOL    HW1 5666   5.794   3.440   1.479
 1589SOL    HW2 5667   5.944   3.464   1.541
 1590SOL     OW 5668   3.669   5.557   6.139
 1590SOL    HW1 5669   3.647   5.471   6.185
 1590SOL    HW2 5670   3.600   5.575   6.068
 1591SOL     OW 5671   5.978   5.034   2.753
 1591SOL    HW1 5672   5.947   4.940   2.743
 1591SOL    HW2 5673   6.068   5.035   2.795
 1592SOL     OW 5674   1.939   4.496   6.625
 1592SOL    HW1 5675   1.849   4.476   6.587
 1592SOL    HW2 5676   1.994   4.412   6.626
 1593SOL     OW 5677   1.496   6.469   4.478
 1593SOL    HW1 5678   1.413   6.485   4.425
 1593SOL    HW2 5679   1.573   6.454   4.416
 1594SOL     OW 5680   0.182   6.240   2.129
 1594SOL    HW1 5681   0.205   6.335   2.150
 1594SOL    HW2 5682   0.233   6.209   2.050
 1595SOL     OW 5683   1.487   5.487   0.331
 1595SOL    HW1 5684   1.480   5.451   0.425
 1595SOL    HW2 5685   1.505   5.412   0.268
 1596SOL     OW 5686   0.508   2.429   3.645
 1596SOL    HW1 5687   0.448   2.354   3.616
 1596SOL    HW2 5688   0.603   2.397   3.647
 1597SOL     OW 5689   1.540   6.877   6.763
 1597SOL    HW1 5690   1.605   6.895   6.689
 1597SOL    HW2 5691   1.502   6.785   6.753
 1598SOL     OW 5692   0.872   4.034   6.495
 1598SOL    HW1 5693   0.905   4.087   6.417
 1598SOL    HW2 5694   0.773   4.027   6.490
 1599SOL     OW 5695   4.681   4.556   5.877
 1599SOL    HW1 5696   4.781   4.548   5.877
 1599SOL    HW2 5697   4.641   4.465   5.873
 1600SOL     OW 5698   4.901   1.782   4.185
 1600SOL    HW1 5699   4.895   1.735   4.273
 1600SOL    HW2 5700   4.969   1.856   4.191
 1601SOL     OW 5701   0.469   4.183   4.816
 1601SOL    HW1 5702   0.420   4.157   4.733
 1601SOL    HW2 5703   0.566   4.159   4.806
 1602SOL     OW 5704   2.670   5.374   3.459
 1602SOL    HW1 5705   2.634   5.288   3.425
 1602SOL    HW2 5706   2.757   5.358   3.506
 1603SOL     OW 5707   0.083   6.214   2.385
 1603SOL    HW1 5708   0.119   6.288   2.441
 1603SOL    HW2 5709   0.121   6.222   2.292
 1604SOL     OW 5710   6.034   4.960   1.542
 1604SOL    HW1 5711   5.969   4.885   1.545
 1604SOL    HW2 5712   6.084   4.964   1.628
 1605SOL     OW 5713   6.771   6.254   1.485
 1605SOL    HW1 5714   6.743   6.213   1.399
 1605SOL    HW2 5715   6.795   6.183   1.551
 1606SOL     OW 5716   3.462   1.220   5.027
 1606SOL    HW1 5717   3.526   1.297   5.023
 1606SOL    HW2 5718   3.428   1.200   4.935
 1607SOL     OW 5719   4.322   1.277   1.566
 1607SOL    HW1 5720   4.354   1.371   1.582
 1607SOL    HW2 5721   4.256   1.252   1.637
 1608SOL     OW 5722   1.038   0.306   4.007
 1608SOL    HW1 5723   1.051   0.324   4.105
 1608SOL    HW2 5724   0.944   0.276   3.991
 1609SOL     OW 5725   3.603   0.402   0.790
 1609SOL    HW1 5726   3.628   0.305   0.782
 1609SOL    HW2 5727   3.518   0.419   0.741
 1610SOL     OW 5728   5.539   4.468   6.775
 1610SOL    HW1 5729   5.593   4.385   6.761
 1610SOL    HW2 5730   5.563   4.536   6.707
 1611SOL     OW 5731   2.294   3.636   1.400
 1611SOL    HW1 5732   2.358   3.639   1.477
 1611SOL    HW2 5733   2.330   3.576   1.329
 1612SOL     OW 5734   2.750   1.092   5.458
 1612SOL    HW1 5735   2.810   1.148   5.401
 1612SOL    HW2 5736   2.654   1.112   5.437
 1613SOL     OW 5737   1.783   5.043   1.719
 1613SOL    HW1 5738   1.752   5.110   1.652
 1613SOL    HW2 5739   1.760   4.951   1.686
 1614SOL     OW 5740   6.345   3.321   0.016
 1614SOL    HW1 5741   6.308   3.357   6.951
 1614SOL    HW2 5742   6.421   3.378   0.046
 1615SOL     OW 5743   6.546   4.708   1.385
 1615SOL    HW1 5744   6.577   4.709   1.290
 1615SOL    HW2 5745   6.451   4.737   1.390
 1616SOL     OW 5746   3.779   1.835   5.042
 1616SOL    HW1 5747   3.788   1.931   5.016
 1616SOL    HW2 5748   3.823   1.778   4.973
 1617SOL     OW 5749   5.930   0.587   2.591
 1617SOL    HW1 5750   5.922   0.536   2.677
 1617SOL    HW2 5751   6.021   0.628   2.584
 1618SOL     OW 5752   2.033   4.097   1.824
 1618SOL    HW1 5753   1.973   4.152   1.882
 1618SOL    HW2 5754   2.028   4.001   1.853
 1619SOL     OW 5755   1.018   2.872   2.258
 1619SOL    HW1 5756   1.113   2.867   2.290
 1619SOL    HW2 5757   1.016   2.899   2.162
 1620SOL     OW 5758   2.841   4.983   1.708
 1620SOL    HW1 5759   2.796   5.071   1.691
 1620SOL    HW2 5760   2.870   4.943   1.621
 1621SOL     OW 5761   0.638   1.204   0.023
 1621SOL    HW1 5762   0.610   1.177   6.952
 1621SOL    HW2 5763   0.736   1.190   0.033
 1622SOL     OW 5764   0.595   2.622   4.642
 1622SOL    HW1 5765   0.562   2.666   4.725
 1622SOL    HW2 5766   0.680   2.574   4.661
 1623SOL     OW 5767   2.161   3.539   5.634
 1623SOL    HW1 5768   2.114   3.593   5.564
 1623SOL    HW2 5769   2.168   3.444   5.603
 1624SOL     OW 5770   2.718   0.894   5.014
 1624SOL    HW1 5771   2.658   0.973   5.026
 1624SOL    HW2 5772   2.789   0.915   4.947
 1625SOL     OW 5773   1.153   5.713   1.727
 1625SOL    HW1 5774   1.238   5.661   1.733
 1625SOL    HW2 5775   1.101   5.683   1.647
 1626SOL     OW 5776   3.820   1.796   6.424
 1626SOL    HW1 5777   3.787   1.770   6.515
 1626SOL    HW2 5778   3.827   1.896   6.419
 1627SOL     OW 5779   7.000   3.041   3.818
 1627SOL    HW1 5780   7.016   3.004   3.726
 1627SOL    HW2 5781   0.062   3.030   3.873
 1628SOL     OW 5782   4.476   4.797   0.629
 1628SOL    HW1 5783   4.498   4.887   0.591
 1628SOL    HW2 5784   4.514   4.789   0.721
 1629SOL     OW 5785   2.940   1.210   3.846
 1629SOL    HW1 5786   3.023   1.260   3.825
 1629SOL    HW2 5787   2.871   1.228   3.775
 1630SOL     OW 5788   1.574   5.940   5.645
 1630SOL    HW1 5789   1.533   5.859   5.688
 1630SOL    HW2 5790   1.506   6.012   5.638
 1631SOL     OW 5791   0.247   2.414   6.405
 1631SOL    HW1 5792   0.247   2.374   6.497
 1631SOL    HW2 5793   0.334   2.461   6.390
 1632SOL     OW 5794   6.735   1.990   6.806
 1632SOL    HW1 5795   6.775   1.979   6.715
 1632SOL    HW2 5796   6.642   1.953   6.806
 1633SOL     OW 5797   5.057   3.005   4.546
 1633SOL    HW1 5798   5.146   3.046   4.525
 1633SOL    HW2 5799   5.043   3.005   4.645
 1634SOL     OW 5800   4.067   4.842   6.419
 1634SOL    HW1 5801   4.071   4.926   6.365
 1634SOL    HW2 5802   4.004   4.777   6.376
 1635SOL     OW 5803   0.065   5.760   5.769
 1635SOL    HW1 5804   0.120   5.678   5.789
 1635SOL    HW2 5805   0.045   5.808   5.854
 1636SOL     OW 5806   2.934   4.187   1.760
 1636SOL    HW1 5807   2.858   4.172   1.698
 1636SOL    HW2 5808   2.938   4.283   1.787
 1637SOL     OW 5809   0.488   0.274   2.962
 1637SOL    HW1 5810   0.506   0.362   3.007
 1637SOL    HW2 5811   0.527   0.275   2.870
 1638SOL     OW 5812   0.194   4.344   3.581
 1638SOL    HW1 5813   0.214   4.245   3.582
 1638SOL    HW2 5814   0.107   4.360   3.535
 1639SOL     OW 5815   4.861   6.408   2.839
 1639SOL    HW1 5816   4.925   6.459   2.782
 1639SOL    HW2 5817   4.892   6.313   2.848
 1640SOL     OW 5818   5.809   1.193   0.438
 1640SOL    HW1 5819   5.817   1.268   0.372
 1640SOL    HW2 5820   5.809   1.229   0.531
 1641SOL     OW 5821   4.958   2.660   4.134
 1641SOL    HW1 5822   4.954   2.564   4.163
 1641SOL    HW2 5823   4.907   2.717   4.198
 1642SOL     OW 5824   5.930   3.803   6.661
 1642SOL    HW1 5825   5.897   3.857   6.739
 1642SOL    HW2 5826   5.953   3.863   6.585
 1643SOL     OW 5827   2.542   5.092   4.007
 1643SOL    HW1 5828   2.614   5.158   3.987
 1643SOL    HW2 5829   2.483   5.128   4.079
 1644SOL     OW 5830   0.464   2.904   1.383
 1644SOL    HW1 5831   0.451   2.805   1.377
 1644SOL    HW2 5832   0.452   2.945   1.293
 1645SOL     OW 5833   3.195   5.889   5.973
 1645SOL    HW1 5834   3.119   5.899   5.909
 1645SOL    HW2 5835   3.226   5.794   5.973
 1646SOL     OW 5836   3.075   5.840   0.622
 1646SOL    HW1 5837   3.057   5.742   0.611
 1646SOL    HW2 5838   3.005   5.892   0.573
 1647SOL     OW 5839   6.468   2.681   4.804
 1647SOL    HW1 5840   6.457   2.584   4.826
 1647SOL    HW2 5841   6.564   2.702   4.792
 1648SOL     OW 5842   6.197   5.323   0.818
 1648SOL    HW1 5843   6.106   5.309   0.859
 1648SOL    HW2 5844   6.229   5.415   0.837
 1649SOL     OW 5845   3.604   0.108   4.399
 1649SOL    HW1 5846   3.613   0.009   4.387
 1649SOL    HW2 5847   3.550   0.146   4.324
 1650SOL     OW 5848   2.066   6.071   5.359
 1650SOL    HW1 5849   2.009   6.116   5.428
 1650SOL    HW2 5850   2.115   5.995   5.401
 1651SOL     OW 5851   0.582   1.408   1.250
 1651SOL    HW1 5852   0.522   1.345   1.299
 1651SOL    HW2 5853   0.640   1.357   1.187
 1652SOL     OW 5854   0.970   3.349   2.215
 1652SOL    HW1 5855   1.028   3.410   2.268
 1652SOL    HW2 5856   1.026   3.295   2.152
 1653SOL     OW 5857   1.000   6.914   1.260
 1653SOL    HW1 5858   1.043   6.996   1.223
 1653SOL    HW2 5859   0.915   6.939   1.306
 1654SOL     OW 5860   6.618   3.511   1.826
 1654SOL    HW1 5861   6.676   3.478   1.900
 1654SOL    HW2 5862   6.655   3.597   1.790
 1655SOL     OW 5863   6.807   2.435   5.058
 1655SOL    HW1 5864   6.776   2.529   5.059
 1655SOL    HW2 5865   6.751   2.381   4.995
 1656SOL     OW 5866   2.477   4.871   2.490
 1656SOL    HW1 5867   2.501   4.968   2.499
 1656SOL    HW2 5868   2.475   4.847   2.394
 1657SOL     OW 5869   6.803   0.667   4.136
 1657SOL    HW1 5870   6.803   0.700   4.231
 1657SOL    HW2 5871   6.787   0.569   4.136
 1658SOL     OW 5872   1.149   0.110   1.111
 1658SOL    HW1 5873   1.207   0.105   1.193
 1658SOL    HW2 5874   1.200   0.155   1.037
 1659SOL     OW 5875   3.564   0.790   6.075
 1659SOL    HW1 5876   3.541   0.694   6.057
 1659SOL    HW2 5877   3.663   0.799   6.084
 1660SOL     OW 5878   1.026   4.843   4.044
 1660SOL    HW1 5879   1.069   4.865   3.957
 1660SOL    HW2 5880   1.071   4.763   4.084
 1661SOL     OW 5881   2.918   1.189   2.004
 1661SOL    HW1 5882   2.954   1.120   2.067
 1661SOL    HW2 5883   2.841   1.151   1.953
 1662SOL     OW 5884   6.638   6.956   3.673
 1662SOL    HW1 5885   6.603   7.014   3.599
 1662SOL    HW2 5886   6.665   7.014   3.751
 1663SOL     OW 5887   4.266   6.997   3.096
 1663SOL    HW1 5888   4.178   6.993   3.048
 1663SOL    HW2 5889   4.301   6.904   3.109
 1664SOL     OW 5890   2.462   6.543   4.326
 1664SOL    HW1 5891   2.497   6.622   4.275
 1664SOL    HW2 5892   2.537   6.481   4.346
 1665SOL     OW 5893   0.548   1.542   3.074
 1665SOL    HW1 5894   0.628   1.558   3.017
 1665SOL    HW2 5895   0.575   1.491   3.156
 1666SOL     OW 5896   5.680   3.378   0.194
 1666SOL    HW1 5897   5.632   3.442   0.134
 1666SOL    HW2 5898   5.760   3.340   0.147
 1667SOL     OW 5899   6.518   6.655   1.301
 1667SOL    HW1 5900   6.553   6.723   1.364
 1667SOL    HW2 5901   6.505   6.696   1.210
 1668SOL     OW 5902   5.291   5.876   5.609
 1668SOL    HW1 5903   5.193   5.860   5.596
 1668SOL    HW2 5904   5.306   5.972   5.633
 1669SOL     OW 5905   0.211   5.755   6.099
 1669SOL    HW1 5906   0.285   5.822   6.112
 1669SOL    HW2 5907   0.127   5.804   6.076
 1670SOL     OW 5908   0.056   4.122   6.150
 1670SOL    HW1 5909   0.137   4.065   6.162
 1670SOL    HW2 5910   0.039   4.136   6.053
 1671SOL     OW 5911   4.874   2.667   1.063
 1671SOL    HW1 5912   4.797   2.602   1.065
 1671SOL    HW2 5913   4.910   2.678   1.156
 1672SOL     OW 5914   1.679   3.003   1.407
 1672SOL    HW1 5915   1.725   2.929   1.358
 1672SOL    HW2 5916   1.602   3.036   1.352
 1673SOL     OW 5917   0.036   2.276   3.810
 1673SOL    HW1 5918   7.011   2.346   3.865
 1673SOL    HW2 5919   7.012   2.188   3.824
 1674SOL     OW 5920   0.553   4.105   2.701
 1674SOL    HW1 5921   0.619   4.081   2.630
 1674SOL    HW2 5922   0.461   4.090   2.667
 1675SOL     OW 5923   4.117   0.869   5.956
 1675SOL    HW1 5924   4.151   0.962   5.968
 1675SOL    HW2 5925   4.194   0.805   5.954
 1676SOL     OW 5926   1.698   1.682   2.266
 1676SOL    HW1 5927   1.703   1.625   2.184
 1676SOL    HW2 5928   1.633   1.642   2.331
 1677SOL     OW 5929   3.645   3.130   5.436
 1677SOL    HW1 5930   3.587   3.203   5.472
 1677SOL    HW2 5931   3.690   3.161   5.352
 1678SOL     OW 5932   4.579   4.845   5.101
 1678SOL    HW1 5933   4.489   4.817   5.064
 1678SOL    HW2 5934   4.591   4.943   5.088
 1679SOL     OW 5935   2.232   2.919   5.248
 1679SOL    HW1 5936   2.260   2.963   5.333
 1679SOL    HW2 5937   2.294   2.944   5.174
 1680SOL     OW 5938   0.846   3.064   4.609
 1680SOL    HW1 5939   0.797   3.125   4.671
 1680SOL    HW2 5940   0.944   3.074   4.623
 1681SOL     OW 5941   6.064   5.593   0.144
 1681SOL    HW1 5942   5.989   5.659   0.149
 1681SOL    HW2 5943   6.127   5.609   0.220
 1682SOL     OW 5944   0.268   1.752   4.938
 1682SOL    HW1 5945   0.169   1.757   4.925
 1682SOL    HW2 5946   0.314   1.775   4.852
 1683SOL     OW 5947   4.123   5.870   0.845
 1683SOL    HW1 5948   4.107   5.867   0.944
 1683SOL    HW2 5949   4.083   5.789   0.803
 1684SOL     OW 5950   1.473   6.368   2.541
 1684SOL    HW1 5951   1.493   6.280   2.498
 1684SOL    HW2 5952   1.387   6.361   2.591
 1685SOL     OW 5953   2.327   1.105   5.869
 1685SOL    HW1 5954   2.235   1.121   5.905
 1685SOL    HW2 5955   2.388   1.077   5.944
 1686SOL     OW 5956   2.701   5.267   5.001
 1686SOL    HW1 5957   2.772   5.197   5.013
 1686SOL    HW2 5958   2.636   5.262   5.077
 1687SOL     OW 5959   2.311   3.281   1.064
 1687SOL    HW1 5960   2.265   3.307   1.149
 1687SOL    HW2 5961   2.280   3.191   1.036
 1688SOL     OW 5962   1.607   2.140   3.843
 1688SOL    HW1 5963   1.625   2.059   3.899
 1688SOL    HW2 5964   1.510   2.141   3.817
 1689SOL     OW 5965   4.913   0.694   2.249
 1689SOL    HW1 5966   5.011   0.707   2.239
 1689SOL    HW2 5967   4.891   0.597   2.253
 1690SOL     OW 5968   1.422   2.664   3.690
 1690SOL    HW1 5969   1.482   2.603   3.638
 1690SOL    HW2 5970   1.331   2.666   3.647
 1691SOL     OW 5971   5.837   4.390   3.318
 1691SOL    HW1 5972   5.822   4.291   3.316
 1691SOL    HW2 5973   5.935   4.409   3.308
 1692SOL     OW 5974   5.666   0.638   1.735
 1692SOL    HW1 5975   5.675   0.610   1.831
 1692SOL    HW2 5976   5.640   0.734   1.731
 1693SOL     OW 5977   0.515   2.265   2.300
 1693SOL    HW1 5978   0.612   2.287   2.287
 1693SOL    HW2 5979   0.460   2.313   2.232
 1694SOL     OW 5980   5.444   0.609   3.608
 1694SOL    HW1 5981   5.386   0.690   3.610
 1694SOL    HW2 5982   5.502   0.611   3.526
 1695SOL     OW 5983   3.009   1.551   6.336
 1695SOL    HW1 5984   2.932   1.493   6.313
 1695SOL    HW2 5985   3.058   1.513   6.415
 1696SOL     OW 5986   5.009   4.457   0.400
 1696SOL    HW1 5987   4.947   4.386   0.365
 1696SOL    HW2 5988   4.963   4.545   0.398
 1697SOL     OW 5989   5.238   6.365   1.738
 1697SOL    HW1 5990   5.332   6.331   1.733
 1697SOL    HW2 5991   5.201   6.374   1.646
 1698SOL     OW 5992   4.583   0.596   0.038
 1698SOL    HW1 5993   4.502   0.539   0.051
 1698SOL    HW2 5994   4.658   0.540   0.002
 1699SOL     OW 5995   2.915   1.363   0.998
 1699SOL    HW1 5996   2.894   1.329   0.907
 1699SOL    HW2 5997   2.888   1.296   1.067
 1700SOL     OW 5998   5.626   2.010   3.322
 1700SOL    HW1 5999   5.579   1.992   3.408
 1700SOL    HW2 6000   5.622   1.930   3.263
 1701SOL     OW 6001   5.447   4.565   5.438
 1701SOL    HW1 6002   5.386   4.488   5.455
 1701SOL    HW2 6003   5.528   4.557   5.497
 1702SOL     OW 6004   7.002   2.956   0.646
 1702SOL    HW1 6005   0.046   3.028   0.673
 1702SOL    HW2 6006   0.028   2.889   0.589
 1703SOL     OW 6007   3.896   3.038   2.187
 1703SOL    HW1 6008   3.842   2.971   2.239
 1703SOL    HW2 6009   3.953   2.990   2.120
 1704SOL     OW 6010   0.709   1.978   1.898
 1704SOL    HW1 6011   0.672   1.894   1.938
 1704SOL    HW2 6012   0.662   1.998   1.812
 1705SOL     OW 6013   3.454   2.129   1.463
 1705SOL    HW1 6014   3.427   2.101   1.555
 1705SOL    HW2 6015   3.550   2.108   1.448
 1706SOL     OW 6016   4.942   0.671   1.461
 1706SOL    HW1 6017   4.942   0.708   1.554
 1706SOL    HW2 6018   4.989   0.735   1.400
 1707SOL     OW 6019   4.759   1.629   2.574
 1707SOL    HW1 6020   4.794   1.714   2.613
 1707SOL    HW2 6021   4.662   1.639   2.554
 1708SOL     OW 6022   4.984   4.988   2.433
 1708SOL    HW1 6023   5.029   4.974   2.345
 1708SOL    HW2 6024   4.900   5.041   2.419
 1709SOL     OW 6025   2.816   5.508   1.366
 1709SOL    HW1 6026   2.747   5.451   1.321
 1709SOL    HW2 6027   2.838   5.586   1.307
 1710SOL     OW 6028   5.458   4.967   3.987
 1710SOL    HW1 6029   5.370   4.934   4.021
 1710SOL    HW2 6030   5.454   4.976   3.888
 1711SOL     OW 6031   1.224   5.098   4.377
 1711SOL    HW1 6032   1.262   5.007   4.392
 1711SOL    HW2 6033   1.146   5.092   4.315
 1712SOL     OW 6034   0.028   3.208   6.065
 1712SOL    HW1 6035   0.031   3.298   6.109
 1712SOL    HW2 6036   0.047   3.218   5.967
 1713SOL     OW 6037   4.072   2.230   1.570
 1713SOL    HW1 6038   4.121   2.266   1.490
 1713SOL    HW2 6039   4.011   2.300   1.606
 1714SOL     OW 6040   4.293   1.944   5.438
 1714SOL    HW1 6041   4.206   1.904   5.410
 1714SOL    HW2 6042   4.277   2.018   5.503
 1715SOL     OW 6043   0.202   4.355   2.769
 1715SOL    HW1 6044   0.263   4.379   2.694
 1715SOL    HW2 6045   0.256   4.320   2.846
 1716SOL     OW 6046   4.661   6.906   2.817
 1716SOL    HW1 6047   4.573   6.932   2.859
 1716SOL    HW2 6048   4.652   6.908   2.718
 1717SOL     OW 6049   2.487   6.280   5.977
 1717SOL    HW1 6050   2.485   6.182   5.996
 1717SOL    HW2 6051   2.556   6.300   5.907
 1718SOL     OW 6052   1.882   2.167   2.037
 1718SOL    HW1 6053   1.890   2.079   1.991
 1718SOL    HW2 6054   1.946   2.170   2.114
 1719SOL     OW 6055   2.034   4.185   1.226
 1719SOL    HW1 6056   1.984   4.187   1.140
 1719SOL    HW2 6057   1.992   4.118   1.288
 1720SOL     OW 6058   0.561   2.401   0.306
 1720SOL    HW1 6059   0.529   2.336   0.237
 1720SOL    HW2 6060   0.660   2.411   0.300
 1721SOL     OW 6061   1.276   6.667   1.978
 1721SOL    HW1 6062   1.204   6.621   1.926
 1721SOL    HW2 6063   1.240   6.753   2.014
 1722SOL     OW 6064   4.677   2.237   4.458
 1722SOL    HW1 6065   4.669   2.184   4.542
 1722SOL    HW2 6066   4.591   2.285   4.440
 1723SOL     OW 6067   0.183   2.813   2.486
 1723SOL    HW1 6068   0.167   2.772   2.396
 1723SOL    HW2 6069   0.103   2.801   2.543
 1724SOL     OW 6070   6.419   2.201   0.809
 1724SOL    HW1 6071   6.342   2.226   0.751
 1724SOL    HW2 6072   6.468   2.283   0.836
 1725SOL     OW 6073   2.089   4.809   6.412
 1725SOL    HW1 6074   2.119   4.891   6.462
 1725SOL    HW2 6075   2.115   4.727   6.464
 1726SOL     OW 6076   4.976   5.037   5.808
 1726SOL    HW1 6077   4.998   4.949   5.766
 1726SOL    HW2 6078   5.058   5.093   5.814
 1727SOL     OW 6079   3.796   3.350   4.498
 1727SOL    HW1 6080   3.782   3.409   4.418
 1727SOL    HW2 6081   3.711   3.303   4.520
 1728SOL     OW 6082   5.433   5.003   5.701
 1728SOL    HW1 6083   5.479   4.921   5.735
 1728SOL    HW2 6084   5.490   5.047   5.632
 1729SOL     OW 6085   1.791   3.836   3.498
 1729SOL    HW1 6086   1.732   3.903   3.453
 1729SOL    HW2 6087   1.736   3.776   3.556
 1730SOL     OW 6088   7.010   0.124   5.405
 1730SOL    HW1 6089   0.045   0.205   5.421
 1730SOL    HW2 6090   6.951   0.108   5.485
 1731SOL     OW 6091   6.921   4.660   2.142
 1731SOL    HW1 6092   6.950   4.613   2.225
 1731SOL    HW2 6093   6.976   4.743   2.130
 1732SOL     OW 6094   2.467   4.484   5.562
 1732SOL    HW1 6095   2.535   4.549   5.596
 1732SOL    HW2 6096   2.382   4.497   5.614
 1733SOL     OW 6097   1.378   4.264   2.064
 1733SOL    HW1 6098   1.360   4.227   2.155
 1733SOL    HW2 6099   1.292   4.283   2.018
 1734SOL     OW 6100   4.600   3.187   1.662
 1734SOL    HW1 6101   4.594   3.141   1.573
 1734SOL    HW2 6102   4.610   3.118   1.734
 1735SOL     OW 6103   5.449   5.839   1.446
 1735SOL    HW1 6104   5.414   5.881   1.530
 1735SOL    HW2 6105   5.548   5.853   1.441
 1736SOL     OW 6106   4.118   2.816   1.175
 1736SOL    HW1 6107   4.040   2.805   1.113
 1736SOL    HW2 6108   4.095   2.777   1.265
 1737SOL     OW 6109   2.590   1.253   3.986
 1737SOL    HW1 6110   2.583   1.285   4.081
 1737SOL    HW2 6111   2.636   1.164   3.984
 1738SOL     OW 6112   2.025   1.758   4.254
 1738SOL    HW1 6113   2.105   1.727   4.202
 1738SOL    HW2 6114   1.978   1.679   4.293
 1739SOL     OW 6115   5.792   2.126   5.454
 1739SOL    HW1 6116   5.699   2.094   5.441
 1739SOL    HW2 6117   5.794   2.192   5.530
 1740SOL     OW 6118   6.902   1.593   5.978
 1740SOL    HW1 6119   6.828   1.601   6.044
 1740SOL    HW2 6120   6.956   1.511   5.997
 1741SOL     OW 6121   2.044   0.584   3.818
 1741SOL    HW1 6122   2.083   0.650   3.755
 1741SOL    HW2 6123   2.088   0.495   3.805
 1742SOL     OW 6124   4.953   6.956   6.019
 1742SOL    HW1 6125   4.859   6.923   6.009
 1742SOL    HW2 6126   5.001   6.944   5.932
 1743SOL     OW 6127   1.383   2.421   2.141
 1743SOL    HW1 6128   1.309   2.371   2.095
 1743SOL    HW2 6129   1.367   2.519   2.132
 1744SOL     OW 6130   0.872   0.537   1.935
 1744SOL    HW1 6131   0.882   0.634   1.915
 1744SOL    HW2 6132   0.956   0.503   1.977
 1745SOL     OW 6133   6.124   0.648   3.640
 1745SOL    HW1 6134   6.106   0.746   3.634
 1745SOL    HW2 6135   6.177   0.618   3.560
 1746SOL     OW 6136   2.489   4.897   5.225
 1746SOL    HW1 6137   2.500   4.827   5.155
 1746SOL    HW2 6138   2.565   4.890   5.290
 1747SOL     OW 6139   6.067   1.594   2.798
 1747SOL    HW1 6140   6.082   1.615   2.894
 1747SOL    HW2 6141   6.107   1.505   2.776
 1748SOL     OW 6142   0.858   0.942   4.006
 1748SOL    HW1 6143   0.915   0.914   4.083
 1748SOL    HW2 6144   0.802   0.864   3.976
 1749SOL     OW 6145   2.523   7.010   4.848
 1749SOL    HW1 6146   2.447   0.045   4.813
 1749SOL    HW2 6147   2.498   6.972   4.937
 1750SOL     OW 6148   6.738   6.953   4.181
 1750SOL    HW1 6149   6.793   6.988   4.105
 1750SOL    HW2 6150   6.678   6.880   4.146
 1751SOL     OW 6151   4.238   6.190   4.894
 1751SOL    HW1 6152   4.219   6.284   4.922
 1751SOL    HW2 6153   4.158   6.133   4.915
 1752SOL     OW 6154   0.277   2.320   1.849
 1752SOL    HW1 6155   0.201   2.258   1.829
 1752SOL    HW2 6156   0.355   2.267   1.882
 1753SOL     OW 6157   0.635   2.197   0.501
 1753SOL    HW1 6158   0.633   2.265   0.428
 1753SOL    HW2 6159   0.547   2.199   0.549
 1754SOL     OW 6160   2.958   3.449   0.854
 1754SOL    HW1 6161   2.872   3.461   0.903
 1754SOL    HW2 6162   2.974   3.351   0.839
 1755SOL     OW 6163   6.162   6.080   1.785
 1755SOL    HW1 6164   6.173   6.008   1.717
 1755SOL    HW2 6165   6.248   6.129   1.795
 1756SOL     OW 6166   3.983   4.374   5.806
 1756SOL    HW1 6167   3.889   4.370   5.839
 1756SOL    HW2 6168   4.042   4.321   5.867
 1757SOL     OW 6169   2.442   5.118   4.725
 1757SOL    HW1 6170   2.406   5.128   4.818
 1757SOL    HW2 6171   2.538   5.090   4.730
 1758SOL     OW 6172   2.389   0.267   3.967
 1758SOL    HW1 6173   2.488   0.266   3.960
 1758SOL    HW2 6174   2.351   0.195   3.909
 1759SOL     OW 6175   1.921   5.198   6.407
 1759SOL    HW1 6176   1.934   5.142   6.326
 1759SOL    HW2 6177   1.901   5.139   6.486
 1760SOL     OW 6178   5.782   2.030   2.215
 1760SOL    HW1 6179   5.751   2.124   2.227
 1760SOL    HW2 6180   5.720   1.982   2.153
 1761SOL     OW 6181   0.487   0.126   0.265
 1761SOL    HW1 6182   0.452   0.142   0.357
 1761SOL    HW2 6183   0.538   0.206   0.233
 1762SOL     OW 6184   0.127   2.065   4.582
 1762SOL    HW1 6185   0.200   2.085   4.649
 1762SOL    HW2 6186   0.047   2.121   4.603
 1763SOL     OW 6187   1.756   3.679   3.769
 1763SOL    HW1 6188   1.785   3.738   3.844
 1763SOL    HW2 6189   1.760   3.583   3.799
 1764SOL     OW 6190   2.015   3.563   2.097
 1764SOL    HW1 6191   2.050   3.657   2.105
 1764SOL    HW2 6192   2.086   3.505   2.056
 1765SOL     OW 6193   4.331   1.777   0.723
 1765SOL    HW1 6194   4.383   1.855   0.688
 1765SOL    HW2 6195   4.394   1.702   0.745
 1766SOL     OW 6196   4.916   3.203   2.997
 1766SOL    HW1 6197   4.872   3.120   2.962
 1766SOL    HW2 6198   5.013   3.202   2.974
 1767SOL     OW 6199   0.119   3.639   2.558
 1767SOL    HW1 6200   0.210   3.615   2.592
 1767SOL    HW2 6201   0.091   3.726   2.599
 1768SOL     OW 6202   3.895   1.617   5.363
 1768SOL    HW1 6203   3.899   1.543   5.430
 1768SOL    HW2 6204   3.959   1.689   5.390
 1769SOL     OW 6205   4.218   2.998   5.457
 1769SOL    HW1 6206   4.192   2.988   5.553
 1769SOL    HW2 6207   4.263   3.086   5.444
 1770SOL     OW 6208   0.134   5.282   4.648
 1770SOL    HW1 6209   0.190   5.238   4.578
 1770SOL    HW2 6210   0.183   5.283   4.735
 1771SOL     OW 6211   2.542   5.121   6.841
 1771SOL    HW1 6212   2.547   5.192   6.770
 1771SOL    HW2 6213   2.517   5.034   6.799
 1772SOL     OW 6214   3.584   6.560   3.133
 1772SOL    HW1 6215   3.522   6.546   3.055
 1772SOL    HW2 6216   3.533   6.551   3.218
 1773SOL     OW 6217   3.125   4.381   6.657
 1773SOL    HW1 6218   3.032   4.355   6.632
 1773SOL    HW2 6219   3.121   4.459   6.720
 1774SOL     OW 6220   4.457   6.763   1.553
 1774SOL    HW1 6221   4.408   6.846   1.578
 1774SOL    HW2 6222   4.445   6.745   1.455
 1775SOL     OW 6223   1.269   5.387   4.083
 1775SOL    HW1 6224   1.343   5.338   4.129
 1775SOL    HW2 6225   1.202   5.416   4.151
 1776SOL     OW 6226   3.433   0.692   5.778
 1776SOL    HW1 6227   3.468   0.777   5.819
 1776SOL    HW2 6228   3.339   0.678   5.807
 1777SOL     OW 6229   3.202   5.316   5.687
 1777SOL    HW1 6230   3.246   5.327   5.597
 1777SOL    HW2 6231   3.272   5.308   5.758
 1778SOL     OW 6232   4.636   2.379   5.018
 1778SOL    HW1 6233   4.689   2.385   5.102
 1778SOL    HW2 6234   4.621   2.283   4.995
 1779SOL     OW 6235   5.212   1.478   4.705
 1779SOL    HW1 6236   5.177   1.557   4.654
 1779SOL    HW2 6237   5.312   1.478   4.701
 1780SOL     OW 6238   2.256   4.631   5.921
 1780SOL    HW1 6239   2.235   4.683   6.005
 1780SOL    HW2 6240   2.314   4.553   5.944
 1781SOL     OW 6241   4.207   5.113   3.713
 1781SOL    HW1 6242   4.190   5.106   3.811
 1781SOL    HW2 6243   4.265   5.037   3.684
 1782SOL     OW 6244   2.947   1.715   2.904
 1782SOL    HW1 6245   2.993   1.718   2.993
 1782SOL    HW2 6246   3.012   1.687   2.833
 1783SOL     OW 6247   1.832   3.244   6.548
 1783SOL    HW1 6248   1.788   3.209   6.465
 1783SOL    HW2 6249   1.922   3.203   6.558
 1784SOL     OW 6250   3.062   0.818   4.229
 1784SOL    HW1 6251   2.976   0.806   4.279
 1784SOL    HW2 6252   3.053   0.894   4.164
 1785SOL     OW 6253   5.292   6.192   3.975
 1785SOL    HW1 6254   5.341   6.199   3.888
 1785SOL    HW2 6255   5.206   6.142   3.961
 1786SOL     OW 6256   1.173   2.996   1.017
 1786SOL    HW1 6257   1.271   3.013   1.031
 1786SOL    HW2 6258   1.121   3.075   1.049
 1787SOL     OW 6259   2.296   1.024   4.240
 1787SOL    HW1 6260   2.243   1.024   4.156
 1787SOL    HW2 6261   2.375   0.963   4.231
 1788SOL     OW 6262   3.581   3.100   0.644
 1788SOL    HW1 6263   3.516   3.171   0.671
 1788SOL    HW2 6264   3.555   3.013   0.686
 1789SOL     OW 6265   6.454   2.470   2.147
 1789SOL    HW1 6266   6.402   2.394   2.108
 1789SOL    HW2 6267   6.551   2.446   2.151
 1790SOL     OW 6268   3.923   6.608   4.327
 1790SOL    HW1 6269   3.844   6.666   4.349
 1790SOL    HW2 6270   4.006   6.663   4.328
 1791SOL     OW 6271   0.543   1.848   4.291
 1791SOL    HW1 6272   0.453   1.877   4.322
 1791SOL    HW2 6273   0.599   1.928   4.270
 1792SOL     OW 6274   0.598   2.416   4.140
 1792SOL    HW1 6275   0.592   2.460   4.050
 1792SOL    HW2 6276   0.674   2.457   4.191
 1793SOL     OW 6277   6.709   0.323   3.527
 1793SOL    HW1 6278   6.660   0.355   3.608
 1793SOL    HW2 6279   6.657   0.347   3.445
 1794SOL     OW 6280   5.126   5.989   6.555
 1794SOL    HW1 6281   5.194   6.055   6.523
 1794SOL    HW2 6282   5.096   6.015   6.647
 1795SOL     OW 6283   0.571   3.735   2.127
 1795SOL    HW1 6284   0.630   3.739   2.207
 1795SOL    HW2 6285   0.542   3.641   2.112
 1796SOL     OW 6286   2.133   1.480   4.452
 1796SOL    HW1 6287   2.037   1.489   4.423
 1796SOL    HW2 6288   2.141   1.507   4.548
 1797SOL     OW 6289   0.917   1.015   6.144
 1797SOL    HW1 6290   0.969   0.955   6.204
 1797SOL    HW2 6291   0.928   0.986   6.049
 1798SOL     OW 6292   4.888   2.665   5.206
 1798SOL    HW1 6293   4.930   2.584   5.164
 1798SOL    HW2 6294   4.859   2.728   5.135
 1799SOL     OW 6295   6.912   1.436   6.379
 1799SOL    HW1 6296   6.875   1.514   6.430
 1799SOL    HW2 6297   6.865   1.429   6.290
 1800SOL     OW 6298   4.712   5.310   3.332
 1800SOL    HW1 6299   4.613   5.297   3.325
 1800SOL    HW2 6300   4.742   5.291   3.426
 1801SOL     OW 6301   0.849   1.083   2.210
 1801SOL    HW1 6302   0.844   1.169   2.260
 1801SOL    HW2 6303   0.772   1.077   2.146
 1802SOL     OW 6304   5.234   5.328   2.254
 1802SOL    HW1 6305   5.258   5.243   2.208
 1802SOL    HW2 6306   5.257   5.321   2.351
 1803SOL     OW 6307   6.773   5.905   0.908
 1803SOL    HW1 6308   6.731   5.954   0.831
 1803SOL    HW2 6309   6.872   5.916   0.904
 1804SOL     OW 6310   2.115   3.365   6.207
 1804SOL    HW1 6311   2.106   3.270   6.177
 1804SOL    HW2 6312   2.196   3.374   6.264
 1805SOL     OW 6313   0.332   3.792   5.350
 1805SOL    HW1 6314   0.342   3.861   5.422
 1805SOL    HW2 6315   0.234   3.774   5.335
 1806SOL     OW 6316   1.053   1.181   0.865
 1806SOL    HW1 6317   1.137   1.212   0.821
 1806SOL    HW2 6318   1.047   1.219   0.957
 1807SOL     OW 6319   5.577   2.335   6.113
 1807SOL    HW1 6320   5.625   2.385   6.185
 1807SOL    HW2 6321   5.573   2.391   6.030
 1808SOL     OW 6322   6.526   3.513   5.466
 1808SOL    HW1 6323   6.567   3.461   5.541
 1808SOL    HW2 6324   6.538   3.611   5.484
 1809SOL     OW 6325   2.202   3.034   4.258
 1809SOL    HW1 6326   2.221   2.976   4.337
 1809SOL    HW2 6327   2.161   3.120   4.288
 1810SOL     OW 6328   2.462   0.698   5.639
 1810SOL    HW1 6329   2.397   0.767   5.670
 1810SOL    HW2 6330   2.537   0.743   5.590
 1811SOL     OW 6331   4.241   4.644   3.397
 1811SOL    HW1 6332   4.173   4.690   3.454
 1811SOL    HW2 6333   4.207   4.640   3.303
 1812SOL     OW 6334   4.252   0.065   6.166
 1812SOL    HW1 6335   4.280   0.077   6.070
 1812SOL    HW2 6336   4.235   0.155   6.207
 1813SOL     OW 6337   4.243   4.940   1.406
 1813SOL    HW1 6338   4.192   5.007   1.352
 1813SOL    HW2 6339   4.302   4.886   1.346
 1814SOL     OW 6340   6.452   0.526   0.180
 1814SOL    HW1 6341   6.503   0.450   0.221
 1814SOL    HW2 6342   6.478   0.611   0.225
 1815SOL     OW 6343   6.608   2.115   1.540
 1815SOL    HW1 6344   6.574   2.092   1.631
 1815SOL    HW2 6345   6.644   2.032   1.497
 1816SOL     OW 6346   1.807   4.217   1.060
 1816SOL    HW1 6347   1.757   4.240   1.144
 1816SOL    HW2 6348   1.746   4.165   1.000
 1817SOL     OW 6349   2.919   6.318   3.265
 1817SOL    HW1 6350   2.915   6.397   3.326
 1817SOL    HW2 6351   2.987   6.253   3.299
 1818SOL     OW 6352   2.019   6.234   2.553
 1818SOL    HW1 6353   2.042   6.200   2.462
 1818SOL    HW2 6354   1.978   6.160   2.607
 1819SOL     OW 6355   0.565   5.611   1.503
 1819SOL    HW1 6356   0.643   5.569   1.549
 1819SOL    HW2 6357   0.576   5.711   1.503
 1820SOL     OW 6358   3.317   1.057   2.521
 1820SOL    HW1 6359   3.256   1.101   2.587
 1820SOL    HW2 6360   3.406   1.042   2.563
 1821SOL     OW 6361   2.591   0.843   1.805
 1821SOL    HW1 6362   2.494   0.861   1.793
 1821SOL    HW2 6363   2.633   0.827   1.716
 1822SOL     OW 6364   2.022   2.944   1.248
 1822SOL    HW1 6365   1.951   2.879   1.275
 1822SOL    HW2 6366   1.983   3.036   1.242
 1823SOL     OW 6367   2.666   5.732   2.926
 1823SOL    HW1 6368   2.571   5.702   2.920
 1823SOL    HW2 6369   2.703   5.708   3.016
 1824SOL     OW 6370   3.313   4.280   1.724
 1824SOL    HW1 6371   3.339   4.232   1.640
 1824SOL    HW2 6372   3.318   4.216   1.801
 1825SOL     OW 6373   1.174   2.487   3.879
 1825SOL    HW1 6374   1.194   2.468   3.783
 1825SOL    HW2 6375   1.092   2.543   3.885
 1826SOL     OW 6376   2.959   0.534   0.968
 1826SOL    HW1 6377   3.042   0.589   0.959
 1826SOL    HW2 6378   2.957   0.492   1.059
 1827SOL     OW 6379   0.344   5.801   1.749
 1827SOL    HW1 6380   0.312   5.709   1.773
 1827SOL    HW2 6381   0.370   5.803   1.652
 1828SOL     OW 6382   1.068   2.375   0.650
 1828SOL    HW1 6383   1.087   2.427   0.733
 1828SOL    HW2 6384   0.992   2.312   0.667
 1829SOL     OW 6385   2.943   1.001   3.087
 1829SOL    HW1 6386   3.039   0.975   3.077
 1829SOL    HW2 6387   2.935   1.078   3.150
 1830SOL     OW 6388   6.369   6.370   3.920
 1830SOL    HW1 6389   6.460   6.351   3.956
 1830SOL    HW2 6390   6.300   6.337   3.984
 1831SOL     OW 6391   6.273   0.372   2.677
 1831SOL    HW1 6392   6.318   0.423   2.604
 1831SOL    HW2 6393   6.333   0.297   2.707
 1832SOL     OW 6394   4.429   1.031   1.450
 1832SOL    HW1 6395   4.417   1.124   1.485
 1832SOL    HW2 6396   4.363   0.970   1.495
 1833SOL     OW 6397   5.468   0.439   0.265
 1833SOL    HW1 6398   5.437   0.521   0.217
 1833SOL    HW2 6399   5.423   0.435   0.354
 1834SOL     OW 6400   3.422   3.627   0.957
 1834SOL    HW1 6401   3.473   3.713   0.963
 1834SOL    HW2 6402   3.377   3.609   1.044
 1835SOL     OW 6403   0.322   4.388   2.485
 1835SOL    HW1 6404   0.279   4.478   2.475
 1835SOL    HW2 6405   0.270   4.320   2.434
 1836SOL     OW 6406   4.944   1.947   1.591
 1836SOL    HW1 6407   4.996   2.031   1.607
 1836SOL    HW2 6408   5.007   1.871   1.575
 1837SOL     OW 6409   1.185   0.603   4.990
 1837SOL    HW1 6410   1.095   0.609   4.946
 1837SOL    HW2 6411   1.205   0.508   5.012
 1838SOL     OW 6412   6.982   1.523   4.719
 1838SOL    HW1 6413   6.889   1.489   4.710
 1838SOL    HW2 6414   0.017   1.490   4.643
 1839SOL     OW 6415   6.156   2.306   5.183
 1839SOL    HW1 6416   6.068   2.343   5.156
 1839SOL    HW2 6417   6.189   2.243   5.113
 1840SOL     OW 6418   3.438   6.799   1.639
 1840SOL    HW1 6419   3.458   6.702   1.650
 1840SOL    HW2 6420   3.524   6.850   1.633
 1841SOL     OW 6421   2.381   0.866   3.062
 1841SOL    HW1 6422   2.450   0.933   3.033
 1841SOL    HW2 6423   2.322   0.906   3.132
 1842SOL     OW 6424   2.062   5.876   0.372
 1842SOL    HW1 6425   1.968   5.844   0.383
 1842SOL    HW2 6426   2.094   5.918   0.457
 1843SOL     OW 6427   6.189   2.285   3.447
 1843SOL    HW1 6428   6.169   2.353   3.377
 1843SOL    HW2 6429   6.107   2.269   3.503
 1844SOL     OW 6430   3.180   6.701   5.515
 1844SOL    HW1 6431   3.126   6.735   5.592
 1844SOL    HW2 6432   3.127   6.632   5.465
 1845SOL     OW 6433   2.373   0.213   4.745
 1845SOL    HW1 6434   2.453   0.268   4.723
 1845SOL    HW2 6435   2.306   0.221   4.672
 1846SOL     OW 6436   3.971   1.805   1.180
 1846SOL    HW1 6437   4.041   1.750   1.134
 1846SOL    HW2 6438   3.882   1.790   1.136
 1847SOL     OW 6439   1.430   1.050   6.785
 1847SOL    HW1 6440   1.469   0.958   6.789
 1847SOL    HW2 6441   1.496   1.113   6.744
 1848SOL     OW 6442   1.398   6.020   3.172
 1848SOL    HW1 6443   1.382   6.020   3.271
 1848SOL    HW2 6444   1.317   6.053   3.125
 1849SOL     OW 6445   4.275   2.608   0.956
 1849SOL    HW1 6446   4.267   2.508   0.958
 1849SOL    HW2 6447   4.268   2.644   1.049
 1850SOL     OW 6448   0.777   2.630   1.503
 1850SOL    HW1 6449   0.790   2.549   1.560
 1850SOL    HW2 6450   0.866   2.669   1.479
 1851SOL     OW 6451   0.153   2.391   0.264
 1851SOL    HW1 6452   0.136   2.304   0.217
 1851SOL    HW2 6453   0.067   2.425   0.301
 1852SOL     OW 6454   6.350   4.316   2.453
 1852SOL    HW1 6455   6.269   4.261   2.432
 1852SOL    HW2 6456   6.427   4.256   2.474
 1853SOL     OW 6457   0.006   2.128   2.871
 1853SOL    HW1 6458   0.018   2.158   2.965
 1853SOL    HW2 6459   0.033   2.201   2.808
 1854SOL     OW 6460   2.387   5.537   2.909
 1854SOL    HW1 6461   2.353   5.450   2.873
 1854SOL    HW2 6462   2.438   5.521   2.993
 1855SOL     OW 6463   5.158   2.776   5.239
 1855SOL    HW1 6464   5.070   2.731   5.223
 1855SOL    HW2 6465   5.174   2.786   5.337
 1856SOL     OW 6466   6.319   4.101   5.874
 1856SOL    HW1 6467   6.343   4.193   5.845
 1856SOL    HW2 6468   6.385   4.036   5.836
 1857SOL     OW 6469   4.774   1.821   5.887
 1857SOL    HW1 6470   4.675   1.832   5.881
 1857SOL    HW2 6471   4.819   1.906   5.858
 1858SOL     OW 6472   5.917   4.040   3.859
 1858SOL    HW1 6473   5.956   3.949   3.872
 1858SOL    HW2 6474   5.962   4.105   3.921
 1859SOL     OW 6475   5.502   2.535   3.426
 1859SOL    HW1 6476   5.439   2.498   3.358
 1859SOL    HW2 6477   5.577   2.471   3.440
 1860SOL     OW 6478   6.853   0.647   5.432
 1860SOL    HW1 6479   6.911   0.716   5.475
 1860SOL    HW2 6480   6.907   0.592   5.368
 1861SOL     OW 6481   6.465   6.546   2.391
 1861SOL    HW1 6482   6.395   6.613   2.365
 1861SOL    HW2 6483   6.425   6.479   2.453
 1862SOL     OW 6484   2.212   6.962   6.104
 1862SOL    HW1 6485   2.305   6.935   6.078
 1862SOL    HW2 6486   2.216   0.026   6.156
 1863SOL     OW 6487   0.672   2.665   3.456
 1863SOL    HW1 6488   0.763   2.625   3.468
 1863SOL    HW2 6489   0.678   2.745   3.397
 1864SOL     OW 6490   1.919   6.954   4.994
 1864SOL    HW1 6491   1.929   6.969   4.896
 1864SOL    HW2 6492   1.869   6.869   5.010
 1865SOL     OW 6493   3.400   6.539   6.626
 1865SOL    HW1 6494   3.376   6.561   6.721
 1865SOL    HW2 6495   3.480   6.479   6.626
 1866SOL     OW 6496   4.917   4.743   3.099
 1866SOL    HW1 6497   4.822   4.749   3.068
 1866SOL    HW2 6498   4.921   4.690   3.184
 1867SOL     OW 6499   0.634   3.836   0.586
 1867SOL    HW1 6500   0.607   3.932   0.598
 1867SOL    HW2 6501   0.636   3.791   0.675
 1868SOL     OW 6502   5.182   2.957   6.385
 1868SOL    HW1 6503   5.084   2.976   6.390
 1868SOL    HW2 6504   5.233   3.043   6.376
 1869SOL     OW 6505   5.961   3.351   5.663
 1869SOL    HW1 6506   6.005   3.412   5.598
 1869SOL    HW2 6507   6.030   3.290   5.703
 1870SOL     OW 6508   1.237   3.030   4.873
 1870SOL    HW1 6509   1.265   2.934   4.876
 1870SOL    HW2 6510   1.290   3.082   4.939
 1871SOL     OW 6511   0.752   0.324   6.611
 1871SOL    HW1 6512   0.687   0.264   6.657
 1871SOL    HW2 6513   0.835   0.332   6.667
 1872SOL     OW 6514   4.007   1.591   6.768
 1872SOL    HW1 6515   4.015   1.671   6.827
 1872SOL    HW2 6516   4.096   1.544   6.763
 1873SOL     OW 6517   5.042   0.914   6.391
 1873SOL    HW1 6518   5.085   0.840   6.443
 1873SOL    HW2 6519   5.105   0.991   6.383
 1874SOL     OW 6520   2.883   1.251   0.747
 1874SOL    HW1 6521   2.795   1.203   0.747
 1874SOL    HW2 6522   2.914   1.265   0.653
 1875SOL     OW 6523   7.016   0.772   6.818
 1875SOL    HW1 6524   0.074   0.803   6.765
 1875SOL    HW2 6525   6.946   0.736   6.756
 1876SOL     OW 6526   3.547   6.163   6.534
 1876SOL    HW1 6527   3.579   6.108   6.457
 1876SOL    HW2 6528   3.447   6.163   6.536
 1877SOL     OW 6529   1.104   1.204   3.256
 1877SOL    HW1 6530   1.143   1.215   3.165
 1877SOL    HW2 6531   1.176   1.177   3.320
 1878SOL     OW 6532   6.874   3.242   4.190
 1878SOL    HW1 6533   6.782   3.245   4.152
 1878SOL    HW2 6534   6.925   3.324   4.161
 1879SOL     OW 6535   1.799   5.557   3.610
 1879SOL    HW1 6536   1.775   5.524   3.519
 1879SOL    HW2 6537   1.738   5.516   3.678
 1880SOL     OW 6538   6.812   0.744   4.392
 1880SOL    HW1 6539   6.749   0.821   4.404
 1880SOL    HW2 6540   6.816   0.691   4.476
 1881SOL     OW 6541   6.564   3.141   2.794
 1881SOL    HW1 6542   6.586   3.090   2.710
 1881SOL    HW2 6543   6.550   3.077   2.869
 1882SOL     OW 6544   1.231   3.665   6.776
 1882SOL    HW1 6545   1.264   3.582   6.822
 1882SOL    HW2 6546   1.268   3.745   6.823
 1883SOL     OW 6547   1.185   2.285   3.374
 1883SOL    HW1 6548   1.280   2.281   3.407
 1883SOL    HW2 6549   1.153   2.192   3.355
 1884SOL     OW 6550   6.253   3.095   0.257
 1884SOL    HW1 6551   6.165   3.105   0.210
 1884SOL    HW2 6552   6.240   3.045   0.343
 1885SOL     OW 6553   1.174   1.947   5.972
 1885SOL    HW1 6554   1.153   1.876   6.039
 1885SOL    HW2 6555   1.250   2.003   6.005
 1886SOL     OW 6556   2.727   0.327   1.376
 1886SOL    HW1 6557   2.648   0.272   1.404
 1886SOL    HW2 6558   2.721   0.417   1.419
 1887SOL     OW 6559   1.412   5.947   5.360
 1887SOL    HW1 6560   1.365   5.979   5.442
 1887SOL    HW2 6561   1.476   6.017   5.328
 1888SOL     OW 6562   3.241   2.536   6.936
 1888SOL    HW1 6563   3.336   2.507   6.931
 1888SOL    HW2 6564   3.218   2.589   6.854
 1889SOL     OW 6565   0.100   2.953   6.106
 1889SOL    HW1 6566   0.068   3.042   6.137
 1889SOL    HW2 6567   0.031   2.912   6.045
 1890SOL     OW 6568   1.652   6.509   3.938
 1890SOL    HW1 6569   1.563   6.503   3.983
 1890SOL    HW2 6570   1.723   6.478   4.000
 1891SOL     OW 6571   5.779   2.195   2.766
 1891SOL    HW1 6572   5.764   2.187   2.865
 1891SOL    HW2 6573   5.849   2.129   2.738
 1892SOL     OW 6574   2.680   1.351   1.302
 1892SOL    HW1 6575   2.759   1.401   1.266
 1892SOL    HW2 6576   2.597   1.404   1.285
 1893SOL     OW 6577   4.028   2.812   6.953
 1893SOL    HW1 6578   3.947   2.870   6.949
 1893SOL    HW2 6579   4.110   2.869   6.949
 1894SOL     OW 6580   4.087   3.653   3.666
 1894SOL    HW1 6581   3.990   3.659   3.692
 1894SOL    HW2 6582   4.109   3.725   3.601
 1895SOL     OW 6583   5.221   0.710   1.807
 1895SOL    HW1 6584   5.249   0.633   1.748
 1895SOL    HW2 6585   5.125   0.700   1.832
 1896SOL     OW 6586   6.261   0.457   1.737
 1896SOL    HW1 6587   6.344   0.466   1.682
 1896SOL    HW2 6588   6.265   0.372   1.789
 1897SOL     OW 6589   1.667   4.159   1.656
 1897SOL    HW1 6590   1.744   4.220   1.672
 1897SOL    HW2 6591   1.587   4.190   1.708
 1898SOL     OW 6592   2.223   4.896   2.623
 1898SOL    HW1 6593   2.299   4.878   2.560
 1898SOL    HW2 6594   2.142   4.847   2.593
 1899SOL     OW 6595   1.217   1.222   2.357
 1899SOL    HW1 6596   1.179   1.140   2.314
 1899SOL    HW2 6597   1.273   1.272   2.291
 1900SOL     OW 6598   1.146   0.568   6.290
 1900SOL    HW1 6599   1.047   0.572   6.301
 1900SOL    HW2 6600   1.190   0.606   6.371
 1901SOL     OW 6601   1.686   2.432   0.803
 1901SOL    HW1 6602   1.733   2.509   0.847
 1901SOL    HW2 6603   1.634   2.464   0.724
 1902SOL     OW 6604   2.410   2.078   4.973
 1902SOL    HW1 6605   2.362   2.166   4.966
 1902SOL    HW2 6606   2.346   2.008   5.006
 1903SOL     OW 6607   6.898   3.213   2.562
 1903SOL    HW1 6608   6.878   3.304   2.527
 1903SOL    HW2 6609   6.919   3.152   2.485
 1904SOL     OW 6610   6.095   6.147   3.620
 1904SOL    HW1 6611   6.161   6.220   3.641
 1904SOL    HW2 6612   6.014   6.187   3.577
 1905SOL     OW 6613   1.885   0.624   4.055
 1905SOL    HW1 6614   1.939   0.565   4.116
 1905SOL    HW2 6615   1.924   0.622   3.963
 1906SOL     OW 6616   2.127   0.141   4.925
 1906SOL    HW1 6617   2.040   0.133   4.973
 1906SOL    HW2 6618   2.141   0.236   4.897
 1907SOL     OW 6619   3.263   0.212   2.722
 1907SOL    HW1 6620   3.263   0.112   2.711
 1907SOL    HW2 6621   3.320   0.236   2.801
 1908SOL     OW 6622   3.657   0.054   5.169
 1908SOL    HW1 6623   3.572   0.038   5.118
 1908SOL    HW2 6624   3.639   0.118   5.244
 1909SOL     OW 6625   0.664   3.706   2.591
 1909SOL    HW1 6626   0.604   3.651   2.532
 1909SOL    HW2 6627   0.693   3.788   2.542
 1910SOL     OW 6628   7.005   2.773   6.543
 1910SOL    HW1 6629   7.005   2.784   6.444
 1910SOL    HW2 6630   6.920   2.810   6.581
 1911SOL     OW 6631   5.872   3.570   5.265
 1911SOL    HW1 6632   5.878   3.599   5.170
 1911SOL    HW2 6633   5.800   3.501   5.275
 1912SOL     OW 6634   3.779   5.778   0.358
 1912SOL    HW1 6635   3.843   5.839   0.403
 1912SOL    HW2 6636   3.717   5.831   0.300
 1913SOL     OW 6637   2.173   6.302   4.625
 1913SOL    HW1 6638   2.111   6.263   4.557
 1913SOL    HW2 6639   2.199   6.395   4.597
 1914SOL     OW 6640   3.907   2.746   6.405
 1914SOL    HW1 6641   3.860   2.671   6.358
 1914SOL    HW2 6642   3.907   2.728   6.504
 1915SOL     OW 6643   4.387   2.323   5.368
 1915SOL    HW1 6644   4.455   2.381   5.323
 1915SOL    HW2 6645   4.314   2.381   5.406
 1916SOL     OW 6646   4.122   5.803   1.418
 1916SOL    HW1 6647   4.084   5.895   1.410
 1916SOL    HW2 6648   4.048   5.737   1.429
 1917SOL     OW 6649   3.043   3.088   5.536
 1917SOL    HW1 6650   2.950   3.053   5.527
 1917SOL    HW2 6651   3.103   3.040   5.472
 1918SOL     OW 6652   0.958   1.136   5.078
 1918SOL    HW1 6653   1.021   1.207   5.107
 1918SOL    HW2 6654   0.868   1.176   5.061
 1919SOL     OW 6655   1.997   0.386   1.776
 1919SOL    HW1 6656   1.918   0.409   1.719
 1919SOL    HW2 6657   2.009   0.456   1.847
 1920SOL     OW 6658   1.262   4.166   2.507
 1920SOL    HW1 6659   1.304   4.115   2.433
 1920SOL    HW2 6660   1.262   4.110   2.591
 1921SOL     OW 6661   1.357   4.294   6.259
 1921SOL    HW1 6662   1.366   4.208   6.309
 1921SOL    HW2 6663   1.444   4.343   6.261
 1922SOL     OW 6664   2.188   3.741   0.726
 1922SOL    HW1 6665   2.129   3.687   0.667
 1922SOL    HW2 6666   2.279   3.699   0.729
 1923SOL     OW 6667   3.306   0.760   5.486
 1923SOL    HW1 6668   3.374   0.703   5.439
 1923SOL    HW2 6669   3.321   0.753   5.585
 1924SOL     OW 6670   4.975   5.574   1.191
 1924SOL    HW1 6671   4.908   5.644   1.215
 1924SOL    HW2 6672   4.938   5.484   1.213
 1925SOL     OW 6673   2.184   5.146   0.588
 1925SOL    HW1 6674   2.211   5.169   0.681
 1925SOL    HW2 6675   2.085   5.139   0.582
 1926SOL     OW 6676   2.300   6.643   2.999
 1926SOL    HW1 6677   2.252   6.695   3.070
 1926SOL    HW2 6678   2.393   6.678   2.991
 1927SOL     OW 6679   2.531   4.395   6.962
 1927SOL    HW1 6680   2.611   4.455   6.971
 1927SOL    HW2 6681   2.559   4.300   6.973
 1928SOL     OW 6682   6.790   4.604   5.628
 1928SOL    HW1 6683   6.875   4.582   5.579
 1928SOL    HW2 6684   6.714   4.608   5.564
 1929SOL     OW 6685   1.655   5.986   1.385
 1929SOL    HW1 6686   1.624   6.006   1.292
 1929SOL    HW2 6687   1.618   5.898   1.415
 1930SOL     OW 6688   3.645   4.103   6.208
 1930SOL    HW1 6689   3.642   4.203   6.206
 1930SOL    HW2 6690   3.552   4.067   6.205
 1931SOL     OW 6691   0.956   3.011   1.782
 1931SOL    HW1 6692   0.921   2.921   1.757
 1931SOL    HW2 6693   1.030   3.037   1.720
 1932SOL     OW 6694   4.897   2.798   3.199
 1932SOL    HW1 6695   4.984   2.759   3.228
 1932SOL    HW2 6696   4.829   2.785   3.271
 1933SOL     OW 6697   2.051   3.018   0.803
 1933SOL    HW1 6698   2.035   3.117   0.797
 1933SOL    HW2 6699   1.971   2.969   0.768
 1934SOL     OW 6700   0.464   6.644   5.401
 1934SOL    HW1 6701   0.515   6.559   5.388
 1934SOL    HW2 6702   0.449   6.688   5.313
 1935SOL     OW 6703   4.445   6.252   3.891
 1935SOL    HW1 6704   4.471   6.187   3.963
 1935SOL    HW2 6705   4.527   6.282   3.842
 1936SOL     OW 6706   5.549   3.723   3.547
 1936SOL    HW1 6707   5.644   3.717   3.578
 1936SOL    HW2 6708   5.541   3.686   3.455
 1937SOL     OW 6709   4.034   6.399   1.232
 1937SOL    HW1 6710   3.967   6.328   1.213
 1937SOL    HW2 6711   4.033   6.421   1.330
 1938SOL     OW 6712   2.289   1.595   1.617
 1938SOL    HW1 6713   2.256   1.682   1.656
 1938SOL    HW2 6714   2.220   1.524   1.630
 1939SOL     OW 6715   6.569   6.843   4.850
 1939SOL    HW1 6716   6.540   6.889   4.766
 1939SOL    HW2 6717   6.524   6.754   4.857
 1940SOL     OW 6718   6.065   5.166   0.624
 1940SOL    HW1 6719   5.979   5.141   0.668
 1940SOL    HW2 6720   6.111   5.236   0.678
 1941SOL     OW 6721   1.224   3.539   4.402
 1941SOL    HW1 6722   1.150   3.561   4.338
 1941SOL    HW2 6723   1.261   3.448   4.381
 1942SOL     OW 6724   5.346   2.143   1.424
 1942SOL    HW1 6725   5.444   2.160   1.413
 1942SOL    HW2 6726   5.307   2.118   1.336
 1943SOL     OW 6727   2.518   6.417   3.739
 1943SOL    HW1 6728   2.504   6.391   3.643
 1943SOL    HW2 6729   2.545   6.336   3.792
 1944SOL     OW 6730   6.386   2.811   0.286
 1944SOL    HW1 6731   6.343   2.896   0.256
 1944SOL    HW2 6732   6.349   2.735   0.233
 1945SOL     OW 6733   3.582   4.963   0.673
 1945SOL    HW1 6734   3.511   5.032   0.688
 1945SOL    HW2 6735   3.669   4.997   0.708
 1946SOL     OW 6736   6.223   6.623   0.933
 1946SOL    HW1 6737   6.227   6.534   0.887
 1946SOL    HW2 6738   6.208   6.609   1.031
 1947SOL     OW 6739   5.391   6.222   4.427
 1947SOL    HW1 6740   5.416   6.182   4.338
 1947SOL    HW2 6741   5.391   6.150   4.496
 1948SOL     OW 6742   6.213   5.180   3.983
 1948SOL    HW1 6743   6.178   5.230   3.903
 1948SOL    HW2 6744   6.252   5.093   3.954
 1949SOL     OW 6745   3.410   3.399   6.126
 1949SOL    HW1 6746   3.472   3.466   6.083
 1949SOL    HW2 6747   3.315   3.425   6.107
 1950SOL     OW 6748   4.453   3.163   0.470
 1950SOL    HW1 6749   4.448   3.063   0.477
 1950SOL    HW2 6750   4.362   3.199   0.448
 1951SOL     OW 6751   6.253   4.495   0.107
 1951SOL    HW1 6752   6.213   4.535   0.189
 1951SOL    HW2 6753   6.331   4.438   0.132
 1952SOL     OW 6754   4.390   3.602   1.323
 1952SOL    HW1 6755   4.465   3.541   1.347
 1952SOL    HW2 6756   4.311   3.547   1.293
 1953SOL     OW 6757   6.235   1.684   5.547
 1953SOL    HW1 6758   6.268   1.599   5.589
 1953SOL    HW2 6759   6.181   1.736   5.613
 1954SOL     OW 6760   6.695   0.885   2.229
 1954SOL    HW1 6761   6.628   0.817   2.260
 1954SOL    HW2 6762   6.665   0.924   2.142
 1955SOL     OW 6763   0.789   0.716   3.167
 1955SOL    HW1 6764   0.812   0.795   3.110
 1955SOL    HW2 6765   0.856   0.707   3.241
 1956SOL     OW 6766   4.676   0.024   1.705
 1956SOL    HW1 6767   4.588   0.018   1.753
 1956SOL    HW2 6768   4.733   6.967   1.729
 1957SOL     OW 6769   5.781   4.568   4.025
 1957SOL    HW1 6770   5.748   4.662   4.035
 1957SOL    HW2 6771   5.814   4.534   4.112
 1958SOL     OW 6772   4.879   1.536   1.691
 1958SOL    HW1 6773   4.826   1.594   1.630
 1958SOL    HW2 6774   4.943   1.481   1.637
 1959SOL     OW 6775   1.386   0.329   4.050
 1959SOL    HW1 6776   1.364   0.314   3.953
 1959SOL    HW2 6777   1.455   0.401   4.057
 1960SOL     OW 6778   0.560   4.617   2.132
 1960SOL    HW1 6779   0.552   4.613   2.032
 1960SOL    HW2 6780   0.577   4.712   2.160
 1961SOL     OW 6781   6.079   4.862   4.930
 1961SOL    HW1 6782   6.039   4.805   5.001
 1961SOL    HW2 6783   6.177   4.871   4.946
 1962SOL     OW 6784   1.476   6.079   2.416
 1962SOL    HW1 6785   1.547   6.125   2.363
 1962SOL    HW2 6786   1.487   5.980   2.408
 1963SOL     OW 6787   1.026   1.480   1.431
 1963SOL    HW1 6788   0.987   1.546   1.366
 1963SOL    HW2 6789   0.958   1.459   1.501
 1964SOL     OW 6790   4.257   4.576   1.777
 1964SOL    HW1 6791   4.273   4.667   1.739
 1964SOL    HW2 6792   4.330   4.553   1.841
 1965SOL     OW 6793   1.308   2.985   4.287
 1965SOL    HW1 6794   1.270   2.896   4.260
 1965SOL    HW2 6795   1.383   2.972   4.351
 1966SOL     OW 6796   0.470   6.265   0.257
 1966SOL    HW1 6797   0.451   6.361   0.238
 1966SOL    HW2 6798   0.557   6.258   0.306
 1967SOL     OW 6799   5.504   2.656   4.573
 1967SOL    HW1 6800   5.544   2.566   4.556
 1967SOL    HW2 6801   5.571   2.726   4.547
 1968SOL     OW 6802   1.351   6.884   5.339
 1968SOL    HW1 6803   1.292   6.803   5.348
 1968SOL    HW2 6804   1.443   6.862   5.372
 1969SOL     OW 6805   2.138   1.709   0.602
 1969SOL    HW1 6806   2.085   1.726   0.685
 1969SOL    HW2 6807   2.183   1.794   0.574
 1970SOL     OW 6808   3.016   6.143   6.476
 1970SOL    HW1 6809   2.938   6.110   6.422
 1970SOL    HW2 6810   3.088   6.174   6.414
 1971SOL     OW 6811   0.413   0.351   4.980
 1971SOL    HW1 6812   0.407   0.261   4.937
 1971SOL    HW2 6813   0.414   0.422   4.910
 1972SOL     OW 6814   4.887   1.954   2.013
 1972SOL    HW1 6815   4.884   2.026   1.944
 1972SOL    HW2 6816   4.888   1.865   1.967
 1973SOL     OW 6817   3.874   3.145   0.670
 1973SOL    HW1 6818   3.888   3.152   0.769
 1973SOL    HW2 6819   3.777   3.126   0.652
 1974SOL     OW 6820   5.588   7.009   4.522
 1974SOL    HW1 6821   5.592   6.923   4.470
 1974SOL    HW2 6822   5.677   0.033   4.520
 1975SOL     OW 6823   2.132   2.004   4.407
 1975SOL    HW1 6824   2.105   1.956   4.324
 1975SOL    HW2 6825   2.066   1.984   4.480
 1976SOL     OW 6826   6.449   0.078   0.381
 1976SOL    HW1 6827   6.505   0.003   0.416
 1976SOL    HW2 6828   6.380   0.102   0.449
 1977SOL     OW 6829   2.140   3.150   4.965
 1977SOL    HW1 6830   2.069   3.080   4.954
 1977SOL    HW2 6831   2.226   3.105   4.989
 1978SOL     OW 6832   2.205   6.233   3.278
 1978SOL    HW1 6833   2.162   6.150   3.312
 1978SOL    HW2 6834   2.286   6.253   3.334
 1979SOL     OW 6835   5.684   4.664   0.217
 1979SOL    HW1 6836   5.619   4.612   0.163
 1979SOL    HW2 6837   5.666   4.649   0.315
 1980SOL     OW 6838   2.986   0.306   4.241
 1980SOL    HW1 6839   3.053   0.374   4.269
 1980SOL    HW2 6840   3.016   0.265   4.154
 1981SOL     OW 6841   6.503   3.248   1.850
 1981SOL    HW1 6842   6.490   3.202   1.938
 1981SOL    HW2 6843   6.516   3.346   1.864
 1982SOL     OW 6844   0.646   4.028   4.353
 1982SOL    HW1 6845   0.571   4.038   4.419
 1982SOL    HW2 6846   0.616   4.058   4.263
 1983SOL     OW 6847   1.361   0.504   1.784
 1983SOL    HW1 6848   1.272   0.486   1.744
 1983SOL    HW2 6849   1.411   0.570   1.728
 1984SOL     OW 6850   5.056   2.707   4.772
 1984SOL    HW1 6851   5.095   2.632   4.718
 1984SOL    HW2 6852   5.129   2.769   4.800
 1985SOL     OW 6853   0.752   6.705   2.210
 1985SOL    HW1 6854   0.751   6.690   2.309
 1985SOL    HW2 6855   0.722   6.798   2.190
 1986SOL     OW 6856   2.703   1.088   6.700
 1986SOL    HW1 6857   2.651   1.076   6.785
 1986SOL    HW2 6858   2.666   1.028   6.629
 1987SOL     OW 6859   1.902   1.671   3.005
 1987SOL    HW1 6860   1.918   1.737   2.932
 1987SOL    HW2 6861   1.956   1.695   3.086
 1988SOL     OW 6862   6.665   3.639   0.549
 1988SOL    HW1 6863   6.605   3.596   0.480
 1988SOL    HW2 6864   6.618   3.642   0.637
 1989SOL     OW 6865   2.115   5.598   5.106
 1989SOL    HW1 6866   2.192   5.552   5.150
 1989SOL    HW2 6867   2.145   5.687   5.071
 1990SOL     OW 6868   3.796   5.633   0.882
 1990SOL    HW1 6869   3.848   5.672   0.806
 1990SOL    HW2 6870   3.851   5.635   0.965
 1991SOL     OW 6871   3.189   4.646   6.736
 1991SOL    HW1 6872   3.152   4.675   6.648
 1991SOL    HW2 6873   3.283   4.679   6.745
 1992SOL     OW 6874   0.282   0.711   0.218
 1992SOL    HW1 6875   0.203   0.692   0.160
 1992SOL    HW2 6876   0.348   0.636   0.210
 1993SOL     OW 6877   3.700   2.379   6.066
 1993SOL    HW1 6878   3.785   2.337   6.034
 1993SOL    HW2 6879   3.650   2.416   5.988
 1994SOL     OW 6880   0.387   1.551   0.518
 1994SOL    HW1 6881   0.298   1.508   0.509
 1994SOL    HW2 6882   0.445   1.497   0.580
 1995SOL     OW 6883   5.323   2.563   3.772
 1995SOL    HW1 6884   5.234   2.542   3.811
 1995SOL    HW2 6885   5.312   2.600   3.679
 1996SOL     OW 6886   2.490   2.216   0.671
 1996SOL    HW1 6887   2.574   2.219   0.617
 1996SOL    HW2 6888   2.439   2.302   0.658
 1997SOL     OW 6889   3.371   2.094   4.966
 1997SOL    HW1 6890   3.345   2.041   5.046
 1997SOL    HW2 6891   3.321   2.180   4.965
 1998SOL     OW 6892   2.445   3.874   0.484
 1998SOL    HW1 6893   2.468   3.805   0.553
 1998SOL    HW2 6894   2.367   3.843   0.430
 1999SOL     OW 6895   1.950   6.801   6.505
 1999SOL    HW1 6896   1.938   6.743   6.425
 1999SOL    HW2 6897   1.864   6.846   6.528
 2000SOL     OW 6898   4.054   2.756   5.372
 2000SOL    HW1 6899   4.096   2.696   5.303
 2000SOL    HW2 6900   4.125   2.815   5.412
 2001SOL     OW 6901   2.169   0.182   1.513
 2001SOL    HW1 6902   2.111   0.142   1.442
 2001SOL    HW2 6903   2.215   0.263   1.477
 2002SOL     OW 6904   0.751   4.376   0.688
 2002SOL    HW1 6905   0.827   4.390   0.752
 2002SOL    HW2 6906   0.785   4.385   0.594
 2003SOL     OW 6907   6.148   5.008   2.520
 2003SOL    HW1 6908   6.135   4.966   2.430
 2003SOL    HW2 6909   6.097   4.955   2.589
 2004SOL     OW 6910   5.372   0.999   4.322
 2004SOL    HW1 6911   5.354   0.912   4.368
 2004SOL    HW2 6912   5.442   0.985   4.252
 2005SOL     OW 6913   0.332   4.445   0.525
 2005SOL    HW1 6914   0.309   4.538   0.554
 2005SOL    HW2 6915   0.329   4.440   0.425
 2006SOL     OW 6916   5.746   0.223   2.823
 2006SOL    HW1 6917   5.701   0.216   2.734
 2006SOL    HW2 6918   5.711   0.153   2.885
 2007SOL     OW 6919   4.860   4.316   0.670
 2007SOL    HW1 6920   4.853   4.217   0.656
 2007SOL    HW2 6921   4.953   4.346   0.650
 2008SOL     OW 6922   1.867   4.180   3.998
 2008SOL    HW1 6923   1.912   4.269   3.988
 2008SOL    HW2 6924   1.826   4.154   3.911
 2009SOL     OW 6925   5.351   0.353   2.731
 2009SOL    HW1 6926   5.276   0.416   2.752
 2009SOL    HW2 6927   5.421   0.361   2.801
 2010SOL     OW 6928   3.106   1.768   1.773
 2010SOL    HW1 6929   3.034   1.698   1.773
 2010SOL    HW2 6930   3.084   1.840   1.707
 2011SOL     OW 6931   0.366   0.857   4.685
 2011SOL    HW1 6932   0.380   0.803   4.602
 2011SOL    HW2 6933   0.270   0.854   4.712
 2012SOL     OW 6934   1.117   4.383   2.438
 2012SOL    HW1 6935   1.048   4.401   2.509
 2012SOL    HW2 6936   1.163   4.297   2.458
 2013SOL     OW 6937   6.012   2.701   3.154
 2013SOL    HW1 6938   6.041   2.611   3.120
 2013SOL    HW2 6939   6.092   2.751   3.187
 2014SOL     OW 6940   2.954   6.621   3.436
 2014SOL    HW1 6941   2.896   6.565   3.496
 2014SOL    HW2 6942   2.922   6.715   3.438
 2015SOL     OW 6943   2.110   0.406   0.411
 2015SOL    HW1 6944   2.188   0.345   0.428
 2015SOL    HW2 6945   2.076   0.442   0.498
 2016SOL     OW 6946   1.951   6.158   5.657
 2016SOL    HW1 6947   1.904   6.183   5.742
 2016SOL    HW2 6948   1.884   6.150   5.584
 2017SOL     OW 6949   3.811   0.085   3.420
 2017SOL    HW1 6950   3.904   0.066   3.389
 2017SOL    HW2 6951   3.809   0.171   3.471
 2018SOL     OW 6952   5.432   2.386   4.221
 2018SOL    HW1 6953   5.437   2.438   4.136
 2018SOL    HW2 6954   5.511   2.409   4.279
 2019SOL     OW 6955   5.352   3.627   6.221
 2019SOL    HW1 6956   5.439   3.581   6.240
 2019SOL    HW2 6957   5.347   3.711   6.275
 2020SOL     OW 6958   1.944   0.241   5.419
 2020SOL    HW1 6959   1.964   0.167   5.355
 2020SOL    HW2 6960   1.928   0.204   5.510
 2021SOL     OW 6961   6.702   6.693   5.137
 2021SOL    HW1 6962   6.688   6.779   5.187
 2021SOL    HW2 6963   6.613   6.659   5.106
 2022SOL     OW 6964   1.559   5.036   3.526
 2022SOL    HW1 6965   1.633   4.970   3.539
 2022SOL    HW2 6966   1.539   5.081   3.614
 2023SOL     OW 6967   0.191   0.613   6.524
 2023SOL    HW1 6968   0.248   0.566   6.457
 2023SOL    HW2 6969   0.158   0.699   6.484
 2024SOL     OW 6970   0.211   6.063   3.363
 2024SOL    HW1 6971   0.116   6.085   3.387
 2024SOL    HW2 6972   0.263   6.147   3.350
 2025SOL     OW 6973   3.800   0.873   3.504
 2025SOL    HW1 6974   3.876   0.809   3.516
 2025SOL    HW2 6975   3.732   0.858   3.576
 2026SOL     OW 6976   6.131   3.145   5.688
 2026SOL    HW1 6977   6.060   3.088   5.728
 2026SOL    HW2 6978   6.221   3.109   5.713
 2027SOL     OW 6979   1.237   6.936   0.335
 2027SOL    HW1 6980   1.292   7.019   0.325
 2027SOL    HW2 6981   1.257   6.893   0.423
 2028SOL     OW 6982   3.072   5.363   4.383
 2028SOL    HW1 6983   3.088   5.282   4.439
 2028SOL    HW2 6984   2.975   5.369   4.359
 2029SOL     OW 6985   6.129   1.754   0.166
 2029SOL    HW1 6986   6.076   1.692   0.108
 2029SOL    HW2 6987   6.220   1.714   0.182
 2030SOL     OW 6988   3.234   0.943   3.791
 2030SOL    HW1 6989   3.272   0.965   3.701
 2030SOL    HW2 6990   3.244   0.845   3.809
 2031SOL     OW 6991   6.992   5.924   1.584
 2031SOL    HW1 6992   0.019   6.011   1.595
 2031SOL    HW2 6993   7.016   5.863   1.659
 2032SOL     OW 6994   4.108   0.736   2.145
 2032SOL    HW1 6995   4.171   0.738   2.068
 2032SOL    HW2 6996   4.108   0.826   2.190
 2033SOL     OW 6997   2.974   2.862   0.086
 2033SOL    HW1 6998   2.953   2.767   0.060
 2033SOL    HW2 6999   2.890   2.907   0.116
 2034SOL     OW 7000   2.509   5.191   5.181
 2034SOL    HW1 7001   2.570   5.219   5.255
 2034SOL    HW2 7002   2.478   5.098   5.197
 2035SOL     OW 7003   6.201   6.311   3.334
 2035SOL    HW1 7004   6.239   6.368   3.406
 2035SOL    HW2 7005   6.170   6.368   3.258
 2036SOL     OW 7006   0.913   3.239   2.869
 2036SOL    HW1 7007   0.824   3.211   2.905
 2036SOL    HW2 7008   0.965   3.158   2.844
 2037SOL     OW 7009   6.123   2.855   6.066
 2037SOL    HW1 7010   6.151   2.771   6.019
 2037SOL    HW2 7011   6.174   2.933   6.030
 2038SOL     OW 7012   1.904   1.551   0.429
 2038SOL    HW1 7013   1.892   1.495   0.511
 2038SOL    HW2 7014   2.001   1.574   0.418
 2039SOL     OW 7015   6.893   5.784   3.500
 2039SOL    HW1 7016   6.818   5.734   3.457
 2039SOL    HW2 7017   6.969   5.721   3.517
 2040SOL     OW 7018   1.709   2.846   6.603
 2040SOL    HW1 7019   1.787   2.800   6.645
 2040SOL    HW2 7020   1.640   2.778   6.578
 2041SOL     OW 7021   0.950   6.499   5.269
 2041SOL    HW1 7022   0.853   6.520   5.280
 2041SOL    HW2 7023   0.960   6.410   5.225
 2042SOL     OW 7024   4.551   6.331   6.852
 2042SOL    HW1 7025   4.487   6.260   6.823
 2042SOL    HW2 7026   4.572   6.319   6.950
 2043SOL     OW 7027   6.314   3.524   3.459
 2043SOL    HW1 7028   6.306   3.424   3.467
 2043SOL    HW2 7029   6.406   3.552   3.488
 2044SOL     OW 7030   6.404   1.090   1.345
 2044SOL    HW1 7031   6.311   1.114   1.319
 2044SOL    HW2 7032   6.469   1.147   1.295
 2045SOL     OW 7033   1.827   5.598   4.612
 2045SOL    HW1 7034   1.910   5.616   4.664
 2045SOL    HW2 7035   1.759   5.669   4.631
 2046SOL     OW 7036   6.605   1.975   4.305
 2046SOL    HW1 7037   6.594   2.065   4.346
 2046SOL    HW2 7038   6.614   1.985   4.206
 2047SOL     OW 7039   6.598   2.807   0.073
 2047SOL    HW1 7040   6.599   2.835   0.169
 2047SOL    HW2 7041   6.539   2.869   0.021
 2048SOL     OW 7042   0.703   6.623   5.752
 2048SOL    HW1 7043   0.743   6.593   5.839
 2048SOL    HW2 7044   0.768   6.680   5.703
 2049SOL     OW 7045   5.988   1.528   4.234
 2049SOL    HW1 7046   5.982   1.485   4.325
 2049SOL    HW2 7047   6.074   1.578   4.227
 2050SOL     OW 7048   6.150   3.117   3.790
 2050SOL    HW1 7049   6.069   3.089   3.841
 2050SOL    HW2 7050   6.221   3.147   3.854
 2051SOL     OW 7051   1.760   5.873   6.501
 2051SOL    HW1 7052   1.782   5.811   6.426
 2051SOL    HW2 7053   1.818   5.954   6.497
 2052SOL     OW 7054   1.833   2.745   1.290
 2052SOL    HW1 7055   1.769   2.704   1.354
 2052SOL    HW2 7056   1.811   2.715   1.197
 2053SOL     OW 7057   6.753   6.059   4.652
 2053SOL    HW1 7058   6.656   6.043   4.670
 2053SOL    HW2 7059   6.806   5.978   4.678
 2054SOL     OW 7060   3.422   4.031   3.344
 2054SOL    HW1 7061   3.432   3.933   3.325
 2054SOL    HW2 7062   3.350   4.045   3.412
 2055SOL     OW 7063   5.920   3.460   4.626
 2055SOL    HW1 7064   5.862   3.404   4.567
 2055SOL    HW2 7065   5.874   3.547   4.644
 2056SOL     OW 7066   4.374   5.318   1.101
 2056SOL    HW1 7067   4.466   5.311   1.139
 2056SOL    HW2 7068   4.347   5.230   1.062
 2057SOL     OW 7069   5.018   4.053   6.030
 2057SOL    HW1 7070   5.039   4.090   5.940
 2057SOL    HW2 7071   5.091   3.990   6.058
 2058SOL     OW 7072   0.259   6.639   2.790
 2058SOL    HW1 7073   0.259   6.569   2.862
 2058SOL    HW2 7074   0.211   6.720   2.822
 2059SOL     OW 7075   1.869   5.871   6.047
 2059SOL    HW1 7076   1.865   5.897   6.144
 2059SOL    HW2 7077   1.965   5.865   6.018
 2060SOL     OW 7078   0.437   4.050   1.307
 2060SOL    HW1 7079   0.358   4.008   1.352
 2060SOL    HW2 7080   0.511   4.061   1.373
 2061SOL     OW 7081   1.530   1.711   1.963
 2061SOL    HW1 7082   1.590   1.639   1.997
 2061SOL    HW2 7083   1.582   1.796   1.952
 2062SOL     OW 7084   6.946   5.532   5.060
 2062SOL    HW1 7085   6.985   5.470   5.128
 2062SOL    HW2 7086   6.876   5.589   5.103
 2063SOL     OW 7087   1.319   6.577   5.087
 2063SOL    HW1 7088   1.269   6.596   5.002
 2063SOL    HW2 7089   1.266   6.610   5.165
 2064SOL     OW 7090   0.360   2.110   4.721
 2064SOL    HW1 7091   0.382   2.033   4.781
 2064SOL    HW2 7092   0.438   2.130   4.662
 2065SOL     OW 7093   5.885   2.989   6.099
 2065SOL    HW1 7094   5.961   2.926   6.085
 2065SOL    HW2 7095   5.917   3.083   6.084
 2066SOL     OW 7096   6.987   4.013   5.276
 2066SOL    HW1 7097   0.053   4.027   5.228
 2066SOL    HW2 7098   6.995   4.046   5.370
 2067SOL     OW 7099   0.102   4.980   0.807
 2067SOL    HW1 7100   0.018   4.963   0.756
 2067SOL    HW2 7101   0.169   4.908   0.787
 2068SOL     OW 7102   3.004   0.163   3.895
 2068SOL    HW1 7103   3.031   0.257   3.914
 2068SOL    HW2 7104   2.976   0.155   3.799
 2069SOL     OW 7105   6.058   2.529   4.232
 2069SOL    HW1 7106   6.046   2.450   4.292
 2069SOL    HW2 7107   6.140   2.579   4.259
 2070SOL     OW 7108   1.198   1.592   0.880
 2070SOL    HW1 7109   1.288   1.560   0.850
 2070SOL    HW2 7110   1.205   1.630   0.973
 2071SOL     OW 7111   6.188   0.561   5.690
 2071SOL    HW1 7112   6.170   0.475   5.642
 2071SOL    HW2 7113   6.108   0.621   5.682
 2072SOL     OW 7114   4.584   5.385   4.387
 2072SOL    HW1 7115   4.666   5.384   4.330
 2072SOL    HW2 7116   4.593   5.455   4.458
 2073SOL     OW 7117   4.554   6.391   4.957
 2073SOL    HW1 7118   4.497   6.455   4.905
 2073SOL    HW2 7119   4.577   6.313   4.898
 2074SOL     OW 7120   2.192   2.555   6.266
 2074SOL    HW1 7121   2.248   2.487   6.314
 2074SOL    HW2 7122   2.217   2.647   6.297
 2075SOL     OW 7123   6.746   2.384   3.004
 2075SOL    HW1 7124   6.834   2.423   2.975
 2075SOL    HW2 7125   6.761   2.327   3.085
 2076SOL     OW 7126   5.110   6.478   6.507
 2076SOL    HW1 7127   5.038   6.514   6.567
 2076SOL    HW2 7128   5.199   6.507   6.540
 2077SOL     OW 7129   6.703   2.181   1.946
 2077SOL    HW1 7130   6.674   2.180   2.042
 2077SOL    HW2 7131   6.769   2.109   1.931
 2078SOL     OW 7132   2.145   5.457   6.199
 2078SOL    HW1 7133   2.130   5.496   6.290
 2078SOL    HW2 7134   2.060   5.459   6.147
 2079SOL     OW 7135   0.211   1.376   2.670
 2079SOL    HW1 7136   0.122   1.373   2.715
 2079SOL    HW2 7137   0.204   1.336   2.579
 2080SOL     OW 7138   2.512   0.690   5.133
 2080SOL    HW1 7139   2.591   0.652   5.182
 2080SOL    HW2 7140   2.443   0.619   5.120
 2081SOL     OW 7141   1.160   6.569   4.564
 2081SOL    HW1 7142   1.192   6.577   4.470
 2081SOL    HW2 7143   1.078   6.513   4.567
 2082SOL     OW 7144   0.793   6.457   3.137
 2082SOL    HW1 7145   0.749   6.498   3.056
 2082SOL    HW2 7146   0.728   6.396   3.183
 2083SOL     OW 7147   1.355   5.619   5.160
 2083SOL    HW1 7148   1.289   5.693   5.146
 2083SOL    HW2 7149   1.406   5.635   5.245
 2084SOL     OW 7150   0.959   3.469   2.719
 2084SOL    HW1 7151   0.922   3.445   2.630
 2084SOL    HW2 7152   0.967   3.387   2.775
 2085SOL     OW 7153   4.879   0.369   0.898
 2085SOL    HW1 7154   4.818   0.292   0.919
 2085SOL    HW2 7155   4.945   0.379   0.972
 2086SOL     OW 7156   3.600   6.355   6.931
 2086SOL    HW1 7157   3.504   6.327   6.923
 2086SOL    HW2 7158   3.643   6.306   7.007
 2087SOL     OW 7159   4.841   1.697   1.947
 2087SOL    HW1 7160   4.751   1.740   1.933
 2087SOL    HW2 7161   4.860   1.636   1.870
 2088SOL     OW 7162   1.293   6.105   6.558
 2088SOL    HW1 7163   1.308   6.016   6.517
 2088SOL    HW2 7164   1.327   6.177   6.497
 2089SOL     OW 7165   4.789   2.550   5.772
 2089SOL    HW1 7166   4.719   2.481   5.757
 2089SOL    HW2 7167   4.875   2.520   5.730
 2090SOL     OW 7168   4.622   3.327   5.671
 2090SOL    HW1 7169   4.675   3.411   5.657
 2090SOL    HW2 7170   4.681   3.257   5.709
 2091SOL     OW 7171   0.050   5.043   1.119
 2091SOL    HW1 7172   0.100   5.052   1.206
 2091SOL    HW2 7173   0.114   5.024   1.045
 2092SOL     OW 7174   5.416   3.306   0.721
 2092SOL    HW1 7175   5.507   3.283   0.686
 2092SOL    HW2 7176   5.350   3.303   0.646
 2093SOL     OW 7177   3.191   2.431   1.612
 2093SOL    HW1 7178   3.111   2.388   1.653
 2093SOL    HW2 7179   3.228   2.500   1.674
 2094SOL     OW 7180   5.083   1.363   1.445
 2094SOL    HW1 7181   5.168   1.416   1.457
 2094SOL    HW2 7182   5.063   1.314   1.530
 2095SOL     OW 7183   5.918   6.120   4.695
 2095SOL    HW1 7184   5.828   6.089   4.727
 2095SOL    HW2 7185   5.906   6.178   4.615
 2096SOL     OW 7186   5.085   5.807   3.539
 2096SOL    HW1 7187   5.029   5.784   3.619
 2096SOL    HW2 7188   5.158   5.740   3.529
 2097SOL     OW 7189   2.881   3.237   0.240
 2097SOL    HW1 7190   2.854   3.159   0.297
 2097SOL    HW2 7191   2.970   3.218   0.199
 2098SOL     OW 7192   4.452   5.849   2.434
 2098SOL    HW1 7193   4.367   5.880   2.475
 2098SOL    HW2 7194   4.433   5.787   2.358
 2099SOL     OW 7195   3.725   1.673   0.251
 2099SOL    HW1 7196   3.647   1.687   0.313
 2099SOL    HW2 7197   3.725   1.578   0.218
 2100SOL     OW 7198   5.283   1.343   0.573
 2100SOL    HW1 7199   5.279   1.434   0.532
 2100SOL    HW2 7200   5.376   1.307   0.566
 2101SOL     OW 7201   6.809   6.603   1.179
 2101SOL    HW1 7202   6.764   6.680   1.224
 2101SOL    HW2 7203   6.741   6.534   1.155
 2102SOL     OW 7204   4.854   3.849   2.021
 2102SOL    HW1 7205   4.798   3.811   1.948
 2102SOL    HW2 7206   4.945   3.807   2.018
 2103SOL     OW 7207   3.770   3.722   0.012
 2103SOL    HW1 7208   3.722   3.700   0.097
 2103SOL    HW2 7209   3.705   3.724   6.957
 2104SOL     OW 7210   1.638   4.386   2.093
 2104SOL    HW1 7211   1.544   4.358   2.073
 2104SOL    HW2 7212   1.678   4.427   2.011
 2105SOL     OW 7213   4.851   5.146   6.773
 2105SOL    HW1 7214   4.848   5.051   6.806
 2105SOL    HW2 7215   4.937   5.188   6.802
 2106SOL     OW 7216   4.645   3.649   1.568
 2106SOL    HW1 7217   4.714   3.644   1.496
 2106SOL    HW2 7218   4.571   3.710   1.539
 2107SOL     OW 7219   5.961   2.795   5.598
 2107SOL    HW1 7220   6.030   2.853   5.555
 2107SOL    HW2 7221   5.942   2.717   5.539
 2108SOL     OW 7222   6.332   5.660   5.404
 2108SOL    HW1 7223   6.418   5.613   5.423
 2108SOL    HW2 7224   6.333   5.694   5.310
 2109SOL     OW 7225   3.434   6.066   2.665
 2109SOL    HW1 7226   3.377   6.079   2.585
 2109SOL    HW2 7227   3.473   5.974   2.664
 2110SOL     OW 7228   3.233   0.932   6.880
 2110SOL    HW1 7229   3.228   0.873   6.799
 2110SOL    HW2 7230   3.147   0.983   6.889
 2111SOL     OW 7231   2.406   3.521   6.076
 2111SOL    HW1 7232   2.352   3.474   6.146
 2111SOL    HW2 7233   2.359   3.516   5.988
 2112SOL     OW 7234   4.987   2.170   0.761
 2112SOL    HW1 7235   4.957   2.094   0.819
 2112SOL    HW2 7236   4.913   2.237   0.752
 2113SOL     OW 7237   2.390   0.820   4.930
 2113SOL    HW1 7238   2.326   0.893   4.956
 2113SOL    HW2 7239   2.441   0.791   5.011
 2114SOL     OW 7240   3.115   2.337   6.693
 2114SOL    HW1 7241   3.026   2.357   6.735
 2114SOL    HW2 7242   3.179   2.306   6.763
 2115SOL     OW 7243   0.848   4.172   2.232
 2115SOL    HW1 7244   0.773   4.239   2.226
 2115SOL    HW2 7245   0.880   4.150   2.140
 2116SOL     OW 7246   1.112   3.172   2.048
 2116SOL    HW1 7247   1.179   3.108   2.010
 2116SOL    HW2 7248   1.020   3.140   2.028
 2117SOL     OW 7249   5.626   3.831   1.223
 2117SOL    HW1 7250   5.690   3.815   1.299
 2117SOL    HW2 7251   5.571   3.748   1.208
 2118SOL     OW 7252   6.903   3.498   3.116
 2118SOL    HW1 7253   6.844   3.512   3.196
 2118SOL    HW2 7254   6.951   3.411   3.125
 2119SOL     OW 7255   1.723   1.103   1.052
 2119SOL    HW1 7256   1.718   1.019   1.106
 2119SOL    HW2 7257   1.742   1.181   1.113
 2120SOL     OW 7258   0.260   3.751   2.365
 2120SOL    HW1 7259   0.207   3.714   2.441
 2120SOL    HW2 7260   0.349   3.704   2.361
 2121SOL     OW 7261   1.532   2.809   5.900
 2121SOL    HW1 7262   1.512   2.713   5.882
 2121SOL    HW2 7263   1.615   2.835   5.851
 2122SOL     OW 7264   5.348   6.200   6.576
 2122SOL    HW1 7265   5.407   6.132   6.620
 2122SOL    HW2 7266   5.405   6.262   6.521
 2123SOL     OW 7267   6.637   6.058   1.349
 2123SOL    HW1 7268   6.647   6.034   1.252
 2123SOL    HW2 7269   6.679   5.987   1.406
 2124SOL     OW 7270   2.629   1.362   6.991
 2124SOL    HW1 7271   2.637   1.392   0.066
 2124SOL    HW2 7272   2.556   1.294   6.985
 2125SOL     OW 7273   0.980   5.804   1.965
 2125SOL    HW1 7274   1.036   5.724   1.983
 2125SOL    HW2 7275   1.038   5.886   1.963
 2126SOL     OW 7276   3.363   2.702   6.471
 2126SOL    HW1 7277   3.418   2.777   6.436
 2126SOL    HW2 7278   3.315   2.732   6.554
 2127SOL     OW 7279   0.592   2.031   5.492
 2127SOL    HW1 7280   0.604   1.952   5.552
 2127SOL    HW2 7281   0.618   2.115   5.541
 2128SOL     OW 7282   5.982   2.333   2.428
 2128SOL    HW1 7283   6.044   2.256   2.444
 2128SOL    HW2 7284   6.035   2.411   2.394
 2129SOL     OW 7285   4.543   4.507   4.846
 2129SOL    HW1 7286   4.476   4.471   4.910
 2129SOL    HW2 7287   4.594   4.582   4.889
 2130SOL     OW 7288   2.625   0.625   2.156
 2130SOL    HW1 7289   2.693   0.669   2.099
 2130SOL    HW2 7290   2.577   0.694   2.210
 2131SOL     OW 7291   5.228   0.972   0.812
 2131SOL    HW1 7292   5.283   0.950   0.731
 2131SOL    HW2 7293   5.136   0.935   0.801
 2132SOL     OW 7294   2.954   1.511   6.835
 2132SOL    HW1 7295   2.926   1.429   6.885
 2132SOL    HW2 7296   2.897   1.523   6.754
 2133SOL     OW 7297   3.109   2.447   1.142
 2133SOL    HW1 7298   3.170   2.417   1.215
 2133SOL    HW2 7299   3.026   2.392   1.143
 2134SOL     OW 7300   0.918   0.948   4.874
 2134SOL    HW1 7301   0.938   0.977   4.968
 2134SOL    HW2 7302   0.982   0.994   4.812
 2135SOL     OW 7303   0.637   1.775   4.600
 2135SOL    HW1 7304   0.646   1.796   4.503
 2135SOL    HW2 7305   0.727   1.775   4.643
 2136SOL     OW 7306   1.306   3.918   4.725
 2136SOL    HW1 7307   1.220   3.923   4.776
 2136SOL    HW2 7308   1.318   4.001   4.672
 2137SOL     OW 7309   0.173   6.732   4.659
 2137SOL    HW1 7310   0.103   6.758   4.593
 2137SOL    HW2 7311   0.250   6.796   4.653
 2138SOL     OW 7312   6.327   2.251   2.087
 2138SOL    HW1 7313   6.367   2.189   2.020
 2138SOL    HW2 7314   6.228   2.253   2.075
 2139SOL     OW 7315   4.263   0.722   2.504
 2139SOL    HW1 7316   4.170   0.741   2.475
 2139SOL    HW2 7317   4.278   0.757   2.596
 2140SOL     OW 7318   3.214   5.942   3.220
 2140SOL    HW1 7319   3.265   6.019   3.183
 2140SOL    HW2 7320   3.126   5.934   3.172
 2141SOL     OW 7321   0.270   3.452   1.408
 2141SOL    HW1 7322   0.216   3.416   1.332
 2141SOL    HW2 7323   0.229   3.536   1.443
 2142SOL     OW 7324   1.469   2.273   3.024
 2142SOL    HW1 7325   1.467   2.361   2.977
 2142SOL    HW2 7326   1.379   2.253   3.063
 2143SOL     OW 7327   3.158   4.864   0.690
 2143SOL    HW1 7328   3.190   4.820   0.606
 2143SOL    HW2 7329   3.058   4.858   0.694
 2144SOL     OW 7330   1.307   0.131   2.669
 2144SOL    HW1 7331   1.249   0.114   2.748
 2144SOL    HW2 7332   1.348   0.222   2.678
 2145SOL     OW 7333   4.143   5.555   3.848
 2145SOL    HW1 7334   4.237   5.560   3.881
 2145SOL    HW2 7335   4.104   5.647   3.846
 2146SOL     OW 7336   2.810   3.438   1.984
 2146SOL    HW1 7337   2.789   3.399   1.894
 2146SOL    HW2 7338   2.729   3.436   2.042
 2147SOL     OW 7339   6.741   0.626   6.794
 2147SOL    HW1 7340   6.670   0.655   6.859
 2147SOL    HW2 7341   6.732   0.527   6.778
 2148SOL     OW 7342   4.768   2.991   4.319
 2148SOL    HW1 7343   4.694   2.941   4.365
 2148SOL    HW2 7344   4.854   2.972   4.365
 2149SOL     OW 7345   3.616   0.949   1.393
 2149SOL    HW1 7346   3.585   0.985   1.305
 2149SOL    HW2 7347   3.654   0.858   1.380
 2150SOL     OW 7348   2.426   2.589   2.636
 2150SOL    HW1 7349   2.464   2.545   2.555
 2150SOL    HW2 7350   2.497   2.596   2.706
 2151SOL     OW 7351   2.052   1.340   4.140
 2151SOL    HW1 7352   2.019   1.429   4.108
 2151SOL    HW2 7353   1.977   1.291   4.185
 2152SOL     OW 7354   3.916   5.921   1.128
 2152SOL    HW1 7355   3.920   5.823   1.110
 2152SOL    HW2 7356   3.868   5.937   1.214
 2153SOL     OW 7357   3.719   0.334   3.494
 2153SOL    HW1 7358   3.627   0.319   3.530
 2153SOL    HW2 7359   3.784   0.340   3.570
 2154SOL     OW 7360   3.979   6.777   4.722
 2154SOL    HW1 7361   3.941   6.867   4.744
 2154SOL    HW2 7362   4.003   6.773   4.626
 2155SOL     OW 7363   1.596   5.485   6.979
 2155SOL    HW1 7364   1.552   5.395   6.976
 2155SOL    HW2 7365   1.562   5.541   6.903
 2156SOL     OW 7366   2.690   0.379   2.185
 2156SOL    HW1 7367   2.664   0.474   2.166
 2156SOL    HW2 7368   2.763   0.378   2.253
 2157SOL     OW 7369   6.045   1.306   2.999
 2157SOL    HW1 7370   6.090   1.311   2.910
 2157SOL    HW2 7371   6.052   1.395   3.045
 2158SOL     OW 7372   4.011   6.424   0.553
 2158SOL    HW1 7373   4.003   6.328   0.530
 2158SOL    HW2 7374   3.956   6.479   0.490
 2159SOL     OW 7375   1.828   6.147   5.924
 2159SOL    HW1 7376   1.748   6.196   5.958
 2159SOL    HW2 7377   1.837   6.060   5.972
 2160SOL     OW 7378   4.556   3.088   1.423
 2160SOL    HW1 7379   4.500   3.147   1.364
 2160SOL    HW2 7380   4.605   3.021   1.367
 2161SOL     OW 7381   5.350   2.729   3.540
 2161SOL    HW1 7382   5.422   2.663   3.520
 2161SOL    HW2 7383   5.307   2.760   3.455
 2162SOL     OW 7384   2.894   0.393   6.872
 2162SOL    HW1 7385   2.851   0.387   6.962
 2162SOL    HW2 7386   2.992   0.376   6.881
 2163SOL     OW 7387   0.141   5.468   6.098
 2163SOL    HW1 7388   0.061   5.464   6.038
 2163SOL    HW2 7389   0.197   5.548   6.076
 2164SOL     OW 7390   1.365   2.091   7.007
 2164SOL    HW1 7391   1.357   2.014   0.050
 2164SOL    HW2 7392   1.460   2.100   6.978
 2165SOL     OW 7393   0.893   1.464   2.588
 2165SOL    HW1 7394   0.941   1.376   2.591
 2165SOL    HW2 7395   0.807   1.457   2.638
 2166SOL     OW 7396   2.134   2.446   5.615
 2166SOL    HW1 7397   2.192   2.524   5.637
 2166SOL    HW2 7398   2.069   2.431   5.690
 2167SOL     OW 7399   2.246   0.624   3.159
 2167SOL    HW1 7400   2.344   0.606   3.159
 2167SOL    HW2 7401   2.218   0.658   3.070
 2168SOL     OW 7402   6.770   2.183   3.882
 2168SOL    HW1 7403   6.754   2.278   3.853
 2168SOL    HW2 7404   6.700   2.156   3.947
 2169SOL     OW 7405   5.565   2.495   5.909
 2169SOL    HW1 7406   5.602   2.584   5.883
 2169SOL    HW2 7407   5.517   2.455   5.831
 2170SOL     OW 7408   5.955   5.066   5.935
 2170SOL    HW1 7409   5.865   5.035   5.969
 2170SOL    HW2 7410   5.942   5.125   5.856
 2171SOL     OW 7411   5.661   3.155   0.646
 2171SOL    HW1 7412   5.686   3.124   0.737
 2171SOL    HW2 7413   5.585   3.099   0.611
 2172SOL     OW 7414   2.241   2.098   0.719
 2172SOL    HW1 7415   2.283   2.008   0.730
 2172SOL    HW2 7416   2.308   2.161   0.680
 2173SOL     OW 7417   3.622   0.185   5.480
 2173SOL    HW1 7418   3.632   0.088   5.500
 2173SOL    HW2 7419   3.562   0.227   5.548
 2174SOL     OW 7420   6.033   5.166   6.213
 2174SOL    HW1 7421   5.970   5.240   6.238
 2174SOL    HW2 7422   6.008   5.132   6.122
 2175SOL     OW 7423   3.241   2.031   3.409
 2175SOL    HW1 7424   3.146   2.000   3.417
 2175SOL    HW2 7425   3.281   2.041   3.500
 2176SOL     OW 7426   1.197   2.233   1.302
 2176SOL    HW1 7427   1.113   2.239   1.356
 2176SOL    HW2 7428   1.222   2.137   1.291
 2177SOL     OW 7429   6.193   0.779   2.558
 2177SOL    HW1 7430   6.262   0.850   2.542
 2177SOL    HW2 7431   6.130   0.809   2.629
 2178SOL     OW 7432   1.877   4.432   0.425
 2178SOL    HW1 7433   1.916   4.422   0.334
 2178SOL    HW2 7434   1.895   4.525   0.459
 2179SOL     OW 7435   2.398   5.269   4.499
 2179SOL    HW1 7436   2.344   5.348   4.528
 2179SOL    HW2 7437   2.400   5.201   4.572
 2180SOL     OW 7438   3.081   2.946   1.873
 2180SOL    HW1 7439   3.057   2.849   1.872
 2180SOL    HW2 7440   2.998   3.001   1.880
 2181SOL     OW 7441   5.349   4.534   5.827
 2181SOL    HW1 7442   5.313   4.534   5.920
 2181SOL    HW2 7443   5.339   4.443   5.787
 2182SOL     OW 7444   6.482   3.299   5.111
 2182SOL    HW1 7445   6.410   3.327   5.048
 2182SOL    HW2 7446   6.569   3.296   5.062
 2183SOL     OW 7447   3.878   3.859   6.736
 2183SOL    HW1 7448   3.853   3.875   6.641
 2183SOL    HW2 7449   3.850   3.766   6.762
 2184SOL     OW 7450   3.666   1.409   4.990
 2184SOL    HW1 7451   3.742   1.420   5.054
 2184SOL    HW2 7452   3.625   1.499   4.972
 2185SOL     OW 7453   1.956   2.158   0.699
 2185SOL    HW1 7454   2.052   2.132   0.701
 2185SOL    HW2 7455   1.927   2.187   0.790
 2186SOL     OW 7456   6.773   4.956   2.212
 2186SOL    HW1 7457   6.791   5.023   2.140
 2186SOL    HW2 7458   6.700   4.894   2.183
 2187SOL     OW 7459   0.883   1.564   1.954
 2187SOL    HW1 7460   0.894   1.634   2.024
 2187SOL    HW2 7461   0.791   1.569   1.916
 2188SOL     OW 7462   5.569   5.856   3.673
 2188SOL    HW1 7463   5.618   5.769   3.683
 2188SOL    HW2 7464   5.486   5.854   3.729
 2189SOL     OW 7465   1.845   6.117   6.538
 2189SOL    HW1 7466   1.932   6.115   6.489
 2189SOL    HW2 7467   1.859   6.087   6.632
 2190SOL     OW 7468   6.730   2.387   1.753
 2190SOL    HW1 7469   6.820   2.398   1.712
 2190SOL    HW2 7470   6.733   2.312   1.819
 2191SOL     OW 7471   3.040   1.820   6.212
 2191SOL    HW1 7472   3.008   1.725   6.214
 2191SOL    HW2 7473   3.140   1.821   6.207
 2192SOL     OW 7474   3.652   0.324   4.100
 2192SOL    HW1 7475   3.687   0.279   4.017
 2192SOL    HW2 7476   3.718   0.391   4.133
 2193SOL     OW 7477   6.750   5.916   6.133
 2193SOL    HW1 7478   6.734   6.010   6.164
 2193SOL    HW2 7479   6.824   5.875   6.186
 2194SOL     OW 7480   2.277   4.516   6.932
 2194SOL    HW1 7481   2.237   4.505   0.002
 2194SOL    HW2 7482   2.376   4.504   6.938
 2195SOL     OW 7483   0.373   6.777   2.348
 2195SOL    HW1 7484   0.364   6.700   2.285
 2195SOL    HW2 7485   0.469   6.804   2.353
 2196SOL     OW 7486   2.455   0.355   6.123
 2196SOL    HW1 7487   2.502   0.273   6.090
 2196SOL    HW2 7488   2.400   0.393   6.049
 2197SOL     OW 7489   4.989   3.687   1.465
 2197SOL    HW1 7490   5.049   3.756   1.426
 2197SOL    HW2 7491   4.961   3.714   1.557
 2198SOL     OW 7492   6.824   1.937   0.167
 2198SOL    HW1 7493   6.806   1.927   0.265
 2198SOL    HW2 7494   6.895   1.872   0.140
 2199SOL     OW 7495   5.368   0.679   1.410
 2199SOL    HW1 7496   5.313   0.629   1.476
 2199SOL    HW2 7497   5.452   0.628   1.391
 2200SOL     OW 7498   4.087   0.602   4.907
 2200SOL    HW1 7499   4.111   0.595   4.810
 2200SOL    HW2 7500   4.143   0.672   4.951
 2201SOL     OW 7501   6.424   3.147   2.125
 2201SOL    HW1 7502   6.333   3.150   2.083
 2201SOL    HW2 7503   6.436   3.060   2.172
 2202SOL     OW 7504   3.415   4.929   4.441
 2202SOL    HW1 7505   3.508   4.943   4.409
 2202SOL    HW2 7506   3.354   4.917   4.362
 2203SOL     OW 7507   2.180   2.120   2.183
 2203SOL    HW1 7508   2.149   2.214   2.191
 2203SOL    HW2 7509   2.277   2.119   2.157
 2204SOL     OW 7510   3.231   1.331   6.919
 2204SOL    HW1 7511   3.267   1.248   6.962
 2204SOL    HW2 7512   3.150   1.361   6.967
 2205SOL     OW 7513   1.322   0.282   6.661
 2205SOL    HW1 7514   1.384   0.354   6.628
 2205SOL    HW2 7515   1.346   0.195   6.618
 2206SOL     OW 7516   3.098   4.388   5.270
 2206SOL    HW1 7517   3.023   4.444   5.235
 2206SOL    HW2 7518   3.071   4.291   5.269
 2207SOL     OW 7519   1.973   3.718   6.312
 2207SOL    HW1 7520   1.928   3.729   6.400
 2207SOL    HW2 7521   1.949   3.629   6.274
 2208SOL     OW 7522   1.953   4.441   2.087
 2208SOL    HW1 7523   1.943   4.518   2.024
 2208SOL    HW2 7524   1.982   4.474   2.176
 2209SOL     OW 7525   1.349   6.117   5.563
 2209SOL    HW1 7526   1.359   6.215   5.579
 2209SOL    HW2 7527   1.289   6.078   5.634
 2210SOL     OW 7528   0.211   4.900   3.616
 2210SOL    HW1 7529   0.290   4.852   3.576
 2210SOL    HW2 7530   0.241   4.953   3.695
 2211SOL     OW 7531   5.570   1.353   6.489
 2211SOL    HW1 7532   5.538   1.288   6.420
 2211SOL    HW2 7533   5.497   1.418   6.509
 2212SOL     OW 7534   1.375   6.162   0.383
 2212SOL    HW1 7535   1.383   6.102   0.303
 2212SOL    HW2 7536   1.440   6.238   0.374
 2213SOL     OW 7537   4.428   2.848   5.309
 2213SOL    HW1 7538   4.351   2.902   5.342
 2213SOL    HW2 7539   4.492   2.908   5.261
 2214SOL     OW 7540   4.679   1.072   5.417
 2214SOL    HW1 7541   4.611   1.112   5.356
 2214SOL    HW2 7542   4.762   1.051   5.365
 2215SOL     OW 7543   6.953   1.343   5.502
 2215SOL    HW1 7544   0.011   1.317   5.446
 2215SOL    HW2 7545   6.984   1.403   5.576
 2216SOL     OW 7546   1.646   0.883   0.062
 2216SOL    HW1 7547   1.603   0.849   6.999
 2216SOL    HW2 7548   1.649   0.809   0.130
 2217SOL     OW 7549   3.205   0.449   1.302
 2217SOL    HW1 7550   3.171   0.449   1.396
 2217SOL    HW2 7551   3.297   0.490   1.301
 2218SOL     OW 7552   1.557   6.356   0.392
 2218SOL    HW1 7553   1.489   6.423   0.421
 2218SOL    HW2 7554   1.610   6.394   0.316
 2219SOL     OW 7555   1.119   4.401   3.301
 2219SOL    HW1 7556   1.200   4.386   3.358
 2219SOL    HW2 7557   1.077   4.314   3.278
 2220SOL     OW 7558   0.492   1.340   4.263
 2220SOL    HW1 7559   0.535   1.428   4.286
 2220SOL    HW2 7560   0.412   1.326   4.321
 2221SOL     OW 7561   6.535   0.696   6.979
 2221SOL    HW1 7562   6.509   0.629   0.028
 2221SOL    HW2 7563   6.564   0.781   0.002
 2222SOL     OW 7564   3.731   0.910   0.810
 2222SOL    HW1 7565   3.792   0.830   0.809
 2222SOL    HW2 7566   3.638   0.882   0.786
 2223SOL     OW 7567   5.739   6.375   3.752
 2223SOL    HW1 7568   5.704   6.466   3.772
 2223SOL    HW2 7569   5.731   6.357   3.654
 2224SOL     OW 7570   2.482   4.994   1.743
 2224SOL    HW1 7571   2.527   4.927   1.684
 2224SOL    HW2 7572   2.550   5.041   1.798
 2225SOL     OW 7573   6.262   5.552   3.306
 2225SOL    HW1 7574   6.349   5.583   3.345
 2225SOL    HW2 7575   6.281   5.498   3.224
 2226SOL     OW 7576   4.129   3.324   0.375
 2226SOL    HW1 7577   4.031   3.333   0.393
 2226SOL    HW2 7578   4.148   3.351   0.280
 2227SOL     OW 7579   6.021   4.267   0.186
 2227SOL    HW1 7580   6.037   4.348   0.130
 2227SOL    HW2 7581   5.938   4.279   0.240
 2228SOL     OW 7582   3.435   5.809   0.646
 2228SOL    HW1 7583   3.426   5.741   0.573
 2228SOL    HW2 7584   3.364   5.793   0.715
 2229SOL     OW 7585   4.270   1.215   4.190
 2229SOL    HW1 7586   4.336   1.286   4.216
 2229SOL    HW2 7587   4.254   1.155   4.269
 2230SOL     OW 7588   0.839   6.266   4.291
 2230SOL    HW1 7589   0.932   6.261   4.256
 2230SOL    HW2 7590   0.791   6.343   4.250
 2231SOL     OW 7591   1.931   1.917   1.933
 2231SOL    HW1 7592   1.936   1.878   1.841
 2231SOL    HW2 7593   1.969   1.852   1.998
 2232SOL     OW 7594   0.903   3.087   3.900
 2232SOL    HW1 7595   0.975   3.033   3.857
 2232SOL    HW2 7596   0.853   3.030   3.966
 2233SOL     OW 7597   2.916   4.863   0.463
 2233SOL    HW1 7598   2.959   4.951   0.481
 2233SOL    HW2 7599   2.963   4.817   0.387
 2234SOL     OW 7600   4.564   2.246   1.529
 2234SOL    HW1 7601   4.491   2.225   1.595
 2234SOL    HW2 7602   4.562   2.180   1.455
 2235SOL     OW 7603   1.417   0.226   0.318
 2235SOL    HW1 7604   1.372   0.286   0.385
 2235SOL    HW2 7605   1.512   0.254   0.308
 2236SOL     OW 7606   1.177   5.027   0.496
 2236SOL    HW1 7607   1.129   5.061   0.578
 2236SOL    HW2 7608   1.128   4.947   0.460
 2237SOL     OW 7609   6.056   3.672   4.808
 2237SOL    HW1 7610   6.103   3.759   4.798
 2237SOL    HW2 7611   6.107   3.601   4.759
 2238SOL     OW 7612   6.441   5.231   2.839
 2238SOL    HW1 7613   6.420   5.253   2.744
 2238SOL    HW2 7614   6.512   5.161   2.842
 2239SOL     OW 7615   4.211   5.001   3.286
 2239SOL    HW1 7616   4.177   4.925   3.230
 2239SOL    HW2 7617   4.311   5.002   3.284
 2240SOL     OW 7618   5.563   5.345   3.961
 2240SOL    HW1 7619   5.516   5.286   4.027
 2240SOL    HW2 7620   5.570   5.298   3.873
 2241SOL     OW 7621   0.208   6.339   2.614
 2241SOL    HW1 7622   0.256   6.328   2.701
 2241SOL    HW2 7623   0.227   6.430   2.576
 2242SOL     OW 7624   5.386   1.874   3.542
 2242SOL    HW1 7625   5.286   1.876   3.545
 2242SOL    HW2 7626   5.419   1.794   3.591
 2243SOL     OW 7627   2.973   6.217   5.244
 2243SOL    HW1 7628   2.892   6.275   5.235
 2243SOL    HW2 7629   2.994   6.176   5.156
 2244SOL     OW 7630   3.742   0.248   3.017
 2244SOL    HW1 7631   3.715   0.158   2.983
 2244SOL    HW2 7632   3.813   0.287   2.959
 2245SOL     OW 7633   0.497   2.183   1.908
 2245SOL    HW1 7634   0.503   2.124   1.828
 2245SOL    HW2 7635   0.587   2.191   1.951
 2246SOL     OW 7636   1.532   2.057   5.139
 2246SOL    HW1 7637   1.516   1.996   5.217
 2246SOL    HW2 7638   1.592   2.132   5.167
 2247SOL     OW 7639   2.220   2.507   6.613
 2247SOL    HW1 7640   2.285   2.479   6.542
 2247SOL    HW2 7641   2.137   2.451   6.607
 2248SOL     OW 7642   4.921   3.890   5.660
 2248SOL    HW1 7643   4.867   3.822   5.709
 2248SOL    HW2 7644   4.950   3.853   5.572
 2249SOL     OW 7645   6.007   6.749   2.691
 2249SOL    HW1 7646   5.944   6.792   2.756
 2249SOL    HW2 7647   5.959   6.677   2.641
 2250SOL     OW 7648   5.319   3.857   1.085
 2250SOL    HW1 7649   5.276   3.767   1.078
 2250SOL    HW2 7650   5.373   3.874   1.002
 2251SOL     OW 7651   5.823   1.395   0.267
 2251SOL    HW1 7652   5.847   1.347   0.182
 2251SOL    HW2 7653   5.739   1.447   0.253
 2252SOL     OW 7654   6.631   2.645   4.535
 2252SOL    HW1 7655   6.614   2.724   4.476
 2252SOL    HW2 7656   6.567   2.647   4.612
 2253SOL     OW 7657   1.110   2.992   6.711
 2253SOL    HW1 7658   1.180   3.038   6.765
 2253SOL    HW2 7659   1.031   3.053   6.701
 2254SOL     OW 7660   2.642   2.793   6.134
 2254SOL    HW1 7661   2.557   2.770   6.182
 2254SOL    HW2 7662   2.625   2.793   6.036
 2255SOL     OW 7663   6.296   2.699   0.948
 2255SOL    HW1 7664   6.257   2.658   0.866
 2255SOL    HW2 7665   6.262   2.652   1.029
 2256SOL     OW 7666   4.186   5.821   1.698
 2256SOL    HW1 7667   4.176   5.800   1.600
 2256SOL    HW2 7668   4.129   5.758   1.751
 2257SOL     OW 7669   0.996   2.676   4.433
 2257SOL    HW1 7670   0.943   2.760   4.420
 2257SOL    HW2 7671   1.059   2.689   4.510
 2258SOL     OW 7672   1.245   5.902   4.596
 2258SOL    HW1 7673   1.281   5.833   4.658
 2258SOL    HW2 7674   1.155   5.874   4.563
 2259SOL     OW 7675   5.203   3.869   6.110
 2259SOL    HW1 7676   5.151   3.858   6.195
 2259SOL    HW2 7677   5.239   3.780   6.082
 2260SOL     OW 7678   4.573   4.459   3.087
 2260SOL    HW1 7679   4.668   4.437   3.113
 2260SOL    HW2 7680   4.513   4.438   3.164
 2261SOL     OW 7681   5.974   6.638   0.830
 2261SOL    HW1 7682   6.060   6.669   0.869
 2261SOL    HW2 7683   5.910   6.615   0.903
 2262SOL     OW 7684   5.864   2.434   2.657
 2262SOL    HW1 7685   5.892   2.413   2.563
 2262SOL    HW2 7686   5.836   2.349   2.702
 2263SOL     OW 7687   2.748   5.933   6.056
 2263SOL    HW1 7688   2.754   5.917   6.155
 2263SOL    HW2 7689   2.759   5.846   6.008
 2264SOL     OW 7690   3.322   4.008   2.785
 2264SOL    HW1 7691   3.265   4.041   2.709
 2264SOL    HW2 7692   3.307   3.910   2.799
 2265SOL     OW 7693   0.343   0.704   3.634
 2265SOL    HW1 7694   0.425   0.741   3.591
 2265SOL    HW2 7695   0.262   0.738   3.587
 2266SOL     OW 7696   6.703   1.642   1.369
 2266SOL    HW1 7697   6.681   1.693   1.286
 2266SOL    HW2 7698   6.641   1.669   1.443
 2267SOL     OW 7699   5.183   2.542   4.515
 2267SOL    HW1 7700   5.232   2.460   4.545
 2267SOL    HW2 7701   5.221   2.574   4.429
 2268SOL     OW 7702   0.010   5.072   0.468
 2268SOL    HW1 7703   0.080   5.035   0.407
 2268SOL    HW2 7704   7.021   5.170   0.452
 2269SOL     OW 7705   6.234   5.762   5.173
 2269SOL    HW1 7706   6.148   5.775   5.223
 2269SOL    HW2 7707   6.244   5.836   5.106
 2270SOL     OW 7708   3.692   4.009   0.508
 2270SOL    HW1 7709   3.680   3.993   0.605
 2270SOL    HW2 7710   3.755   4.086   0.494
 2271SOL     OW 7711   6.214   3.994   1.646
 2271SOL    HW1 7712   6.148   4.062   1.616
 2271SOL    HW2 7713   6.273   4.033   1.717
 2272SOL     OW 7714   6.494   1.970   4.751
 2272SOL    HW1 7715   6.496   2.038   4.824
 2272SOL    HW2 7716   6.452   1.886   4.784
 2273SOL     OW 7717   1.313   1.708   2.148
 2273SOL    HW1 7718   1.397   1.704   2.093
 2273SOL    HW2 7719   1.273   1.799   2.139
 2274SOL     OW 7720   0.957   3.484   5.364
 2274SOL    HW1 7721   0.946   3.578   5.397
 2274SOL    HW2 7722   0.962   3.421   5.441
 2275SOL     OW 7723   4.712   6.850   4.839
 2275SOL    HW1 7724   4.698   6.881   4.934
 2275SOL    HW2 7725   4.807   6.869   4.813
 2276SOL     OW 7726   3.289   4.660   1.265
 2276SOL    HW1 7727   3.235   4.737   1.298
 2276SOL    HW2 7728   3.295   4.591   1.336
 2277SOL     OW 7729   2.901   3.569   4.779
 2277SOL    HW1 7730   2.915   3.481   4.735
 2277SOL    HW2 7731   2.912   3.559   4.878
 2278SOL     OW 7732   4.941   6.646   3.771
 2278SOL    HW1 7733   4.948   6.548   3.789
 2278SOL    HW2 7734   4.998   6.670   3.692
 2279SOL     OW 7735   5.903   4.989   4.412
 2279SOL    HW1 7736   5.972   4.928   4.452
 2279SOL    HW2 7737   5.911   4.987   4.312
 2280SOL     OW 7738   5.726   6.058   4.911
 2280SOL    HW1 7739   5.671   6.033   4.991
 2280SOL    HW2 7740   5.814   6.094   4.940
 2281SOL     OW 7741   3.415   1.325   1.892
 2281SOL    HW1 7742   3.402   1.235   1.934
 2281SOL    HW2 7743   3.414   1.395   1.963
 2282SOL     OW 7744   5.118   6.199   5.226
 2282SOL    HW1 7745   5.205   6.244   5.247
 2282SOL    HW2 7746   5.059   6.201   5.306
 2283SOL     OW 7747   6.902   4.016   1.844
 2283SOL    HW1 7748   6.936   3.929   1.880
 2283SOL    HW2 7749   6.977   4.082   1.838
 2284SOL     OW 7750   1.832   1.968   1.199
 2284SOL    HW1 7751   1.847   1.889   1.259
 2284SOL    HW2 7752   1.779   2.037   1.248
 2285SOL     OW 7753   2.107   3.316   6.982
 2285SOL    HW1 7754   2.101   3.307   6.883
 2285SOL    HW2 7755   2.016   3.329   7.020
 2286SOL     OW 7756   6.374   6.276   4.899
 2286SOL    HW1 7757   6.457   6.296   4.847
 2286SOL    HW2 7758   6.386   6.307   4.994
 2287SOL     OW 7759   2.424   2.600   1.885
 2287SOL    HW1 7760   2.376   2.575   1.801
 2287SOL    HW2 7761   2.502   2.538   1.898
 2288SOL     OW 7762   0.160   5.870   4.448
 2288SOL    HW1 7763   0.098   5.882   4.370
 2288SOL    HW2 7764   0.144   5.780   4.490
 2289SOL     OW 7765   6.076   3.422   2.452
 2289SOL    HW1 7766   6.012   3.365   2.505
 2289SOL    HW2 7767   6.031   3.453   2.368
 2290SOL     OW 7768   2.425   3.781   1.688
 2290SOL    HW1 7769   2.404   3.877   1.710
 2290SOL    HW2 7770   2.522   3.773   1.666
 2291SOL     OW 7771   2.206   2.239   0.948
 2291SOL    HW1 7772   2.214   2.166   0.880
 2291SOL    HW2 7773   2.111   2.270   0.953
 2292SOL     OW 7774   5.084   3.150   3.863
 2292SOL    HW1 7775   5.173   3.189   3.841
 2292SOL    HW2 7776   5.082   3.053   3.837
 2293SOL     OW 7777   6.172   1.018   0.647
 2293SOL    HW1 7778   6.164   0.929   0.602
 2293SOL    HW2 7779   6.202   1.006   0.741
 2294SOL     OW 7780   3.169   2.159   6.176
 2294SOL    HW1 7781   3.211   2.237   6.131
 2294SOL    HW2 7782   3.072   2.178   6.192
 2295SOL     OW 7783   6.826   1.105   2.652
 2295SOL    HW1 7784   6.740   1.064   2.621
 2295SOL    HW2 7785   6.876   1.039   2.709
 2296SOL     OW 7786   2.643   4.944   2.921
 2296SOL    HW1 7787   2.592   4.872   2.968
 2296SOL    HW2 7788   2.728   4.905   2.884
 2297SOL     OW 7789   4.818   4.811   6.068
 2297SOL    HW1 7790   4.766   4.734   6.032
 2297SOL    HW2 7791   4.766   4.896   6.055
 2298SOL     OW 7792   3.565   3.818   3.183
 2298SOL    HW1 7793   3.639   3.880   3.157
 2298SOL    HW2 7794   3.553   3.748   3.113
 2299SOL     OW 7795   4.637   4.167   5.212
 2299SOL    HW1 7796   4.627   4.266   5.223
 2299SOL    HW2 7797   4.547   4.124   5.214
 2300SOL     OW 7798   3.496   6.826   3.684
 2300SOL    HW1 7799   3.568   6.896   3.677
 2300SOL    HW2 7800   3.460   6.824   3.777
 2301SOL     OW 7801   3.551   2.947   3.866
 2301SOL    HW1 7802   3.454   2.923   3.874
 2301SOL    HW2 7803   3.594   2.942   3.956
 2302SOL     OW 7804   3.575   0.162   1.579
 2302SOL    HW1 7805   3.601   0.083   1.635
 2302SOL    HW2 7806   3.650   0.229   1.581
 2303SOL     OW 7807   2.416   2.917   1.516
 2303SOL    HW1 7808   2.493   2.979   1.524
 2303SOL    HW2 7809   2.365   2.936   1.432
 2304SOL     OW 7810   5.621   5.617   4.058
 2304SOL    HW1 7811   5.593   5.572   4.143
 2304SOL    HW2 7812   5.644   5.548   3.990
 2305SOL     OW 7813   2.226   0.355   3.767
 2305SOL    HW1 7814   2.302   0.379   3.827
 2305SOL    HW2 7815   2.258   0.295   3.694
 2306SOL     OW 7816   1.533   5.241   2.250
 2306SOL    HW1 7817   1.602   5.193   2.304
 2306SOL    HW2 7818   1.499   5.320   2.301
 2307SOL     OW 7819   0.660   3.193   5.360
 2307SOL    HW1 7820   0.609   3.279   5.360
 2307SOL    HW2 7821   0.617   3.129   5.297
 2308SOL     OW 7822   2.667   4.250   0.875
 2308SOL    HW1 7823   2.586   4.304   0.855
 2308SOL    HW2 7824   2.748   4.296   0.839
 2309SOL     OW 7825   1.330   0.914   4.244
 2309SOL    HW1 7826   1.416   0.950   4.280
 2309SOL    HW2 7827   1.260   0.916   4.316
 2310SOL     OW 7828   6.210   6.200   2.350
 2310SOL    HW1 7829   6.228   6.273   2.416
 2310SOL    HW2 7830   6.169   6.239   2.268
 2311SOL     OW 7831   2.614   5.634   0.102
 2311SOL    HW1 7832   2.557   5.556   0.079
 2311SOL    HW2 7833   2.608   5.703   0.030
 2312SOL     OW 7834   4.266   5.459   3.421
 2312SOL    HW1 7835   4.217   5.409   3.493
 2312SOL    HW2 7836   4.202   5.521   3.374
 2313SOL     OW 7837   4.939   5.215   1.833
 2313SOL    HW1 7838   4.936   5.176   1.925
 2313SOL    HW2 7839   4.984   5.304   1.836
 2314SOL     OW 7840   3.693   6.991   2.924
 2314SOL    HW1 7841   3.624   6.960   2.989
 2314SOL    HW2 7842   3.730   6.913   2.874
 2315SOL     OW 7843   5.487   3.668   5.358
 2315SOL    HW1 7844   5.549   3.615   5.299
 2315SOL    HW2 7845   5.539   3.706   5.434
 2316SOL     OW 7846   5.070   2.259   3.595
 2316SOL    HW1 7847   5.166   2.246   3.619
 2316SOL    HW2 7848   5.057   2.350   3.555
 2317SOL     OW 7849   0.080   5.075   3.452
 2317SOL    HW1 7850   0.131   5.154   3.418
 2317SOL    HW2 7851   0.136   5.027   3.520
 2318SOL     OW 7852   0.583   2.513   3.894
 2318SOL    HW1 7853   0.526   2.486   3.816
 2318SOL    HW2 7854   0.647   2.584   3.865
 2319SOL     OW 7855   1.176   4.261   4.792
 2319SOL    HW1 7856   1.250   4.320   4.824
 2319SOL    HW2 7857   1.196   4.229   4.700
 2320SOL     OW 7858   0.236   2.652   4.312
 2320SOL    HW1 7859   0.211   2.632   4.407
 2320SOL    HW2 7860   0.233   2.751   4.297
 2321SOL     OW 7861   3.514   0.595   5.367
 2321SOL    HW1 7862   3.572   0.677   5.363
 2321SOL    HW2 7863   3.514   0.551   5.277
 2322SOL     OW 7864   1.967   2.257   5.489
 2322SOL    HW1 7865   1.984   2.322   5.562
 2322SOL    HW2 7866   2.050   2.203   5.473
 2323SOL     OW 7867   2.884   4.781   2.882
 2323SOL    HW1 7868   2.933   4.789   2.795
 2323SOL    HW2 7869   2.938   4.822   2.955
 2324SOL     OW 7870   0.284   6.061   2.974
 2324SOL    HW1 7871   0.334   6.146   2.961
 2324SOL    HW2 7872   0.286   6.008   2.889
 2325SOL     OW 7873   1.266   3.601   2.070
 2325SOL    HW1 7874   1.270   3.554   1.982
 2325SOL    HW2 7875   1.175   3.642   2.082
 2326SOL     OW 7876   2.654   3.501   5.996
 2326SOL    HW1 7877   2.560   3.528   6.016
 2326SOL    HW2 7878   2.683   3.431   6.062
 2327SOL     OW 7879   4.792   2.792   4.771
 2327SOL    HW1 7880   4.863   2.725   4.754
 2327SOL    HW2 7881   4.756   2.826   4.684
 2328SOL     OW 7882   4.847   0.867   3.614
 2328SOL    HW1 7883   4.872   0.792   3.675
 2328SOL    HW2 7884   4.768   0.916   3.651
 2329SOL     OW 7885   1.205   5.575   4.577
 2329SOL    HW1 7886   1.194   5.476   4.570
 2329SOL    HW2 7887   1.264   5.608   4.503
 2330SOL     OW 7888   0.102   4.658   2.506
 2330SOL    HW1 7889   0.124   4.719   2.429
 2330SOL    HW2 7890   0.160   4.682   2.584
 2331SOL     OW 7891   6.181   4.709   6.688
 2331SOL    HW1 7892   6.174   4.798   6.643
 2331SOL    HW2 7893   6.203   4.639   6.620
 2332SOL     OW 7894   5.137   1.984   5.369
 2332SOL    HW1 7895   5.072   2.016   5.438
 2332SOL    HW2 7896   5.186   2.062   5.329
 2333SOL     OW 7897   6.925   4.982   2.597
 2333SOL    HW1 7898   6.922   4.891   2.639
 2333SOL    HW2 7899   7.002   5.033   2.634
 2334SOL     OW 7900   2.940   6.517   0.217
 2334SOL    HW1 7901   2.913   6.607   0.254
 2334SOL    HW2 7902   2.992   6.468   0.287
 2335SOL     OW 7903   6.311   1.210   3.136
 2335SOL    HW1 7904   6.306   1.168   3.045
 2335SOL    HW2 7905   6.312   1.138   3.206
 2336SOL     OW 7906   4.817   1.294   5.539
 2336SOL    HW1 7907   4.773   1.218   5.491
 2336SOL    HW2 7908   4.773   1.380   5.512
 2337SOL     OW 7909   4.746   0.561   3.992
 2337SOL    HW1 7910   4.748   0.463   3.974
 2337SOL    HW2 7911   4.656   0.597   3.968
 2338SOL     OW 7912   0.735   6.617   6.679
 2338SOL    HW1 7913   0.780   6.656   6.599
 2338SOL    HW2 7914   0.655   6.671   6.702
 2339SOL     OW 7915   3.354   3.528   5.581
 2339SOL    HW1 7916   3.384   3.624   5.588
 2339SOL    HW2 7917   3.274   3.522   5.522
 2340SOL     OW 7918   4.115   6.849   5.607
 2340SOL    HW1 7919   4.118   6.921   5.538
 2340SOL    HW2 7920   4.021   6.838   5.639
 2341SOL     OW 7921   5.141   3.855   0.240
 2341SOL    HW1 7922   5.073   3.839   0.312
 2341SOL    HW2 7923   5.169   3.950   0.242
 2342SOL     OW 7924   0.706   6.197   5.054
 2342SOL    HW1 7925   0.716   6.127   5.124
 2342SOL    HW2 7926   0.632   6.171   4.992
 2343SOL     OW 7927   1.575   0.074   0.646
 2343SOL    HW1 7928   1.638   0.132   0.698
 2343SOL    HW2 7929   1.483   0.085   0.682
 2344SOL     OW 7930   2.446   2.100   2.109
 2344SOL    HW1 7931   2.475   2.017   2.157
 2344SOL    HW2 7932   2.411   2.075   2.019
 2345SOL     OW 7933   1.683   6.762   5.382
 2345SOL    HW1 7934   1.673   6.849   5.334
 2345SOL    HW2 7935   1.730   6.696   5.323
 2346SOL     OW 7936   4.662   2.987   5.247
 2346SOL    HW1 7937   4.738   3.051   5.250
 2346SOL    HW2 7938   4.688   2.901   5.292
 2347SOL     OW 7939   2.031   4.083   2.183
 2347SOL    HW1 7940   2.053   3.992   2.149
 2347SOL    HW2 7941   1.972   4.130   2.117
 2348SOL     OW 7942   2.052   6.256   3.630
 2348SOL    HW1 7943   2.094   6.166   3.617
 2348SOL    HW2 7944   1.994   6.278   3.552
 2349SOL     OW 7945   1.069   6.261   6.361
 2349SOL    HW1 7946   1.123   6.306   6.432
 2349SOL    HW2 7947   1.100   6.166   6.351
 2350SOL     OW 7948   3.404   0.055   5.852
 2350SOL    HW1 7949   3.310   0.039   5.883
 2350SOL    HW2 7950   3.462   0.079   5.930
 2351SOL     OW 7951   3.708   5.192   3.631
 2351SOL    HW1 7952   3.721   5.126   3.557
 2351SOL    HW2 7953   3.709   5.285   3.594
 2352SOL     OW 7954   6.917   4.129   3.353
 2352SOL    HW1 7955   6.897   4.179   3.269
 2352SOL    HW2 7956   6.946   4.036   3.330
 2353SOL     OW 7957   2.232   4.332   4.925
 2353SOL    HW1 7958   2.266   4.241   4.945
 2353SOL    HW2 7959   2.302   4.400   4.947
 2354SOL     OW 7960   3.813   2.383   6.784
 2354SOL    HW1 7961   3.834   2.377   6.686
 2354SOL    HW2 7962   3.845   2.472   6.819
 2355SOL     OW 7963   0.716   6.176   0.326
 2355SOL    HW1 7964   0.798   6.228   0.349
 2355SOL    HW2 7965   0.697   6.109   0.398
 2356SOL     OW 7966   2.385   4.221   1.941
 2356SOL    HW1 7967   2.435   4.242   2.026
 2356SOL    HW2 7968   2.451   4.199   1.869
 2357SOL     OW 7969   4.855   5.068   3.972
 2357SOL    HW1 7970   4.790   5.042   4.044
 2357SOL    HW2 7971   4.889   4.985   3.928
 2358SOL     OW 7972   3.328   6.704   4.024
 2358SOL    HW1 7973   3.272   6.711   4.106
 2358SOL    HW2 7974   3.270   6.697   3.944
 2359SOL     OW 7975   2.435   1.498   5.979
 2359SOL    HW1 7976   2.531   1.506   6.006
 2359SOL    HW2 7977   2.429   1.459   5.888
 2360SOL     OW 7978   4.191   4.995   0.107
 2360SOL    HW1 7979   4.116   5.003   0.173
 2360SOL    HW2 7980   4.274   5.034   0.147
 2361SOL     OW 7981   2.492   6.977   4.034
 2361SOL    HW1 7982   2.535   7.000   4.121
 2361SOL    HW2 7983   2.393   6.983   4.043
 2362SOL     OW 7984   4.742   6.395   5.142
 2362SOL    HW1 7985   4.693   6.344   5.212
 2362SOL    HW2 7986   4.685   6.405   5.061
 2363SOL     OW 7987   4.854   2.314   5.537
 2363SOL    HW1 7988   4.767   2.314   5.587
 2363SOL    HW2 7989   4.923   2.363   5.591
 2364SOL     OW 7990   5.311   1.528   1.487
 2364SOL    HW1 7991   5.246   1.604   1.484
 2364SOL    HW2 7992   5.370   1.532   1.406
 2365SOL     OW 7993   5.942   4.859   5.610
 2365SOL    HW1 7994   5.965   4.775   5.659
 2365SOL    HW2 7995   6.023   4.917   5.603
 2366SOL     OW 7996   0.847   3.842   5.936
 2366SOL    HW1 7997   0.768   3.882   5.890
 2366SOL    HW2 7998   0.874   3.758   5.890
 2367SOL     OW 7999   0.334   3.009   5.959
 2367SOL    HW1 8000   0.244   3.012   6.002
 2367SOL    HW2 8001   0.362   2.913   5.947
 2368SOL     OW 8002   4.408   1.255   5.159
 2368SOL    HW1 8003   4.468   1.193   5.108
 2368SOL    HW2 8004   4.319   1.212   5.174
 2369SOL     OW 8005   2.617   1.832   3.663
 2369SOL    HW1 8006   2.632   1.760   3.597
 2369SOL    HW2 8007   2.551   1.898   3.627
 2370SOL     OW 8008   4.618   2.901   0.574
 2370SOL    HW1 8009   4.662   2.986   0.603
 2370SOL    HW2 8010   4.525   2.898   0.611
 2371SOL     OW 8011   0.876   6.332   2.527
 2371SOL    HW1 8012   0.932   6.340   2.610
 2371SOL    HW2 8013   0.841   6.239   2.519
 2372SOL     OW 8014   6.776   0.732   6.524
 2372SOL    HW1 8015   6.744   0.745   6.618
 2372SOL    HW2 8016   6.743   0.808   6.468
 2373SOL     OW 8017   6.221   0.604   5.956
 2373SOL    HW1 8018   6.134   0.619   6.003
 2373SOL    HW2 8019   6.209   0.614   5.858
 2374SOL     OW 8020   5.914   5.651   3.061
 2374SOL    HW1 8021   5.923   5.574   3.125
 2374SOL    HW2 8022   5.949   5.734   3.104
 2375SOL     OW 8023   0.688   0.743   3.981
 2375SOL    HW1 8024   0.676   0.687   4.063
 2375SOL    HW2 8025   0.660   0.691   3.901
 2376SOL     OW 8026   6.266   2.816   3.424
 2376SOL    HW1 8027   6.299   2.727   3.455
 2376SOL    HW2 8028   6.225   2.865   3.501
 2377SOL     OW 8029   3.381   3.872   5.049
 2377SOL    HW1 8030   3.332   3.800   5.099
 2377SOL    HW2 8031   3.315   3.940   5.017
 2378SOL     OW 8032   5.688   1.807   0.346
 2378SOL    HW1 8033   5.779   1.780   0.376
 2378SOL    HW2 8034   5.665   1.896   0.385
 2379SOL     OW 8035   6.569   4.027   0.454
 2379SOL    HW1 8036   6.631   3.995   0.382
 2379SOL    HW2 8037   6.484   3.976   0.449
 2380SOL     OW 8038   5.859   1.213   5.283
 2380SOL    HW1 8039   5.800   1.291   5.302
 2380SOL    HW2 8040   5.861   1.195   5.185
 2381SOL     OW 8041   1.351   4.973   4.874
 2381SOL    HW1 8042   1.344   4.874   4.889
 2381SOL    HW2 8043   1.267   5.006   4.830
 2382SOL     OW 8044   2.477   5.962   2.728
 2382SOL    HW1 8045   2.510   5.874   2.693
 2382SOL    HW2 8046   2.524   6.037   2.681
 2383SOL     OW 8047   5.358   5.776   6.541
 2383SOL    HW1 8048   5.295   5.800   6.467
 2383SOL    HW2 8049   5.441   5.734   6.503
 2384SOL     OW 8050   1.153   2.324   1.040
 2384SOL    HW1 8051   1.241   2.306   0.995
 2384SOL    HW2 8052   1.158   2.294   1.135
 2385SOL     OW 8053   0.931   1.122   0.050
 2385SOL    HW1 8054   1.009   1.100   7.012
 2385SOL    HW2 8055   0.927   1.057   0.126
 2386SOL     OW 8056   3.790   5.118   4.545
 2386SOL    HW1 8057   3.776   5.039   4.485
 2386SOL    HW2 8058   3.726   5.112   4.622
 2387SOL     OW 8059   6.827   3.645   4.557
 2387SOL    HW1 8060   6.813   3.720   4.492
 2387SOL    HW2 8061   6.790   3.561   4.519
 2388SOL     OW 8062   0.437   1.605   5.778
 2388SOL    HW1 8063   0.453   1.591   5.876
 2388SOL    HW2 8064   0.520   1.578   5.728
 2389SOL     OW 8065   4.820   4.618   3.889
 2389SOL    HW1 8066   4.753   4.605   3.961
 2389SOL    HW2 8067   4.905   4.654   3.929
 2390SOL     OW 8068   3.688   3.903   4.782
 2390SOL    HW1 8069   3.729   3.817   4.751
 2390SOL    HW2 8070   3.588   3.894   4.782
 2391SOL     OW 8071   3.655   4.064   5.822
 2391SOL    HW1 8072   3.616   4.023   5.739
 2391SOL    HW2 8073   3.609   4.027   5.902
 2392SOL     OW 8074   3.031   4.076   6.332
 2392SOL    HW1 8075   3.110   4.014   6.330
 2392SOL    HW2 8076   2.947   4.023   6.339
 2393SOL     OW 8077   3.811   5.337   1.526
 2393SOL    HW1 8078   3.901   5.309   1.559
 2393SOL    HW2 8079   3.800   5.309   1.430
 2394SOL     OW 8080   0.203   3.558   3.984
 2394SOL    HW1 8081   0.161   3.536   4.072
 2394SOL    HW2 8082   0.252   3.645   3.991
 2395SOL     OW 8083   0.209   3.211   0.261
 2395SOL    HW1 8084   0.243   3.304   0.255
 2395SOL    HW2 8085   0.255   3.154   0.192
 2396SOL     OW 8086   5.487   6.226   0.600
 2396SOL    HW1 8087   5.430   6.262   0.526
 2396SOL    HW2 8088   5.577   6.268   0.596
 2397SOL     OW 8089   0.002   4.645   0.614
 2397SOL    HW1 8090   6.991   4.733   0.651
 2397SOL    HW2 8091   0.003   4.650   0.514
 2398SOL     OW 8092   2.787   4.873   5.090
 2398SOL    HW1 8093   2.711   4.884   5.027
 2398SOL    HW2 8094   2.823   4.780   5.083
 2399SOL     OW 8095   3.473   2.129   3.631
 2399SOL    HW1 8096   3.429   2.197   3.572
 2399SOL    HW2 8097   3.471   2.161   3.726
 2400SOL     OW 8098   1.988   3.887   6.975
 2400SOL    HW1 8099   1.964   3.892   6.878
 2400SOL    HW2 8100   2.069   3.943   6.993
 2401SOL     OW 8101   3.456   0.454   4.269
 2401SOL    HW1 8102   3.506   0.502   4.341
 2401SOL    HW2 8103   3.520   0.407   4.208
 2402SOL     OW 8104   6.931   1.432   3.687
 2402SOL    HW1 8105   6.841   1.475   3.676
 2402SOL    HW2 8106   6.958   1.434   3.783
 2403SOL     OW 8107   3.562   3.251   1.031
 2403SOL    HW1 8108   3.465   3.232   1.042
 2403SOL    HW2 8109   3.612   3.165   1.017
 2404SOL     OW 8110   5.643   1.916   1.687
 2404SOL    HW1 8111   5.654   1.938   1.783
 2404SOL    HW2 8112   5.552   1.878   1.671
 2405SOL     OW 8113   3.150   4.538   5.706
 2405SOL    HW1 8114   3.231   4.479   5.697
 2405SOL    HW2 8115   3.154   4.586   5.793
 2406SOL     OW 8116   2.342   6.789   4.179
 2406SOL    HW1 8117   2.273   6.844   4.130
 2406SOL    HW2 8118   2.432   6.809   4.142
 2407SOL     OW 8119   4.340   2.321   3.030
 2407SOL    HW1 8120   4.315   2.312   2.934
 2407SOL    HW2 8121   4.388   2.408   3.044
 2408SOL     OW 8122   2.273   4.902   2.887
 2408SOL    HW1 8123   2.361   4.863   2.914
 2408SOL    HW2 8124   2.266   4.901   2.788
 2409SOL     OW 8125   2.685   3.043   0.915
 2409SOL    HW1 8126   2.659   3.027   0.820
 2409SOL    HW2 8127   2.719   2.957   0.955
 2410SOL     OW 8128   6.104   3.288   5.938
 2410SOL    HW1 8129   6.183   3.348   5.928
 2410SOL    HW2 8130   6.098   3.227   5.859
 2411SOL     OW 8131   2.889   3.650   6.014
 2411SOL    HW1 8132   2.914   3.667   5.919
 2411SOL    HW2 8133   2.807   3.592   6.016
 2412SOL     OW 8134   3.048   2.816   0.573
 2412SOL    HW1 8135   3.012   2.791   0.663
 2412SOL    HW2 8136   3.068   2.733   0.521
 2413SOL     OW 8137   5.624   3.534   6.228
 2413SOL    HW1 8138   5.654   3.440   6.212
 2413SOL    HW2 8139   5.679   3.574   6.301
 2414SOL     OW 8140   5.777   3.206   3.734
 2414SOL    HW1 8141   5.814   3.143   3.802
 2414SOL    HW2 8142   5.736   3.285   3.780
 2415SOL     OW 8143   1.746   0.208   0.798
 2415SOL    HW1 8144   1.844   0.210   0.777
 2415SOL    HW2 8145   1.730   0.153   0.880
 2416SOL     OW 8146   1.554   2.509   4.089
 2416SOL    HW1 8147   1.616   2.549   4.156
 2416SOL    HW2 8148   1.604   2.488   4.005
 2417SOL     OW 8149   5.013   2.454   0.295
 2417SOL    HW1 8150   5.050   2.403   0.373
 2417SOL    HW2 8151   4.937   2.404   0.255
 2418SOL     OW 8152   3.211   3.486   4.672
 2418SOL    HW1 8153   3.209   3.579   4.707
 2418SOL    HW2 8154   3.155   3.427   4.731
 2419SOL     OW 8155   1.631   0.074   4.219
 2419SOL    HW1 8156   1.583   0.035   4.298
 2419SOL    HW2 8157   1.570   0.074   4.140
 2420SOL     OW 8158   3.480   5.791   1.477
 2420SOL    HW1 8159   3.485   5.886   1.509
 2420SOL    HW2 8160   3.524   5.731   1.543
 2421SOL     OW 8161   3.749   6.592   3.907
 2421SOL    HW1 8162   3.698   6.565   3.825
 2421SOL    HW2 8163   3.802   6.514   3.940
 2422SOL     OW 8164   4.283   7.015   0.876
 2422SOL    HW1 8165   4.186   7.002   0.894
 2422SOL    HW2 8166   4.308   0.090   0.894
 2423SOL     OW 8167   1.638   5.268   1.190
 2423SOL    HW1 8168   1.643   5.333   1.265
 2423SOL    HW2 8169   1.724   5.217   1.184
 2424SOL     OW 8170   5.100   6.256   6.679
 2424SOL    HW1 8171   5.194   6.222   6.674
 2424SOL    HW2 8172   5.097   6.350   6.646
 2425SOL     OW 8173   5.539   6.633   5.453
 2425SOL    HW1 8174   5.445   6.659   5.428
 2425SOL    HW2 8175   5.592   6.616   5.370
 2426SOL     OW 8176   1.227   5.720   3.776
 2426SOL    HW1 8177   1.222   5.621   3.784
 2426SOL    HW2 8178   1.143   5.755   3.735
 2427SOL     OW 8179   4.910   5.888   0.420
 2427SOL    HW1 8180   4.849   5.857   0.493
 2427SOL    HW2 8181   4.925   5.814   0.354
 2428SOL     OW 8182   0.458   0.541   3.271
 2428SOL    HW1 8183   0.475   0.519   3.175
 2428SOL    HW2 8184   0.493   0.633   3.290
 2429SOL     OW 8185   5.555   4.971   3.120
 2429SOL    HW1 8186   5.650   4.950   3.099
 2429SOL    HW2 8187   5.513   4.894   3.168
 2430SOL     OW 8188   5.364   2.887   0.406
 2430SOL    HW1 8189   5.272   2.875   0.368
 2430SOL    HW2 8190   5.423   2.929   0.337
 2431SOL     OW 8191   4.795   0.980   0.961
 2431SOL    HW1 8192   4.711   0.954   0.913
 2431SOL    HW2 8193   4.775   1.056   1.022
 2432SOL     OW 8194   2.850   6.720   1.728
 2432SOL    HW1 8195   2.840   6.819   1.734
 2432SOL    HW2 8196   2.783   6.683   1.664
 2433SOL     OW 8197   1.389   0.037   0.093
 2433SOL    HW1 8198   1.405   6.983   0.158
 2433SOL    HW2 8199   1.386   0.124   0.142
 2434SOL     OW 8200   5.844   1.924   3.118
 2434SOL    HW1 8201   5.795   1.845   3.155
 2434SOL    HW2 8202   5.924   1.942   3.176
 2435SOL     OW 8203   5.454   5.010   0.179
 2435SOL    HW1 8204   5.404   4.996   0.094
 2435SOL    HW2 8205   5.489   5.104   0.181
 2436SOL     OW 8206   1.654   0.534   1.113
 2436SOL    HW1 8207   1.652   0.436   1.095
 2436SOL    HW2 8208   1.733   0.556   1.170
 2437SOL     OW 8209   5.163   6.455   1.244
 2437SOL    HW1 8210   5.136   6.399   1.166
 2437SOL    HW2 8211   5.131   6.413   1.329
 2438SOL     OW 8212   3.933   1.432   4.125
 2438SOL    HW1 8213   3.914   1.529   4.112
 2438SOL    HW2 8214   4.024   1.411   4.090
 2439SOL     OW 8215   0.850   4.692   0.852
 2439SOL    HW1 8216   0.818   4.741   0.771
 2439SOL    HW2 8217   0.921   4.746   0.897
 2440SOL     OW 8218   3.891   6.951   6.301
 2440SOL    HW1 8219   3.902   6.975   6.205
 2440SOL    HW2 8220   3.796   6.928   6.320
 2441SOL     OW 8221   6.020   1.589   0.005
 2441SOL    HW1 8222   6.086   1.527   0.046
 2441SOL    HW2 8223   5.984   1.550   6.942
 2442SOL     OW 8224   5.429   5.076   2.884
 2442SOL    HW1 8225   5.464   5.043   2.971
 2442SOL    HW2 8226   5.498   5.062   2.812
 2443SOL     OW 8227   3.018   0.080   6.821
 2443SOL    HW1 8228   3.013   0.055   6.724
 2443SOL    HW2 8229   3.065   0.168   6.830
 2444SOL     OW 8230   3.801   3.795   0.404
 2444SOL    HW1 8231   3.897   3.822   0.400
 2444SOL    HW2 8232   3.747   3.870   0.441
 2445SOL     OW 8233   5.842   1.593   1.849
 2445SOL    HW1 8234   5.926   1.539   1.851
 2445SOL    HW2 8235   5.788   1.572   1.931
 2446SOL     OW 8236   1.217   2.819   4.560
 2446SOL    HW1 8237   1.161   2.901   4.566
 2446SOL    HW2 8238   1.309   2.840   4.592
 2447SOL     OW 8239   2.367   0.588   1.100
 2447SOL    HW1 8240   2.446   0.528   1.083
 2447SOL    HW2 8241   2.289   0.556   1.047
 2448SOL     OW 8242   6.157   1.002   4.188
 2448SOL    HW1 8243   6.097   0.953   4.124
 2448SOL    HW2 8244   6.176   1.093   4.152
 2449SOL     OW 8245   1.396   3.761   1.610
 2449SOL    HW1 8246   1.399   3.666   1.641
 2449SOL    HW2 8247   1.397   3.822   1.689
 2450SOL     OW 8248   3.245   4.396   6.111
 2450SOL    HW1 8249   3.230   4.299   6.089
 2450SOL    HW2 8250   3.190   4.421   6.191
 2451SOL     OW 8251   1.036   0.301   3.407
 2451SOL    HW1 8252   1.067   0.210   3.379
 2451SOL    HW2 8253   1.108   0.345   3.460
 2452SOL     OW 8254   3.136   2.029   4.120
 2452SOL    HW1 8255   3.038   2.025   4.138
 2452SOL    HW2 8256   3.186   2.004   4.203
 2453SOL     OW 8257   0.690   3.161   0.406
 2453SOL    HW1 8258   0.665   3.255   0.385
 2453SOL    HW2 8259   0.753   3.126   0.337
 2454SOL     OW 8260   2.918   6.991   0.064
 2454SOL    HW1 8261   2.927   0.049   0.003
 2454SOL    HW2 8262   2.907   6.908   0.009
 2455SOL     OW 8263   3.797   0.781   0.153
 2455SOL    HW1 8264   3.848   0.747   0.073
 2455SOL    HW2 8265   3.858   0.784   0.232
 2456SOL     OW 8266   6.918   2.326   6.961
 2456SOL    HW1 8267   6.882   2.295   0.028
 2456SOL    HW2 8268   6.991   2.264   6.932
 2457SOL     OW 8269   6.618   0.683   6.209
 2457SOL    HW1 8270   6.650   0.626   6.133
 2457SOL    HW2 8271   6.628   0.633   6.295
 2458SOL     OW 8272   1.628   6.439   3.660
 2458SOL    HW1 8273   1.549   6.384   3.633
 2458SOL    HW2 8274   1.622   6.462   3.757
 2459SOL     OW 8275   3.002   6.543   5.341
 2459SOL    HW1 8276   2.937   6.490   5.395
 2459SOL    HW2 8277   3.035   6.487   5.265
 2460SOL     OW 8278   1.313   1.239   0.738
 2460SOL    HW1 8279   1.286   1.287   0.654
 2460SOL    HW2 8280   1.412   1.242   0.748
 2461SOL     OW 8281   5.260   0.561   4.196
 2461SOL    HW1 8282   5.337   0.568   4.259
 2461SOL    HW2 8283   5.217   0.651   4.186
 2462SOL     OW 8284   2.106   5.120   6.764
 2462SOL    HW1 8285   2.196   5.099   6.727
 2462SOL    HW2 8286   2.111   5.121   6.864
 2463SOL     OW 8287   5.963   2.108   6.412
 2463SOL    HW1 8288   5.938   2.033   6.351
 2463SOL    HW2 8289   5.889   2.124   6.478
 2464SOL     OW 8290   2.021   3.850   2.972
 2464SOL    HW1 8291   2.005   3.762   2.927
 2464SOL    HW2 8292   2.007   3.840   3.071
 2465SOL     OW 8293   1.143   6.391   6.601
 2465SOL    HW1 8294   1.048   6.422   6.597
 2465SOL    HW2 8295   1.164   6.362   6.694
 2466SOL     OW 8296   2.270   1.921   2.521
 2466SOL    HW1 8297   2.331   1.851   2.558
 2466SOL    HW2 8298   2.311   2.012   2.536
 2467SOL     OW 8299   5.119   2.191   4.969
 2467SOL    HW1 8300   5.050   2.122   4.947
 2467SOL    HW2 8301   5.205   2.145   4.994
 2468SOL     OW 8302   3.932   0.159   0.923
 2468SOL    HW1 8303   3.835   0.136   0.937
 2468SOL    HW2 8304   3.981   0.149   1.009
 2469SOL     OW 8305   4.181   3.637   4.903
 2469SOL    HW1 8306   4.259   3.661   4.845
 2469SOL    HW2 8307   4.208   3.646   4.999
 2470SOL     OW 8308   4.181   4.291   5.951
 2470SOL    HW1 8309   4.224   4.360   6.009
 2470SOL    HW2 8310   4.249   4.256   5.886
 2471SOL     OW 8311   3.321   5.834   0.119
 2471SOL    HW1 8312   3.227   5.800   0.121
 2471SOL    HW2 8313   3.338   5.889   0.201
 2472SOL     OW 8314   4.789   2.043   3.355
 2472SOL    HW1 8315   4.876   2.048   3.404
 2472SOL    HW2 8316   4.740   1.960   3.383
 2473SOL     OW 8317   1.514   3.699   4.712
 2473SOL    HW1 8318   1.553   3.676   4.801
 2473SOL    HW2 8319   1.466   3.787   4.718
 2474SOL     OW 8320   0.356   6.088   1.482
 2474SOL    HW1 8321   0.344   5.989   1.482
 2474SOL    HW2 8322   0.402   6.116   1.566
 2475SOL     OW 8323   3.946   0.529   2.439
 2475SOL    HW1 8324   3.933   0.583   2.355
 2475SOL    HW2 8325   3.857   0.500   2.474
 2476SOL     OW 8326   6.439   1.481   2.733
 2476SOL    HW1 8327   6.502   1.411   2.768
 2476SOL    HW2 8328   6.467   1.570   2.769
 2477SOL     OW 8329   3.933   1.405   2.606
 2477SOL    HW1 8330   3.990   1.486   2.621
 2477SOL    HW2 8331   3.874   1.421   2.526
 2478SOL     OW 8332   5.765   1.476   1.557
 2478SOL    HW1 8333   5.710   1.394   1.544
 2478SOL    HW2 8334   5.723   1.533   1.629
 2479SOL     OW 8335   0.639   2.821   2.003
 2479SOL    HW1 8336   0.627   2.760   2.082
 2479SOL    HW2 8337   0.731   2.859   2.003
 2480SOL     OW 8338   4.959   3.819   0.437
 2480SOL    HW1 8339   5.003   3.759   0.503
 2480SOL    HW2 8340   4.861   3.798   0.432
 2481SOL     OW 8341   3.611   6.617   6.961
 2481SOL    HW1 8342   3.705   6.650   6.961
 2481SOL    HW2 8343   3.610   6.519   6.937
 2482SOL     OW 8344   5.645   3.914   5.829
 2482SOL    HW1 8345   5.665   4.002   5.872
 2482SOL    HW2 8346   5.617   3.929   5.734
 2483SOL     OW 8347   1.891   1.592   0.123
 2483SOL    HW1 8348   1.796   1.616   0.102
 2483SOL    HW2 8349   1.899   1.572   0.221
 2484SOL     OW 8350   3.650   0.840   6.878
 2484SOL    HW1 8351   3.658   0.901   6.957
 2484SOL    HW2 8352   3.710   0.761   6.891
 2485SOL     OW 8353   6.347   3.540   1.737
 2485SOL    HW1 8354   6.444   3.519   1.719
 2485SOL    HW2 8355   6.312   3.598   1.664
 2486SOL     OW 8356   2.259   4.838   4.521
 2486SOL    HW1 8357   2.216   4.806   4.436
 2486SOL    HW2 8358   2.208   4.914   4.559
 2487SOL     OW 8359   4.236   5.889   0.374
 2487SOL    HW1 8360   4.143   5.898   0.409
 2487SOL    HW2 8361   4.300   5.880   0.450
 2488SOL     OW 8362   1.681   4.300   2.365
 2488SOL    HW1 8363   1.675   4.338   2.273
 2488SOL    HW2 8364   1.597   4.321   2.415
 2489SOL     OW 8365   1.525   6.431   3.179
 2489SOL    HW1 8366   1.564   6.484   3.254
 2489SOL    HW2 8367   1.542   6.478   3.092
 2490SOL     OW 8368   0.172   4.966   1.360
 2490SOL    HW1 8369   0.141   4.974   1.455
 2490SOL    HW2 8370   0.168   4.870   1.332
 2491SOL     OW 8371   2.322   5.023   0.403
 2491SOL    HW1 8372   2.271   5.083   0.341
 2491SOL    HW2 8373   2.312   5.057   0.496
 2492SOL     OW 8374   4.764   3.062   0.921
 2492SOL    HW1 8375   4.674   3.028   0.896
 2492SOL    HW2 8376   4.795   3.129   0.854
 2493SOL     OW 8377   5.704   0.508   2.013
 2493SOL    HW1 8378   5.794   0.505   2.056
 2493SOL    HW2 8379   5.637   0.544   2.079
 2494SOL     OW 8380   5.207   4.467   2.801
 2494SOL    HW1 8381   5.151   4.463   2.883
 2494SOL    HW2 8382   5.277   4.395   2.805
 2495SOL     OW 8383   5.084   6.972   4.382
 2495SOL    HW1 8384   5.052   6.898   4.441
 2495SOL    HW2 8385   5.171   6.945   4.339
 2496SOL     OW 8386   6.668   3.310   6.089
 2496SOL    HW1 8387   6.571   3.300   6.066
 2496SOL    HW2 8388   6.696   3.405   6.073
 2497SOL     OW 8389   0.411   0.505   0.630
 2497SOL    HW1 8390   0.499   0.506   0.677
 2497SOL    HW2 8391   0.349   0.441   0.677
 2498SOL     OW 8392   2.942   1.734   4.481
 2498SOL    HW1 8393   2.909   1.804   4.544
 2498SOL    HW2 8394   3.025   1.766   4.435
 2499SOL     OW 8395   6.104   2.548   1.883
 2499SOL    HW1 8396   6.087   2.473   1.947
 2499SOL    HW2 8397   6.041   2.541   1.805
 2500SOL     OW 8398   4.581   3.660   6.834
 2500SOL    HW1 8399   4.483   3.657   6.813
 2500SOL    HW2 8400   4.630   3.599   6.772
 2501SOL     OW 8401   6.177   4.970   1.080
 2501SOL    HW1 8402   6.094   5.023   1.065
 2501SOL    HW2 8403   6.235   4.974   0.998
 2502SOL     OW 8404   1.258   6.570   2.892
 2502SOL    HW1 8405   1.345   6.582   2.940
 2502SOL    HW2 8406   1.266   6.497   2.825
 2503SOL     OW 8407   2.581   6.167   3.880
 2503SOL    HW1 8408   2.658   6.117   3.919
 2503SOL    HW2 8409   2.496   6.118   3.898
 2504SOL     OW 8410   3.575   5.459   4.523
 2504SOL    HW1 8411   3.612   5.417   4.440
 2504SOL    HW2 8412   3.521   5.539   4.499
 2505SOL     OW 8413   1.015   6.595   2.736
 2505SOL    HW1 8414   1.070   6.624   2.658
 2505SOL    HW2 8415   1.075   6.563   2.809
 2506SOL     OW 8416   6.108   4.234   5.439
 2506SOL    HW1 8417   6.200   4.205   5.462
 2506SOL    HW2 8418   6.047   4.154   5.440
 2507SOL     OW 8419   1.068   4.465   0.578
 2507SOL    HW1 8420   1.132   4.469   0.654
 2507SOL    HW2 8421   1.109   4.414   0.502
 2508SOL     OW 8422   2.113   1.461   2.964
 2508SOL    HW1 8423   2.062   1.539   3.001
 2508SOL    HW2 8424   2.116   1.467   2.864
 2509SOL     OW 8425   6.938   2.600   0.763
 2509SOL    HW1 8426   6.972   2.685   0.722
 2509SOL    HW2 8427   6.974   2.522   0.711
 2510SOL     OW 8428   2.558   4.102   1.736
 2510SOL    HW1 8429   2.589   4.181   1.682
 2510SOL    HW2 8430   2.616   4.023   1.715
 2511SOL     OW 8431   3.882   2.122   4.714
 2511SOL    HW1 8432   3.874   2.115   4.614
 2511SOL    HW2 8433   3.979   2.129   4.739
 2512SOL     OW 8434   5.850   4.061   5.469
 2512SOL    HW1 8435   5.763   4.103   5.491
 2512SOL    HW2 8436   5.835   3.971   5.427
 2513SOL     OW 8437   1.425   4.196   5.358
 2513SOL    HW1 8438   1.460   4.289   5.348
 2513SOL    HW2 8439   1.467   4.137   5.289
 2514SOL     OW 8440   6.636   3.056   4.719
 2514SOL    HW1 8441   6.539   3.081   4.718
 2514SOL    HW2 8442   6.674   3.076   4.809
 2515SOL     OW 8443   2.020   6.605   0.531
 2515SOL    HW1 8444   2.066   6.609   0.620
 2515SOL    HW2 8445   1.940   6.545   0.537
 2516SOL     OW 8446   5.945   1.152   2.692
 2516SOL    HW1 8447   5.896   1.114   2.614
 2516SOL    HW2 8448   5.920   1.248   2.703
 2517SOL     OW 8449   1.226   6.023   5.793
 2517SOL    HW1 8450   1.215   5.925   5.773
 2517SOL    HW2 8451   1.277   6.033   5.878
 2518SOL     OW 8452   1.144   4.667   0.054
 2518SOL    HW1 8453   1.168   4.657   6.978
 2518SOL    HW2 8454   1.173   4.585   0.103
 2519SOL     OW 8455   4.370   6.438   3.032
 2519SOL    HW1 8456   4.431   6.359   3.043
 2519SOL    HW2 8457   4.391   6.506   3.102
 2520SOL     OW 8458   2.673   1.854   0.773
 2520SOL    HW1 8459   2.599   1.907   0.814
 2520SOL    HW2 8460   2.759   1.872   0.821
 2521SOL     OW 8461   1.869   0.694   4.983
 2521SOL    HW1 8462   1.923   0.661   4.905
 2521SOL    HW2 8463   1.778   0.720   4.952
 2522SOL     OW 8464   0.464   3.804   5.071
 2522SOL    HW1 8465   0.450   3.817   5.169
 2522SOL    HW2 8466   0.481   3.708   5.052
 2523SOL     OW 8467   0.178   2.998   1.317
 2523SOL    HW1 8468   0.171   3.064   1.242
 2523SOL    HW2 8469   0.274   2.986   1.342
 2524SOL     OW 8470   1.404   6.360   4.914
 2524SOL    HW1 8471   1.339   6.373   4.839
 2524SOL    HW2 8472   1.356   6.374   5.001
 2525SOL     OW 8473   1.058   2.243   5.689
 2525SOL    HW1 8474   1.006   2.209   5.611
 2525SOL    HW2 8475   1.150   2.269   5.660
 2526SOL     OW 8476   1.649   4.111   5.594
 2526SOL    HW1 8477   1.648   4.046   5.670
 2526SOL    HW2 8478   1.559   4.115   5.552
 2527SOL     OW 8479   4.974   5.877   5.110
 2527SOL    HW1 8480   5.009   5.968   5.088
 2527SOL    HW2 8481   4.875   5.875   5.095
 2528SOL     OW 8482   5.694   4.843   0.694
 2528SOL    HW1 8483   5.739   4.796   0.769
 2528SOL    HW2 8484   5.758   4.909   0.653
 2529SOL     OW 8485   6.519   6.786   6.109
 2529SOL    HW1 8486   6.479   6.755   6.196
 2529SOL    HW2 8487   6.460   6.857   6.070
 2530SOL     OW 8488   2.634   0.134   5.398
 2530SOL    HW1 8489   2.639   0.233   5.413
 2530SOL    HW2 8490   2.546   0.099   5.430
 2531SOL     OW 8491   4.942   6.191   4.376
 2531SOL    HW1 8492   4.975   6.139   4.455
 2531SOL    HW2 8493   4.861   6.147   4.338
 2532SOL     OW 8494   0.436   6.647   1.132
 2532SOL    HW1 8495   0.372   6.679   1.063
 2532SOL    HW2 8496   0.439   6.547   1.131
 2533SOL     OW 8497   3.196   6.577   3.580
 2533SOL    HW1 8498   3.245   6.664   3.573
 2533SOL    HW2 8499   3.118   6.578   3.517
 2534SOL     OW 8500   3.414   0.679   3.145
 2534SOL    HW1 8501   3.462   0.697   3.231
 2534SOL    HW2 8502   3.477   0.686   3.069
 2535SOL     OW 8503   3.981   2.042   5.164
 2535SOL    HW1 8504   3.913   2.113   5.146
 2535SOL    HW2 8505   4.058   2.054   5.101
 2536SOL     OW 8506   1.119   2.139   4.833
 2536SOL    HW1 8507   1.035   2.118   4.782
 2536SOL    HW2 8508   1.096   2.160   4.928
 2537SOL     OW 8509   3.908   0.725   6.532
 2537SOL    HW1 8510   3.938   0.682   6.447
 2537SOL    HW2 8511   3.986   0.766   6.578
 2538SOL     OW 8512   1.500   4.850   4.459
 2538SOL    HW1 8513   1.546   4.785   4.520
 2538SOL    HW2 8514   1.567   4.915   4.424
 2539SOL     OW 8515   5.080   1.292   5.671
 2539SOL    HW1 8516   4.989   1.280   5.633
 2539SOL    HW2 8517   5.114   1.383   5.648
 2540SOL     OW 8518   4.161   1.307   2.740
 2540SOL    HW1 8519   4.116   1.219   2.745
 2540SOL    HW2 8520   4.102   1.373   2.693
 2541SOL     OW 8521   2.644   0.143   5.116
 2541SOL    HW1 8522   2.625   0.140   5.214
 2541SOL    HW2 8523   2.612   0.230   5.078
 2542SOL     OW 8524   4.239   1.532   6.376
 2542SOL    HW1 8525   4.223   1.628   6.399
 2542SOL    HW2 8526   4.177   1.474   6.428
 2543SOL     OW 8527   1.311   1.021   3.154
 2543SOL    HW1 8528   1.401   0.998   3.116
 2543SOL    HW2 8529   1.262   1.079   3.089
 2544SOL     OW 8530   0.433   5.826   1.101
 2544SOL    HW1 8531   0.420   5.729   1.120
 2544SOL    HW2 8532   0.353   5.877   1.132
 2545SOL     OW 8533   1.703   0.696   1.490
 2545SOL    HW1 8534   1.693   0.716   1.393
 2545SOL    HW2 8535   1.754   0.610   1.501
 2546SOL     OW 8536   0.347   1.494   1.466
 2546SOL    HW1 8537   0.371   1.589   1.489
 2546SOL    HW2 8538   0.334   1.443   1.551
 2547SOL     OW 8539   6.030   5.027   0.413
 2547SOL    HW1 8540   6.041   5.073   0.501
 2547SOL    HW2 8541   6.059   5.089   0.339
 2548SOL     OW 8542   2.085   6.726   6.086
 2548SOL    HW1 8543   2.160   6.664   6.064
 2548SOL    HW2 8544   2.118   6.821   6.086
 2549SOL     OW 8545   2.381   1.261   0.954
 2549SOL    HW1 8546   2.435   1.341   0.978
 2549SOL    HW2 8547   2.392   1.190   1.024
 2550SOL     OW 8548   0.094   0.080   6.136
 2550SOL    HW1 8549   0.029   0.154   6.119
 2550SOL    HW2 8550   0.160   0.076   6.062
 2551SOL     OW 8551   3.548   4.715   0.522
 2551SOL    HW1 8552   3.499   4.667   0.594
 2551SOL    HW2 8553   3.581   4.803   0.557
 2552SOL     OW 8554   2.360   6.179   5.317
 2552SOL    HW1 8555   2.331   6.265   5.360
 2552SOL    HW2 8556   2.336   6.180   5.220
 2553SOL     OW 8557   4.732   2.933   5.622
 2553SOL    HW1 8558   4.767   2.930   5.528
 2553SOL    HW2 8559   4.809   2.939   5.686
 2554SOL     OW 8560   2.477   6.261   0.922
 2554SOL    HW1 8561   2.434   6.246   0.833
 2554SOL    HW2 8562   2.575   6.243   0.915
 2555SOL     OW 8563   5.959   6.934   6.208
 2555SOL    HW1 8564   5.981   0.010   6.222
 2555SOL    HW2 8565   6.040   6.879   6.224
 2556SOL     OW 8566   4.259   5.685   0.633
 2556SOL    HW1 8567   4.347   5.645   0.609
 2556SOL    HW2 8568   4.266   5.785   0.632
 2557SOL     OW 8569   2.589   3.517   6.410
 2557SOL    HW1 8570   2.489   3.519   6.407
 2557SOL    HW2 8571   2.620   3.552   6.498
 2558SOL     OW 8572   5.201   1.723   5.390
 2558SOL    HW1 8573   5.280   1.700   5.333
 2558SOL    HW2 8574   5.179   1.820   5.377
 2559SOL     OW 8575   6.970   3.848   4.114
 2559SOL    HW1 8576   6.964   3.812   4.208
 2559SOL    HW2 8577   6.893   3.910   4.097
 2560SOL     OW 8578   6.082   3.185   4.459
 2560SOL    HW1 8579   6.080   3.091   4.425
 2560SOL    HW2 8580   6.145   3.240   4.404
 2561SOL     OW 8581   3.251   6.317   4.620
 2561SOL    HW1 8582   3.262   6.218   4.610
 2561SOL    HW2 8583   3.180   6.349   4.557
 2562SOL     OW 8584   0.992   5.165   2.023
 2562SOL    HW1 8585   1.006   5.256   2.062
 2562SOL    HW2 8586   1.071   5.141   1.966
 2563SOL     OW 8587   4.158   1.986   1.014
 2563SOL    HW1 8588   4.243   1.941   1.041
 2563SOL    HW2 8589   4.093   1.917   0.982
 2564SOL     OW 8590   2.208   6.136   5.797
 2564SOL    HW1 8591   2.293   6.126   5.746
 2564SOL    HW2 8592   2.131   6.133   5.734
 2565SOL     OW 8593   0.194   0.187   6.822
 2565SOL    HW1 8594   0.182   0.216   6.727
 2565SOL    HW2 8595   0.104   0.171   6.863
 2566SOL     OW 8596   2.371   0.263   0.369
 2566SOL    HW1 8597   2.386   0.166   0.354
 2566SOL    HW2 8598   2.347   0.307   0.283
 2567SOL     OW 8599   0.606   1.042   1.110
 2567SOL    HW1 8600   0.617   0.946   1.136
 2567SOL    HW2 8601   0.605   1.050   1.010
 2568SOL     OW 8602   3.710   0.469   0.042
 2568SOL    HW1 8603   3.722   0.530   6.984
 2568SOL    HW2 8604   3.688   0.523   0.123
 2569SOL     OW 8605   3.121   1.420   1.958
 2569SOL    HW1 8606   3.073   1.478   1.893
 2569SOL    HW2 8607   3.064   1.342   1.982
 2570SOL     OW 8608   5.465   0.226   6.113
 2570SOL    HW1 8609   5.562   0.247   6.125
 2570SOL    HW2 8610   5.450   0.128   6.120
 2571SOL     OW 8611   2.423   4.495   5.013
 2571SOL    HW1 8612   2.426   4.455   5.105
 2571SOL    HW2 8613   2.457   4.589   5.016
 2572SOL     OW 8614   2.271   5.651   0.045
 2572SOL    HW1 8615   2.171   5.654   0.041
 2572SOL    HW2 8616   2.303   5.558   0.032
 2573SOL     OW 8617   6.577   2.526   1.561
 2573SOL    HW1 8618   6.514   2.469   1.507
 2573SOL    HW2 8619   6.608   2.474   1.641
 2574SOL     OW 8620   6.198   3.740   6.803
 2574SOL    HW1 8621   6.184   3.728   6.901
 2574SOL    HW2 8622   6.123   3.794   6.765
 2575SOL     OW 8623   5.538   5.131   0.779
 2575SOL    HW1 8624   5.547   5.104   0.683
 2575SOL    HW2 8625   5.502   5.055   0.832
 2576SOL     OW 8626   3.720   6.818   4.354
 2576SOL    HW1 8627   3.663   6.790   4.277
 2576SOL    HW2 8628   3.687   6.775   4.438
 2577SOL     OW 8629   3.419   0.026   2.109
 2577SOL    HW1 8630   3.500   0.061   2.154
 2577SOL    HW2 8631   3.357   0.102   2.088
 2578SOL     OW 8632   4.817   1.169   3.758
 2578SOL    HW1 8633   4.752   1.094   3.766
 2578SOL    HW2 8634   4.774   1.254   3.791
 2579SOL     OW 8635   1.196   6.106   2.371
 2579SOL    HW1 8636   1.175   6.202   2.352
 2579SOL    HW2 8637   1.293   6.097   2.395
 2580SOL     OW 8638   2.658   3.155   6.476
 2580SOL    HW1 8639   2.639   3.131   6.381
 2580SOL    HW2 8640   2.747   3.201   6.482
 2581SOL     OW 8641   0.853   4.996   1.100
 2581SOL    HW1 8642   0.906   4.956   1.175
 2581SOL    HW2 8643   0.824   5.088   1.125
 2582SOL     OW 8644   0.349   5.239   2.552
 2582SOL    HW1 8645   0.405   5.186   2.489
 2582SOL    HW2 8646   0.305   5.315   2.502
 2583SOL     OW 8647   0.840   1.092   0.467
 2583SOL    HW1 8648   0.774   1.041   0.521
 2583SOL    HW2 8649   0.932   1.056   0.484
 2584SOL     OW 8650   4.406   5.751   6.980
 2584SOL    HW1 8651   4.490   5.802   6.961
 2584SOL    HW2 8652   4.420   5.694   0.041
 2585SOL     OW 8653   5.168   2.456   0.515
 2585SOL    HW1 8654   5.186   2.463   0.613
 2585SOL    HW2 8655   5.240   2.505   0.465
 2586SOL     OW 8656   3.497   1.160   3.443
 2586SOL    HW1 8657   3.571   1.160   3.375
 2586SOL    HW2 8658   3.454   1.250   3.446
 2587SOL     OW 8659   0.643   0.600   3.764
 2587SOL    HW1 8660   0.599   0.510   3.757
 2587SOL    HW2 8661   0.601   0.663   3.698
 2588SOL     OW 8662   4.441   0.455   6.678
 2588SOL    HW1 8663   4.481   0.396   6.608
 2588SOL    HW2 8664   4.360   0.501   6.640
 2589SOL     OW 8665   0.830   5.549   6.545
 2589SOL    HW1 8666   0.924   5.515   6.544
 2589SOL    HW2 8667   0.824   5.628   6.606
 2590SOL     OW 8668   3.621   5.854   0.840
 2590SOL    HW1 8669   3.685   5.777   0.844
 2590SOL    HW2 8670   3.567   5.849   0.757
 2591SOL     OW 8671   6.645   4.829   3.089
 2591SOL    HW1 8672   6.583   4.822   3.011
 2591SOL    HW2 8673   6.738   4.845   3.056
 2592SOL     OW 8674   3.634   4.919   0.283
 2592SOL    HW1 8675   3.689   4.850   0.329
 2592SOL    HW2 8676   3.691   4.997   0.259
 2593SOL     OW 8677   3.440   5.186   0.558
 2593SOL    HW1 8678   3.428   5.113   0.491
 2593SOL    HW2 8679   3.439   5.275   0.511
 2594SOL     OW 8680   1.417   4.922   6.313
 2594SOL    HW1 8681   1.462   4.833   6.308
 2594SOL    HW2 8682   1.415   4.963   6.221
 2595SOL     OW 8683   6.151   1.248   4.040
 2595SOL    HW1 8684   6.215   1.325   4.033
 2595SOL    HW2 8685   6.058   1.283   4.047
 2596SOL     OW 8686   2.871   1.799   1.621
 2596SOL    HW1 8687   2.910   1.712   1.592
 2596SOL    HW2 8688   2.863   1.859   1.541
 2597SOL     OW 8689   1.701   5.302   5.227
 2597SOL    HW1 8690   1.702   5.217   5.280
 2597SOL    HW2 8691   1.614   5.309   5.178
 2598SOL     OW 8692   6.962   1.381   2.792
 2598SOL    HW1 8693   6.896   1.306   2.794
 2598SOL    HW2 8694   7.002   1.393   2.883
 2599SOL     OW 8695   1.661   6.392   1.439
 2599SOL    HW1 8696   1.648   6.488   1.465
 2599SOL    HW2 8697   1.607   6.372   1.358
 2600SOL     OW 8698   5.203   3.279   4.775
 2600SOL    HW1 8699   5.144   3.269   4.695
 2600SOL    HW2 8700   5.150   3.320   4.850
 2601SOL     OW 8701   2.251   1.336   1.816
 2601SOL    HW1 8702   2.195   1.417   1.835
 2601SOL    HW2 8703   2.347   1.362   1.812
 2602SOL     OW 8704   1.418   4.462   4.563
 2602SOL    HW1 8705   1.438   4.372   4.524
 2602SOL    HW2 8706   1.492   4.525   4.542
 2603SOL     OW 8707   2.765   0.845   4.220
 2603SOL    HW1 8708   2.793   0.915   4.155
 2603SOL    HW2 8709   2.761   0.883   4.312
 2604SOL     OW 8710   4.533   1.793   2.661
 2604SOL    HW1 8711   4.596   1.791   2.739
 2604SOL    HW2 8712   4.439   1.779   2.694
 2605SOL     OW 8713   2.067   3.004   3.514
 2605SOL    HW1 8714   2.088   3.101   3.523
 2605SOL    HW2 8715   2.079   2.959   3.602
 2606SOL     OW 8716   5.437   4.601   1.866
 2606SOL    HW1 8717   5.383   4.590   1.950
 2606SOL    HW2 8718   5.455   4.512   1.826
 2607SOL     OW 8719   1.584   1.836   1.497
 2607SOL    HW1 8720   1.622   1.876   1.580
 2607SOL    HW2 8721   1.536   1.752   1.519
 2608SOL     OW 8722   4.923   5.154   1.036
 2608SOL    HW1 8723   4.990   5.160   0.961
 2608SOL    HW2 8724   4.882   5.063   1.036
 2609SOL     OW 8725   6.002   1.357   1.639
 2609SOL    HW1 8726   6.069   1.426   1.666
 2609SOL    HW2 8727   5.922   1.402   1.598
 2610SOL     OW 8728   1.155   4.582   4.683
 2610SOL    HW1 8729   1.069   4.537   4.709
 2610SOL    HW2 8730   1.226   4.514   4.671
 2611SOL     OW 8731   4.033   0.240   0.679
 2611SOL    HW1 8732   4.021   0.339   0.679
 2611SOL    HW2 8733   3.979   0.200   0.754
 2612SOL     OW 8734   6.511   7.007   5.423
 2612SOL    HW1 8735   6.522   0.082   5.394
 2612SOL    HW2 8736   6.487   7.005   5.520
 2613SOL     OW 8737   2.769   5.428   6.166
 2613SOL    HW1 8738   2.672   5.453   6.164
 2613SOL    HW2 8739   2.788   5.378   6.251
 2614SOL     OW 8740   6.397   1.630   6.195
 2614SOL    HW1 8741   6.351   1.624   6.284
 2614SOL    HW2 8742   6.330   1.613   6.123
 2615SOL     OW 8743   0.531   3.529   2.380
 2615SOL    HW1 8744   0.448   3.493   2.421
 2615SOL    HW2 8745   0.557   3.472   2.302
 2616SOL     OW 8746   3.171   3.023   6.022
 2616SOL    HW1 8747   3.130   3.075   6.098
 2616SOL    HW2 8748   3.157   3.073   5.937
 2617SOL     OW 8749   3.714   6.921   0.270
 2617SOL    HW1 8750   3.641   6.988   0.277
 2617SOL    HW2 8751   3.682   6.833   0.303
 2618SOL     OW 8752   6.648   0.466   3.758
 2618SOL    HW1 8753   6.587   0.466   3.837
 2618SOL    HW2 8754   6.741   0.487   3.786
 2619SOL     OW 8755   4.290   2.272   2.635
 2619SOL    HW1 8756   4.331   2.348   2.687
 2619SOL    HW2 8757   4.346   2.190   2.648
 2620SOL     OW 8758   6.613   6.723   3.349
 2620SOL    HW1 8759   6.671   6.745   3.427
 2620SOL    HW2 8760   6.661   6.660   3.287
 2621SOL     OW 8761   0.497   5.371   1.901
 2621SOL    HW1 8762   0.459   5.402   1.814
 2621SOL    HW2 8763   0.590   5.337   1.887
 2622SOL     OW 8764   1.802   3.655   5.123
 2622SOL    HW1 8765   1.857   3.658   5.040
 2622SOL    HW2 8766   1.789   3.748   5.158
 2623SOL     OW 8767   0.496   1.285   5.562
 2623SOL    HW1 8768   0.407   1.282   5.608
 2623SOL    HW2 8769   0.499   1.364   5.500
 2624SOL     OW 8770   6.929   1.145   4.397
 2624SOL    HW1 8771   6.831   1.159   4.414
 2624SOL    HW2 8772   6.975   1.124   4.483
 2625SOL     OW 8773   2.349   3.767   5.576
 2625SOL    HW1 8774   2.286   3.735   5.646
 2625SOL    HW2 8775   2.359   3.696   5.505
 2626SOL     OW 8776   0.380   0.365   5.688
 2626SOL    HW1 8777   0.362   0.350   5.591
 2626SOL    HW2 8778   0.387   0.463   5.706
 2627SOL     OW 8779   0.692   0.818   6.021
 2627SOL    HW1 8780   0.621   0.887   6.026
 2627SOL    HW2 8781   0.768   0.852   5.965
 2628SOL     OW 8782   1.936   4.422   5.636
 2628SOL    HW1 8783   1.968   4.346   5.693
 2628SOL    HW2 8784   1.970   4.411   5.543
 2629SOL     OW 8785   3.796   3.547   2.446
 2629SOL    HW1 8786   3.858   3.471   2.430
 2629SOL    HW2 8787   3.847   3.633   2.443
 2630SOL     OW 8788   2.854   1.954   2.854
 2630SOL    HW1 8789   2.917   1.875   2.858
 2630SOL    HW2 8790   2.883   2.016   2.781
 2631SOL     OW 8791   5.411   0.697   6.214
 2631SOL    HW1 8792   5.328   0.726   6.167
 2631SOL    HW2 8793   5.389   0.665   6.306
 2632SOL     OW 8794   5.689   3.174   6.744
 2632SOL    HW1 8795   5.648   3.095   6.698
 2632SOL    HW2 8796   5.696   3.250   6.679
 2633SOL     OW 8797   0.790   2.014   4.477
 2633SOL    HW1 8798   0.691   2.002   4.486
 2633SOL    HW2 8799   0.812   2.045   4.384
 2634SOL     OW 8800   0.596   4.646   3.725
 2634SOL    HW1 8801   0.566   4.608   3.813
 2634SOL    HW2 8802   0.666   4.716   3.741
 2635SOL     OW 8803   6.698   6.086   5.268
 2635SOL    HW1 8804   6.669   6.018   5.335
 2635SOL    HW2 8805   6.774   6.049   5.214
 2636SOL     OW 8806   4.100   0.646   5.323
 2636SOL    HW1 8807   4.030   0.656   5.252
 2636SOL    HW2 8808   4.098   0.552   5.358
 2637SOL     OW 8809   5.771   1.824   3.728
 2637SOL    HW1 8810   5.854   1.768   3.730
 2637SOL    HW2 8811   5.777   1.890   3.653
 2638SOL     OW 8812   6.974   6.885   3.817
 2638SOL    HW1 8813   6.953   6.965   3.872
 2638SOL    HW2 8814   6.964   6.908   3.720
 2639SOL     OW 8815   0.748   5.557   0.181
 2639SOL    HW1 8816   0.768   5.580   0.086
 2639SOL    HW2 8817   0.726   5.460   0.189
 2640SOL     OW 8818   6.975   6.277   5.587
 2640SOL    HW1 8819   6.982   6.258   5.685
 2640SOL    HW2 8820   6.880   6.295   5.563
 2641SOL     OW 8821   5.689   2.876   2.135
 2641SOL    HW1 8822   5.771   2.826   2.163
 2641SOL    HW2 8823   5.703   2.974   2.152
 2642SOL     OW 8824   5.822   0.510   3.620
 2642SOL    HW1 8825   5.764   0.589   3.601
 2642SOL    HW2 8826   5.918   0.537   3.614
 2643SOL     OW 8827   0.802   3.726   3.389
 2643SOL    HW1 8828   0.894   3.699   3.419
 2643SOL    HW2 8829   0.744   3.645   3.382
 2644SOL     OW 8830   4.810   5.313   5.275
 2644SOL    HW1 8831   4.803   5.399   5.326
 2644SOL    HW2 8832   4.884   5.257   5.313
 2645SOL     OW 8833   4.233   5.813   3.659
 2645SOL    HW1 8834   4.203   5.855   3.573
 2645SOL    HW2 8835   4.155   5.804   3.721
 2646SOL     OW 8836   6.450   1.542   6.774
 2646SOL    HW1 8837   6.490   1.539   6.866
 2646SOL    HW2 8838   6.489   1.619   6.724
 2647SOL     OW 8839   6.329   0.155   1.851
 2647SOL    HW1 8840   6.390   0.083   1.817
 2647SOL    HW2 8841   6.235   0.135   1.823
 2648SOL     OW 8842   1.090   6.716   3.059
 2648SOL    HW1 8843   1.055   6.657   3.132
 2648SOL    HW2 8844   1.137   6.661   2.990
 2649SOL     OW 8845   6.875   3.457   0.612
 2649SOL    HW1 8846   6.807   3.390   0.641
 2649SOL    HW2 8847   6.828   3.541   0.584
 2650SOL     OW 8848   1.353   4.968   3.917
 2650SOL    HW1 8849   1.259   4.989   3.889
 2650SOL    HW2 8850   1.370   4.870   3.907
 2651SOL     OW 8851   2.281   1.576   1.031
 2651SOL    HW1 8852   2.212   1.581   1.103
 2651SOL    HW2 8853   2.239   1.547   0.946
 2652SOL     OW 8854   4.235   3.389   5.230
 2652SOL    HW1 8855   4.149   3.339   5.238
 2652SOL    HW2 8856   4.312   3.325   5.232
 2653SOL     OW 8857   4.759   6.839   5.817
 2653SOL    HW1 8858   4.809   6.833   5.731
 2653SOL    HW2 8859   4.790   6.767   5.879
 2654SOL     OW 8860   4.426   7.010   1.836
 2654SOL    HW1 8861   4.404   7.006   1.934
 2654SOL    HW2 8862   4.414   6.919   1.796
 2655SOL     OW 8863   5.622   6.766   3.828
 2655SOL    HW1 8864   5.715   6.769   3.792
 2655SOL    HW2 8865   5.580   6.678   3.808
 2656SOL     OW 8866   3.247   5.199   4.198
 2656SOL    HW1 8867   3.178   5.252   4.248
 2656SOL    HW2 8868   3.306   5.262   4.147
 2657SOL     OW 8869   0.865   4.276   0.017
 2657SOL    HW1 8870   0.920   4.326   6.970
 2657SOL    HW2 8871   0.772   4.264   7.003
 2658SOL     OW 8872   4.952   4.812   0.629
 2658SOL    HW1 8873   4.938   4.714   0.643
 2658SOL    HW2 8874   4.866   4.854   0.600
 2659SOL     OW 8875   4.887   3.112   5.088
 2659SOL    HW1 8876   4.924   3.203   5.105
 2659SOL    HW2 8877   4.935   3.070   5.011
 2660SOL     OW 8878   1.421   6.690   1.620
 2660SOL    HW1 8879   1.365   6.609   1.636
 2660SOL    HW2 8880   1.398   6.731   1.531
 2661SOL     OW 8881   2.218   6.858   1.469
 2661SOL    HW1 8882   2.128   6.886   1.433
 2661SOL    HW2 8883   2.276   6.939   1.478
 2662SOL     OW 8884   3.874   6.445   5.537
 2662SOL    HW1 8885   3.884   6.346   5.547
 2662SOL    HW2 8886   3.916   6.491   5.615
 2663SOL     OW 8887   3.394   4.352   6.708
 2663SOL    HW1 8888   3.412   4.274   6.768
 2663SOL    HW2 8889   3.296   4.364   6.696
 2664SOL     OW 8890   4.464   3.577   5.459
 2664SOL    HW1 8891   4.539   3.530   5.412
 2664SOL    HW2 8892   4.391   3.595   5.393
 2665SOL     OW 8893   2.848   3.278   5.118
 2665SOL    HW1 8894   2.781   3.241   5.183
 2665SOL    HW2 8895   2.880   3.205   5.058
 2666SOL     OW 8896   0.401   5.454   1.667
 2666SOL    HW1 8897   0.467   5.502   1.609
 2666SOL    HW2 8898   0.315   5.442   1.617
 2667SOL     OW 8899   1.037   5.754   4.149
 2667SOL    HW1 8900   0.965   5.822   4.137
 2667SOL    HW2 8901   1.118   5.799   4.187
 2668SOL     OW 8902   0.249   2.865   4.931
 2668SOL    HW1 8903   0.265   2.960   4.959
 2668SOL    HW2 8904   0.222   2.862   4.835
 2669SOL     OW 8905   2.977   4.847   5.820
 2669SOL    HW1 8906   2.997   4.924   5.761
 2669SOL    HW2 8907   3.062   4.808   5.855
 2670SOL     OW 8908   6.060   3.893   5.664
 2670SOL    HW1 8909   6.069   3.942   5.751
 2670SOL    HW2 8910   6.011   3.951   5.599
 2671SOL     OW 8911   4.096   5.638   6.900
 2671SOL    HW1 8912   4.117   5.607   6.807
 2671SOL    HW2 8913   4.028   5.711   6.896
 2672SOL     OW 8914   2.541   5.159   1.044
 2672SOL    HW1 8915   2.521   5.087   1.111
 2672SOL    HW2 8916   2.520   5.125   0.952
 2673SOL     OW 8917   6.326   1.892   1.725
 2673SOL    HW1 8918   6.274   1.909   1.642
 2673SOL    HW2 8919   6.307   1.800   1.759
 2674SOL     OW 8920   1.366   4.687   3.906
 2674SOL    HW1 8921   1.330   4.615   3.965
 2674SOL    HW2 8922   1.347   4.665   3.811
 2675SOL     OW 8923   6.038   5.513   4.057
 2675SOL    HW1 8924   5.973   5.586   4.038
 2675SOL    HW2 8925   6.116   5.550   4.107
 2676SOL     OW 8926   3.350   2.875   1.168
 2676SOL    HW1 8927   3.384   2.962   1.203
 2676SOL    HW2 8928   3.341   2.810   1.243
 2677SOL     OW 8929   2.698   4.106   6.999
 2677SOL    HW1 8930   2.608   4.088   6.959
 2677SOL    HW2 8931   2.769   4.090   6.930
 2678SOL     OW 8932   0.061   2.220   2.184
 2678SOL    HW1 8933   0.014   2.276   2.116
 2678SOL    HW2 8934   0.008   2.137   2.201
 2679SOL     OW 8935   2.036   5.132   1.798
 2679SOL    HW1 8936   1.942   5.109   1.774
 2679SOL    HW2 8937   2.040   5.162   1.893
 2680SOL     OW 8938   0.893   1.937   1.297
 2680SOL    HW1 8939   0.844   1.928   1.383
 2680SOL    HW2 8940   0.866   2.022   1.252
 2681SOL     OW 8941   1.306   2.369   5.534
 2681SOL    HW1 8942   1.346   2.296   5.588
 2681SOL    HW2 8943   1.357   2.454   5.548
 2682SOL     OW 8944   4.626   4.315   3.738
 2682SOL    HW1 8945   4.536   4.350   3.766
 2682SOL    HW2 8946   4.672   4.274   3.816
 2683SOL     OW 8947   2.611   5.571   2.122
 2683SOL    HW1 8948   2.558   5.600   2.043
 2683SOL    HW2 8949   2.703   5.612   2.118
 2684SOL     OW 8950   4.344   6.444   1.611
 2684SOL    HW1 8951   4.413   6.505   1.650
 2684SOL    HW2 8952   4.378   6.350   1.612
 2685SOL     OW 8953   6.260   5.668   6.474
 2685SOL    HW1 8954   6.256   5.768   6.475
 2685SOL    HW2 8955   6.167   5.631   6.481
 2686SOL     OW 8956   2.013   1.559   5.895
 2686SOL    HW1 8957   2.061   1.562   5.807
 2686SOL    HW2 8958   2.054   1.626   5.957
 2687SOL     OW 8959   5.197   5.712   1.668
 2687SOL    HW1 8960   5.203   5.655   1.586
 2687SOL    HW2 8961   5.145   5.795   1.647
 2688SOL     OW 8962   3.089   3.219   0.529
 2688SOL    HW1 8963   3.040   3.220   0.617
 2688SOL    HW2 8964   3.054   3.145   0.472
 2689SOL     OW 8965   1.019   3.934   2.276
 2689SOL    HW1 8966   0.970   4.019   2.296
 2689SOL    HW2 8967   1.000   3.867   2.348
 2690SOL     OW 8968   3.706   3.380   4.959
 2690SOL    HW1 8969   3.774   3.420   4.897
 2690SOL    HW2 8970   3.617   3.423   4.943
 2691SOL     OW 8971   0.845   5.248   4.054
 2691SOL    HW1 8972   0.907   5.307   4.004
 2691SOL    HW2 8973   0.849   5.270   4.152
 2692SOL     OW 8974   2.712   6.050   3.648
 2692SOL    HW1 8975   2.748   6.059   3.741
 2692SOL    HW2 8976   2.788   6.032   3.584
 2693SOL     OW 8977   2.073   5.500   3.664
 2693SOL    HW1 8978   2.117   5.463   3.582
 2693SOL    HW2 8979   1.974   5.499   3.653
 2694SOL     OW 8980   4.242   6.531   2.815
 2694SOL    HW1 8981   4.170   6.580   2.864
 2694SOL    HW2 8982   4.306   6.491   2.880
 2695SOL     OW 8983   5.756   1.032   2.516
 2695SOL    HW1 8984   5.687   0.959   2.522
 2695SOL    HW2 8985   5.715   1.113   2.473
 2696SOL     OW 8986   3.478   3.032   5.872
 2696SOL    HW1 8987   3.424   3.110   5.840
 2696SOL    HW2 8988   3.535   2.998   5.797
 2697SOL     OW 8989   3.423   1.338   3.218
 2697SOL    HW1 8990   3.428   1.436   3.197
 2697SOL    HW2 8991   3.515   1.299   3.214
 2698SOL     OW 8992   2.046   4.833   0.891
 2698SOL    HW1 8993   1.961   4.877   0.919
 2698SOL    HW2 8994   2.053   4.743   0.935
 2699SOL     OW 8995   2.614   5.712   0.891
 2699SOL    HW1 8996   2.700   5.745   0.929
 2699SOL    HW2 8997   2.557   5.675   0.964
 2700SOL     OW 8998   2.633   2.743   0.569
 2700SOL    HW1 8999   2.547   2.694   0.583
 2700SOL    HW2 9000   2.694   2.687   0.514
 2701SOL     OW 9001   5.543   1.673   6.567
 2701SOL    HW1 9002   5.534   1.707   6.473
 2701SOL    HW2 9003   5.462   1.698   6.620
 2702SOL     OW 9004   0.384   2.570   3.419
 2702SOL    HW1 9005   0.459   2.557   3.484
 2702SOL    HW2 9006   0.418   2.560   3.326
 2703SOL     OW 9007   0.939   6.349   0.366
 2703SOL    HW1 9008   1.018   6.354   0.428
 2703SOL    HW2 9009   0.964   6.385   0.277
 2704SOL     OW 9010   6.468   6.029   1.813
 2704SOL    HW1 9011   6.473   6.051   1.715
 2704SOL    HW2 9012   6.551   5.980   1.840
 2705SOL     OW 9013   6.667   0.051   4.997
 2705SOL    HW1 9014   6.635   6.991   4.948
 2705SOL    HW2 9015   6.749   0.028   5.049
 2706SOL     OW 9016   6.248   4.771   3.177
 2706SOL    HW1 9017   6.307   4.763   3.097
 2706SOL    HW2 9018   6.249   4.866   3.210
 2707SOL     OW 9019   3.924   0.541   4.503
 2707SOL    HW1 9020   3.997   0.594   4.545
 2707SOL    HW2 9021   3.945   0.443   4.511
 2708SOL     OW 9022   6.794   2.693   0.993
 2708SOL    HW1 9023   6.698   2.692   0.962
 2708SOL    HW2 9024   6.852   2.656   0.921
 2709SOL     OW 9025   5.134   0.149   0.315
 2709SOL    HW1 9026   5.122   0.149   0.216
 2709SOL    HW2 9027   5.097   0.234   0.353
 2710SOL     OW 9028   1.128   3.122   4.120
 2710SOL    HW1 9029   1.177   3.063   4.056
 2710SOL    HW2 9030   1.175   3.124   4.208
 2711SOL     OW 9031   2.788   1.281   3.609
 2711SOL    HW1 9032   2.765   1.198   3.558
 2711SOL    HW2 9033   2.703   1.330   3.632
 2712SOL     OW 9034   2.451   4.490   1.138
 2712SOL    HW1 9035   2.463   4.416   1.204
 2712SOL    HW2 9036   2.541   4.524   1.110
 2713SOL     OW 9037   2.240   2.852   6.006
 2713SOL    HW1 9038   2.253   2.874   6.102
 2713SOL    HW2 9039   2.272   2.758   5.988
 2714SOL     OW 9040   4.351   2.356   0.182
 2714SOL    HW1 9041   4.291   2.277   0.187
 2714SOL    HW2 9042   4.362   2.396   0.274
 2715SOL     OW 9043   5.219   2.587   1.335
 2715SOL    HW1 9044   5.276   2.548   1.408
 2715SOL    HW2 9045   5.203   2.517   1.265
 2716SOL     OW 9046   5.218   3.410   3.535
 2716SOL    HW1 9047   5.248   3.353   3.611
 2716SOL    HW2 9048   5.288   3.410   3.464
 2717SOL     OW 9049   0.067   0.242   2.645
 2717SOL    HW1 9050   0.040   0.336   2.665
 2717SOL    HW2 9051   0.071   0.229   2.545
 2718SOL     OW 9052   1.095   1.350   5.193
 2718SOL    HW1 9053   1.174   1.310   5.239
 2718SOL    HW2 9054   1.126   1.420   5.128
 2719SOL     OW 9055   0.513   5.173   1.640
 2719SOL    HW1 9056   0.608   5.175   1.608
 2719SOL    HW2 9057   0.486   5.265   1.669
 2720SOL     OW 9058   1.782   6.469   2.287
 2720SOL    HW1 9059   1.807   6.455   2.382
 2720SOL    HW2 9060   1.731   6.554   2.278
 2721SOL     OW 9061   3.618   6.306   3.509
 2721SOL    HW1 9062   3.625   6.243   3.432
 2721SOL    HW2 9063   3.553   6.270   3.575
 2722SOL     OW 9064   6.293   4.978   0.856
 2722SOL    HW1 9065   6.320   5.059   0.805
 2722SOL    HW2 9066   6.365   4.909   0.851
 2723SOL     OW 9067   1.169   5.852   6.054
 2723SOL    HW1 9068   1.193   5.757   6.034
 2723SOL    HW2 9069   1.070   5.862   6.056
 2724SOL     OW 9070   2.376   5.761   6.837
 2724SOL    HW1 9071   2.353   5.721   6.926
 2724SOL    HW2 9072   2.377   5.860   6.844
 2725SOL     OW 9073   4.724   4.666   4.967
 2725SOL    HW1 9074   4.801   4.712   4.923
 2725SOL    HW2 9075   4.671   4.733   5.019
 2726SOL     OW 9076   0.074   2.103   1.565
 2726SOL    HW1 9077   0.170   2.126   1.548
 2726SOL    HW2 9078   0.025   2.098   1.478
 2727SOL     OW 9079   0.797   4.821   3.804
 2727SOL    HW1 9080   0.804   4.893   3.735
 2727SOL    HW2 9081   0.757   4.858   3.888
 2728SOL     OW 9082   4.555   6.661   5.090
 2728SOL    HW1 9083   4.472   6.679   5.038
 2728SOL    HW2 9084   4.597   6.576   5.059
 2729SOL     OW 9085   0.349   6.041   0.318
 2729SOL    HW1 9086   0.388   6.133   0.309
 2729SOL    HW2 9087   0.251   6.048   0.336
 2730SOL     OW 9088   1.484   5.521   2.044
 2730SOL    HW1 9089   1.516   5.451   2.108
 2730SOL    HW2 9090   1.516   5.611   2.073
 2731SOL     OW 9091   2.912   3.462   3.409
 2731SOL    HW1 9092   2.931   3.547   3.459
 2731SOL    HW2 9093   2.889   3.485   3.314
 2732SOL     OW 9094   5.727   2.341   1.825
 2732SOL    HW1 9095   5.781   2.271   1.872
 2732SOL    HW2 9096   5.648   2.366   1.881
 2733SOL     OW 9097   6.417   2.230   5.157
 2733SOL    HW1 9098   6.347   2.292   5.191
 2733SOL    HW2 9099   6.422   2.149   5.217
 2734SOL     OW 9100   3.200   5.575   0.952
 2734SOL    HW1 9101   3.247   5.654   0.914
 2734SOL    HW2 9102   3.103   5.578   0.927
 2735SOL     OW 9103   1.424   3.215   1.703
 2735SOL    HW1 9104   1.366   3.248   1.629
 2735SOL    HW2 9105   1.482   3.289   1.736
 2736SOL     OW 9106   6.023   5.774   4.344
 2736SOL    HW1 9107   6.080   5.702   4.384
 2736SOL    HW2 9108   5.929   5.742   4.336
 2737SOL     OW 9109   2.711   4.322   5.319
 2737SOL    HW1 9110   2.771   4.286   5.389
 2737SOL    HW2 9111   2.765   4.370   5.250
 2738SOL     OW 9112   5.212   6.528   1.939
 2738SOL    HW1 9113   5.118   6.539   1.971
 2738SOL    HW2 9114   5.214   6.459   1.866
 2739SOL     OW 9115   1.384   4.921   1.076
 2739SOL    HW1 9116   1.483   4.931   1.085
 2739SOL    HW2 9117   1.363   4.878   0.988
 2740SOL     OW 9118   6.487   4.350   2.145
 2740SOL    HW1 9119   6.530   4.411   2.078
 2740SOL    HW2 9120   6.431   4.404   2.207
 2741SOL     OW 9121   6.238   0.230   4.728
 2741SOL    HW1 9122   6.332   0.238   4.763
 2741SOL    HW2 9123   6.176   0.283   4.785
 2742SOL     OW 9124   1.703   5.256   0.436
 2742SOL    HW1 9125   1.653   5.318   0.496
 2742SOL    HW2 9126   1.652   5.244   0.350
 2743SOL     OW 9127   6.667   4.559   2.548
 2743SOL    HW1 9128   6.725   4.489   2.506
 2743SOL    HW2 9129   6.651   4.632   2.482
 2744SOL     OW 9130   4.758   2.442   0.454
 2744SOL    HW1 9131   4.688   2.509   0.426
 2744SOL    HW2 9132   4.791   2.465   0.546
 2745SOL     OW 9133   6.772   0.838   4.832
 2745SOL    HW1 9134   6.673   0.837   4.824
 2745SOL    HW2 9135   6.804   0.932   4.846
 2746SOL     OW 9136   1.084   2.630   4.761
 2746SOL    HW1 9137   1.086   2.538   4.723
 2746SOL    HW2 9138   1.163   2.681   4.728
 2747SOL     OW 9139   4.777   4.833   6.403
 2747SOL    HW1 9140   4.767   4.768   6.479
 2747SOL    HW2 9141   4.799   4.784   6.319
 2748SOL     OW 9142   4.592   1.315   2.236
 2748SOL    HW1 9143   4.682   1.305   2.279
 2748SOL    HW2 9144   4.584   1.408   2.198
 2749SOL     OW 9145   0.462   4.317   1.275
 2749SOL    HW1 9146   0.436   4.345   1.183
 2749SOL    HW2 9147   0.463   4.217   1.280
 2750SOL     OW 9148   1.618   3.513   0.803
 2750SOL    HW1 9149   1.616   3.413   0.801
 2750SOL    HW2 9150   1.569   3.545   0.884
 2751SOL     OW 9151   1.246   3.197   1.336
 2751SOL    HW1 9152   1.217   3.228   1.245
 2751SOL    HW2 9153   1.263   3.276   1.394
 2752SOL     OW 9154   3.564   4.954   5.275
 2752SOL    HW1 9155   3.551   4.907   5.362
 2752SOL    HW2 9156   3.661   4.953   5.250
 2753SOL     OW 9157   6.861   6.260   5.017
 2753SOL    HW1 9158   6.781   6.247   5.075
 2753SOL    HW2 9159   6.943   6.269   5.074
 2754SOL     OW 9160   0.926   0.311   1.223
 2754SOL    HW1 9161   0.988   0.244   1.266
 2754SOL    HW2 9162   0.908   0.385   1.287
 2755SOL     OW 9163   2.432   0.159   2.534
 2755SOL    HW1 9164   2.498   0.234   2.545
 2755SOL    HW2 9165   2.432   0.129   2.438
 2756SOL     OW 9166   5.716   5.286   0.196
 2756SOL    HW1 9167   5.793   5.288   0.260
 2756SOL    HW2 9168   5.751   5.275   0.103
 2757SOL     OW 9169   2.424   6.587   6.677
 2757SOL    HW1 9170   2.487   6.649   6.630
 2757SOL    HW2 9171   2.332   6.627   6.675
 2758SOL     OW 9172   3.867   6.197   4.174
 2758SOL    HW1 9173   3.937   6.216   4.243
 2758SOL    HW2 9174   3.788   6.152   4.217
 2759SOL     OW 9175   5.392   6.754   5.712
 2759SOL    HW1 9176   5.403   6.724   5.807
 2759SOL    HW2 9177   5.465   6.818   5.688
 2760SOL     OW 9178   0.856   6.393   1.822
 2760SOL    HW1 9179   0.893   6.353   1.906
 2760SOL    HW2 9180   0.846   6.322   1.752
 2761SOL     OW 9181   2.237   5.771   4.334
 2761SOL    HW1 9182   2.181   5.816   4.404
 2761SOL    HW2 9183   2.216   5.673   4.332
 2762SOL     OW 9184   1.314   1.459   4.942
 2762SOL    HW1 9185   1.227   1.508   4.939
 2762SOL    HW2 9186   1.387   1.523   4.967
 2763SOL     OW 9187   5.169   1.369   3.230
 2763SOL    HW1 9188   5.143   1.278   3.263
 2763SOL    HW2 9189   5.088   1.428   3.226
 2764SOL     OW 9190   5.662   1.072   0.893
 2764SOL    HW1 9191   5.699   1.164   0.877
 2764SOL    HW2 9192   5.583   1.078   0.954
 2765SOL     OW 9193   5.926   6.810   1.095
 2765SOL    HW1 9194   5.901   6.893   1.146
 2765SOL    HW2 9195   5.844   6.763   1.064
 2766SOL     OW 9196   5.243   2.037   0.385
 2766SOL    HW1 9197   5.233   2.129   0.349
 2766SOL    HW2 9198   5.153   1.996   0.397
 2767SOL     OW 9199   0.020   5.354   0.216
 2767SOL    HW1 9200   0.049   5.422   0.284
 2767SOL    HW2 9201   6.941   5.357   0.205
 2768SOL     OW 9202   4.172   0.755   0.859
 2768SOL    HW1 9203   4.141   0.727   0.950
 2768SOL    HW2 9204   4.264   0.720   0.843
 2769SOL     OW 9205   2.019   4.258   4.298
 2769SOL    HW1 9206   1.933   4.299   4.268
 2769SOL    HW2 9207   2.083   4.256   4.221
 2770SOL     OW 9208   4.143   5.860   5.636
 2770SOL    HW1 9209   4.147   5.942   5.694
 2770SOL    HW2 9210   4.050   5.823   5.638
 2771SOL     OW 9211   6.426   0.901   3.611
 2771SOL    HW1 9212   6.455   0.981   3.663
 2771SOL    HW2 9213   6.421   0.821   3.671
 2772SOL     OW 9214   3.984   1.289   0.933
 2772SOL    HW1 9215   3.936   1.279   1.021
 2772SOL    HW2 9216   4.077   1.255   0.942
 2773SOL     OW 9217   6.141   2.039   5.029
 2773SOL    HW1 9218   6.096   2.027   4.940
 2773SOL    HW2 9219   6.149   1.951   5.075
 2774SOL     OW 9220   5.734   3.405   3.223
 2774SOL    HW1 9221   5.792   3.421   3.143
 2774SOL    HW2 9222   5.740   3.483   3.285
 2775SOL     OW 9223   6.949   5.851   6.327
 2775SOL    HW1 9224   6.963   5.778   6.393
 2775SOL    HW2 9225   6.998   5.933   6.358
 2776SOL     OW 9226   4.114   5.053   5.532
 2776SOL    HW1 9227   4.180   5.126   5.520
 2776SOL    HW2 9228   4.156   4.977   5.581
 2777SOL     OW 9229   2.532   0.979   2.330
 2777SOL    HW1 9230   2.491   1.000   2.419
 2777SOL    HW2 9231   2.609   0.917   2.343
 2778SOL     OW 9232   1.341   0.066   5.654
 2778SOL    HW1 9233   1.419   0.101   5.602
 2778SOL    HW2 9234   1.342   6.986   5.652
 2779SOL     OW 9235   4.833   6.427   1.106
 2779SOL    HW1 9236   4.786   6.338   1.110
 2779SOL    HW2 9237   4.922   6.415   1.062
 2780SOL     OW 9238   6.294   6.722   6.875
 2780SOL    HW1 9239   6.278   6.716   6.777
 2780SOL    HW2 9240   6.355   6.799   6.895
 2781SOL     OW 9241   5.473   6.536   2.017
 2781SOL    HW1 9242   5.532   6.616   2.010
 2781SOL    HW2 9243   5.377   6.564   2.006
 2782SOL     OW 9244   4.207   1.793   6.158
 2782SOL    HW1 9245   4.108   1.794   6.157
 2782SOL    HW2 9246   4.241   1.833   6.243
 2783SOL     OW 9247   5.204   4.143   3.906
 2783SOL    HW1 9248   5.218   4.093   3.991
 2783SOL    HW2 9249   5.209   4.079   3.829
 2784SOL     OW 9250   3.384   1.507   2.086
 2784SOL    HW1 9251   3.435   1.592   2.078
 2784SOL    HW2 9252   3.286   1.526   2.082
 2785SOL     OW 9253   4.542   1.345   0.922
 2785SOL    HW1 9254   4.513   1.344   1.018
 2785SOL    HW2 9255   4.641   1.331   0.917
 2786SOL     OW 9256   5.033   0.145   2.045
 2786SOL    HW1 9257   5.049   0.240   2.073
 2786SOL    HW2 9258   4.935   0.126   2.044
 2787SOL     OW 9259   4.223   1.836   6.448
 2787SOL    HW1 9260   4.301   1.898   6.452
 2787SOL    HW2 9261   4.139   1.887   6.467
 2788SOL     OW 9262   1.928   4.928   5.824
 2788SOL    HW1 9263   1.986   5.003   5.792
 2788SOL    HW2 9264   1.977   4.842   5.816
 2789SOL     OW 9265   1.696   1.991   3.644
 2789SOL    HW1 9266   1.633   2.004   3.567
 2789SOL    HW2 9267   1.681   2.063   3.712
 2790SOL     OW 9268   2.915   6.091   1.883
 2790SOL    HW1 9269   2.871   6.030   1.949
 2790SOL    HW2 9270   3.009   6.107   1.911
 2791SOL     OW 9271   0.685   3.199   3.027
 2791SOL    HW1 9272   0.629   3.130   3.073
 2791SOL    HW2 9273   0.698   3.278   3.087
 2792SOL     OW 9274   2.037   6.610   3.941
 2792SOL    HW1 9275   1.983   6.545   3.888
 2792SOL    HW2 9276   2.133   6.600   3.918
 2793SOL     OW 9277   5.501   3.929   2.873
 2793SOL    HW1 9278   5.427   3.977   2.922
 2793SOL    HW2 9279   5.470   3.907   2.781
 2794SOL     OW 9280   0.118   2.696   6.780
 2794SOL    HW1 9281   0.079   2.738   6.698
 2794SOL    HW2 9282   0.046   2.652   6.833
 2795SOL     OW 9283   1.217   2.834   0.606
 2795SOL    HW1 9284   1.249   2.779   0.683
 2795SOL    HW2 9285   1.154   2.780   0.550
 2796SOL     OW 9286   0.005   6.052   3.053
 2796SOL    HW1 9287   7.016   5.972   3.114
 2796SOL    HW2 9288   0.100   6.062   3.027
 2797SOL     OW 9289   5.416   5.354   4.505
 2797SOL    HW1 9290   5.325   5.337   4.542
 2797SOL    HW2 9291   5.411   5.423   4.433
 2798SOL     OW 9292   0.276   5.221   2.028
 2798SOL    HW1 9293   0.347   5.281   1.991
 2798SOL    HW2 9294   0.297   5.200   2.123
 2799SOL     OW 9295   5.867   5.900   0.007
 2799SOL    HW1 9296   5.919   5.915   0.090
 2799SOL    HW2 9297   5.900   5.818   6.981
 2800SOL     OW 9298   4.582   6.109   0.467
 2800SOL    HW1 9299   4.494   6.127   0.423
 2800SOL    HW2 9300   4.653   6.099   0.398
 2801SOL     OW 9301   6.419   5.888   6.115
 2801SOL    HW1 9302   6.515   5.894   6.088
 2801SOL    HW2 9303   6.409   5.917   6.210
 2802SOL     OW 9304   5.434   1.390   5.263
 2802SOL    HW1 9305   5.363   1.339   5.312
 2802SOL    HW2 9306   5.424   1.374   5.165
 2803SOL     OW 9307   3.676   5.705   6.555
 2803SOL    HW1 9308   3.675   5.606   6.567
 2803SOL    HW2 9309   3.709   5.727   6.463
 2804SOL     OW 9310   0.116   4.994   4.988
 2804SOL    HW1 9311   0.150   4.902   4.969
 2804SOL    HW2 9312   0.188   5.048   5.031
 2805SOL     OW 9313   5.578   3.406   1.692
 2805SOL    HW1 9314   5.536   3.454   1.615
 2805SOL    HW2 9315   5.678   3.414   1.686
 2806SOL     OW 9316   0.014   4.816   5.988
 2806SOL    HW1 9317   6.937   4.797   5.975
 2806SOL    HW2 9318   0.030   4.915   5.984
 2807SOL     OW 9319   5.163   6.357   4.345
 2807SOL    HW1 9320   5.243   6.305   4.375
 2807SOL    HW2 9321   5.082   6.298   4.348
 2808SOL     OW 9322   5.589   4.205   2.194
 2808SOL    HW1 9323   5.596   4.209   2.293
 2808SOL    HW2 9324   5.508   4.254   2.163
 2809SOL     OW 9325   5.916   3.349   1.052
 2809SOL    HW1 9326   5.981   3.357   1.129
 2809SOL    HW2 9327   5.932   3.423   0.987
 2810SOL     OW 9328   3.448   5.068   3.242
 2810SOL    HW1 9329   3.537   5.029   3.264
 2810SOL    HW2 9330   3.459   5.163   3.214
 2811SOL     OW 9331   1.012   1.820   3.241
 2811SOL    HW1 9332   0.965   1.734   3.220
 2811SOL    HW2 9333   1.035   1.867   3.156
 2812SOL     OW 9334   5.104   3.809   6.352
 2812SOL    HW1 9335   5.006   3.824   6.364
 2812SOL    HW2 9336   5.153   3.845   6.431
 2813SOL     OW 9337   6.806   6.787   6.318
 2813SOL    HW1 9338   6.756   6.701   6.304
 2813SOL    HW2 9339   6.877   6.794   6.248
 2814SOL     OW 9340   3.947   3.466   5.383
 2814SOL    HW1 9341   3.935   3.492   5.287
 2814SOL    HW2 9342   4.013   3.528   5.426
 2815SOL     OW 9343   6.115   6.939   5.473
 2815SOL    HW1 9344   6.097   6.963   5.568
 2815SOL    HW2 9345   6.090   7.015   5.413
 2816SOL     OW 9346   6.540   5.574   3.337
 2816SOL    HW1 9347   6.542   5.651   3.401
 2816SOL    HW2 9348   6.588   5.599   3.253
 2817SOL     OW 9349   2.552   0.162   1.481
 2817SOL    HW1 9350   2.506   0.199   1.562
 2817SOL    HW2 9351   2.513   0.072   1.460
 2818SOL     OW 9352   0.238   0.787   0.661
 2818SOL    HW1 9353   0.205   0.876   0.630
 2818SOL    HW2 9354   0.220   0.718   0.590
 2819SOL     OW 9355   0.779   1.282   1.807
 2819SOL    HW1 9356   0.871   1.279   1.845
 2819SOL    HW2 9357   0.712   1.271   1.881
 2820SOL     OW 9358   0.641   2.738   3.065
 2820SOL    HW1 9359   0.562   2.677   3.076
 2820SOL    HW2 9360   0.635   2.785   2.977
 2821SOL     OW 9361   4.347   3.102   6.837
 2821SOL    HW1 9362   4.290   3.051   6.901
 2821SOL    HW2 9363   4.308   3.096   6.745
 2822SOL     OW 9364   4.040   1.485   0.300
 2822SOL    HW1 9365   4.066   1.557   0.236
 2822SOL    HW2 9366   4.015   1.527   0.388
 2823SOL     OW 9367   4.537   0.053   0.537
 2823SOL    HW1 9368   4.560   0.100   0.452
 2823SOL    HW2 9369   4.442   0.022   0.533
 2824SOL     OW 9370   2.960   1.521   3.558
 2824SOL    HW1 9371   2.907   1.443   3.590
 2824SOL    HW2 9372   3.024   1.550   3.630
 2825SOL     OW 9373   6.023   0.402   6.645
 2825SOL    HW1 9374   6.012   0.458   6.563
 2825SOL    HW2 9375   6.083   0.449   6.710
 2826SOL     OW 9376   4.933   1.353   6.636
 2826SOL    HW1 9377   4.897   1.299   6.712
 2826SOL    HW2 9378   4.966   1.441   6.671
 2827SOL     OW 9379   0.056   0.722   5.084
 2827SOL    HW1 9380   6.977   0.727   5.088
 2827SOL    HW2 9381   0.084   0.640   5.034
 2828SOL     OW 9382   2.801   1.033   0.095
 2828SOL    HW1 9383   2.865   0.958   0.080
 2828SOL    HW2 9384   2.784   1.043   0.193
 2829SOL     OW 9385   3.167   3.377   5.026
 2829SOL    HW1 9386   3.137   3.471   5.035
 2829SOL    HW2 9387   3.198   3.343   5.115
 2830SOL     OW 9388   1.662   3.270   5.827
 2830SOL    HW1 9389   1.653   3.362   5.865
 2830SOL    HW2 9390   1.726   3.216   5.883
 2831SOL     OW 9391   0.821   5.062   3.611
 2831SOL    HW1 9392   0.761   5.142   3.601
 2831SOL    HW2 9393   0.872   5.048   3.526
 2832SOL     OW 9394   0.638   2.502   1.871
 2832SOL    HW1 9395   0.697   2.436   1.916
 2832SOL    HW2 9396   0.592   2.558   1.939
 2833SOL     OW 9397   3.258   2.079   2.316
 2833SOL    HW1 9398   3.334   2.121   2.266
 2833SOL    HW2 9399   3.209   2.016   2.255
 2834SOL     OW 9400   4.012   5.089   6.309
 2834SOL    HW1 9401   3.977   5.072   6.216
 2834SOL    HW2 9402   4.002   5.185   6.331
 2835SOL     OW 9403   0.387   0.209   1.926
 2835SOL    HW1 9404   0.483   0.209   1.955
 2835SOL    HW2 9405   0.357   0.116   1.908
 2836SOL     OW 9406   6.556   6.930   2.229
 2836SOL    HW1 9407   6.556   6.949   2.131
 2836SOL    HW2 9408   6.583   6.835   2.245
 2837SOL     OW 9409   5.243   4.549   2.068
 2837SOL    HW1 9410   5.176   4.510   2.005
 2837SOL    HW2 9411   5.195   4.586   2.148
 2838SOL     OW 9412   2.251   3.963   0.866
 2838SOL    HW1 9413   2.209   3.883   0.825
 2838SOL    HW2 9414   2.235   3.963   0.964
 2839SOL     OW 9415   6.947   1.980   2.259
 2839SOL    HW1 9416   6.949   1.909   2.188
 2839SOL    HW2 9417   6.953   1.937   2.349
 2840SOL     OW 9418   1.813   0.621   3.119
 2840SOL    HW1 9419   1.847   0.709   3.087
 2840SOL    HW2 9420   1.886   0.572   3.168
 2841SOL     OW 9421   0.447   0.633   6.058
 2841SOL    HW1 9422   0.542   0.664   6.062
 2841SOL    HW2 9423   0.390   0.705   6.020
 2842SOL     OW 9424   0.424   3.761   4.173
 2842SOL    HW1 9425   0.511   3.776   4.126
 2842SOL    HW2 9426   0.349   3.791   4.114
 2843SOL     OW 9427   2.351   2.197   2.583
 2843SOL    HW1 9428   2.386   2.160   2.669
 2843SOL    HW2 9429   2.422   2.252   2.539
 2844SOL     OW 9430   6.905   4.907   0.669
 2844SOL    HW1 9431   6.929   4.985   0.611
 2844SOL    HW2 9432   6.805   4.895   0.668
 2845SOL     OW 9433   5.974   2.788   1.485
 2845SOL    HW1 9434   6.041   2.863   1.476
 2845SOL    HW2 9435   5.917   2.804   1.565
 2846SOL     OW 9436   4.151   1.115   6.984
 2846SOL    HW1 9437   4.249   1.105   6.967
 2846SOL    HW2 9438   4.115   1.032   0.005
 2847SOL     OW 9439   4.816   3.029   3.711
 2847SOL    HW1 9440   4.762   2.995   3.789
 2847SOL    HW2 9441   4.859   3.116   3.735
 2848SOL     OW 9442   1.617   2.341   4.965
 2848SOL    HW1 9443   1.697   2.283   4.947
 2848SOL    HW2 9444   1.581   2.321   5.056
 2849SOL     OW 9445   3.970   5.950   0.488
 2849SOL    HW1 9446   3.972   5.965   0.586
 2849SOL    HW2 9447   3.945   6.035   0.441
 2850SOL     OW 9448   1.649   0.430   2.491
 2850SOL    HW1 9449   1.559   0.449   2.452
 2850SOL    HW2 9450   1.642   0.356   2.557
 2851SOL     OW 9451   6.194   1.149   6.183
 2851SOL    HW1 9452   6.111   1.191   6.147
 2851SOL    HW2 9453   6.251   1.219   6.226
 2852SOL     OW 9454   5.757   4.296   6.701
 2852SOL    HW1 9455   5.806   4.333   6.622
 2852SOL    HW2 9456   5.817   4.294   6.781
 2853SOL     OW 9457   1.664   2.349   6.264
 2853SOL    HW1 9458   1.705   2.271   6.217
 2853SOL    HW2 9459   1.570   2.326   6.290
 2854SOL     OW 9460   4.395   1.703   5.396
 2854SOL    HW1 9461   4.385   1.643   5.474
 2854SOL    HW2 9462   4.366   1.796   5.420
 2855SOL     OW 9463   2.312   1.115   0.311
 2855SOL    HW1 9464   2.235   1.053   0.295
 2855SOL    HW2 9465   2.393   1.082   0.262
 2856SOL     OW 9466   0.875   2.902   5.763
 2856SOL    HW1 9467   0.836   2.967   5.828
 2856SOL    HW2 9468   0.910   2.951   5.683
 2857SOL     OW 9469   2.541   2.373   2.462
 2857SOL    HW1 9470   2.553   2.352   2.365
 2857SOL    HW2 9471   2.624   2.348   2.512
 2858SOL     OW 9472   4.808   4.114   2.392
 2858SOL    HW1 9473   4.724   4.160   2.361
 2858SOL    HW2 9474   4.870   4.105   2.314
 2859SOL     OW 9475   5.750   1.541   6.719
 2859SOL    HW1 9476   5.835   1.542   6.668
 2859SOL    HW2 9477   5.677   1.583   6.665
 2860SOL     OW 9478   3.166   1.045   1.819
 2860SOL    HW1 9479   3.247   1.010   1.773
 2860SOL    HW2 9480   3.187   1.133   1.861
 2861SOL     OW 9481   3.753   3.782   5.380
 2861SOL    HW1 9482   3.660   3.780   5.343
 2861SOL    HW2 9483   3.809   3.845   5.327
 2862SOL     OW 9484   5.663   1.497   2.932
 2862SOL    HW1 9485   5.572   1.511   2.893
 2862SOL    HW2 9486   5.725   1.466   2.860
 2863SOL     OW 9487   5.171   1.155   6.697
 2863SOL    HW1 9488   5.121   1.239   6.677
 2863SOL    HW2 9489   5.147   1.124   6.789
 2864SOL     OW 9490   4.578   1.792   1.849
 2864SOL    HW1 9491   4.478   1.799   1.839
 2864SOL    HW2 9492   4.606   1.831   1.936
 2865SOL     OW 9493   3.883   4.278   6.514
 2865SOL    HW1 9494   3.851   4.323   6.431
 2865SOL    HW2 9495   3.805   4.258   6.573
 2866SOL     OW 9496   6.589   5.462   0.474
 2866SOL    HW1 9497   6.633   5.473   0.563
 2866SOL    HW2 9498   6.566   5.366   0.460
 2867SOL     OW 9499   6.371   5.334   3.074
 2867SOL    HW1 9500   6.417   5.301   2.992
 2867SOL    HW2 9501   6.290   5.386   3.049
 2868SOL     OW 9502   0.752   1.870   5.639
 2868SOL    HW1 9503   0.734   1.780   5.678
 2868SOL    HW2 9504   0.840   1.904   5.673
 2869SOL     OW 9505   6.770   1.306   3.292
 2869SOL    HW1 9506   6.720   1.393   3.287
 2869SOL    HW2 9507   6.705   1.231   3.302
 2870SOL     OW 9508   0.342   1.486   4.669
 2870SOL    HW1 9509   0.292   1.554   4.723
 2870SOL    HW2 9510   0.278   1.416   4.638
 2871SOL     OW 9511   0.183   1.895   6.841
 2871SOL    HW1 9512   0.235   1.914   6.925
 2871SOL    HW2 9513   0.237   1.922   6.761
 2872SOL     OW 9514   2.594   1.835   2.642
 2872SOL    HW1 9515   2.659   1.825   2.567
 2872SOL    HW2 9516   2.548   1.924   2.635
 2873SOL     OW 9517   6.914   5.427   3.028
 2873SOL    HW1 9518   6.885   5.507   3.081
 2873SOL    HW2 9519   6.993   5.385   3.072
 2874SOL     OW 9520   4.119   6.729   3.287
 2874SOL    HW1 9521   4.218   6.732   3.281
 2874SOL    HW2 9522   4.090   6.759   3.378
 2875SOL     OW 9523   4.210   0.024   0.608
 2875SOL    HW1 9524   4.254   7.014   0.693
 2875SOL    HW2 9525   4.144   0.097   0.630
 2876SOL     OW 9526   1.549   0.424   1.444
 2876SOL    HW1 9527   1.589   0.397   1.356
 2876SOL    HW2 9528   1.458   0.461   1.429
 2877SOL     OW 9529   3.260   2.553   5.354
 2877SOL    HW1 9530   3.226   2.488   5.286
 2877SOL    HW2 9531   3.305   2.503   5.428
 2878SOL     OW 9532   4.232   5.019   4.910
 2878SOL    HW1 9533   4.148   4.979   4.873
 2878SOL    HW2 9534   4.303   4.948   4.916
 2879SOL     OW 9535   5.516   5.070   0.515
 2879SOL    HW1 9536   5.567   5.010   0.454
 2879SOL    HW2 9537   5.419   5.044   0.514
 2880SOL     OW 9538   7.010   0.528   1.691
 2880SOL    HW1 9539   7.018   0.592   1.768
 2880SOL    HW2 9540   6.961   0.446   1.721
 2881SOL     OW 9541   5.062   5.929   0.179
 2881SOL    HW1 9542   5.034   5.840   0.213
 2881SOL    HW2 9543   5.119   5.917   0.097
 2882SOL     OW 9544   0.522   4.771   2.598
 2882SOL    HW1 9545   0.489   4.800   2.508
 2882SOL    HW2 9546   0.582   4.691   2.587
 2883SOL     OW 9547   5.866   0.151   3.379
 2883SOL    HW1 9548   5.848   0.135   3.476
 2883SOL    HW2 9549   5.821   0.236   3.350
 2884SOL     OW 9550   0.902   0.007   2.747
 2884SOL    HW1 9551   0.922   0.085   2.807
 2884SOL    HW2 9552   0.890   6.946   2.802
 2885SOL     OW 9553   0.890   3.489   3.014
 2885SOL    HW1 9554   0.977   3.539   3.014
 2885SOL    HW2 9555   0.875   3.448   2.924
 2886SOL     OW 9556   1.935   4.072   5.546
 2886SOL    HW1 9557   1.997   4.148   5.528
 2886SOL    HW2 9558   1.842   4.106   5.557
 2887SOL     OW 9559   0.268   0.602   4.880
 2887SOL    HW1 9560   0.254   0.600   4.781
 2887SOL    HW2 9561   0.295   0.694   4.908
 2888SOL     OW 9562   0.792   4.260   0.279
 2888SOL    HW1 9563   0.758   4.166   0.286
 2888SOL    HW2 9564   0.853   4.268   0.200
 2889SOL     OW 9565   2.021   6.639   2.392
 2889SOL    HW1 9566   2.061   6.710   2.451
 2889SOL    HW2 9567   1.989   6.563   2.449
 2890SOL     OW 9568   2.533   5.753   0.633
 2890SOL    HW1 9569   2.552   5.751   0.731
 2890SOL    HW2 9570   2.447   5.801   0.617
 2891SOL     OW 9571   0.780   4.193   3.919
 2891SOL    HW1 9572   0.768   4.122   3.988
 2891SOL    HW2 9573   0.769   4.283   3.961
 2892SOL     OW 9574   5.324   3.181   7.018
 2892SOL    HW1 9575   5.291   3.124   6.942
 2892SOL    HW2 9576   5.404   3.233   6.988
 2893SOL     OW 9577   0.494   6.112   4.929
 2893SOL    HW1 9578   0.511   6.147   4.837
 2893SOL    HW2 9579   0.398   6.124   4.953
 2894SOL     OW 9580   1.397   2.768   1.812
 2894SOL    HW1 9581   1.451   2.813   1.741
 2894SOL    HW2 9582   1.455   2.704   1.862
 2895SOL     OW 9583   4.438   2.090   5.803
 2895SOL    HW1 9584   4.459   1.995   5.781
 2895SOL    HW2 9585   4.361   2.093   5.866
 2896SOL     OW 9586   4.639   5.802   5.899
 2896SOL    HW1 9587   4.649   5.703   5.908
 2896SOL    HW2 9588   4.570   5.834   5.964
 2897SOL     OW 9589   3.965   5.137   2.917
 2897SOL    HW1 9590   4.034   5.162   2.985
 2897SOL    HW2 9591   4.007   5.080   2.846
 2898SOL     OW 9592   4.455   5.008   4.353
 2898SOL    HW1 9593   4.464   5.096   4.306
 2898SOL    HW2 9594   4.410   4.942   4.294
 2899SOL     OW 9595   0.995   1.518   0.453
 2899SOL    HW1 9596   0.990   1.478   0.362
 2899SOL    HW2 9597   0.978   1.617   0.447
 2900SOL     OW 9598   1.517   4.458   5.288
 2900SOL    HW1 9599   1.549   4.510   5.209
 2900SOL    HW2 9600   1.596   4.431   5.344
 2901SOL     OW 9601   3.064   5.575   3.647
 2901SOL    HW1 9602   3.008   5.551   3.568
 2901SOL    HW2 9603   3.091   5.492   3.695
 2902SOL     OW 9604   5.024   6.711   2.392
 2902SOL    HW1 9605   4.937   6.745   2.356
 2902SOL    HW2 9606   5.095   6.781   2.379
 2903SOL     OW 9607   3.324   0.703   0.551
 2903SOL    HW1 9608   3.290   0.715   0.644
 2903SOL    HW2 9609   3.371   0.786   0.522
 2904SOL     OW 9610   2.077   3.936   5.085
 2904SOL    HW1 9611   2.103   3.897   4.997
 2904SOL    HW2 9612   2.160   3.955   5.138
 2905SOL     OW 9613   1.715   2.642   4.299
 2905SOL    HW1 9614   1.682   2.597   4.382
 2905SOL    HW2 9615   1.815   2.638   4.296
 2906SOL     OW 9616   4.296   5.439   1.522
 2906SOL    HW1 9617   4.326   5.491   1.602
 2906SOL    HW2 9618   4.318   5.490   1.438
 2907SOL     OW 9619   0.605   1.658   3.448
 2907SOL    HW1 9620   0.609   1.565   3.410
 2907SOL    HW2 9621   0.549   1.658   3.530
 2908SOL     OW 9622   4.872   6.284   4.114
 2908SOL    HW1 9623   4.842   6.200   4.068
 2908SOL    HW2 9624   4.957   6.266   4.163
 2909SOL     OW 9625   1.911   6.081   3.202
 2909SOL    HW1 9626   1.832   6.136   3.229
 2909SOL    HW2 9627   1.945   6.112   3.114
 2910SOL     OW 9628   4.367   6.972   4.355
 2910SOL    HW1 9629   4.463   6.990   4.331
 2910SOL    HW2 9630   4.363   6.912   4.436
 2911SOL     OW 9631   0.948   5.746   3.255
 2911SOL    HW1 9632   0.891   5.711   3.181
 2911SOL    HW2 9633   0.958   5.677   3.327
 2912SOL     OW 9634   4.747   0.404   6.964
 2912SOL    HW1 9635   4.840   0.396   6.999
 2912SOL    HW2 9636   4.713   0.313   6.941
 2913SOL     OW 9637   2.705   4.596   2.937
 2913SOL    HW1 9638   2.684   4.526   2.869
 2913SOL    HW2 9639   2.769   4.662   2.897
 2914SOL     OW 9640   6.074   6.321   6.672
 2914SOL    HW1 9641   6.004   6.315   6.600
 2914SOL    HW2 9642   6.069   6.239   6.729
 2915SOL     OW 9643   5.565   1.567   4.198
 2915SOL    HW1 9644   5.487   1.524   4.153
 2915SOL    HW2 9645   5.567   1.665   4.175
 2916SOL     OW 9646   0.979   6.640   6.933
 2916SOL    HW1 9647   0.954   6.734   6.910
 2916SOL    HW2 9648   0.971   6.582   6.852
 2917SOL     OW 9649   2.432   6.997   2.976
 2917SOL    HW1 9650   2.357   6.952   3.024
 2917SOL    HW2 9651   2.396   0.027   2.897
 2918SOL     OW 9652   6.633   5.489   4.667
 2918SOL    HW1 9653   6.713   5.508   4.723
 2918SOL    HW2 9654   6.612   5.570   4.611
 2919SOL     OW 9655   6.839   1.142   1.425
 2919SOL    HW1 9656   6.882   1.231   1.437
 2919SOL    HW2 9657   6.742   1.148   1.451
 2920SOL     OW 9658   2.512   1.650   1.476
 2920SOL    HW1 9659   2.438   1.633   1.540
 2920SOL    HW2 9660   2.543   1.745   1.486
 2921SOL     OW 9661   0.875   0.273   3.626
 2921SOL    HW1 9662   0.799   0.212   3.604
 2921SOL    HW2 9663   0.939   0.276   3.549
 2922SOL     OW 9664   4.807   0.512   0.249
 2922SOL    HW1 9665   4.732   0.497   0.184
 2922SOL    HW2 9666   4.769   0.547   0.335
 2923SOL     OW 9667   6.613   5.228   1.933
 2923SOL    HW1 9668   6.584   5.163   1.864
 2923SOL    HW2 9669   6.533   5.273   1.972
 2924SOL     OW 9670   6.591   1.899   5.971
 2924SOL    HW1 9671   6.638   1.828   6.024
 2924SOL    HW2 9672   6.520   1.857   5.915
 2925SOL     OW 9673   4.576   0.715   2.292
 2925SOL    HW1 9674   4.528   0.648   2.350
 2925SOL    HW2 9675   4.520   0.797   2.284
 2926SOL     OW 9676   6.461   1.728   4.325
 2926SOL    HW1 9677   6.496   1.641   4.359
 2926SOL    HW2 9678   6.533   1.797   4.329
 2927SOL     OW 9679   0.818   2.764   1.757
 2927SOL    HW1 9680   0.802   2.721   1.668
 2927SOL    HW2 9681   0.771   2.711   1.828
 2928SOL     OW 9682   0.269   1.287   6.226
 2928SOL    HW1 9683   0.276   1.189   6.207
 2928SOL    HW2 9684   0.265   1.302   6.324
 2929SOL     OW 9685   0.073   2.182   6.775
 2929SOL    HW1 9686   0.171   2.175   6.755
 2929SOL    HW2 9687   0.038   2.271   6.744
 2930SOL     OW 9688   4.544   0.025   4.983
 2930SOL    HW1 9689   4.528   0.124   4.976
 2930SOL    HW2 9690   4.508   7.001   4.901
 2931SOL     OW 9691   5.569   4.730   0.470
 2931SOL    HW1 9692   5.474   4.754   0.452
 2931SOL    HW2 9693   5.605   4.788   0.543
 2932SOL     OW 9694   0.800   5.251   1.196
 2932SOL    HW1 9695   0.739   5.310   1.143
 2932SOL    HW2 9696   0.857   5.308   1.256
 2933SOL     OW 9697   6.438   4.869   3.503
 2933SOL    HW1 9698   6.506   4.853   3.575
 2933SOL    HW2 9699   6.355   4.816   3.523
 2934SOL     OW 9700   4.567   1.112   0.177
 2934SOL    HW1 9701   4.633   1.176   0.138
 2934SOL    HW2 9702   4.523   1.153   0.257
 2935SOL     OW 9703   5.992   2.928   0.488
 2935SOL    HW1 9704   6.024   2.842   0.448
 2935SOL    HW2 9705   6.008   2.928   0.586
 2936SOL     OW 9706   3.985   6.040   1.422
 2936SOL    HW1 9707   4.050   6.059   1.496
 2936SOL    HW2 9708   3.910   6.106   1.425
 2937SOL     OW 9709   4.645   4.454   0.229
 2937SOL    HW1 9710   4.679   4.362   0.243
 2937SOL    HW2 9711   4.648   4.477   0.132
 2938SOL     OW 9712   4.573   5.213   0.153
 2938SOL    HW1 9713   4.489   5.221   0.207
 2938SOL    HW2 9714   4.566   5.136   0.090
 2939SOL     OW 9715   1.412   0.730   3.478
 2939SOL    HW1 9716   1.495   0.725   3.423
 2939SOL    HW2 9717   1.345   0.787   3.432
 2940SOL     OW 9718   5.852   5.353   6.280
 2940SOL    HW1 9719   5.828   5.419   6.208
 2940SOL    HW2 9720   5.859   5.401   6.368
 2941SOL     OW 9721   2.021   3.025   4.698
 2941SOL    HW1 9722   2.095   2.987   4.753
 2941SOL    HW2 9723   1.993   2.958   4.628
 2942SOL     OW 9724   3.264   2.361   0.877
 2942SOL    HW1 9725   3.339   2.394   0.820
 2942SOL    HW2 9726   3.249   2.424   0.953
 2943SOL     OW 9727   4.755   4.751   2.751
 2943SOL    HW1 9728   4.670   4.711   2.786
 2943SOL    HW2 9729   4.803   4.684   2.694
 2944SOL     OW 9730   2.931   5.607   4.743
 2944SOL    HW1 9731   2.898   5.624   4.836
 2944SOL    HW2 9732   2.853   5.605   4.681
 2945SOL     OW 9733   3.522   4.149   4.056
 2945SOL    HW1 9734   3.433   4.143   4.102
 2945SOL    HW2 9735   3.592   4.178   4.121
 2946SOL     OW 9736   1.165   5.353   6.238
 2946SOL    HW1 9737   1.084   5.404   6.208
 2946SOL    HW2 9738   1.136   5.265   6.276
 2947SOL     OW 9739   0.404   3.328   0.884
 2947SOL    HW1 9740   0.424   3.230   0.880
 2947SOL    HW2 9741   0.385   3.361   0.791
 2948SOL     OW 9742   0.675   4.637   5.490
 2948SOL    HW1 9743   0.612   4.713   5.471
 2948SOL    HW2 9744   0.695   4.588   5.406
 2949SOL     OW 9745   2.878   4.951   0.826
 2949SOL    HW1 9746   2.874   5.048   0.803
 2949SOL    HW2 9747   2.958   4.933   0.884
 2950SOL     OW 9748   5.656   3.972   4.374
 2950SOL    HW1 9749   5.578   3.939   4.428
 2950SOL    HW2 9750   5.659   3.923   4.287
 2951SOL     OW 9751   5.953   1.480   1.061
 2951SOL    HW1 9752   5.891   1.500   1.137
 2951SOL    HW2 9753   5.953   1.557   0.997
 2952SOL     OW 9754   1.009   5.594   5.161
 2952SOL    HW1 9755   1.070   5.518   5.186
 2952SOL    HW2 9756   0.914   5.568   5.177
 2953SOL     OW 9757   5.219   3.185   2.845
 2953SOL    HW1 9758   5.198   3.124   2.922
 2953SOL    HW2 9759   5.296   3.244   2.869
 2954SOL     OW 9760   7.015   5.739   1.792
 2954SOL    HW1 9761   0.065   5.675   1.821
 2954SOL    HW2 9762   6.943   5.744   1.861
 2955SOL     OW 9763   1.178   3.966   1.304
 2955SOL    HW1 9764   1.245   3.893   1.293
 2955SOL    HW2 9765   1.091   3.928   1.335
 2956SOL     OW 9766   5.798   6.589   2.927
 2956SOL    HW1 9767   5.817   6.662   2.861
 2956SOL    HW2 9768   5.820   6.620   3.019
 2957SOL     OW 9769   5.992   3.054   2.035
 2957SOL    HW1 9770   6.033   2.964   2.020
 2957SOL    HW2 9771   5.908   3.063   1.981
 2958SOL     OW 9772   2.192   4.895   4.054
 2958SOL    HW1 9773   2.191   4.995   4.061
 2958SOL    HW2 9774   2.285   4.865   4.032
 2959SOL     OW 9775   4.424   4.325   0.583
 2959SOL    HW1 9776   4.339   4.372   0.560
 2959SOL    HW2 9777   4.419   4.292   0.677
 2960SOL     OW 9778   3.487   0.673   6.374
 2960SOL    HW1 9779   3.552   0.686   6.299
 2960SOL    HW2 9780   3.531   0.692   6.461
 2961SOL     OW 9781   4.879   3.248   3.296
 2961SOL    HW1 9782   4.891   3.347   3.295
 2961SOL    HW2 9783   4.847   3.217   3.207
 2962SOL     OW 9784   4.025   0.415   3.330
 2962SOL    HW1 9785   4.002   0.339   3.269
 2962SOL    HW2 9786   4.074   0.379   3.410
 2963SOL     OW 9787   2.122   0.161   6.662
 2963SOL    HW1 9788   2.098   0.108   6.580
 2963SOL    HW2 9789   2.066   0.131   6.739
 2964SOL     OW 9790   0.606   0.554   3.036
 2964SOL    HW1 9791   0.674   0.607   3.086
 2964SOL    HW2 9792   0.621   0.565   2.938
 2965SOL     OW 9793   6.575   1.665   4.688
 2965SOL    HW1 9794   6.672   1.690   4.688
 2965SOL    HW2 9795   6.522   1.738   4.644
 2966SOL     OW 9796   6.078   5.995   4.223
 2966SOL    HW1 9797   6.009   6.013   4.154
 2966SOL    HW2 9798   6.051   5.915   4.277
 2967SOL     OW 9799   5.805   0.855   4.572
 2967SOL    HW1 9800   5.883   0.869   4.511
 2967SOL    HW2 9801   5.797   0.758   4.595
 2968SOL     OW 9802   0.607   3.251   6.234
 2968SOL    HW1 9803   0.661   3.331   6.259
 2968SOL    HW2 9804   0.622   3.178   6.302
 2969SOL     OW 9805   5.453   1.277   4.195
 2969SOL    HW1 9806   5.385   1.282   4.269
 2969SOL    HW2 9807   5.522   1.348   4.210
 2970SOL     OW 9808   1.657   4.383   6.027
 2970SOL    HW1 9809   1.685   4.287   6.027
 2970SOL    HW2 9810   1.736   4.441   6.007
 2971SOL     OW 9811   4.875   3.969   6.643
 2971SOL    HW1 9812   4.880   4.067   6.660
 2971SOL    HW2 9813   4.844   3.923   6.726
 2972SOL     OW 9814   6.346   4.486   6.338
 2972SOL    HW1 9815   6.250   4.458   6.332
 2972SOL    HW2 9816   6.389   4.478   6.248
 2973SOL     OW 9817   5.490   0.627   3.029
 2973SOL    HW1 9818   5.527   0.720   3.025
 2973SOL    HW2 9819   5.526   0.573   2.953
 2974SOL     OW 9820   0.321   4.828   2.989
 2974SOL    HW1 9821   0.414   4.793   2.974
 2974SOL    HW2 9822   0.262   4.754   3.021
 2975SOL     OW 9823   6.197   3.004   4.971
 2975SOL    HW1 9824   6.293   2.979   4.983
 2975SOL    HW2 9825   6.144   2.923   4.945
 2976SOL     OW 9826   3.958   2.037   3.723
 2976SOL    HW1 9827   3.874   2.003   3.680
 2976SOL    HW2 9828   4.009   2.093   3.657
 2977SOL     OW 9829   2.417   6.752   3.487
 2977SOL    HW1 9830   2.336   6.703   3.519
 2977SOL    HW2 9831   2.395   6.849   3.476
 2978SOL     OW 9832   4.571   4.558   6.980
 2978SOL    HW1 9833   4.638   4.570   6.906
 2978SOL    HW2 9834   4.566   4.642   0.013
 2979SOL     OW 9835   4.869   1.295   4.484
 2979SOL    HW1 9836   4.891   1.202   4.454
 2979SOL    HW2 9837   4.881   1.301   4.583
 2980SOL     OW 9838   1.415   6.278   3.584
 2980SOL    HW1 9839   1.400   6.231   3.671
 2980SOL    HW2 9840   1.343   6.254   3.520
 2981SOL     OW 9841   2.333   1.001   6.142
 2981SOL    HW1 9842   2.319   0.974   6.237
 2981SOL    HW2 9843   2.395   1.080   6.139
 2982SOL     OW 9844   4.162   5.183   3.073
 2982SOL    HW1 9845   4.182   5.133   3.157
 2982SOL    HW2 9846   4.242   5.237   3.046
 2983SOL     OW 9847   0.841   1.608   3.217
 2983SOL    HW1 9848   0.843   1.541   3.291
 2983SOL    HW2 9849   0.842   1.560   3.129
 2984SOL     OW 9850   5.220   5.602   1.361
 2984SOL    HW1 9851   5.277   5.679   1.333
 2984SOL    HW2 9852   5.128   5.612   1.322
 2985SOL     OW 9853   1.200   3.010   5.765
 2985SOL    HW1 9854   1.261   2.931   5.770
 2985SOL    HW2 9855   1.216   3.060   5.680
 2986SOL     OW 9856   3.077   3.878   5.047
 2986SOL    HW1 9857   3.030   3.893   4.960
 2986SOL    HW2 9858   3.102   3.967   5.087
 2987SOL     OW 9859   6.130   0.937   4.720
 2987SOL    HW1 9860   6.146   1.008   4.653
 2987SOL    HW2 9861   6.212   0.925   4.777
 2988SOL     OW 9862   0.814   6.038   2.537
 2988SOL    HW1 9863   0.903   5.994   2.545
 2988SOL    HW2 9864   0.760   5.993   2.466
 2989SOL     OW 9865   6.865   6.142   6.910
 2989SOL    HW1 9866   6.882   6.147   6.811
 2989SOL    HW2 9867   6.781   6.091   6.926
 2990SOL     OW 9868   4.599   1.985   4.355
 2990SOL    HW1 9869   4.672   1.984   4.286
 2990SOL    HW2 9870   4.598   2.074   4.400
 2991SOL     OW 9871   6.346   4.373   5.804
 2991SOL    HW1 9872   6.360   4.458   5.854
 2991SOL    HW2 9873   6.266   4.382   5.744
 2992SOL     OW 9874   2.978   5.443   5.050
 2992SOL    HW1 9875   3.005   5.539   5.057
 2992SOL    HW2 9876   2.882   5.434   5.075
 2993SOL     OW 9877   0.477   5.374   0.908
 2993SOL    HW1 9878   0.408   5.326   0.962
 2993SOL    HW2 9879   0.532   5.307   0.857
 2994SOL     OW 9880   3.896   6.858   6.746
 2994SOL    HW1 9881   3.797   6.874   6.742
 2994SOL    HW2 9882   3.926   6.820   6.659
 2995SOL     OW 9883   3.183   2.755   6.746
 2995SOL    HW1 9884   3.188   2.807   6.831
 2995SOL    HW2 9885   3.157   2.816   6.671
 2996SOL     OW 9886   2.396   0.302   3.490
 2996SOL    HW1 9887   2.459   0.328   3.417
 2996SOL    HW2 9888   2.448   0.267   3.568
 2997SOL     OW 9889   5.358   1.028   2.620
 2997SOL    HW1 9890   5.278   1.024   2.561
 2997SOL    HW2 9891   5.345   1.100   2.688
 2998SOL     OW 9892   4.027   0.411   4.048
 2998SOL    HW1 9893   3.932   0.439   4.058
 2998SOL    HW2 9894   4.087   0.488   4.072
 2999SOL     OW 9895   3.038   4.866   4.526
 2999SOL    HW1 9896   3.037   4.788   4.588
 2999SOL    HW2 9897   2.951   4.915   4.532
 3000SOL     OW 9898   2.410   3.183   0.169
 3000SOL    HW1 9899   2.476   3.226   0.230
 3000SOL    HW2 9900   2.441   3.189   0.074
 3001SOL     OW 9901   5.522   6.494   6.044
 3001SOL    HW1 9902   5.540   6.454   5.954
 3001SOL    HW2 9903   5.510   6.421   6.111
 3002SOL     OW 9904   3.632   0.726   6.619
 3002SOL    HW1 9905   3.726   0.719   6.588
 3002SOL    HW2 9906   3.630   0.761   6.713
 3003SOL     OW 9907   2.043   6.412   0.273
 3003SOL    HW1 9908   2.029   6.370   0.184
 3003SOL    HW2 9909   2.115   6.482   0.266
 3004SOL     OW 9910   1.315   4.359   3.515
 3004SOL    HW1 9911   1.226   4.324   3.544
 3004SOL    HW2 9912   1.336   4.442   3.566
 3005SOL     OW 9913   3.894   2.369   0.116
 3005SOL    HW1 9914   3.861   2.463   0.106
 3005SOL    HW2 9915   3.978   2.357   0.063
 3006SOL     OW 9916   5.533   1.936   6.051
 3006SOL    HW1 9917   5.517   1.897   5.960
 3006SOL    HW2 9918   5.557   2.033   6.041
 3007SOL     OW 9919   5.920   5.443   1.040
 3007SOL    HW1 9920   5.966   5.531   1.054
 3007SOL    HW2 9921   5.823   5.458   1.022
 3008SOL     OW 9922   3.763   1.933   6.769
 3008SOL    HW1 9923   3.697   1.862   6.793
 3008SOL    HW2 9924   3.774   1.996   6.846
 3009SOL     OW 9925   0.713   0.901   2.781
 3009SOL    HW1 9926   0.774   0.972   2.745
 3009SOL    HW2 9927   0.635   0.944   2.826
 3010SOL     OW 9928   3.344   5.795   2.806
 3010SOL    HW1 9929   3.249   5.823   2.823
 3010SOL    HW2 9930   3.347   5.735   2.726
 3011SOL     OW 9931   5.422   1.364   1.000
 3011SOL    HW1 9932   5.376   1.276   0.991
 3011SOL    HW2 9933   5.520   1.349   1.012
 3012SOL     OW 9934   1.005   3.705   5.528
 3012SOL    HW1 9935   1.076   3.719   5.598
 3012SOL    HW2 9936   0.966   3.793   5.502
 3013SOL     OW 9937   5.444   5.679   5.515
 3013SOL    HW1 9938   5.362   5.646   5.468
 3013SOL    HW2 9939   5.426   5.771   5.551
 3014SOL     OW 9940   5.075   2.348   4.758
 3014SOL    HW1 9941   5.137   2.322   4.685
 3014SOL    HW2 9942   5.097   2.297   4.841
 3015SOL     OW 9943   3.398   2.202   0.208
 3015SOL    HW1 9944   3.497   2.192   0.218
 3015SOL    HW2 9945   3.360   2.118   0.169
 3016SOL     OW 9946   2.933   6.299   4.115
 3016SOL    HW1 9947   2.961   6.204   4.131
 3016SOL    HW2 9948   2.902   6.309   4.020
 3017SOL     OW 9949   6.602   5.011   1.761
 3017SOL    HW1 9950   6.638   5.012   1.668
 3017SOL    HW2 9951   6.590   4.916   1.791
 3018SOL     OW 9952   3.299   6.159   5.991
 3018SOL    HW1 9953   3.317   6.062   6.009
 3018SOL    HW2 9954   3.263   6.170   5.899
 3019SOL     OW 9955   0.608   0.110   6.745
 3019SOL    HW1 9956   0.670   0.043   6.704
 3019SOL    HW2 9957   0.521   0.066   6.767
 3020SOL     OW 9958   4.060   3.074   1.905
 3020SOL    HW1 9959   4.008   3.001   1.861
 3020SOL    HW2 9960   4.148   3.085   1.859
 3021SOL     OW 9961   3.210   6.947   0.113
 3021SOL    HW1 9962   3.158   7.014   0.167
 3021SOL    HW2 9963   3.164   6.932   0.026
 3022SOL     OW 9964   3.858   5.203   4.203
 3022SOL    HW1 9965   3.800   5.133   4.162
 3022SOL    HW2 9966   3.934   5.224   4.142
 3023SOL     OW 9967   4.294   0.216   2.711
 3023SOL    HW1 9968   4.200   0.183   2.715
 3023SOL    HW2 9969   4.302   0.302   2.761
 3024SOL     OW 9970   3.911   6.607   5.308
 3024SOL    HW1 9971   3.857   6.581   5.227
 3024SOL    HW2 9972   3.899   6.537   5.379
 3025SOL     OW 9973   3.331   1.120   0.753
 3025SOL    HW1 9974   3.309   1.157   0.843
 3025SOL    HW2 9975   3.352   1.194   0.690
 3026SOL     OW 9976   1.236   0.784   0.550
 3026SOL    HW1 9977   1.176   0.711   0.580
 3026SOL    HW2 9978   1.284   0.822   0.629
 3027SOL     OW 9979   3.642   0.696   2.977
 3027SOL    HW1 9980   3.686   0.699   2.887
 3027SOL    HW2 9981   3.689   0.629   3.035
 3028SOL     OW 9982   1.041   4.428   5.403
 3028SOL    HW1 9983   0.954   4.433   5.353
 3028SOL    HW2 9984   1.022   4.415   5.500
 3029SOL     OW 9985   0.417   2.415   4.604
 3029SOL    HW1 9986   0.470   2.344   4.559
 3029SOL    HW2 9987   0.476   2.493   4.625
 3030SOL     OW 9988   0.532   3.197   5.992
 3030SOL    HW1 9989   0.464   3.123   5.993
 3030SOL    HW2 9990   0.561   3.215   6.086
 3031SOL     OW 9991   0.630   3.420   0.302
 3031SOL    HW1 9992   0.675   3.505   0.329
 3031SOL    HW2 9993   0.659   3.396   0.209
 3032SOL     OW 9994   3.358   6.902   1.406
 3032SOL    HW1 9995   3.362   7.002   1.408
 3032SOL    HW2 9996   3.395   6.865   1.491
 3033SOL     OW 9997   6.467   2.111   1.825
 3033SOL    HW1 9998   6.452   2.013   1.832
 3033SOL    HW2 9999   6.551   2.136   1.873
 3034SOL     OW10000   1.518   5.588   2.996
 3034SOL    HW110001   1.551   5.667   3.047
 3034SOL    HW210002   1.442   5.616   2.938
 3035SOL     OW10003   0.031   3.150   6.814
 3035SOL    HW110004   6.991   3.114   6.743
 3035SOL    HW210005   0.112   3.093   6.822
 3036SOL     OW10006   1.740   2.066   6.172
 3036SOL    HW110007   1.696   1.976   6.172
 3036SOL    HW210008   1.828   2.059   6.219
 3037SOL     OW10009   6.709   5.866   5.474
 3037SOL    HW110010   6.630   5.878   5.534
 3037SOL    HW210011   6.791   5.901   5.518
 3038SOL     OW10012   5.847   6.425   6.488
 3038SOL    HW110013   5.843   6.326   6.472
 3038SOL    HW210014   5.862   6.473   6.401
 3039SOL     OW10015   6.997   4.007   1.356
 3039SOL    HW110016   6.946   4.051   1.282
 3039SOL    HW210017   6.965   4.042   1.444
 3040SOL     OW10018   3.744   3.603   6.279
 3040SOL    HW110019   3.823   3.663   6.271
 3040SOL    HW210020   3.768   3.523   6.333
 3041SOL     OW10021   2.196   2.781   4.118
 3041SOL    HW110022   2.143   2.861   4.147
 3041SOL    HW210023   2.138   2.721   4.062
 3042SOL     OW10024   4.239   6.344   1.975
 3042SOL    HW110025   4.266   6.267   2.033
 3042SOL    HW210026   4.313   6.410   1.970
 3043SOL     OW10027   1.656   5.423   1.410
 3043SOL    HW110028   1.725   5.472   1.463
 3043SOL    HW210029   1.640   5.333   1.451
 3044SOL     OW10030   3.382   3.735   5.959
 3044SOL    HW110031   3.313   3.685   5.907
 3044SOL    HW210032   3.458   3.675   5.981
 3045SOL     OW10033   4.431   0.753   2.927
 3045SOL    HW110034   4.453   0.851   2.932
 3045SOL    HW210035   4.505   0.701   2.970
 3046SOL     OW10036   2.024   1.083   6.299
 3046SOL    HW110037   2.100   1.019   6.302
 3046SOL    HW210038   1.946   1.042   6.252
 3047SOL     OW10039   5.921   0.309   2.353
 3047SOL    HW110040   5.945   0.250   2.276
 3047SOL    HW210041   5.963   0.273   2.437
 3048SOL     OW10042   3.884   2.388   1.644
 3048SOL    HW110043   3.814   2.352   1.705
 3048SOL    HW210044   3.877   2.487   1.640
 3049SOL     OW10045   0.598   6.939   2.191
 3049SOL    HW110046   0.614   0.002   2.138
 3049SOL    HW210047   0.579   6.963   2.286
 3050SOL     OW10048   3.007   1.378   2.240
 3050SOL    HW110049   3.049   1.464   2.210
 3050SOL    HW210050   3.078   1.314   2.268
 3051SOL     OW10051   2.161   4.257   6.890
 3051SOL    HW110052   2.203   4.347   6.901
 3051SOL    HW210053   2.123   4.249   6.798
 3052SOL     OW10054   5.620   0.038   1.878
 3052SOL    HW110055   5.600   0.133   1.855
 3052SOL    HW210056   5.718   0.021   1.866
 3053SOL     OW10057   6.828   1.690   6.974
 3053SOL    HW110058   6.913   1.657   6.934
 3053SOL    HW210059   6.827   1.790   6.974
 3054SOL     OW10060   6.574   1.936   0.646
 3054SOL    HW110061   6.503   1.976   0.588
 3054SOL    HW210062   6.535   1.864   0.703
 3055SOL     OW10063   5.541   0.028   3.760
 3055SOL    HW110064   5.534   0.084   3.842
 3055SOL    HW210065   5.550   6.952   3.786
 3056SOL     OW10066   5.758   0.525   4.957
 3056SOL    HW110067   5.715   0.545   5.045
 3056SOL    HW210068   5.773   0.427   4.949
 3057SOL     OW10069   3.915   6.292   2.899
 3057SOL    HW110070   3.878   6.339   2.819
 3057SOL    HW210071   3.893   6.343   2.982
 3058SOL     OW10072   0.087   5.445   0.898
 3058SOL    HW110073   0.023   5.390   0.844
 3058SOL    HW210074   0.121   5.521   0.842
 3059SOL     OW10075   2.650   2.414   4.559
 3059SOL    HW110076   2.741   2.382   4.587
 3059SOL    HW210077   2.582   2.380   4.624
 3060SOL     OW10078   0.330   5.341   0.380
 3060SOL    HW110079   0.317   5.348   0.281
 3060SOL    HW210080   0.385   5.260   0.401
 3061SOL     OW10081   6.899   0.053   5.156
 3061SOL    HW110082   6.930   6.978   5.159
 3061SOL    HW210083   6.942   0.105   5.229
 3062SOL     OW10084   1.655   0.238   0.057
 3062SOL    HW110085   1.559   0.264   0.071
 3062SOL    HW210086   1.659   0.147   0.015
 3063SOL     OW10087   2.728   5.622   1.599
 3063SOL    HW110088   2.791   5.571   1.659
 3063SOL    HW210089   2.749   5.602   1.504
 3064SOL     OW10090   5.562   4.601   2.924
 3064SOL    HW110091   5.476   4.639   2.958
 3064SOL    HW210092   5.638   4.635   2.980
 3065SOL     OW10093   2.326   0.581   0.755
 3065SOL    HW110094   2.387   0.640   0.809
 3065SOL    HW210095   2.298   0.630   0.672
 3066SOL     OW10096   5.597   4.900   1.016
 3066SOL    HW110097   5.532   4.880   0.942
 3066SOL    HW210098   5.686   4.860   0.994
 3067SOL     OW10099   4.022   1.869   5.388
 3067SOL    HW110100   3.971   1.914   5.461
 3067SOL    HW210101   3.981   1.893   5.299
 3068SOL     OW10102   6.428   6.682   1.959
 3068SOL    HW110103   6.490   6.604   1.970
 3068SOL    HW210104   6.333   6.651   1.968
 3069SOL     OW10105   6.721   6.387   1.730
 3069SOL    HW110106   6.651   6.349   1.669
 3069SOL    HW210107   6.803   6.409   1.677
 3070SOL     OW10108   1.931   1.435   0.950
 3070SOL    HW110109   1.977   1.429   1.038
 3070SOL    HW210110   1.997   1.458   0.879
 3071SOL     OW10111   6.287   6.376   2.903
 3071SOL    HW110112   6.263   6.282   2.876
 3071SOL    HW210113   6.371   6.374   2.958
 3072SOL     OW10114   2.225   6.630   0.238
 3072SOL    HW110115   2.276   6.703   0.192
 3072SOL    HW210116   2.144   6.669   0.282
 3073SOL     OW10117   6.108   2.879   4.411
 3073SOL    HW110118   6.145   2.823   4.485
 3073SOL    HW210119   6.149   2.851   4.324
 3074SOL     OW10120   6.169   3.569   1.035
 3074SOL    HW110121   6.150   3.499   1.103
 3074SOL    HW210122   6.094   3.573   0.968
 3075SOL     OW10123   2.502   6.068   1.850
 3075SOL    HW110124   2.512   6.167   1.858
 3075SOL    HW210125   2.573   6.033   1.789
 3076SOL     OW10126   6.796   0.168   4.731
 3076SOL    HW110127   6.774   0.106   4.806
 3076SOL    HW210128   6.888   0.207   4.745
 3077SOL     OW10129   4.812   6.260   2.191
 3077SOL    HW110130   4.903   6.237   2.227
 3077SOL    HW210131   4.759   6.177   2.178
 3078SOL     OW10132   0.746   2.898   2.327
 3078SOL    HW110133   0.837   2.902   2.288
 3078SOL    HW210134   0.750   2.917   2.425
 3079SOL     OW10135   2.436   2.052   3.599
 3079SOL    HW110136   2.489   2.132   3.627
 3079SOL    HW210137   2.396   2.009   3.679
 3080SOL     OW10138   4.845   3.984   3.530
 3080SOL    HW110139   4.834   3.998   3.432
 3080SOL    HW210140   4.880   4.068   3.572
 3081SOL     OW10141   0.371   2.350   5.661
 3081SOL    HW110142   0.363   2.449   5.650
 3081SOL    HW210143   0.380   2.328   5.758
 3082SOL     OW10144   2.895   6.671   4.065
 3082SOL    HW110145   2.971   6.726   4.100
 3082SOL    HW210146   2.901   6.578   4.101
 3083SOL     OW10147   4.263   6.258   3.473
 3083SOL    HW110148   4.178   6.300   3.505
 3083SOL    HW210149   4.341   6.301   3.518
 3084SOL     OW10150   5.778   4.040   4.900
 3084SOL    HW110151   5.745   3.963   4.955
 3084SOL    HW210152   5.790   4.011   4.805
 3085SOL     OW10153   6.522   4.383   1.248
 3085SOL    HW110154   6.610   4.409   1.289
 3085SOL    HW210155   6.472   4.324   1.312
 3086SOL     OW10156   4.368   1.541   1.681
 3086SOL    HW110157   4.361   1.621   1.741
 3086SOL    HW210158   4.422   1.470   1.726
 3087SOL     OW10159   0.308   5.443   3.566
 3087SOL    HW110160   0.279   5.395   3.649
 3087SOL    HW210161   0.372   5.516   3.592
 3088SOL     OW10162   1.774   4.682   4.940
 3088SOL    HW110163   1.768   4.653   4.844
 3088SOL    HW210164   1.865   4.720   4.958
 3089SOL     OW10165   1.354   3.402   6.789
 3089SOL    HW110166   1.295   3.322   6.780
 3089SOL    HW210167   1.449   3.373   6.801
 3090SOL     OW10168   1.741   2.384   1.936
 3090SOL    HW110169   1.757   2.451   2.008
 3090SOL    HW210170   1.766   2.293   1.968
 3091SOL     OW10171   1.719   1.310   1.219
 3091SOL    HW110172   1.663   1.327   1.300
 3091SOL    HW210173   1.685   1.365   1.142
 3092SOL     OW10174   4.375   0.390   0.604
 3092SOL    HW110175   4.380   0.360   0.508
 3092SOL    HW210176   4.454   0.355   0.654
 3093SOL     OW10177   5.355   6.308   5.322
 3093SOL    HW110178   5.407   6.352   5.249
 3093SOL    HW210179   5.413   6.240   5.368
 3094SOL     OW10180   2.826   6.817   4.427
 3094SOL    HW110181   2.900   6.750   4.423
 3094SOL    HW210182   2.796   6.827   4.522
 3095SOL     OW10183   2.093   5.439   5.507
 3095SOL    HW110184   2.176   5.398   5.542
 3095SOL    HW210185   2.015   5.409   5.562
 3096SOL     OW10186   1.834   6.126   4.974
 3096SOL    HW110187   1.765   6.054   4.974
 3096SOL    HW210188   1.791   6.213   4.951
 3097SOL     OW10189   5.977   2.527   0.528
 3097SOL    HW110190   5.901   2.563   0.475
 3097SOL    HW210191   6.026   2.458   0.475
 3098SOL     OW10192   3.292   3.168   0.866
 3098SOL    HW110193   3.256   3.198   0.954
 3098SOL    HW210194   3.241   3.088   0.834
 3099SOL     OW10195   0.362   6.497   2.994
 3099SOL    HW110196   0.441   6.556   2.979
 3099SOL    HW210197   0.314   6.524   3.077
 3100SOL     OW10198   6.885   6.744   4.863
 3100SOL    HW110199   6.828   6.826   4.855
 3100SOL    HW210200   6.827   6.663   4.858
 3101SOL     OW10201   5.354   6.988   6.104
 3101SOL    HW110202   5.290   0.041   6.127
 3101SOL    HW210203   5.308   6.900   6.115
 3102SOL     OW10204   0.206   4.885   1.854
 3102SOL    HW110205   0.151   4.931   1.924
 3102SOL    HW210206   0.303   4.905   1.869
 3103SOL     OW10207   3.827   0.381   2.151
 3103SOL    HW110208   3.892   0.338   2.214
 3103SOL    HW210209   3.852   0.477   2.138
 3104SOL     OW10210   5.153   6.894   5.166
 3104SOL    HW110211   5.230   6.831   5.160
 3104SOL    HW210212   5.186   6.988   5.151
 3105SOL     OW10213   6.026   4.568   2.428
 3105SOL    HW110214   5.929   4.545   2.430
 3105SOL    HW210215   6.072   4.524   2.506
 3106SOL     OW10216   6.481   1.970   3.319
 3106SOL    HW110217   6.544   2.012   3.383
 3106SOL    HW210218   6.512   1.986   3.225
 3107SOL     OW10219   4.266   1.084   4.912
 3107SOL    HW110220   4.222   1.161   4.866
 3107SOL    HW210221   4.330   1.039   4.849
 3108SOL     OW10222   1.270   6.533   4.303
 3108SOL    HW110223   1.173   6.538   4.283
 3108SOL    HW210224   1.321   6.520   4.218
 3109SOL     OW10225   5.960   6.356   2.839
 3109SOL    HW110226   5.925   6.439   2.883
 3109SOL    HW210227   5.889   6.285   2.841
 3110SOL     OW10228   1.643   2.127   3.199
 3110SOL    HW110229   1.712   2.074   3.150
 3110SOL    HW210230   1.586   2.177   3.134
 3111SOL     OW10231   6.370   5.766   3.855
 3111SOL    HW110232   6.339   5.842   3.798
 3111SOL    HW210233   6.334   5.776   3.947
 3112SOL     OW10234   4.849   2.568   6.367
 3112SOL    HW110235   4.779   2.532   6.429
 3112SOL    HW210236   4.898   2.492   6.325
 3113SOL     OW10237   2.187   6.027   3.617
 3113SOL    HW110238   2.269   6.044   3.563
 3113SOL    HW210239   2.183   5.930   3.642
 3114SOL     OW10240   4.424   1.893   1.030
 3114SOL    HW110241   4.476   1.907   1.114
 3114SOL    HW210242   4.436   1.798   0.999
 3115SOL     OW10243   4.090   3.324   6.003
 3115SOL    HW110244   4.023   3.279   5.944
 3115SOL    HW210245   4.175   3.339   5.953
 3116SOL     OW10246   0.310   3.047   0.048
 3116SOL    HW110247   0.401   3.006   0.036
 3116SOL    HW210248   0.252   3.024   6.991
 3117SOL     OW10249   4.314   3.640   5.171
 3117SOL    HW110250   4.412   3.622   5.181
 3117SOL    HW210251   4.265   3.553   5.165
 3118SOL     OW10252   0.537   4.967   1.877
 3118SOL    HW110253   0.591   4.892   1.839
 3118SOL    HW210254   0.509   5.028   1.802
 3119SOL     OW10255   1.818   3.525   5.522
 3119SOL    HW110256   1.854   3.546   5.613
 3119SOL    HW210257   1.887   3.473   5.471
 3120SOL     OW10258   3.515   6.625   4.989
 3120SOL    HW110259   3.434   6.681   5.007
 3120SOL    HW210260   3.492   6.551   4.927
 3121SOL     OW10261   6.954   1.170   3.648
 3121SOL    HW110262   6.965   1.269   3.635
 3121SOL    HW210263   6.978   1.123   3.563
 3122SOL     OW10264   3.424   6.684   6.208
 3122SOL    HW110265   3.344   6.738   6.183
 3122SOL    HW210266   3.472   6.654   6.126
 3123SOL     OW10267   4.188   1.514   4.006
 3123SOL    HW110268   4.166   1.610   3.987
 3123SOL    HW210269   4.252   1.480   3.937
 3124SOL     OW10270   4.125   0.311   4.294
 3124SOL    HW110271   4.093   0.360   4.214
 3124SOL    HW210272   4.203   0.359   4.335
 3125SOL     OW10273   6.659   2.272   5.453
 3125SOL    HW110274   6.713   2.351   5.480
 3125SOL    HW210275   6.562   2.297   5.448
 3126SOL     OW10276   4.642   5.027   6.022
 3126SOL    HW110277   4.560   5.065   6.065
 3126SOL    HW210278   4.697   5.101   5.984
 3127SOL     OW10279   1.020   3.617   3.878
 3127SOL    HW110280   0.980   3.702   3.843
 3127SOL    HW210281   0.951   3.567   3.930
 3128SOL     OW10282   2.535   0.576   6.596
 3128SOL    HW110283   2.631   0.552   6.614
 3128SOL    HW210284   2.505   0.642   6.665
 3129SOL     OW10285   0.367   3.753   6.635
 3129SOL    HW110286   0.312   3.671   6.623
 3129SOL    HW210287   0.394   3.762   6.731
 3130SOL     OW10288   1.945   3.987   1.366
 3130SOL    HW110289   1.994   3.900   1.370
 3130SOL    HW210290   1.847   3.970   1.361
 3131SOL     OW10291   0.015   2.524   1.163
 3131SOL    HW110292   6.945   2.484   1.179
 3131SOL    HW210293   0.017   2.618   1.195
 3132SOL     OW10294   4.382   5.863   6.017
 3132SOL    HW110295   4.310   5.929   6.036
 3132SOL    HW210296   4.376   5.788   6.083
 3133SOL     OW10297   3.618   2.118   4.004
 3133SOL    HW110298   3.531   2.089   3.965
 3133SOL    HW210299   3.611   2.213   4.035
 3134SOL     OW10300   5.153   4.455   0.903
 3134SOL    HW110301   5.149   4.436   0.805
 3134SOL    HW210302   5.090   4.395   0.952
 3135SOL     OW10303   5.480   0.577   5.665
 3135SOL    HW110304   5.574   0.559   5.694
 3135SOL    HW210305   5.428   0.614   5.742
 3136SOL     OW10306   5.648   0.575   0.728
 3136SOL    HW110307   5.561   0.553   0.771
 3136SOL    HW210308   5.664   0.674   0.733
 3137SOL     OW10309   6.097   0.879   3.276
 3137SOL    HW110310   6.082   0.916   3.184
 3137SOL    HW210311   6.190   0.900   3.306
 3138SOL     OW10312   6.362   3.728   4.006
 3138SOL    HW110313   6.353   3.805   4.068
 3138SOL    HW210314   6.457   3.696   4.005
 3139SOL     OW10315   5.146   6.554   0.300
 3139SOL    HW110316   5.120   6.517   0.211
 3139SOL    HW210317   5.119   6.650   0.305
 3140SOL     OW10318   5.946   6.985   6.774
 3140SOL    HW110319   6.038   7.005   6.805
 3140SOL    HW210320   5.949   6.914   6.704
 3141SOL     OW10321   0.118   6.111   6.215
 3141SOL    HW110322   0.198   6.062   6.250
 3141SOL    HW210323   0.142   6.206   6.197
 3142SOL     OW10324   3.636   6.986   1.724
 3142SOL    HW110325   3.722   6.939   1.744
 3142SOL    HW210326   3.564   6.954   1.786
 3143SOL     OW10327   7.000   1.487   6.791
 3143SOL    HW110328   0.010   1.566   6.739
 3143SOL    HW210329   6.934   1.435   6.738
 3144SOL     OW10330   4.431   4.297   1.367
 3144SOL    HW110331   4.392   4.310   1.459
 3144SOL    HW210332   4.523   4.260   1.376
 3145SOL     OW10333   2.165   5.851   1.371
 3145SOL    HW110334   2.253   5.859   1.323
 3145SOL    HW210335   2.100   5.916   1.332
 3146SOL     OW10336   1.435   6.850   2.945
 3146SOL    HW110337   1.360   6.868   2.881
 3146SOL    HW210338   1.499   6.927   2.943
 3147SOL     OW10339   3.153   5.082   0.471
 3147SOL    HW110340   3.225   5.077   0.402
 3147SOL    HW210341   3.188   5.047   0.559
 3148SOL     OW10342   5.144   5.925   4.748
 3148SOL    HW110343   5.141   6.020   4.778
 3148SOL    HW210344   5.189   5.870   4.818
 3149SOL     OW10345   2.738   1.426   6.319
 3149SOL    HW110346   2.715   1.329   6.324
 3149SOL    HW210347   2.665   1.479   6.363
 3150SOL     OW10348   6.616   6.256   4.046
 3150SOL    HW110349   6.597   6.188   4.117
 3150SOL    HW210350   6.656   6.338   4.087
 3151SOL     OW10351   4.704   1.388   6.191
 3151SOL    HW110352   4.727   1.475   6.147
 3151SOL    HW210353   4.691   1.318   6.121
 3152SOL     OW10354   1.932   6.092   0.167
 3152SOL    HW110355   1.967   6.048   0.249
 3152SOL    HW210356   1.844   6.052   0.142
 3153SOL     OW10357   6.538   4.735   1.884
 3153SOL    HW110358   6.578   4.740   1.976
 3153SOL    HW210359   6.561   4.647   1.842
 3154SOL     OW10360   6.307   1.174   6.568
 3154SOL    HW110361   6.345   1.163   6.477
 3154SOL    HW210362   6.256   1.092   6.593
 3155SOL     OW10363   6.385   4.256   1.431
 3155SOL    HW110364   6.288   4.240   1.414
 3155SOL    HW210365   6.397   4.298   1.521
 3156SOL     OW10366   3.318   3.264   3.394
 3156SOL    HW110367   3.412   3.288   3.415
 3156SOL    HW210368   3.315   3.176   3.347
 3157SOL     OW10369   2.305   2.992   4.741
 3157SOL    HW110370   2.326   2.994   4.839
 3157SOL    HW210371   2.382   2.952   4.691
 3158SOL     OW10372   4.498   0.452   3.189
 3158SOL    HW110373   4.559   0.414   3.258
 3158SOL    HW210374   4.552   0.499   3.119
 3159SOL     OW10375   5.127   1.268   0.145
 3159SOL    HW110376   5.047   1.210   0.130
 3159SOL    HW210377   5.209   1.220   0.113
 3160SOL     OW10378   0.114   5.954   5.165
 3160SOL    HW110379   0.084   5.976   5.257
 3160SOL    HW210380   0.156   5.863   5.164
 3161SOL     OW10381   1.587   1.729   3.379
 3161SOL    HW110382   1.513   1.669   3.349
 3161SOL    HW210383   1.672   1.677   3.383
 3162SOL     OW10384   1.275   6.390   1.987
 3162SOL    HW110385   1.315   6.478   1.962
 3162SOL    HW210386   1.180   6.403   2.015
 3163SOL     OW10387   4.063   2.033   6.556
 3163SOL    HW110388   3.963   2.037   6.555
 3163SOL    HW210389   4.100   2.125   6.565
 3164SOL     OW10390   4.735   4.244   1.441
 3164SOL    HW110391   4.816   4.187   1.456
 3164SOL    HW210392   4.684   4.253   1.526
 3165SOL     OW10393   0.920   5.775   0.527
 3165SOL    HW110394   0.836   5.786   0.580
 3165SOL    HW210395   0.900   5.787   0.430
 3166SOL     OW10396   4.665   1.815   5.548
 3166SOL    HW110397   4.708   1.809   5.459
 3166SOL    HW210398   4.640   1.910   5.567
 3167SOL     OW10399   6.961   3.794   1.996
 3167SOL    HW110400   6.983   3.821   2.090
 3167SOL    HW210401   7.013   3.712   1.973
 3168SOL     OW10402   4.605   2.243   0.102
 3168SOL    HW110403   4.668   2.234   0.180
 3168SOL    HW210404   4.514   2.266   0.135
 3169SOL     OW10405   1.428   3.375   4.907
 3169SOL    HW110406   1.371   3.457   4.908
 3169SOL    HW210407   1.452   3.350   5.001
 3170SOL     OW10408   4.030   1.081   1.189
 3170SOL    HW110409   3.965   1.155   1.169
 3170SOL    HW210410   4.038   1.022   1.109
 3171SOL     OW10411   0.256   6.516   1.419
 3171SOL    HW110412   0.352   6.529   1.392
 3171SOL    HW210413   0.196   6.557   1.350
 3172SOL     OW10414   0.666   5.275   6.149
 3172SOL    HW110415   0.646   5.177   6.146
 3172SOL    HW210416   0.580   5.326   6.159
 3173SOL     OW10417   3.062   2.316   0.599
 3173SOL    HW110418   3.060   2.355   0.691
 3173SOL    HW210419   2.990   2.246   0.592
 3174SOL     OW10420   3.007   3.045   6.686
 3174SOL    HW110421   3.075   3.019   6.617
 3174SOL    HW210422   3.053   3.065   6.772
 3175SOL     OW10423   6.615   6.904   0.482
 3175SOL    HW110424   6.675   6.836   0.440
 3175SOL    HW210425   6.665   6.952   0.555
 3176SOL     OW10426   1.860   4.854   4.717
 3176SOL    HW110427   1.775   4.896   4.746
 3176SOL    HW210428   1.855   4.829   4.620
 3177SOL     OW10429   4.664   4.302   4.513
 3177SOL    HW110430   4.718   4.381   4.541
 3177SOL    HW210431   4.568   4.328   4.504
 3178SOL     OW10432   6.311   2.214   0.264
 3178SOL    HW110433   6.377   2.263   0.207
 3178SOL    HW210434   6.250   2.161   0.206
 3179SOL     OW10435   2.023   2.586   2.400
 3179SOL    HW110436   2.055   2.658   2.338
 3179SOL    HW210437   2.005   2.626   2.490
 3180SOL     OW10438   4.408   1.052   6.953
 3180SOL    HW110439   4.465   1.062   0.014
 3180SOL    HW210440   4.429   0.964   6.909
 3181SOL     OW10441   1.054   1.034   2.842
 3181SOL    HW110442   0.966   1.072   2.870
 3181SOL    HW210443   1.072   0.951   2.896
 3182SOL     OW10444   2.200   1.861   5.026
 3182SOL    HW110445   2.121   1.917   5.049
 3182SOL    HW210446   2.201   1.779   5.083
 3183SOL     OW10447   4.316   3.965   1.697
 3183SOL    HW110448   4.263   4.010   1.626
 3183SOL    HW210449   4.388   4.027   1.729
 3184SOL     OW10450   1.241   2.624   2.721
 3184SOL    HW110451   1.324   2.614   2.776
 3184SOL    HW210452   1.163   2.585   2.771
 3185SOL     OW10453   5.945   6.153   0.224
 3185SOL    HW110454   6.031   6.197   0.250
 3185SOL    HW210455   5.912   6.192   0.139
 3186SOL     OW10456   3.907   1.892   2.428
 3186SOL    HW110457   3.854   1.958   2.375
 3186SOL    HW210458   3.965   1.940   2.494
 3187SOL     OW10459   4.678   4.054   0.827
 3187SOL    HW110460   4.665   4.007   0.914
 3187SOL    HW210461   4.633   4.003   0.754
 3188SOL     OW10462   3.930   6.350   5.062
 3188SOL    HW110463   3.861   6.401   5.113
 3188SOL    HW210464   3.983   6.293   5.126
 3189SOL     OW10465   1.777   1.387   1.792
 3189SOL    HW110466   1.700   1.393   1.728
 3189SOL    HW210467   1.781   1.295   1.831
 3190SOL     OW10468   0.022   6.271   0.842
 3190SOL    HW110469   0.052   6.300   0.933
 3190SOL    HW210470   0.085   6.305   0.773
 3191SOL     OW10471   4.043   6.801   0.572
 3191SOL    HW110472   4.100   6.719   0.566
 3191SOL    HW210473   4.094   6.879   0.536
 3192SOL     OW10474   0.178   2.569   0.918
 3192SOL    HW110475   0.220   2.655   0.890
 3192SOL    HW210476   0.084   2.585   0.947
 3193SOL     OW10477   4.329   1.559   6.046
 3193SOL    HW110478   4.294   1.482   6.099
 3193SOL    HW210479   4.332   1.641   6.103
 3194SOL     OW10480   0.166   3.614   6.107
 3194SOL    HW110481   0.103   3.546   6.146
 3194SOL    HW210482   0.257   3.574   6.099
 3195SOL     OW10483   2.637   2.111   2.952
 3195SOL    HW110484   2.684   2.026   2.932
 3195SOL    HW210485   2.691   2.166   3.015
 3196SOL     OW10486   0.263   0.545   5.304
 3196SOL    HW110487   0.230   0.461   5.347
 3196SOL    HW210488   0.203   0.570   5.228
 3197SOL     OW10489   1.688   6.202   3.291
 3197SOL    HW110490   1.630   6.150   3.354
 3197SOL    HW210491   1.637   6.282   3.258
 3198SOL     OW10492   6.441   2.131   5.735
 3198SOL    HW110493   6.494   2.208   5.773
 3198SOL    HW210494   6.475   2.045   5.774
 3199SOL     OW10495   4.847   2.762   2.000
 3199SOL    HW110496   4.758   2.718   2.003
 3199SOL    HW210497   4.836   2.861   1.995
 3200SOL     OW10498   6.747   2.492   2.011
 3200SOL    HW110499   6.840   2.456   2.012
 3200SOL    HW210500   6.714   2.494   1.916
 3201SOL     OW10501   5.309   4.242   4.647
 3201SOL    HW110502   5.406   4.233   4.625
 3201SOL    HW210503   5.282   4.168   4.709
 3202SOL     OW10504   1.311   4.623   2.110
 3202SOL    HW110505   1.373   4.548   2.136
 3202SOL    HW210506   1.313   4.694   2.181
 3203SOL     OW10507   6.163   2.449   6.892
 3203SOL    HW110508   6.240   2.466   6.831
 3203SOL    HW210509   6.117   2.364   6.865
 3204SOL     OW10510   4.780   6.538   1.618
 3204SOL    HW110511   4.877   6.525   1.641
 3204SOL    HW210512   4.773   6.579   1.527
 3205SOL     OW10513   0.235   4.095   6.985
 3205SOL    HW110514   0.186   4.119   0.049
 3205SOL    HW210515   0.292   4.172   6.957
 3206SOL     OW10516   0.417   6.756   6.186
 3206SOL    HW110517   0.360   6.761   6.268
 3206SOL    HW210518   0.358   6.751   6.105
 3207SOL     OW10519   0.542   1.350   6.194
 3207SOL    HW110520   0.444   1.331   6.207
 3207SOL    HW210521   0.553   1.437   6.146
 3208SOL     OW10522   4.996   6.191   5.470
 3208SOL    HW110523   5.046   6.275   5.492
 3208SOL    HW210524   4.924   6.176   5.538
 3209SOL     OW10525   3.538   5.573   2.689
 3209SOL    HW110526   3.550   5.565   2.788
 3209SOL    HW210527   3.500   5.488   2.653
 3210SOL     OW10528   0.760   4.449   1.756
 3210SOL    HW110529   0.837   4.476   1.814
 3210SOL    HW210530   0.676   4.490   1.793
 3211SOL     OW10531   2.590   3.249   1.081
 3211SOL    HW110532   2.613   3.168   1.028
 3211SOL    HW210533   2.491   3.250   1.099
 3212SOL     OW10534   2.937   1.434   0.261
 3212SOL    HW110535   2.908   1.528   0.277
 3212SOL    HW210536   2.938   1.415   0.163
 3213SOL     OW10537   6.318   5.738   2.336
 3213SOL    HW110538   6.366   5.706   2.418
 3213SOL    HW210539   6.375   5.721   2.256
 3214SOL     OW10540   4.790   5.393   0.520
 3214SOL    HW110541   4.847   5.430   0.447
 3214SOL    HW210542   4.828   5.419   0.609
 3215SOL     OW10543   0.207   3.315   1.176
 3215SOL    HW110544   0.182   3.394   1.119
 3215SOL    HW210545   0.291   3.274   1.141
 3216SOL     OW10546   5.659   5.394   1.807
 3216SOL    HW110547   5.616   5.439   1.885
 3216SOL    HW210548   5.608   5.415   1.724
 3217SOL     OW10549   0.186   5.487   2.726
 3217SOL    HW110550   0.234   5.572   2.747
 3217SOL    HW210551   0.245   5.409   2.748
 3218SOL     OW10552   3.936   6.777   3.495
 3218SOL    HW110553   3.864   6.711   3.477
 3218SOL    HW210554   3.942   6.795   3.593
 3219SOL     OW10555   6.918   1.758   3.664
 3219SOL    HW110556   6.967   1.727   3.582
 3219SOL    HW210557   6.834   1.705   3.675
 3220SOL     OW10558   6.814   5.844   5.872
 3220SOL    HW110559   6.760   5.853   5.956
 3220SOL    HW210560   6.829   5.934   5.831
 3221SOL     OW10561   2.852   0.287   1.652
 3221SOL    HW110562   2.881   0.281   1.748
 3221SOL    HW210563   2.767   0.339   1.646
 3222SOL     OW10564   4.437   1.551   3.432
 3222SOL    HW110565   4.393   1.551   3.342
 3222SOL    HW210566   4.493   1.468   3.442
 3223SOL     OW10567   1.885   5.028   6.645
 3223SOL    HW110568   1.977   5.041   6.683
 3223SOL    HW210569   1.865   4.930   6.641
 3224SOL     OW10570   4.165   3.913   6.635
 3224SOL    HW110571   4.102   3.849   6.591
 3224SOL    HW210572   4.118   4.000   6.653
 3225SOL     OW10573   4.473   3.189   5.320
 3225SOL    HW110574   4.553   3.129   5.318
 3225SOL    HW210575   4.436   3.192   5.413
 3226SOL     OW10576   1.393   1.771   4.620
 3226SOL    HW110577   1.311   1.737   4.666
 3226SOL    HW210578   1.411   1.865   4.651
 3227SOL     OW10579   3.184   2.505   6.364
 3227SOL    HW110580   3.227   2.590   6.393
 3227SOL    HW210581   3.231   2.470   6.283
 3228SOL     OW10582   5.610   3.762   3.054
 3228SOL    HW110583   5.560   3.793   2.973
 3228SOL    HW210584   5.700   3.805   3.056
 3229SOL     OW10585   3.431   1.816   5.481
 3229SOL    HW110586   3.426   1.782   5.574
 3229SOL    HW210587   3.518   1.788   5.440
 3230SOL     OW10588   1.283   2.974   3.941
 3230SOL    HW110589   1.338   2.892   3.955
 3230SOL    HW210590   1.207   2.953   3.880
 3231SOL     OW10591   2.492   0.228   2.060
 3231SOL    HW110592   2.571   0.265   2.111
 3231SOL    HW210593   2.498   0.258   1.964
 3232SOL     OW10594   4.120   5.141   4.166
 3232SOL    HW110595   4.141   5.186   4.253
 3232SOL    HW210596   4.203   5.137   4.110
 3233SOL     OW10597   1.427   2.984   1.296
 3233SOL    HW110598   1.400   2.893   1.329
 3233SOL    HW210599   1.353   3.048   1.313
 3234SOL     OW10600   0.373   2.236   0.568
 3234SOL    HW110601   0.327   2.205   0.484
 3234SOL    HW210602   0.305   2.271   0.632
 3235SOL     OW10603   4.671   7.007   1.357
 3235SOL    HW110604   4.726   0.056   1.310
 3235SOL    HW210605   4.615   0.030   1.427
 3236SOL     OW10606   1.513   3.246   0.342
 3236SOL    HW110607   1.483   3.341   0.337
 3236SOL    HW210608   1.587   3.237   0.409
 3237SOL     OW10609   5.645   1.212   3.630
 3237SOL    HW110610   5.698   1.265   3.563
 3237SOL    HW210611   5.552   1.246   3.633
 3238SOL     OW10612   0.281   4.874   0.276
 3238SOL    HW110613   0.379   4.886   0.262
 3238SOL    HW210614   0.232   4.952   0.236
 3239SOL     OW10615   5.919   1.624   0.389
 3239SOL    HW110616   5.995   1.636   0.325
 3239SOL    HW210617   5.880   1.533   0.378
 3240SOL     OW10618   0.987   5.861   5.325
 3240SOL    HW110619   0.979   5.942   5.383
 3240SOL    HW210620   0.895   5.831   5.297
 3241SOL     OW10621   4.901   1.062   4.296
 3241SOL    HW110622   4.831   1.032   4.232
 3241SOL    HW210623   4.969   1.119   4.248
 3242SOL     OW10624   3.000   4.551   1.271
 3242SOL    HW110625   2.964   4.502   1.350
 3242SOL    HW210626   3.076   4.499   1.231
 3243SOL     OW10627   5.674   4.783   6.945
 3243SOL    HW110628   5.757   4.808   6.895
 3243SOL    HW210629   5.699   4.754   0.017
 3244SOL     OW10630   4.815   5.745   0.659
 3244SOL    HW110631   4.766   5.812   0.715
 3244SOL    HW210632   4.809   5.655   0.702
 3245SOL     OW10633   5.224   2.174   5.737
 3245SOL    HW110634   5.245   2.085   5.777
 3245SOL    HW210635   5.179   2.161   5.649
 3246SOL     OW10636   5.800   0.974   3.317
 3246SOL    HW110637   5.862   0.900   3.290
 3246SOL    HW210638   5.793   1.041   3.244
 3247SOL     OW10639   6.630   4.901   3.957
 3247SOL    HW110640   6.697   4.973   3.943
 3247SOL    HW210641   6.614   4.852   3.871
 3248SOL     OW10642   6.233   3.361   1.891
 3248SOL    HW110643   6.217   3.286   1.827
 3248SOL    HW210644   6.265   3.441   1.841
 3249SOL     OW10645   3.485   3.507   4.889
 3249SOL    HW110646   3.451   3.513   4.982
 3249SOL    HW210647   3.443   3.578   4.833
 3250SOL     OW10648   5.290   0.162   2.516
 3250SOL    HW110649   5.301   0.187   2.420
 3250SOL    HW210650   5.311   0.241   2.574
 3251SOL     OW10651   4.070   0.973   2.289
 3251SOL    HW110652   3.970   0.983   2.283
 3251SOL    HW210653   4.106   1.041   2.354
 3252SOL     OW10654   2.378   1.756   2.225
 3252SOL    HW110655   2.284   1.792   2.227
 3252SOL    HW210656   2.388   1.695   2.147
 3253SOL     OW10657   5.407   2.794   2.695
 3253SOL    HW110658   5.320   2.805   2.647
 3253SOL    HW210659   5.435   2.698   2.693
 3254SOL     OW10660   4.432   5.825   5.588
 3254SOL    HW110661   4.457   5.761   5.514
 3254SOL    HW210662   4.333   5.828   5.597
 3255SOL     OW10663   4.698   6.139   1.426
 3255SOL    HW110664   4.609   6.143   1.380
 3255SOL    HW210665   4.686   6.162   1.523
 3256SOL     OW10666   5.303   0.396   0.012
 3256SOL    HW110667   5.336   0.379   0.105
 3256SOL    HW210668   5.308   0.494   7.012
 3257SOL     OW10669   1.412   2.446   1.330
 3257SOL    HW110670   1.321   2.410   1.309
 3257SOL    HW210671   1.479   2.372   1.324
 3258SOL     OW10672   4.006   5.239   1.946
 3258SOL    HW110673   3.943   5.313   1.920
 3258SOL    HW210674   4.047   5.200   1.864
 3259SOL     OW10675   5.082   6.061   3.868
 3259SOL    HW110676   5.053   6.079   3.774
 3259SOL    HW210677   5.002   6.053   3.927
 3260SOL     OW10678   2.191   1.820   1.742
 3260SOL    HW110679   2.115   1.874   1.706
 3260SOL    HW210680   2.250   1.879   1.797
 3261SOL     OW10681   4.391   5.929   0.604
 3261SOL    HW110682   4.327   5.991   0.649
 3261SOL    HW210683   4.478   5.976   0.589
 3262SOL     OW10684   3.691   2.118   2.451
 3262SOL    HW110685   3.782   2.113   2.492
 3262SOL    HW210686   3.700   2.135   2.353
 3263SOL     OW10687   3.572   0.685   3.986
 3263SOL    HW110688   3.585   0.638   3.898
 3263SOL    HW210689   3.574   0.784   3.972
 3264SOL     OW10690   1.760   5.053   0.788
 3264SOL    HW110691   1.694   5.112   0.834
 3264SOL    HW210692   1.738   4.958   0.805
 3265SOL     OW10693   4.516   1.828   5.791
 3265SOL    HW110694   4.442   1.761   5.800
 3265SOL    HW210695   4.572   1.805   5.711
 3266SOL     OW10696   1.044   2.635   0.524
 3266SOL    HW110697   0.950   2.645   0.554
 3266SOL    HW210698   1.079   2.545   0.552
 3267SOL     OW10699   3.935   1.866   0.579
 3267SOL    HW110700   3.968   1.953   0.543
 3267SOL    HW210701   3.915   1.876   0.677
 3268SOL     OW10702   1.239   4.283   6.603
 3268SOL    HW110703   1.188   4.312   6.522
 3268SOL    HW210704   1.237   4.183   6.609
 3269SOL     OW10705   4.395   5.172   1.606
 3269SOL    HW110706   4.422   5.252   1.551
 3269SOL    HW210707   4.349   5.106   1.547
 3270SOL     OW10708   1.574   4.674   5.124
 3270SOL    HW110709   1.488   4.666   5.074
 3270SOL    HW210710   1.650   4.681   5.060
 3271SOL     OW10711   5.421   3.353   2.922
 3271SOL    HW110712   5.479   3.423   2.880
 3271SOL    HW210713   5.368   3.394   2.996
 3272SOL     OW10714   3.616   4.060   0.021
 3272SOL    HW110715   3.706   4.095   7.014
 3272SOL    HW210716   3.628   3.971   0.066
 3273SOL     OW10717   0.494   6.537   2.174
 3273SOL    HW110718   0.535   6.591   2.100
 3273SOL    HW210719   0.444   6.459   2.134
 3274SOL     OW10720   3.902   1.837   0.876
 3274SOL    HW110721   3.816   1.830   0.927
 3274SOL    HW210722   3.938   1.745   0.858
 3275SOL     OW10723   1.252   0.801   6.511
 3275SOL    HW110724   1.351   0.787   6.521
 3275SOL    HW210725   1.204   0.750   6.582
 3276SOL     OW10726   3.231   5.190   6.711
 3276SOL    HW110727   3.168   5.122   6.674
 3276SOL    HW210728   3.301   5.145   6.765
 3277SOL     OW10729   5.009   6.707   6.885
 3277SOL    HW110730   5.057   6.793   6.865
 3277SOL    HW210731   5.005   6.651   6.802
 3278SOL     OW10732   6.558   0.817   5.860
 3278SOL    HW110733   6.495   0.795   5.786
 3278SOL    HW210734   6.509   0.866   5.932
 3279SOL     OW10735   6.939   0.917   1.057
 3279SOL    HW110736   7.011   0.853   1.034
 3279SOL    HW210737   6.970   1.011   1.039
 3280SOL     OW10738   3.347   4.998   5.507
 3280SOL    HW110739   3.403   4.918   5.529
 3280SOL    HW210740   3.406   5.077   5.492
 3281SOL     OW10741   2.259   5.604   0.927
 3281SOL    HW110742   2.292   5.588   0.835
 3281SOL    HW210743   2.286   5.696   0.957
 3282SOL     OW10744   2.203   5.516   4.325
 3282SOL    HW110745   2.141   5.449   4.366
 3282SOL    HW210746   2.264   5.470   4.261
 3283SOL     OW10747   3.075   1.151   1.371
 3283SOL    HW110748   3.076   1.129   1.274
 3283SOL    HW210749   3.078   1.066   1.424
 3284SOL     OW10750   5.901   6.293   7.018
 3284SOL    HW110751   5.907   6.386   0.033
 3284SOL    HW210752   5.823   6.286   6.956
 3285SOL     OW10753   5.653   2.767   3.379
 3285SOL    HW110754   5.612   2.676   3.379
 3285SOL    HW210755   5.736   2.766   3.322
 3286SOL     OW10756   4.079   3.533   3.353
 3286SOL    HW110757   4.078   3.632   3.369
 3286SOL    HW210758   4.096   3.485   3.440
 3287SOL     OW10759   1.546   5.846   0.495
 3287SOL    HW110760   1.587   5.933   0.520
 3287SOL    HW210761   1.462   5.862   0.443
 3288SOL     OW10762   1.224   5.041   6.897
 3288SOL    HW110763   1.221   5.048   6.997
 3288SOL    HW210764   1.291   4.971   6.871
 3289SOL     OW10765   2.301   6.501   5.683
 3289SOL    HW110766   2.398   6.498   5.659
 3289SOL    HW210767   2.252   6.559   5.618
 3290SOL     OW10768   0.435   6.843   1.985
 3290SOL    HW110769   0.494   6.879   2.058
 3290SOL    HW210770   0.380   6.767   2.020
 3291SOL     OW10771   1.282   6.146   6.816
 3291SOL    HW110772   1.330   6.230   6.838
 3291SOL    HW210773   1.291   6.127   6.718
 3292SOL     OW10774   0.267   0.760   6.741
 3292SOL    HW110775   0.253   0.703   6.660
 3292SOL    HW210776   0.327   0.836   6.719
 3293SOL     OW10777   6.770   3.346   2.915
 3293SOL    HW110778   6.785   3.443   2.896
 3293SOL    HW210779   6.688   3.316   2.868
 3294SOL     OW10780   0.246   0.455   6.107
 3294SOL    HW110781   0.322   0.519   6.094
 3294SOL    HW210782   0.237   0.398   6.025
 3295SOL     OW10783   1.297   3.053   1.894
 3295SOL    HW110784   1.341   3.115   1.829
 3295SOL    HW210785   1.316   2.958   1.867
 3296SOL     OW10786   1.953   6.360   1.370
 3296SOL    HW110787   1.862   6.326   1.396
 3296SOL    HW210788   2.011   6.364   1.452
 3297SOL     OW10789   3.007   0.577   5.245
 3297SOL    HW110790   3.077   0.647   5.231
 3297SOL    HW210791   3.050   0.493   5.277
 3298SOL     OW10792   6.403   1.974   3.711
 3298SOL    HW110793   6.360   1.985   3.621
 3298SOL    HW210794   6.336   1.995   3.783
 3299SOL     OW10795   2.211   6.552   3.291
 3299SOL    HW110796   2.205   6.483   3.218
 3299SOL    HW210797   2.122   6.593   3.306
 3300SOL     OW10798   0.605   0.743   5.537
 3300SOL    HW110799   0.509   0.761   5.517
 3300SOL    HW210800   0.653   0.724   5.451
 3301SOL     OW10801   1.855   3.566   3.357
 3301SOL    HW110802   1.952   3.551   3.344
 3301SOL    HW210803   1.841   3.642   3.421
 3302SOL     OW10804   1.767   6.082   4.432
 3302SOL    HW110805   1.826   6.111   4.507
 3302SOL    HW210806   1.685   6.038   4.469
 3303SOL     OW10807   3.871   3.017   1.514
 3303SOL    HW110808   3.930   3.098   1.515
 3303SOL    HW210809   3.884   2.966   1.599
 3304SOL     OW10810   1.648   5.320   3.967
 3304SOL    HW110811   1.658   5.291   4.062
 3304SOL    HW210812   1.689   5.411   3.955
 3305SOL     OW10813   2.806   1.156   2.884
 3305SOL    HW110814   2.848   1.117   2.966
 3305SOL    HW210815   2.823   1.254   2.880
 3306SOL     OW10816   2.328   5.481   3.902
 3306SOL    HW110817   2.381   5.484   3.817
 3306SOL    HW210818   2.233   5.456   3.881
 3307SOL     OW10819   0.241   5.605   6.398
 3307SOL    HW110820   0.187   5.528   6.431
 3307SOL    HW210821   0.205   5.634   6.309
 3308SOL     OW10822   4.809   6.064   0.256
 3308SOL    HW110823   4.823   6.161   0.277
 3308SOL    HW210824   4.889   6.012   0.285
 3309SOL     OW10825   0.755   5.502   1.655
 3309SOL    HW110826   0.747   5.591   1.701
 3309SOL    HW210827   0.843   5.461   1.679
 3310SOL     OW10828   6.621   4.222   4.627
 3310SOL    HW110829   6.652   4.316   4.638
 3310SOL    HW210830   6.700   4.162   4.616
 3311SOL     OW10831   2.332   4.669   1.786
 3311SOL    HW110832   2.315   4.767   1.774
 3311SOL    HW210833   2.416   4.656   1.839
 3312SOL     OW10834   3.439   4.537   5.977
 3312SOL    HW110835   3.367   4.477   6.011
 3312SOL    HW210836   3.451   4.614   6.040
 3313SOL     OW10837   6.447   4.854   2.631
 3313SOL    HW110838   6.526   4.881   2.686
 3313SOL    HW210839   6.418   4.931   2.573
 3314SOL     OW10840   1.622   2.143   4.735
 3314SOL    HW110841   1.630   2.066   4.798
 3314SOL    HW210842   1.674   2.221   4.769
 3315SOL     OW10843   6.638   3.326   4.040
 3315SOL    HW110844   6.701   3.290   3.972
 3315SOL    HW210845   6.656   3.423   4.056
 3316SOL     OW10846   3.857   1.571   6.068
 3316SOL    HW110847   3.835   1.547   6.162
 3316SOL    HW210848   3.916   1.652   6.067
 3317SOL     OW10849   4.896   3.020   1.782
 3317SOL    HW110850   4.813   3.006   1.836
 3317SOL    HW210851   4.903   3.116   1.755
 3318SOL     OW10852   3.018   0.092   0.272
 3318SOL    HW110853   2.960   0.052   0.202
 3318SOL    HW210854   3.024   0.191   0.258
 3319SOL     OW10855   6.274   7.004   4.230
 3319SOL    HW110856   6.230   6.925   4.274
 3319SOL    HW210857   6.217   0.064   4.244
 3320SOL     OW10858   5.116   1.210   6.163
 3320SOL    HW110859   5.053   1.198   6.086
 3320SOL    HW210860   5.175   1.130   6.170
 3321SOL     OW10861   3.520   2.415   1.633
 3321SOL    HW110862   3.464   2.338   1.604
 3321SOL    HW210863   3.582   2.385   1.706
 3322SOL     OW10864   5.119   3.324   1.804
 3322SOL    HW110865   5.138   3.247   1.743
 3322SOL    HW210866   5.048   3.298   1.869
 3323SOL     OW10867   1.766   4.097   6.670
 3323SOL    HW110868   1.740   4.174   6.728
 3323SOL    HW210869   1.861   4.073   6.686
 3324SOL     OW10870   0.855   4.027   6.765
 3324SOL    HW110871   0.875   4.059   6.673
 3324SOL    HW210872   0.921   4.066   6.829
 3325SOL     OW10873   2.449   3.309   6.596
 3325SOL    HW110874   2.508   3.235   6.563
 3325SOL    HW210875   2.505   3.389   6.616
 3326SOL     OW10876   5.251   1.359   2.160
 3326SOL    HW110877   5.195   1.374   2.079
 3326SOL    HW210878   5.343   1.330   2.133
 3327SOL     OW10879   3.043   6.160   1.354
 3327SOL    HW110880   3.001   6.072   1.378
 3327SOL    HW210881   3.142   6.151   1.357
 3328SOL     OW10882   4.240   1.888   2.739
 3328SOL    HW110883   4.153   1.929   2.767
 3328SOL    HW210884   4.263   1.920   2.647
 3329SOL     OW10885   4.903   0.467   5.476
 3329SOL    HW110886   4.854   0.555   5.475
 3329SOL    HW210887   4.987   0.476   5.422
 3330SOL     OW10888   5.771   6.300   1.659
 3330SOL    HW110889   5.803   6.230   1.723
 3330SOL    HW210890   5.832   6.379   1.663
 3331SOL     OW10891   0.694   3.354   2.216
 3331SOL    HW110892   0.685   3.256   2.202
 3331SOL    HW210893   0.788   3.382   2.199
 3332SOL     OW10894   6.534   4.418   0.037
 3332SOL    HW110895   6.498   4.350   0.101
 3332SOL    HW210896   6.558   4.373   6.972
 3333SOL     OW10897   3.097   3.305   0.058
 3333SOL    HW110898   3.020   3.358   0.023
 3333SOL    HW210899   3.180   3.361   0.056
 3334SOL     OW10900   1.932   3.453   2.367
 3334SOL    HW110901   1.942   3.508   2.284
 3334SOL    HW210902   2.020   3.408   2.387
 3335SOL     OW10903   4.924   6.150   6.454
 3335SOL    HW110904   4.985   6.076   6.482
 3335SOL    HW210905   4.948   6.233   6.502
 3336SOL     OW10906   2.246   6.525   4.498
 3336SOL    HW110907   2.231   6.611   4.547
 3336SOL    HW210908   2.325   6.534   4.438
 3337SOL     OW10909   2.930   4.097   1.260
 3337SOL    HW110910   2.929   4.028   1.188
 3337SOL    HW210911   2.852   4.158   1.249
 3338SOL     OW10912   0.055   2.663   1.721
 3338SOL    HW110913   0.072   2.604   1.800
 3338SOL    HW210914   7.018   2.740   1.750
 3339SOL     OW10915   1.157   6.940   6.623
 3339SOL    HW110916   1.194   6.947   6.715
 3339SOL    HW210917   1.220   6.984   6.558
 3340SOL     OW10918   3.775   1.238   4.267
 3340SOL    HW110919   3.824   1.306   4.212
 3340SOL    HW210920   3.676   1.252   4.258
 3341SOL     OW10921   1.991   4.475   3.783
 3341SOL    HW110922   2.026   4.566   3.762
 3341SOL    HW210923   2.039   4.407   3.727
 3342SOL     OW10924   0.980   0.689   3.388
 3342SOL    HW110925   1.057   0.734   3.434
 3342SOL    HW210926   0.928   0.636   3.456
 3343SOL     OW10927   5.631   4.658   6.590
 3343SOL    HW110928   5.712   4.693   6.543
 3343SOL    HW210929   5.560   4.636   6.523
 3344SOL     OW10930   6.384   3.461   4.074
 3344SOL    HW110931   6.346   3.547   4.039
 3344SOL    HW210932   6.478   3.451   4.043
 3345SOL     OW10933   1.031   4.368   6.407
 3345SOL    HW110934   1.087   4.445   6.438
 3345SOL    HW210935   0.946   4.401   6.368
 3346SOL     OW10936   1.178   1.137   6.868
 3346SOL    HW110937   1.116   1.189   6.810
 3346SOL    HW210938   1.260   1.113   6.816
 3347SOL     OW10939   0.789   3.165   5.881
 3347SOL    HW110940   0.853   3.214   5.940
 3347SOL    HW210941   0.695   3.182   5.912
 3348SOL     OW10942   3.950   3.540   5.115
 3348SOL    HW110943   3.929   3.616   5.054
 3348SOL    HW210944   3.995   3.467   5.063
 3349SOL     OW10945   2.085   4.565   2.993
 3349SOL    HW110946   2.002   4.527   3.035
 3349SOL    HW210947   2.098   4.659   3.023
 3350SOL     OW10948   0.024   2.554   6.116
 3350SOL    HW110949   6.972   2.614   6.082
 3350SOL    HW210950   0.085   2.606   6.175
 3351SOL     OW10951   4.428   1.335   1.875
 3351SOL    HW110952   4.453   1.257   1.817
 3351SOL    HW210953   4.510   1.385   1.900
 3352SOL     OW10954   6.000   2.861   1.218
 3352SOL    HW110955   6.008   2.850   1.317
 3352SOL    HW210956   5.903   2.871   1.194
 3353SOL     OW10957   2.643   6.005   1.282
 3353SOL    HW110958   2.735   5.995   1.321
 3353SOL    HW210959   2.613   6.100   1.292
 3354SOL     OW10960   4.211   2.521   5.447
 3354SOL    HW110961   4.143   2.519   5.521
 3354SOL    HW210962   4.167   2.550   5.362
 3355SOL     OW10963   2.251   1.790   5.997
 3355SOL    HW110964   2.234   1.767   5.901
 3355SOL    HW210965   2.350   1.790   6.014
 3356SOL     OW10966   1.372   6.033   6.006
 3356SOL    HW110967   1.465   5.997   6.010
 3356SOL    HW210968   1.307   5.963   6.036
 3357SOL     OW10969   3.385   3.718   2.149
 3357SOL    HW110970   3.323   3.753   2.219
 3357SOL    HW210971   3.458   3.665   2.192
 3358SOL     OW10972   4.520   1.512   2.834
 3358SOL    HW110973   4.541   1.510   2.736
 3358SOL    HW210974   4.498   1.606   2.861
 3359SOL     OW10975   6.894   5.688   3.099
 3359SOL    HW110976   6.806   5.722   3.134
 3359SOL    HW210977   6.901   5.707   3.001
 3360SOL     OW10978   0.543   2.306   6.276
 3360SOL    HW110979   0.494   2.228   6.315
 3360SOL    HW210980   0.580   2.282   6.187
 3361SOL     OW10981   0.565   5.764   4.650
 3361SOL    HW110982   0.644   5.708   4.622
 3361SOL    HW210983   0.574   5.855   4.609
 3362SOL     OW10984   3.586   1.851   2.589
 3362SOL    HW110985   3.596   1.787   2.512
 3362SOL    HW210986   3.604   1.944   2.557
 3363SOL     OW10987   6.998   2.381   1.652
 3363SOL    HW110988   0.019   2.466   1.619
 3363SOL    HW210989   6.992   2.316   1.576
 3364SOL     OW10990   2.426   4.424   3.218
 3364SOL    HW110991   2.519   4.399   3.192
 3364SOL    HW210992   2.364   4.411   3.141
 3365SOL     OW10993   0.306   3.110   5.023
 3365SOL    HW110994   0.344   3.152   4.941
 3365SOL    HW210995   0.253   3.178   5.074
 3366SOL     OW10996   5.233   4.852   4.060
 3366SOL    HW110997   5.269   4.816   4.146
 3366SOL    HW210998   5.181   4.781   4.013
 3367SOL     OW10999   3.261   3.698   3.056
 3367SOL    HW111000   3.176   3.664   3.014
 3367SOL    HW211001   3.244   3.721   3.151
 3368SOL     OW11002   1.091   5.481   6.568
 3368SOL    HW111003   1.113   5.392   6.608
 3368SOL    HW211004   1.169   5.515   6.516
 3369SOL     OW11005   4.573   1.797   1.310
 3369SOL    HW111006   4.664   1.792   1.271
 3369SOL    HW211007   4.545   1.705   1.340
 3370SOL     OW11008   6.298   6.264   1.210
 3370SOL    HW111009   6.263   6.327   1.140
 3370SOL    HW211010   6.323   6.316   1.292
 3371SOL     OW11011   2.008   3.326   1.790
 3371SOL    HW111012   2.077   3.374   1.844
 3371SOL    HW211013   1.955   3.266   1.850
 3372SOL     OW11014   6.959   2.003   6.951
 3372SOL    HW111015   0.014   2.003   6.885
 3372SOL    HW211016   6.872   2.002   6.903
 3373SOL     OW11017   0.294   2.245   3.928
 3373SOL    HW111018   0.208   2.252   3.877
 3373SOL    HW211019   0.289   2.304   4.009
 3374SOL     OW11020   1.068   6.976   3.788
 3374SOL    HW111021   1.112   0.041   3.758
 3374SOL    HW211022   1.129   6.929   3.852
 3375SOL     OW11023   0.092   4.401   0.780
 3375SOL    HW111024   0.083   4.493   0.741
 3375SOL    HW211025   0.063   4.402   0.876
 3376SOL     OW11026   3.310   2.957   4.609
 3376SOL    HW111027   3.257   2.882   4.648
 3376SOL    HW211028   3.287   3.042   4.655
 3377SOL     OW11029   6.974   5.078   5.886
 3377SOL    HW111030   6.924   5.114   5.965
 3377SOL    HW211031   6.910   5.057   5.813
 3378SOL     OW11032   1.467   6.096   0.118
 3378SOL    HW111033   1.379   6.097   0.069
 3378SOL    HW211034   1.509   6.187   0.112
 3379SOL     OW11035   1.114   1.848   4.551
 3379SOL    HW111036   1.082   1.933   4.508
 3379SOL    HW211037   1.144   1.868   4.644
 3380SOL     OW11038   4.786   6.183   5.649
 3380SOL    HW111039   4.737   6.270   5.654
 3380SOL    HW211040   4.805   6.149   5.742
 3381SOL     OW11041   6.413   2.676   1.343
 3381SOL    HW111042   6.478   2.684   1.418
 3381SOL    HW211043   6.454   2.710   1.259
 3382SOL     OW11044   0.243   2.967   6.824
 3382SOL    HW111045   0.237   2.873   6.791
 3382SOL    HW211046   0.328   3.009   6.792
 3383SOL     OW11047   3.369   4.922   0.867
 3383SOL    HW111048   3.297   4.904   0.800
 3383SOL    HW211049   3.457   4.895   0.828
 3384SOL     OW11050   2.158   3.588   0.996
 3384SOL    HW111051   2.245   3.621   1.032
 3384SOL    HW211052   2.143   3.625   0.904
 3385SOL     OW11053   6.630   3.379   4.653
 3385SOL    HW111054   6.710   3.330   4.616
 3385SOL    HW211055   6.547   3.337   4.617
 3386SOL     OW11056   5.440   3.929   6.896
 3386SOL    HW111057   5.348   3.964   6.876
 3386SOL    HW211058   5.432   3.847   6.953
 3387SOL     OW11059   4.903   0.439   3.141
 3387SOL    HW111060   4.928   0.522   3.092
 3387SOL    HW211061   4.880   0.367   3.075
 3388SOL     OW11062   5.331   3.271   2.605
 3388SOL    HW111063   5.336   3.276   2.705
 3388SOL    HW211064   5.272   3.343   2.570
 3389SOL     OW11065   6.756   5.474   6.036
 3389SOL    HW111066   6.662   5.472   6.003
 3389SOL    HW211067   6.761   5.528   6.120
 3390SOL     OW11068   5.176   6.811   6.169
 3390SOL    HW111069   5.176   6.711   6.171
 3390SOL    HW211070   5.097   6.843   6.118
 3391SOL     OW11071   4.827   2.439   3.471
 3391SOL    HW111072   4.906   2.489   3.508
 3391SOL    HW211073   4.819   2.456   3.373
 3392SOL     OW11074   3.661   6.704   4.594
 3392SOL    HW111075   3.732   6.729   4.659
 3392SOL    HW211076   3.571   6.725   4.632
 3393SOL     OW11077   5.950   5.976   0.742
 3393SOL    HW111078   6.002   5.959   0.826
 3393SOL    HW211079   5.992   6.050   0.690
 3394SOL     OW11080   4.825   3.641   0.694
 3394SOL    HW111081   4.922   3.667   0.689
 3394SOL    HW211082   4.787   3.673   0.781
 3395SOL     OW11083   5.269   1.931   2.818
 3395SOL    HW111084   5.353   1.907   2.866
 3395SOL    HW211085   5.231   2.015   2.857
 3396SOL     OW11086   5.601   0.864   3.873
 3396SOL    HW111087   5.559   0.812   3.799
 3396SOL    HW211088   5.701   0.856   3.868
 3397SOL     OW11089   3.647   4.940   6.164
 3397SOL    HW111090   3.603   4.996   6.095
 3397SOL    HW211091   3.746   4.953   6.159
 3398SOL     OW11092   1.333   0.033   5.129
 3398SOL    HW111093   1.323   0.131   5.148
 3398SOL    HW211094   1.332   7.002   5.214
 3399SOL     OW11095   5.668   5.186   3.319
 3399SOL    HW111096   5.722   5.102   3.322
 3399SOL    HW211097   5.641   5.206   3.225
 3400SOL     OW11098   5.730   3.836   0.087
 3400SOL    HW111099   5.630   3.838   0.092
 3400SOL    HW211100   5.769   3.874   0.170
 3401SOL     OW11101   5.845   4.236   6.959
 3401SOL    HW111102   5.873   4.316   7.013
 3401SOL    HW211103   5.780   4.181   7.012
 3402SOL     OW11104   5.836   5.606   6.976
 3402SOL    HW111105   5.860   5.517   6.938
 3402SOL    HW211106   5.755   5.597   0.013
 3403SOL     OW11107   5.048   5.543   7.014
 3403SOL    HW111108   5.069   5.612   6.945
 3403SOL    HW211109   4.986   5.582   0.062
 3404SOL     OW11110   5.263   2.546   0.218
 3404SOL    HW111111   5.177   2.500   0.239
 3404SOL    HW211112   5.311   2.569   0.303
 3405SOL     OW11113   5.821   4.378   6.443
 3405SOL    HW111114   5.887   4.304   6.437
 3405SOL    HW211115   5.824   4.433   6.360
 3406SOL     OW11116   1.222   3.444   2.281
 3406SOL    HW111117   1.254   3.353   2.255
 3406SOL    HW211118   1.243   3.509   2.208
 3407SOL     OW11119   1.936   4.355   0.144
 3407SOL    HW111120   2.035   4.360   0.139
 3407SOL    HW211121   1.895   4.396   0.062
 3408SOL     OW11122   4.905   3.321   4.728
 3408SOL    HW111123   4.947   3.370   4.652
 3408SOL    HW211124   4.900   3.381   4.808
 3409SOL     OW11125   3.777   6.206   0.164
 3409SOL    HW111126   3.738   6.297   0.179
 3409SOL    HW211127   3.826   6.204   0.077
 3410SOL     OW11128   6.421   6.230   2.003
 3410SOL    HW111129   6.399   6.187   2.091
 3410SOL    HW211130   6.439   6.158   1.935
 3411SOL     OW11131   0.580   2.922   0.689
 3411SOL    HW111132   0.674   2.898   0.666
 3411SOL    HW211133   0.519   2.849   0.659
 3412SOL     OW11134   5.147   3.439   1.544
 3412SOL    HW111135   5.149   3.539   1.555
 3412SOL    HW211136   5.123   3.397   1.632
 3413SOL     OW11137   6.618   1.570   0.013
 3413SOL    HW111138   6.692   1.628   7.000
 3413SOL    HW211139   6.655   1.504   0.079
 3414SOL     OW11140   3.502   2.160   5.914
 3414SOL    HW111141   3.459   2.070   5.922
 3414SOL    HW211142   3.447   2.227   5.964
 3415SOL     OW11143   2.802   2.131   4.117
 3415SOL    HW111144   2.704   2.146   4.120
 3415SOL    HW211145   2.821   2.033   4.121
 3416SOL     OW11146   5.573   0.198   0.517
 3416SOL    HW111147   5.540   0.292   0.531
 3416SOL    HW211148   5.532   0.161   0.434
 3417SOL     OW11149   0.093   6.418   4.036
 3417SOL    HW111150   0.124   6.484   4.105
 3417SOL    HW211151   0.001   6.441   4.006
 3418SOL     OW11152   4.116   5.982   3.433
 3418SOL    HW111153   4.152   6.074   3.423
 3418SOL    HW211154   4.018   5.986   3.451
 3419SOL     OW11155   3.555   5.095   5.970
 3419SOL    HW111156   3.480   5.156   5.944
 3419SOL    HW211157   3.572   5.030   5.896
 3420SOL     OW11158   5.505   3.411   4.622
 3420SOL    HW111159   5.556   3.494   4.644
 3420SOL    HW211160   5.496   3.354   4.704
 3421SOL     OW11161   5.618   1.603   3.434
 3421SOL    HW111162   5.604   1.635   3.528
 3421SOL    HW211163   5.548   1.536   3.411
 3422SOL     OW11164   2.486   0.591   0.435
 3422SOL    HW111165   2.459   0.671   0.489
 3422SOL    HW211166   2.483   0.509   0.492
 3423SOL     OW11167   0.414   4.510   6.271
 3423SOL    HW111168   0.394   4.422   6.228
 3423SOL    HW211169   0.370   4.583   6.218
 3424SOL     OW11170   3.124   0.106   1.151
 3424SOL    HW111171   3.054   0.123   1.220
 3424SOL    HW211172   3.214   0.101   1.195
 3425SOL     OW11173   4.866   4.494   2.065
 3425SOL    HW111174   4.858   4.573   2.126
 3425SOL    HW211175   4.818   4.416   2.105
 3426SOL     OW11176   5.188   2.819   1.186
 3426SOL    HW111177   5.229   2.753   1.249
 3426SOL    HW211178   5.260   2.867   1.136
 3427SOL     OW11179   0.746   2.234   2.025
 3427SOL    HW111180   0.781   2.144   2.001
 3427SOL    HW211181   0.789   2.265   2.109
 3428SOL     OW11182   3.991   4.583   0.248
 3428SOL    HW111183   3.898   4.572   0.213
 3428SOL    HW211184   4.056   4.548   0.181
 3429SOL     OW11185   0.801   1.701   0.977
 3429SOL    HW111186   0.775   1.786   0.933
 3429SOL    HW211187   0.855   1.645   0.914
 3430SOL     OW11188   2.354   5.466   5.125
 3430SOL    HW111189   2.293   5.399   5.168
 3430SOL    HW211190   2.439   5.421   5.098
 3431SOL     OW11191   1.396   6.116   1.444
 3431SOL    HW111192   1.472   6.130   1.508
 3431SOL    HW211193   1.329   6.055   1.486
 3432SOL     OW11194   2.583   4.534   6.611
 3432SOL    HW111195   2.534   4.608   6.564
 3432SOL    HW211196   2.615   4.567   6.700
 3433SOL     OW11197   1.188   1.533   5.471
 3433SOL    HW111198   1.137   1.455   5.507
 3433SOL    HW211199   1.225   1.508   5.381
 3434SOL     OW11200   3.781   1.782   1.565
 3434SOL    HW111201   3.770   1.880   1.550
 3434SOL    HW211202   3.877   1.756   1.550
 3435SOL     OW11203   1.995   1.089   0.969
 3435SOL    HW111204   2.035   1.175   1.001
 3435SOL    HW211205   1.895   1.096   0.971
 3436SOL     OW11206   3.277   5.713   0.439
 3436SOL    HW111207   3.235   5.632   0.397
 3436SOL    HW211208   3.213   5.754   0.503
 3437SOL     OW11209   2.918   6.113   5.533
 3437SOL    HW111210   2.984   6.096   5.460
 3437SOL    HW211211   2.842   6.168   5.498
 3438SOL     OW11212   0.676   4.057   1.447
 3438SOL    HW111213   0.751   3.994   1.430
 3438SOL    HW211214   0.697   4.114   1.527
 3439SOL     OW11215   3.329   6.140   4.087
 3439SOL    HW111216   3.384   6.149   4.171
 3439SOL    HW211217   3.311   6.230   4.049
 3440SOL     OW11218   3.917   3.183   2.594
 3440SOL    HW111219   3.830   3.151   2.556
 3440SOL    HW211220   3.966   3.236   2.525
 3441SOL     OW11221   0.009   5.711   6.560
 3441SOL    HW111222   0.027   5.714   6.658
 3441SOL    HW211223   0.088   5.671   6.513
 3442SOL     OW11224   2.681   3.632   1.476
 3442SOL    HW111225   2.777   3.604   1.470
 3442SOL    HW211226   2.623   3.551   1.479
 3443SOL     OW11227   3.204   6.383   2.072
 3443SOL    HW111228   3.286   6.441   2.079
 3443SOL    HW211229   3.148   6.415   1.996
 3444SOL     OW11230   4.542   5.610   0.623
 3444SOL    HW111231   4.623   5.612   0.564
 3444SOL    HW211232   4.549   5.683   0.691
 3445SOL     OW11233   6.227   5.257   3.389
 3445SOL    HW111234   6.290   5.185   3.361
 3445SOL    HW211235   6.278   5.329   3.437
 3446SOL     OW11236   5.906   0.654   1.505
 3446SOL    HW111237   5.911   0.678   1.408
 3446SOL    HW211238   5.828   0.701   1.547
 3447SOL     OW11239   5.341   6.926   0.762
 3447SOL    HW111240   5.420   6.972   0.803
 3447SOL    HW211241   5.352   6.923   0.663
 3448SOL     OW11242   3.379   6.421   6.344
 3448SOL    HW111243   3.356   6.495   6.282
 3448SOL    HW211244   3.354   6.446   6.438
 3449SOL     OW11245   5.878   5.263   4.486
 3449SOL    HW111246   5.900   5.165   4.481
 3449SOL    HW211247   5.880   5.302   4.394
 3450SOL     OW11248   0.628   1.247   6.426
 3450SOL    HW111249   0.582   1.268   6.340
 3450SOL    HW211250   0.656   1.333   6.470
 3451SOL     OW11251   2.209   6.064   7.002
 3451SOL    HW111252   2.217   5.981   0.037
 3451SOL    HW211253   2.285   6.068   6.937
 3452SOL     OW11254   5.818   0.213   6.681
 3452SOL    HW111255   5.849   0.118   6.678
 3452SOL    HW211256   5.895   0.274   6.664
 3453SOL     OW11257   5.604   5.668   6.470
 3453SOL    HW111258   5.611   5.722   6.387
 3453SOL    HW211259   5.683   5.686   6.529
 3454SOL     OW11260   0.704   4.293   4.994
 3454SOL    HW111261   0.791   4.317   5.037
 3454SOL    HW211262   0.647   4.374   4.987
 3455SOL     OW11263   2.732   1.590   3.968
 3455SOL    HW111264   2.790   1.537   4.030
 3455SOL    HW211265   2.650   1.537   3.945
 3456SOL     OW11266   4.776   5.263   2.218
 3456SOL    HW111267   4.712   5.333   2.250
 3456SOL    HW211268   4.847   5.307   2.161
 3457SOL     OW11269   4.413   5.702   4.301
 3457SOL    HW111270   4.506   5.699   4.337
 3457SOL    HW211271   4.352   5.648   4.360
 3458SOL     OW11272   4.372   1.540   2.570
 3458SOL    HW111273   4.369   1.441   2.552
 3458SOL    HW211274   4.279   1.576   2.568
 3459SOL     OW11275   4.866   1.909   3.031
 3459SOL    HW111276   4.857   1.857   3.116
 3459SOL    HW211277   4.959   1.900   2.996
 3460SOL     OW11278   2.948   2.019   6.054
 3460SOL    HW111279   2.994   1.956   6.117
 3460SOL    HW211280   2.883   2.076   6.105
 3461SOL     OW11281   5.154   3.694   6.753
 3461SOL    HW111282   5.143   3.774   6.694
 3461SOL    HW211283   5.091   3.700   6.830
 3462SOL     OW11284   0.869   4.098   5.223
 3462SOL    HW111285   0.922   4.035   5.166
 3462SOL    HW211286   0.771   4.078   5.211
 3463SOL     OW11287   0.697   4.623   1.064
 3463SOL    HW111288   0.669   4.527   1.062
 3463SOL    HW211289   0.729   4.651   0.974
 3464SOL     OW11290   0.606   4.603   6.402
 3464SOL    HW111291   0.630   4.687   6.353
 3464SOL    HW211292   0.537   4.553   6.351
 3465SOL     OW11293   2.125   2.487   1.930
 3465SOL    HW111294   2.187   2.564   1.914
 3465SOL    HW211295   2.034   2.522   1.953
 3466SOL     OW11296   0.001   5.263   6.226
 3466SOL    HW111297   0.045   5.343   6.186
 3466SOL    HW211298   0.060   5.224   6.296
 3467SOL     OW11299   1.493   2.848   6.772
 3467SOL    HW111300   1.560   2.891   6.712
 3467SOL    HW211301   1.541   2.805   6.849
 3468SOL     OW11302   4.028   6.196   2.584
 3468SOL    HW111303   3.990   6.286   2.605
 3468SOL    HW211304   3.967   6.125   2.618
 3469SOL     OW11305   5.825   1.335   3.426
 3469SOL    HW111306   5.763   1.356   3.350
 3469SOL    HW211307   5.917   1.319   3.390
 3470SOL     OW11308   6.779   4.632   0.919
 3470SOL    HW111309   6.722   4.660   0.842
 3470SOL    HW211310   6.740   4.668   1.004
 3471SOL     OW11311   4.017   5.361   4.694
 3471SOL    HW111312   4.116   5.372   4.698
 3471SOL    HW211313   3.986   5.373   4.600
 3472SOL     OW11314   2.706   0.557   3.436
 3472SOL    HW111315   2.715   0.642   3.383
 3472SOL    HW211316   2.631   0.503   3.399
 3473SOL     OW11317   5.899   1.516   5.900
 3473SOL    HW111318   5.811   1.545   5.937
 3473SOL    HW211319   5.884   1.474   5.810
 3474SOL     OW11320   3.159   5.187   2.153
 3474SOL    HW111321   3.119   5.145   2.071
 3474SOL    HW211322   3.108   5.158   2.234
 3475SOL     OW11323   1.339   6.488   4.040
 3475SOL    HW111324   1.274   6.514   3.968
 3475SOL    HW211325   1.335   6.389   4.054
 3476SOL     OW11326   3.378   1.382   3.530
 3476SOL    HW111327   3.333   1.336   3.606
 3476SOL    HW211328   3.343   1.475   3.523
 3477SOL     OW11329   2.833   5.744   2.155
 3477SOL    HW111330   2.837   5.746   2.255
 3477SOL    HW211331   2.915   5.787   2.117
 3478SOL     OW11332   3.002   5.866   5.799
 3478SOL    HW111333   3.003   5.855   5.700
 3478SOL    HW211334   2.957   5.787   5.841
 3479SOL     OW11335   0.619   0.366   3.391
 3479SOL    HW111336   0.701   0.369   3.333
 3479SOL    HW211337   0.552   0.432   3.357
 3480SOL     OW11338   6.570   0.276   4.636
 3480SOL    HW111339   6.659   0.236   4.660
 3480SOL    HW211340   6.543   0.243   4.545
 3481SOL     OW11341   4.800   0.088   6.756
 3481SOL    HW111342   4.801   0.009   6.818
 3481SOL    HW211343   4.710   0.131   6.760
 3482SOL     OW11344   5.520   1.223   0.574
 3482SOL    HW111345   5.602   1.262   0.617
 3482SOL    HW211346   5.547   1.160   0.502
 3483SOL     OW11347   3.144   0.867   1.455
 3483SOL    HW111348   3.073   0.815   1.408
 3483SOL    HW211349   3.223   0.878   1.394
 3484SOL     OW11350   2.762   3.350   1.724
 3484SOL    HW111351   2.668   3.348   1.692
 3484SOL    HW211352   2.820   3.392   1.654
 3485SOL     OW11353   1.154   0.712   4.629
 3485SOL    HW111354   1.195   0.636   4.578
 3485SOL    HW211355   1.209   0.731   4.710
 3486SOL     OW11356   3.002   2.171   2.413
 3486SOL    HW111357   3.091   2.156   2.371
 3486SOL    HW211358   3.013   2.182   2.511
 3487SOL     OW11359   6.162   1.605   5.962
 3487SOL    HW111360   6.075   1.571   5.925
 3487SOL    HW211361   6.236   1.585   5.899
 3488SOL     OW11362   5.734   3.213   4.114
 3488SOL    HW111363   5.643   3.193   4.152
 3488SOL    HW211364   5.796   3.137   4.137
 3489SOL     OW11365   2.572   0.032   0.535
 3489SOL    HW111366   2.544   6.958   0.519
 3489SOL    HW211367   2.671   0.037   0.548
 3490SOL     OW11368   4.312   4.622   6.884
 3490SOL    HW111369   4.294   4.720   6.884
 3490SOL    HW211370   4.373   4.600   6.960
 3491SOL     OW11371   6.213   3.273   4.901
 3491SOL    HW111372   6.197   3.179   4.929
 3491SOL    HW211373   6.185   3.335   4.974
 3492SOL     OW11374   1.139   5.607   0.528
 3492SOL    HW111375   1.056   5.660   0.547
 3492SOL    HW211376   1.158   5.546   0.605
 3493SOL     OW11377   6.526   5.300   0.109
 3493SOL    HW111378   6.522   5.380   0.050
 3493SOL    HW211379   6.608   5.247   0.088
 3494SOL     OW11380   3.992   0.413   1.185
 3494SOL    HW111381   3.970   0.316   1.197
 3494SOL    HW211382   4.025   0.429   1.092
 3495SOL     OW11383   4.326   5.060   2.243
 3495SOL    HW111384   4.297   5.148   2.207
 3495SOL    HW211385   4.426   5.057   2.246
 3496SOL     OW11386   0.799   3.006   1.415
 3496SOL    HW111387   0.844   2.917   1.426
 3496SOL    HW211388   0.736   3.021   1.492
 3497SOL     OW11389   3.935   0.313   2.840
 3497SOL    HW111390   3.957   0.398   2.791
 3497SOL    HW211391   3.965   0.235   2.785
 3498SOL     OW11392   2.617   2.495   0.865
 3498SOL    HW111393   2.521   2.505   0.839
 3498SOL    HW211394   2.637   2.398   0.882
 3499SOL     OW11395   5.348   3.051   4.667
 3499SOL    HW111396   5.410   3.018   4.595
 3499SOL    HW211397   5.394   3.122   4.721
 3500SOL     OW11398   0.350   3.987   5.547
 3500SOL    HW111399   0.413   4.058   5.517
 3500SOL    HW211400   0.274   4.028   5.597
 3501SOL     OW11401   0.618   5.040   4.440
 3501SOL    HW111402   0.588   5.104   4.370
 3501SOL    HW211403   0.713   5.013   4.423
 3502SOL     OW11404   6.726   2.389   2.385
 3502SOL    HW111405   6.782   2.382   2.468
 3502SOL    HW211406   6.637   2.429   2.409
 3503SOL     OW11407   5.568   5.440   5.475
 3503SOL    HW111408   5.605   5.449   5.567
 3503SOL    HW211409   5.521   5.525   5.449
 3504SOL     OW11410   2.641   3.059   1.525
 3504SOL    HW111411   2.736   3.036   1.504
 3504SOL    HW211412   2.638   3.149   1.569
 3505SOL     OW11413   5.919   5.128   5.194
 3505SOL    HW111414   5.852   5.187   5.240
 3505SOL    HW211415   6.008   5.173   5.194
 3506SOL     OW11416   3.917   5.779   4.705
 3506SOL    HW111417   3.881   5.843   4.773
 3506SOL    HW211418   3.863   5.695   4.705
 3507SOL     OW11419   1.499   0.797   6.847
 3507SOL    HW111420   1.427   0.742   6.891
 3507SOL    HW211421   1.533   0.748   6.767
 3508SOL     OW11422   4.091   2.476   6.149
 3508SOL    HW111423   4.028   2.503   6.222
 3508SOL    HW211424   4.185   2.480   6.183
 3509SOL     OW11425   5.753   5.677   6.709
 3509SOL    HW111426   5.657   5.705   6.719
 3509SOL    HW211427   5.795   5.668   6.799
 3510SOL     OW11428   1.545   2.933   1.652
 3510SOL    HW111429   1.614   2.938   1.580
 3510SOL    HW211430   1.493   3.018   1.655
 3511SOL     OW11431   1.360   4.024   6.955
 3511SOL    HW111432   1.357   3.956   0.008
 3511SOL    HW211433   1.407   4.106   6.987
 3512SOL     OW11434   1.061   4.740   0.565
 3512SOL    HW111435   1.042   4.666   0.630
 3512SOL    HW211436   1.158   4.765   0.571
 3513SOL     OW11437   5.970   4.520   0.991
 3513SOL    HW111438   6.022   4.541   1.074
 3513SOL    HW211439   5.975   4.422   0.973
 3514SOL     OW11440   0.754   0.998   1.825
 3514SOL    HW111441   0.757   1.097   1.812
 3514SOL    HW211442   0.673   0.960   1.780
 3515SOL     OW11443   3.840   6.316   2.294
 3515SOL    HW111444   3.936   6.336   2.311
 3515SOL    HW211445   3.786   6.348   2.372
 3516SOL     OW11446   4.011   0.906   1.433
 3516SOL    HW111447   3.986   0.970   1.361
 3516SOL    HW211448   4.054   0.956   1.509
 3517SOL     OW11449   0.331   1.955   0.064
 3517SOL    HW111450   0.414   1.901   0.073
 3517SOL    HW211451   0.297   1.979   0.155
 3518SOL     OW11452   4.950   4.107   5.374
 3518SOL    HW111453   5.022   4.055   5.329
 3518SOL    HW211454   4.861   4.063   5.358
 3519SOL     OW11455   1.605   0.411   6.644
 3519SOL    HW111456   1.628   0.488   6.704
 3519SOL    HW211457   1.604   0.443   6.549
 3520SOL     OW11458   3.692   4.230   1.290
 3520SOL    HW111459   3.593   4.242   1.285
 3520SOL    HW211460   3.733   4.257   1.203
 3521SOL     OW11461   5.748   2.831   1.842
 3521SOL    HW111462   5.695   2.774   1.779
 3521SOL    HW211463   5.695   2.846   1.926
 3522SOL     OW11464   3.079   5.885   2.052
 3522SOL    HW111465   3.159   5.830   2.076
 3522SOL    HW211466   3.107   5.980   2.037
 3523SOL     OW11467   2.883   4.469   5.693
 3523SOL    HW111468   2.850   4.522   5.615
 3523SOL    HW211469   2.983   4.473   5.696
 3524SOL     OW11470   2.320   0.399   1.371
 3524SOL    HW111471   2.408   0.389   1.324
 3524SOL    HW211472   2.307   0.495   1.397
 3525SOL     OW11473   0.780   3.526   1.957
 3525SOL    HW111474   0.830   3.481   1.883
 3525SOL    HW211475   0.710   3.464   1.993
 3526SOL     OW11476   1.134   0.516   3.858
 3526SOL    HW111477   1.110   0.453   3.932
 3526SOL    HW211478   1.131   0.610   3.893
 3527SOL     OW11479   5.349   2.961   5.135
 3527SOL    HW111480   5.354   2.960   5.035
 3527SOL    HW211481   5.300   2.879   5.166
 3528SOL     OW11482   1.015   6.006   3.320
 3528SOL    HW111483   1.020   5.909   3.298
 3528SOL    HW211484   0.923   6.041   3.302
 3529SOL     OW11485   3.923   0.101   5.761
 3529SOL    HW111486   3.923   0.195   5.727
 3529SOL    HW211487   3.849   0.049   5.717
 3530SOL     OW11488   1.787   4.961   2.626
 3530SOL    HW111489   1.701   4.911   2.628
 3530SOL    HW211490   1.773   5.053   2.663
 3531SOL     OW11491   5.136   4.090   0.670
 3531SOL    HW111492   5.038   4.087   0.652
 3531SOL    HW211493   5.184   4.033   0.603
 3532SOL     OW11494   3.032   0.601   0.464
 3532SOL    HW111495   3.052   0.513   0.507
 3532SOL    HW211496   3.106   0.665   0.481
 3533SOL     OW11497   1.211   2.171   3.077
 3533SOL    HW111498   1.240   2.111   3.151
 3533SOL    HW211499   1.117   2.150   3.052
 3534SOL     OW11500   5.681   1.454   5.351
 3534SOL    HW111501   5.686   1.504   5.437
 3534SOL    HW211502   5.588   1.419   5.339
 3535SOL     OW11503   0.141   5.695   0.761
 3535SOL    HW111504   0.103   5.776   0.807
 3535SOL    HW211505   0.212   5.725   0.697
 3536SOL     OW11506   2.133   3.218   3.730
 3536SOL    HW111507   2.184   3.171   3.802
 3536SOL    HW211508   2.055   3.267   3.771
 3537SOL     OW11509   2.376   4.193   0.769
 3537SOL    HW111510   2.300   4.255   0.748
 3537SOL    HW211511   2.339   4.109   0.809
 3538SOL     OW11512   2.728   1.012   3.988
 3538SOL    HW111513   2.793   1.041   3.917
 3538SOL    HW211514   2.661   0.950   3.948
 3539SOL     OW11515   5.800   3.431   5.869
 3539SOL    HW111516   5.857   3.372   5.811
 3539SOL    HW211517   5.810   3.526   5.840
 3540SOL     OW11518   2.275   2.243   6.066
 3540SOL    HW111519   2.346   2.224   5.998
 3540SOL    HW211520   2.318   2.283   6.147
 3541SOL     OW11521   2.675   3.201   0.040
 3541SOL    HW111522   2.730   3.234   0.116
 3541SOL    HW211523   2.724   3.215   6.975
 3542SOL     OW11524   5.555   2.493   0.640
 3542SOL    HW111525   5.487   2.510   0.712
 3542SOL    HW211526   5.610   2.414   0.665
 3543SOL     OW11527   1.571   3.315   3.598
 3543SOL    HW111528   1.525   3.403   3.595
 3543SOL    HW211529   1.506   3.243   3.625
 3544SOL     OW11530   2.085   4.260   6.625
 3544SOL    HW111531   2.083   4.172   6.577
 3544SOL    HW211532   2.172   4.305   6.606
 3545SOL     OW11533   3.825   4.685   0.686
 3545SOL    HW111534   3.756   4.613   0.692
 3545SOL    HW211535   3.912   4.651   0.721
 3546SOL     OW11536   6.570   4.710   3.313
 3546SOL    HW111537   6.616   4.763   3.242
 3546SOL    HW211538   6.528   4.773   3.379
 3547SOL     OW11539   6.623   4.114   4.971
 3547SOL    HW111540   6.586   4.200   4.935
 3547SOL    HW211541   6.599   4.040   4.909
 3548SOL     OW11542   5.829   0.668   5.371
 3548SOL    HW111543   5.893   0.743   5.381
 3548SOL    HW211544   5.768   0.686   5.294
 3549SOL     OW11545   1.511   4.734   5.672
 3549SOL    HW111546   1.467   4.650   5.640
 3549SOL    HW211547   1.609   4.730   5.652
 3550SOL     OW11548   5.730   2.826   4.503
 3550SOL    HW111549   5.767   2.794   4.416
 3550SOL    HW211550   5.785   2.787   4.578
 3551SOL     OW11551   3.128   1.990   5.113
 3551SOL    HW111552   3.207   1.994   5.173
 3551SOL    HW211553   3.111   2.081   5.075
 3552SOL     OW11554   5.562   5.279   2.310
 3552SOL    HW111555   5.562   5.310   2.215
 3552SOL    HW211556   5.482   5.315   2.357
 3553SOL     OW11557   3.708   5.264   6.127
 3553SOL    HW111558   3.685   5.249   6.223
 3553SOL    HW211559   3.653   5.204   6.069
 3554SOL     OW11560   4.301   3.432   0.169
 3554SOL    HW111561   4.368   3.362   0.145
 3554SOL    HW211562   4.248   3.458   0.088
 3555SOL     OW11563   1.859   2.210   4.126
 3555SOL    HW111564   1.797   2.242   4.197
 3555SOL    HW211565   1.848   2.111   4.114
 3556SOL     OW11566   3.841   1.056   3.749
 3556SOL    HW111567   3.927   1.041   3.797
 3556SOL    HW211568   3.858   1.098   3.661
 3557SOL     OW11569   0.856   0.410   3.229
 3557SOL    HW111570   0.863   0.484   3.163
 3557SOL    HW211571   0.926   0.421   3.299
 3558SOL     OW11572   2.523   4.892   1.126
 3558SOL    HW111573   2.439   4.864   1.081
 3558SOL    HW211574   2.595   4.905   1.057
 3559SOL     OW11575   1.837   6.331   4.113
 3559SOL    HW111576   1.893   6.386   4.175
 3559SOL    HW211577   1.893   6.298   4.038
 3560SOL     OW11578   2.145   5.214   3.454
 3560SOL    HW111579   2.215   5.150   3.424
 3560SOL    HW211580   2.154   5.301   3.405
 3561SOL     OW11581   5.314   4.796   5.982
 3561SOL    HW111582   5.337   4.863   6.053
 3561SOL    HW211583   5.388   4.791   5.915
 3562SOL     OW11584   3.472   1.986   4.735
 3562SOL    HW111585   3.450   2.046   4.811
 3562SOL    HW211586   3.452   2.033   4.649
 3563SOL     OW11587   6.194   1.897   6.040
 3563SOL    HW111588   6.153   1.807   6.027
 3563SOL    HW211589   6.125   1.967   6.025
 3564SOL     OW11590   0.402   4.885   3.298
 3564SOL    HW111591   0.305   4.892   3.274
 3564SOL    HW211592   0.457   4.886   3.215
 3565SOL     OW11593   3.302   5.185   2.536
 3565SOL    HW111594   3.392   5.212   2.572
 3565SOL    HW211595   3.255   5.130   2.606
 3566SOL     OW11596   5.991   0.856   5.518
 3566SOL    HW111597   6.089   0.838   5.532
 3566SOL    HW211598   5.952   0.892   5.603
 3567SOL     OW11599   0.365   2.326   5.933
 3567SOL    HW111600   0.440   2.368   5.984
 3567SOL    HW211601   0.343   2.237   5.973
 3568SOL     OW11602   6.045   3.701   5.096
 3568SOL    HW111603   6.024   3.698   4.998
 3568SOL    HW211604   6.009   3.786   5.135
 3569SOL     OW11605   3.029   1.783   5.512
 3569SOL    HW111606   2.995   1.777   5.419
 3569SOL    HW211607   3.079   1.869   5.524
 3570SOL     OW11608   4.704   0.383   6.135
 3570SOL    HW111609   4.721   0.288   6.110
 3570SOL    HW211610   4.791   0.434   6.133
 3571SOL     OW11611   0.206   5.253   6.876
 3571SOL    HW111612   0.117   5.219   6.907
 3571SOL    HW211613   0.197   5.347   6.843
 3572SOL     OW11614   5.501   3.934   3.707
 3572SOL    HW111615   5.471   3.879   3.785
 3572SOL    HW211616   5.526   3.874   3.631
 3573SOL     OW11617   0.331   4.442   3.859
 3573SOL    HW111618   0.279   4.443   3.774
 3573SOL    HW211619   0.394   4.364   3.858
 3574SOL     OW11620   0.323   4.712   0.520
 3574SOL    HW111621   0.281   4.775   0.455
 3574SOL    HW211622   0.417   4.741   0.539
 3575SOL     OW11623   5.256   4.413   3.167
 3575SOL    HW111624   5.300   4.501   3.147
 3575SOL    HW211625   5.168   4.408   3.119
 3576SOL     OW11626   2.174   1.807   5.708
 3576SOL    HW111627   2.165   1.709   5.690
 3576SOL    HW211628   2.269   1.835   5.694
 3577SOL     OW11629   1.069   3.439   5.834
 3577SOL    HW111630   1.036   3.411   5.924
 3577SOL    HW211631   1.165   3.415   5.824
 3578SOL     OW11632   3.776   2.727   0.663
 3578SOL    HW111633   3.728   2.721   0.575
 3578SOL    HW211634   3.729   2.792   0.723
 3579SOL     OW11635   0.117   3.990   4.686
 3579SOL    HW111636   0.100   4.088   4.678
 3579SOL    HW211637   0.182   3.974   4.761
 3580SOL     OW11638   5.867   1.693   0.912
 3580SOL    HW111639   5.877   1.702   0.813
 3580SOL    HW211640   5.854   1.784   0.953
 3581SOL     OW11641   6.520   0.162   4.070
 3581SOL    HW111642   6.470   0.076   4.081
 3581SOL    HW211643   6.528   0.183   3.972
 3582SOL     OW11644   0.862   1.704   5.886
 3582SOL    HW111645   0.867   1.777   5.954
 3582SOL    HW211646   0.955   1.682   5.854
 3583SOL     OW11647   1.043   3.803   6.519
 3583SOL    HW111648   0.992   3.886   6.541
 3583SOL    HW211649   1.140   3.816   6.541
 3584SOL     OW11650   5.920   5.390   0.355
 3584SOL    HW111651   5.867   5.463   0.312
 3584SOL    HW211652   5.865   5.346   0.426
 3585SOL     OW11653   3.783   5.350   5.133
 3585SOL    HW111654   3.687   5.370   5.152
 3585SOL    HW211655   3.800   5.359   5.035
 3586SOL     OW11656   0.138   2.006   5.186
 3586SOL    HW111657   0.176   1.914   5.197
 3586SOL    HW211658   0.176   2.048   5.104
 3587SOL     OW11659   2.726   4.631   6.835
 3587SOL    HW111660   2.677   4.718   6.828
 3587SOL    HW211661   2.817   4.647   6.873
 3588SOL     OW11662   0.800   2.574   4.811
 3588SOL    HW111663   0.772   2.638   4.882
 3588SOL    HW211664   0.893   2.595   4.782
 3589SOL     OW11665   4.072   1.695   4.310
 3589SOL    HW111666   4.064   1.795   4.307
 3589SOL    HW211667   4.078   1.659   4.217
 3590SOL     OW11668   0.405   3.717   5.745
 3590SOL    HW111669   0.478   3.661   5.783
 3590SOL    HW211670   0.357   3.665   5.674
 3591SOL     OW11671   5.101   3.245   6.364
 3591SOL    HW111672   5.160   3.256   6.285
 3591SOL    HW211673   5.021   3.191   6.339
 3592SOL     OW11674   6.335   4.026   2.594
 3592SOL    HW111675   6.431   4.050   2.577
 3592SOL    HW211676   6.305   3.960   2.525
 3593SOL     OW11677   2.234   5.933   4.104
 3593SOL    HW111678   2.282   6.018   4.127
 3593SOL    HW211679   2.252   5.864   4.175
 3594SOL     OW11680   3.808   0.689   2.727
 3594SOL    HW111681   3.793   0.722   2.634
 3594SOL    HW211682   3.893   0.636   2.731
 3595SOL     OW11683   2.425   5.545   6.166
 3595SOL    HW111684   2.344   5.488   6.178
 3595SOL    HW211685   2.472   5.556   6.254
 3596SOL     OW11686   6.132   2.405   3.136
 3596SOL    HW111687   6.225   2.382   3.168
 3596SOL    HW211688   6.115   2.359   3.049
 3597SOL     OW11689   2.475   6.682   5.254
 3597SOL    HW111690   2.514   6.672   5.346
 3597SOL    HW211691   2.490   6.775   5.221
 3598SOL     OW11692   1.119   6.548   6.169
 3598SOL    HW111693   1.211   6.508   6.174
 3598SOL    HW211694   1.093   6.583   6.259
 3599SOL     OW11695   0.623   2.240   5.648
 3599SOL    HW111696   0.694   2.300   5.686
 3599SOL    HW211697   0.537   2.290   5.643
 3600SOL     OW11698   1.154   3.445   0.234
 3600SOL    HW111699   1.218   3.458   0.158
 3600SOL    HW211700   1.075   3.506   0.222
 3601SOL     OW11701   6.532   4.310   0.463
 3601SOL    HW111702   6.585   4.360   0.532
 3601SOL    HW211703   6.551   4.212   0.472
 3602SOL     OW11704   1.456   1.965   0.745
 3602SOL    HW111705   1.378   1.987   0.803
 3602SOL    HW211706   1.530   1.928   0.801
 3603SOL     OW11707   3.460   6.188   3.762
 3603SOL    HW111708   3.528   6.118   3.741
 3603SOL    HW211709   3.496   6.250   3.832
 3604SOL     OW11710   6.857   5.076   3.890
 3604SOL    HW111711   6.941   5.072   3.945
 3604SOL    HW211712   6.881   5.075   3.793
 3605SOL     OW11713   5.095   4.694   5.708
 3605SOL    HW111714   5.186   4.693   5.750
 3605SOL    HW211715   5.084   4.778   5.655
 3606SOL     OW11716   7.004   5.600   5.402
 3606SOL    HW111717   6.930   5.612   5.335
 3606SOL    HW211718   6.979   5.527   5.466
 3607SOL     OW11719   5.049   6.296   1.008
 3607SOL    HW111720   4.994   6.260   0.933
 3607SOL    HW211721   5.116   6.227   1.036
 3608SOL     OW11722   6.675   1.715   2.317
 3608SOL    HW111723   6.676   1.786   2.387
 3608SOL    HW211724   6.584   1.674   2.312
 3609SOL     OW11725   0.553   0.059   4.176
 3609SOL    HW111726   0.611   7.015   4.126
 3609SOL    HW211727   0.611   0.127   4.220
 3610SOL     OW11728   1.014   0.478   5.571
 3610SOL    HW111729   1.103   0.512   5.604
 3610SOL    HW211730   0.998   0.513   5.479
 3611SOL     OW11731   4.168   6.079   5.797
 3611SOL    HW111732   4.183   6.057   5.894
 3611SOL    HW211733   4.084   6.132   5.788
 3612SOL     OW11734   6.052   0.262   5.850
 3612SOL    HW111735   6.145   0.265   5.885
 3612SOL    HW211736   5.993   0.216   5.916
 3613SOL     OW11737   4.561   5.080   1.801
 3613SOL    HW111738   4.513   5.160   1.765
 3613SOL    HW211739   4.587   5.020   1.726
 3614SOL     OW11740   3.435   3.385   2.293
 3614SOL    HW111741   3.468   3.316   2.358
 3614SOL    HW211742   3.489   3.468   2.303
 3615SOL     OW11743   5.125   6.302   0.082
 3615SOL    HW111744   5.103   6.235   0.012
 3615SOL    HW211745   5.152   6.255   0.166
 3616SOL     OW11746   6.866   2.437   6.269
 3616SOL    HW111747   6.927   2.498   6.219
 3616SOL    HW211748   6.872   2.457   6.367
 3617SOL     OW11749   4.883   0.778   6.670
 3617SOL    HW111750   4.794   0.732   6.675
 3617SOL    HW211751   4.869   0.874   6.643
 3618SOL     OW11752   2.006   1.930   4.636
 3618SOL    HW111753   1.954   1.981   4.704
 3618SOL    HW211754   2.087   1.890   4.679
 3619SOL     OW11755   6.372   3.221   3.894
 3619SOL    HW111756   6.360   3.288   3.967
 3619SOL    HW211757   6.447   3.159   3.918
 3620SOL     OW11758   5.935   5.778   6.072
 3620SOL    HW111759   5.979   5.782   5.982
 3620SOL    HW211760   6.002   5.800   6.142
 3621SOL     OW11761   2.974   2.653   5.673
 3621SOL    HW111762   3.032   2.581   5.636
 3621SOL    HW211763   3.027   2.708   5.738
 3622SOL     OW11764   2.116   2.646   3.894
 3622SOL    HW111765   2.134   2.571   3.830
 3622SOL    HW211766   2.017   2.653   3.910
 3623SOL     OW11767   6.239   5.931   3.661
 3623SOL    HW111768   6.190   5.851   3.697
 3623SOL    HW211769   6.176   6.009   3.655
 3624SOL     OW11770   1.354   0.106   2.218
 3624SOL    HW111771   1.307   0.077   2.301
 3624SOL    HW211772   1.287   0.144   2.154
 3625SOL     OW11773   5.523   3.567   0.018
 3625SOL    HW111774   5.449   3.576   6.972
 3625SOL    HW211775   5.545   3.656   0.056
 3626SOL     OW11776   1.414   3.578   5.288
 3626SOL    HW111777   1.391   3.490   5.329
 3626SOL    HW211778   1.373   3.652   5.341
 3627SOL     OW11779   3.546   2.866   3.152
 3627SOL    HW111780   3.603   2.934   3.107
 3627SOL    HW211781   3.509   2.803   3.084
 3628SOL     OW11782   1.421   0.183   1.483
 3628SOL    HW111783   1.417   0.123   1.563
 3628SOL    HW211784   1.490   0.254   1.498
 3629SOL     OW11785   6.262   2.049   4.485
 3629SOL    HW111786   6.225   2.081   4.572
 3629SOL    HW211787   6.254   1.949   4.479
 3630SOL     OW11788   5.058   2.554   3.531
 3630SOL    HW111789   5.125   2.534   3.459
 3630SOL    HW211790   5.075   2.646   3.567
 3631SOL     OW11791   1.987   0.192   3.880
 3631SOL    HW111792   2.060   0.259   3.892
 3631SOL    HW211793   1.968   0.148   3.968
 3632SOL     OW11794   4.813   6.808   0.796
 3632SOL    HW111795   4.874   6.734   0.768
 3632SOL    HW211796   4.745   6.773   0.860
 3633SOL     OW11797   3.199   1.685   5.740
 3633SOL    HW111798   3.172   1.716   5.649
 3633SOL    HW211799   3.299   1.692   5.748
 3634SOL     OW11800   0.709   5.413   4.598
 3634SOL    HW111801   0.752   5.329   4.631
 3634SOL    HW211802   0.652   5.453   4.670
 3635SOL     OW11803   2.768   6.363   6.524
 3635SOL    HW111804   2.761   6.268   6.493
 3635SOL    HW211805   2.713   6.422   6.465
 3636SOL     OW11806   0.469   5.634   6.539
 3636SOL    HW111807   0.560   5.621   6.499
 3636SOL    HW211808   0.400   5.631   6.467
 3637SOL     OW11809   5.797   1.938   1.439
 3637SOL    HW111810   5.766   1.930   1.534
 3637SOL    HW211811   5.843   2.026   1.426
 3638SOL     OW11812   0.079   4.687   4.555
 3638SOL    HW111813   0.151   4.618   4.566
 3638SOL    HW211814   0.111   4.775   4.589
 3639SOL     OW11815   3.577   4.497   1.402
 3639SOL    HW111816   3.662   4.451   1.377
 3639SOL    HW211817   3.558   4.482   1.499
 3640SOL     OW11818   3.313   0.718   0.013
 3640SOL    HW111819   3.268   0.795   6.988
 3640SOL    HW211820   3.379   0.676   6.973
 3641SOL     OW11821   4.949   3.208   4.300
 3641SOL    HW111822   4.875   3.142   4.302
 3641SOL    HW211823   4.936   3.271   4.223
 3642SOL     OW11824   4.621   0.851   0.460
 3642SOL    HW111825   4.591   0.872   0.367
 3642SOL    HW211826   4.543   0.858   0.522
 3643SOL     OW11827   3.384   5.757   4.686
 3643SOL    HW111828   3.327   5.674   4.690
 3643SOL    HW211829   3.426   5.765   4.596
 3644SOL     OW11830   6.238   1.475   1.698
 3644SOL    HW111831   6.264   1.567   1.727
 3644SOL    HW211832   6.285   1.408   1.755
 3645SOL     OW11833   6.957   2.686   3.945
 3645SOL    HW111834   0.015   2.723   3.895
 3645SOL    HW211835   6.983   2.598   3.986
 3646SOL     OW11836   6.360   4.049   0.063
 3646SOL    HW111837   6.382   3.962   0.018
 3646SOL    HW211838   6.402   4.124   0.012
 3647SOL     OW11839   2.160   3.501   0.155
 3647SOL    HW111840   2.228   3.493   0.228
 3647SOL    HW211841   2.155   3.414   0.105
 3648SOL     OW11842   3.046   4.881   3.069
 3648SOL    HW111843   2.979   4.843   3.133
 3648SOL    HW211844   3.070   4.974   3.096
 3649SOL     OW11845   5.287   3.059   2.139
 3649SOL    HW111846   5.234   3.023   2.062
 3649SOL    HW211847   5.287   3.159   2.136
 3650SOL     OW11848   0.499   4.392   0.767
 3650SOL    HW111849   0.446   4.395   0.682
 3650SOL    HW211850   0.596   4.386   0.744
 3651SOL     OW11851   0.728   6.777   4.261
 3651SOL    HW111852   0.742   6.856   4.203
 3651SOL    HW211853   0.746   6.801   4.356
 3652SOL     OW11854   5.895   6.078   3.159
 3652SOL    HW111855   5.808   6.035   3.185
 3652SOL    HW211856   5.893   6.100   3.062
 3653SOL     OW11857   0.618   1.597   4.284
 3653SOL    HW111858   0.703   1.591   4.231
 3653SOL    HW211859   0.588   1.692   4.289
 3654SOL     OW11860   2.797   5.507   0.303
 3654SOL    HW111861   2.795   5.559   0.389
 3654SOL    HW211862   2.765   5.566   0.228
 3655SOL     OW11863   2.634   6.955   3.812
 3655SOL    HW111864   2.574   6.957   3.892
 3655SOL    HW211865   2.663   6.861   3.794
 3656SOL     OW11866   0.976   3.709   2.060
 3656SOL    HW111867   0.912   3.636   2.038
 3656SOL    HW211868   0.946   3.756   2.143
 3657SOL     OW11869   5.156   5.211   6.549
 3657SOL    HW111870   5.174   5.163   6.635
 3657SOL    HW211871   5.140   5.144   6.477
 3658SOL     OW11872   1.625   6.164   4.202
 3658SOL    HW111873   1.691   6.232   4.171
 3658SOL    HW211874   1.664   6.112   4.278
 3659SOL     OW11875   2.030   3.287   5.527
 3659SOL    HW111876   2.009   3.269   5.431
 3659SOL    HW211877   2.056   3.202   5.572
 3660SOL     OW11878   4.624   0.238   2.665
 3660SOL    HW111879   4.580   0.244   2.754
 3660SOL    HW211880   4.607   0.147   2.626
 3661SOL     OW11881   5.163   1.482   6.239
 3661SOL    HW111882   5.158   1.387   6.207
 3661SOL    HW211883   5.072   1.514   6.263
 3662SOL     OW11884   3.664   0.549   3.764
 3662SOL    HW111885   3.689   0.590   3.677
 3662SOL    HW211886   3.627   0.457   3.749
 3663SOL     OW11887   1.473   2.329   0.572
 3663SOL    HW111888   1.412   2.315   0.650
 3663SOL    HW211889   1.557   2.277   0.586
 3664SOL     OW11890   5.001   1.588   2.206
 3664SOL    HW111891   4.959   1.574   2.116
 3664SOL    HW211892   4.960   1.526   2.272
 3665SOL     OW11893   1.786   6.157   5.440
 3665SOL    HW111894   1.697   6.193   5.414
 3665SOL    HW211895   1.783   6.057   5.442
 3666SOL     OW11896   1.188   4.156   3.172
 3666SOL    HW111897   1.129   4.078   3.192
 3666SOL    HW211898   1.196   4.167   3.073
 3667SOL     OW11899   0.105   1.035   1.597
 3667SOL    HW111900   0.072   1.105   1.534
 3667SOL    HW211901   0.204   1.046   1.609
 3668SOL     OW11902   1.425   1.355   2.207
 3668SOL    HW111903   1.440   1.378   2.303
 3668SOL    HW211904   1.507   1.311   2.170
 3669SOL     OW11905   5.411   1.418   3.366
 3669SOL    HW111906   5.401   1.357   3.444
 3669SOL    HW211907   5.326   1.422   3.314
 3670SOL     OW11908   2.259   4.669   0.385
 3670SOL    HW111909   2.345   4.675   0.436
 3670SOL    HW211910   2.188   4.720   0.433
 3671SOL     OW11911   6.109   0.198   4.292
 3671SOL    HW111912   6.097   0.196   4.193
 3671SOL    HW211913   6.028   0.239   4.334
 3672SOL     OW11914   5.574   2.166   1.637
 3672SOL    HW111915   5.618   2.079   1.656
 3672SOL    HW211916   5.606   2.235   1.702
 3673SOL     OW11917   4.319   6.626   6.547
 3673SOL    HW111918   4.375   6.591   6.623
 3673SOL    HW211919   4.285   6.717   6.571
 3674SOL     OW11920   0.702   6.979   4.997
 3674SOL    HW111921   0.618   0.004   5.026
 3674SOL    HW211922   0.770   0.027   4.970
 3675SOL     OW11923   1.557   3.136   4.836
 3675SOL    HW111924   1.641   3.179   4.802
 3675SOL    HW211925   1.496   3.206   4.871
 3676SOL     OW11926   4.953   4.420   4.905
 3676SOL    HW111927   4.902   4.337   4.929
 3676SOL    HW211928   5.005   4.451   4.984
 3677SOL     OW11929   2.365   6.127   3.073
 3677SOL    HW111930   2.283   6.165   3.118
 3677SOL    HW211931   2.338   6.080   2.989
 3678SOL     OW11932   0.050   2.705   5.021
 3678SOL    HW111933   0.111   2.775   4.984
 3678SOL    HW211934   0.057   2.622   4.967
 3679SOL     OW11935   1.618   0.666   2.847
 3679SOL    HW111936   1.629   0.609   2.928
 3679SOL    HW211937   1.521   0.680   2.829
 3680SOL     OW11938   5.344   2.227   3.639
 3680SOL    HW111939   5.418   2.294   3.623
 3680SOL    HW211940   5.366   2.142   3.592
 3681SOL     OW11941   0.555   0.406   5.193
 3681SOL    HW111942   0.504   0.390   5.277
 3681SOL    HW211943   0.513   0.356   5.117
 3682SOL     OW11944   5.550   2.428   6.861
 3682SOL    HW111945   5.537   2.458   6.956
 3682SOL    HW211946   5.647   2.418   6.842
 3683SOL     OW11947   0.193   0.149   3.259
 3683SOL    HW111948   0.216   0.227   3.201
 3683SOL    HW211949   0.101   0.160   3.296
 3684SOL     OW11950   1.703   4.780   6.849
 3684SOL    HW111951   1.722   4.729   6.933
 3684SOL    HW211952   1.735   4.874   6.859
 3685SOL     OW11953   6.771   6.200   6.218
 3685SOL    HW111954   6.781   6.212   6.317
 3685SOL    HW211955   6.809   6.279   6.171
 3686SOL     OW11956   5.574   6.120   3.284
 3686SOL    HW111957   5.629   6.101   3.365
 3686SOL    HW211958   5.576   6.040   3.223
 3687SOL     OW11959   3.928   6.166   5.495
 3687SOL    HW111960   3.883   6.163   5.406
 3687SOL    HW211961   4.022   6.199   5.484
 3688SOL     OW11962   6.414   3.741   6.589
 3688SOL    HW111963   6.324   3.729   6.632
 3688SOL    HW211964   6.407   3.721   6.492
 3689SOL     OW11965   2.024   0.712   6.852
 3689SOL    HW111966   1.971   0.785   6.807
 3689SOL    HW211967   2.072   0.658   6.782
 3690SOL     OW11968   4.935   6.485   0.472
 3690SOL    HW111969   4.935   6.511   0.569
 3690SOL    HW211970   5.016   6.523   0.427
 3691SOL     OW11971   3.214   2.885   0.212
 3691SOL    HW111972   3.133   2.882   0.153
 3691SOL    HW211973   3.240   2.980   0.229
 3692SOL     OW11974   0.534   5.838   5.043
 3692SOL    HW111975   0.536   5.938   5.035
 3692SOL    HW211976   0.560   5.811   5.136
 3693SOL     OW11977   1.987   2.528   2.834
 3693SOL    HW111978   1.914   2.534   2.765
 3693SOL    HW211979   2.069   2.488   2.792
 3694SOL     OW11980   1.216   5.384   2.978
 3694SOL    HW111981   1.146   5.316   3.001
 3694SOL    HW211982   1.208   5.462   3.040
 3695SOL     OW11983   6.906   2.831   2.029
 3695SOL    HW111984   6.838   2.764   2.058
 3695SOL    HW211985   6.902   2.841   1.929
 3696SOL     OW11986   3.348   5.498   5.090
 3696SOL    HW111987   3.434   5.537   5.056
 3696SOL    HW211988   3.348   5.399   5.075
 3697SOL     OW11989   6.951   6.396   3.418
 3697SOL    HW111990   0.019   6.392   3.372
 3697SOL    HW211991   6.887   6.334   3.373
 3698SOL     OW11992   2.335   0.494   4.420
 3698SOL    HW111993   2.348   0.397   4.439
 3698SOL    HW211994   2.257   0.528   4.472
 3699SOL     OW11995   0.841   3.062   3.321
 3699SOL    HW111996   0.875   3.126   3.389
 3699SOL    HW211997   0.873   3.089   3.230
 3700SOL     OW11998   0.507   0.096   5.151
 3700SOL    HW111999   0.537   0.114   5.244
 3700SOL    HW212000   0.408   0.114   5.144
 3701SOL     OW12001   1.211   0.239   3.814
 3701SOL    HW112002   1.150   0.267   3.888
 3701SOL    HW212003   1.218   0.312   3.746
 3702SOL     OW12004   5.934   6.452   2.575
 3702SOL    HW112005   5.954   6.412   2.664
 3702SOL    HW212006   5.837   6.440   2.553
 3703SOL     OW12007   4.529   1.498   6.380
 3703SOL    HW112008   4.582   1.477   6.298
 3703SOL    HW212009   4.432   1.496   6.359
 3704SOL     OW12010   3.583   1.468   1.720
 3704SOL    HW112011   3.530   1.550   1.701
 3704SOL    HW212012   3.535   1.412   1.787
 3705SOL     OW12013   4.944   5.774   3.762
 3705SOL    HW112014   4.870   5.710   3.741
 3705SOL    HW212015   4.972   5.761   3.857
 3706SOL     OW12016   1.411   3.810   5.429
 3706SOL    HW112017   1.510   3.824   5.432
 3706SOL    HW212018   1.376   3.800   5.522
 3707SOL     OW12019   5.310   4.264   5.692
 3707SOL    HW112020   5.267   4.296   5.608
 3707SOL    HW212021   5.245   4.210   5.745
 3708SOL     OW12022   6.855   0.929   6.113
 3708SOL    HW112023   6.782   0.911   6.179
 3708SOL    HW212024   6.943   0.902   6.153
 3709SOL     OW12025   3.446   0.734   0.993
 3709SOL    HW112026   3.451   0.774   0.902
 3709SOL    HW212027   3.387   0.653   0.991
 3710SOL     OW12028   6.850   5.390   6.638
 3710SOL    HW112029   6.794   5.386   6.555
 3710SOL    HW212030   6.815   5.460   6.699
 3711SOL     OW12031   0.702   0.102   3.490
 3711SOL    HW112032   0.770   0.036   3.461
 3711SOL    HW212033   0.645   0.129   3.412
 3712SOL     OW12034   0.114   5.980   6.902
 3712SOL    HW112035   0.089   6.066   6.857
 3712SOL    HW212036   0.199   5.993   6.953
 3713SOL     OW12037   1.680   6.351   4.934
 3713SOL    HW112038   1.581   6.344   4.922
 3713SOL    HW212039   1.720   6.401   4.858
 3714SOL     OW12040   4.641   6.009   5.483
 3714SOL    HW112041   4.700   6.065   5.542
 3714SOL    HW212042   4.595   5.940   5.539
 3715SOL     OW12043   5.745   3.797   2.486
 3715SOL    HW112044   5.818   3.858   2.455
 3715SOL    HW212045   5.785   3.719   2.533
 3716SOL     OW12046   6.179   6.466   5.303
 3716SOL    HW112047   6.272   6.434   5.282
 3716SOL    HW212048   6.149   6.529   5.231
 3717SOL     OW12049   5.451   5.996   6.701
 3717SOL    HW112050   5.440   5.922   6.636
 3717SOL    HW212051   5.537   5.984   6.752
 3718SOL     OW12052   1.637   0.704   0.309
 3718SOL    HW112053   1.615   0.646   0.230
 3718SOL    HW212054   1.556   0.755   0.336
 3719SOL     OW12055   5.447   4.855   0.791
 3719SOL    HW112056   5.368   4.823   0.737
 3719SOL    HW212057   5.531   4.829   0.745
 3720SOL     OW12058   6.445   2.258   6.258
 3720SOL    HW112059   6.430   2.258   6.356
 3720SOL    HW212060   6.429   2.166   6.221
 3721SOL     OW12061   5.116   4.242   1.761
 3721SOL    HW112062   5.181   4.257   1.686
 3721SOL    HW212063   5.029   4.210   1.723
 3722SOL     OW12064   6.388   6.039   1.110
 3722SOL    HW112065   6.480   6.067   1.080
 3722SOL    HW212066   6.340   6.118   1.148
 3723SOL     OW12067   6.598   6.440   1.994
 3723SOL    HW112068   6.629   6.446   1.899
 3723SOL    HW212069   6.529   6.369   2.003
 3724SOL     OW12070   1.820   4.400   5.090
 3724SOL    HW112071   1.890   4.333   5.116
 3724SOL    HW212072   1.864   4.487   5.068
 3725SOL     OW12073   6.316   5.202   1.226
 3725SOL    HW112074   6.256   5.210   1.306
 3725SOL    HW212075   6.271   5.146   1.156
 3726SOL     OW12076   6.472   4.246   0.774
 3726SOL    HW112077   6.404   4.226   0.704
 3726SOL    HW212078   6.545   4.301   0.735
 3727SOL     OW12079   6.886   1.935   5.455
 3727SOL    HW112080   6.855   1.961   5.546
 3727SOL    HW212081   6.985   1.948   5.449
 3728SOL     OW12082   0.676   4.594   0.027
 3728SOL    HW112083   0.646   4.509   0.072
 3728SOL    HW212084   0.728   4.572   6.966
 3729SOL     OW12085   1.043   2.046   3.387
 3729SOL    HW112086   1.012   1.961   3.344
 3729SOL    HW212087   0.964   2.105   3.403
 3730SOL     OW12088   2.656   5.177   6.305
 3730SOL    HW112089   2.663   5.107   6.376
 3730SOL    HW212090   2.700   5.144   6.222
 3731SOL     OW12091   5.561   0.139   1.096
 3731SOL    HW112092   5.570   0.040   1.110
 3731SOL    HW212093   5.479   0.172   1.142
 3732SOL     OW12094   2.559   2.091   5.902
 3732SOL    HW112095   2.634   2.084   5.836
 3732SOL    HW212096   2.472   2.075   5.855
 3733SOL     OW12097   1.235   3.377   1.896
 3733SOL    HW112098   1.260   3.318   1.820
 3733SOL    HW212099   1.220   3.322   1.978
 3734SOL     OW12100   4.851   1.233   1.991
 3734SOL    HW112101   4.941   1.197   2.014
 3734SOL    HW212102   4.784   1.159   1.987
 3735SOL     OW12103   2.596   0.910   3.755
 3735SOL    HW112104   2.666   0.872   3.694
 3735SOL    HW212105   2.519   0.847   3.760
 3736SOL     OW12106   7.011   2.408   0.552
 3736SOL    HW112107   6.958   2.324   0.539
 3736SOL    HW212108   6.997   2.468   0.473
 3737SOL     OW12109   4.667   0.088   3.340
 3737SOL    HW112110   4.675   0.051   3.432
 3737SOL    HW212111   4.654   0.187   3.345
 3738SOL     OW12112   0.235   6.033   1.893
 3738SOL    HW112113   0.299   5.967   1.853
 3738SOL    HW212114   0.173   6.067   1.823
 3739SOL     OW12115   2.623   4.788   1.628
 3739SOL    HW112116   2.596   4.732   1.550
 3739SOL    HW212117   2.621   4.733   1.711
 3740SOL     OW12118   5.808   0.500   0.526
 3740SOL    HW112119   5.800   0.403   0.501
 3740SOL    HW212120   5.765   0.516   0.615
 3741SOL     OW12121   5.418   3.042   1.350
 3741SOL    HW112122   5.460   2.983   1.281
 3741SOL    HW212123   5.444   3.011   1.441
 3742SOL     OW12124   2.476   2.281   6.658
 3742SOL    HW112125   2.470   2.236   6.747
 3742SOL    HW212126   2.435   2.223   6.588
 3743SOL     OW12127   5.196   3.060   0.979
 3743SOL    HW112128   5.115   3.004   0.962
 3743SOL    HW212129   5.278   3.004   0.967
 3744SOL     OW12130   0.707   6.126   2.806
 3744SOL    HW112131   0.739   6.074   2.885
 3744SOL    HW212132   0.761   6.100   2.726
 3745SOL     OW12133   3.753   4.980   1.868
 3745SOL    HW112134   3.687   4.910   1.894
 3745SOL    HW212135   3.773   4.973   1.771
 3746SOL     OW12136   5.776   1.003   2.886
 3746SOL    HW112137   5.810   1.062   2.812
 3746SOL    HW212138   5.771   1.056   2.970
 3747SOL     OW12139   2.961   0.054   5.569
 3747SOL    HW112140   3.050   0.039   5.612
 3747SOL    HW212141   2.914   6.987   5.558
 3748SOL     OW12142   5.938   0.400   1.615
 3748SOL    HW112143   5.905   0.481   1.567
 3748SOL    HW212144   5.948   0.420   1.712
 3749SOL     OW12145   1.941   6.242   3.888
 3749SOL    HW112146   1.890   6.160   3.863
 3749SOL    HW212147   1.981   6.282   3.805
 3750SOL     OW12148   1.524   4.072   0.694
 3750SOL    HW112149   1.610   4.033   0.726
 3750SOL    HW212150   1.448   4.018   0.729
 3751SOL     OW12151   0.039   3.546   1.963
 3751SOL    HW112152   0.077   3.544   1.871
 3751SOL    HW212153   0.094   3.488   2.023
 3752SOL     OW12154   5.373   0.859   6.580
 3752SOL    HW112155   5.387   0.872   6.678
 3752SOL    HW212156   5.307   0.785   6.566
 3753SOL     OW12157   6.804   0.502   5.687
 3753SOL    HW112158   6.718   0.475   5.730
 3753SOL    HW212159   6.790   0.584   5.632
 3754SOL     OW12160   1.696   0.251   1.152
 3754SOL    HW112161   1.699   0.161   1.109
 3754SOL    HW212162   1.774   0.262   1.213
 3755SOL     OW12163   4.498   5.408   5.116
 3755SOL    HW112164   4.405   5.414   5.153
 3755SOL    HW212165   4.529   5.313   5.118
 3756SOL     OW12166   2.898   5.239   5.998
 3756SOL    HW112167   2.868   5.252   5.904
 3756SOL    HW212168   2.879   5.322   6.051
 3757SOL     OW12169   6.335   4.883   1.974
 3757SOL    HW112170   6.405   4.834   1.922
 3757SOL    HW212171   6.265   4.818   2.005
 3758SOL     OW12172   2.406   1.563   4.740
 3758SOL    HW112173   2.364   1.654   4.736
 3758SOL    HW212174   2.336   1.494   4.726
 3759SOL     OW12175   4.046   0.349   5.773
 3759SOL    HW112176   4.037   0.343   5.873
 3759SOL    HW212177   4.047   0.445   5.745
 3760SOL     OW12178   0.861   1.610   4.175
 3760SOL    HW112179   0.880   1.698   4.132
 3760SOL    HW212180   0.859   1.539   4.105
 3761SOL     OW12181   6.638   1.286   5.452
 3761SOL    HW112182   6.724   1.327   5.484
 3761SOL    HW212183   6.606   1.335   5.371
 3762SOL     OW12184   1.563   4.562   1.227
 3762SOL    HW112185   1.486   4.594   1.282
 3762SOL    HW212186   1.542   4.575   1.130
 3763SOL     OW12187   0.578   3.626   6.844
 3763SOL    HW112188   0.517   3.647   6.920
 3763SOL    HW212189   0.600   3.710   6.793
 3764SOL     OW12190   1.149   6.909   2.093
 3764SOL    HW112191   1.121   6.902   2.188
 3764SOL    HW212192   1.073   6.942   2.037
 3765SOL     OW12193   5.879   1.270   0.912
 3765SOL    HW112194   5.906   1.358   0.953
 3765SOL    HW212195   5.871   1.280   0.813
 3766SOL     OW12196   2.041   2.407   4.104
 3766SOL    HW112197   2.127   2.379   4.147
 3766SOL    HW212198   1.971   2.338   4.121
 3767SOL     OW12199   3.174   4.435   0.234
 3767SOL    HW112200   3.266   4.475   0.232
 3767SOL    HW212201   3.163   4.383   0.318
 3768SOL     OW12202   0.784   6.870   4.736
 3768SOL    HW112203   0.775   6.821   4.822
 3768SOL    HW212204   0.802   6.967   4.754
 3769SOL     OW12205   6.048   5.354   4.837
 3769SOL    HW112206   6.068   5.406   4.920
 3769SOL    HW212207   6.126   5.360   4.774
 3770SOL     OW12208   0.903   0.804   6.757
 3770SOL    HW112209   0.880   0.841   6.847
 3770SOL    HW212210   0.823   0.761   6.717
 3771SOL     OW12211   5.157   4.139   0.144
 3771SOL    HW112212   5.063   4.145   0.177
 3771SOL    HW212213   5.202   4.228   0.156
 3772SOL     OW12214   0.341   0.401   0.222
 3772SOL    HW112215   0.380   0.366   0.138
 3772SOL    HW212216   0.255   0.353   0.243
 3773SOL     OW12217   6.062   3.537   5.471
 3773SOL    HW112218   6.152   3.493   5.465
 3773SOL    HW212219   6.026   3.552   5.380
 3774SOL     OW12220   5.771   5.623   1.609
 3774SOL    HW112221   5.737   5.676   1.687
 3774SOL    HW212222   5.742   5.665   1.524
 3775SOL     OW12223   4.823   5.344   2.724
 3775SOL    HW112224   4.916   5.333   2.690
 3775SOL    HW212225   4.814   5.296   2.812
 3776SOL     OW12226   3.867   2.608   6.910
 3776SOL    HW112227   3.931   2.682   6.931
 3776SOL    HW212228   3.800   2.599   6.984
 3777SOL     OW12229   2.799   4.867   3.475
 3777SOL    HW112230   2.887   4.916   3.471
 3777SOL    HW212231   2.771   4.856   3.570
 3778SOL     OW12232   2.762   5.136   3.112
 3778SOL    HW112233   2.714   5.111   3.196
 3778SOL    HW212234   2.732   5.077   3.037
 3779SOL     OW12235   0.748   4.729   1.308
 3779SOL    HW112236   0.848   4.730   1.319
 3779SOL    HW212237   0.725   4.692   1.218
 3780SOL     OW12238   6.359   4.245   4.811
 3780SOL    HW112239   6.434   4.202   4.759
 3780SOL    HW212240   6.318   4.317   4.756
 3781SOL     OW12241   0.371   6.854   3.784
 3781SOL    HW112242   0.304   6.784   3.807
 3781SOL    HW212243   0.328   6.924   3.726
 3782SOL     OW12244   2.749   0.419   2.891
 3782SOL    HW112245   2.845   0.427   2.916
 3782SOL    HW212246   2.741   0.395   2.794
 3783SOL     OW12247   5.881   5.337   4.237
 3783SOL    HW112248   5.853   5.256   4.185
 3783SOL    HW212249   5.940   5.395   4.180
 3784SOL     OW12250   5.053   2.917   2.837
 3784SOL    HW112251   4.967   2.910   2.887
 3784SOL    HW212252   5.039   2.968   2.752
 3785SOL     OW12253   1.493   3.297   5.180
 3785SOL    HW112254   1.479   3.389   5.217
 3785SOL    HW212255   1.584   3.264   5.206
 3786SOL     OW12256   2.249   4.120   2.977
 3786SOL    HW112257   2.226   4.023   2.983
 3786SOL    HW212258   2.259   4.146   2.881
 3787SOL     OW12259   5.799   0.865   2.168
 3787SOL    HW112260   5.827   0.868   2.073
 3787SOL    HW212261   5.701   0.843   2.173
 3788SOL     OW12262   0.049   4.399   4.931
 3788SOL    HW112263   0.142   4.388   4.965
 3788SOL    HW212264   0.028   4.496   4.919
 3789SOL     OW12265   6.926   3.542   3.869
 3789SOL    HW112266   6.967   3.586   3.789
 3789SOL    HW212267   6.904   3.447   3.847
 3790SOL     OW12268   1.275   5.130   5.744
 3790SOL    HW112269   1.257   5.093   5.653
 3790SOL    HW212270   1.217   5.083   5.811
 3791SOL     OW12271   4.911   1.886   6.528
 3791SOL    HW112272   5.003   1.914   6.556
 3791SOL    HW212273   4.851   1.886   6.608
 3792SOL     OW12274   1.293   1.990   3.264
 3792SOL    HW112275   1.214   2.012   3.321
 3792SOL    HW212276   1.377   2.003   3.317
 3793SOL     OW12277   4.303   6.708   1.900
 3793SOL    HW112278   4.238   6.709   1.824
 3793SOL    HW212279   4.280   6.782   1.964
 3794SOL     OW12280   2.538   2.841   1.767
 3794SOL    HW112281   2.478   2.870   1.692
 3794SOL    HW212282   2.496   2.764   1.815
 3795SOL     OW12283   4.776   5.908   1.093
 3795SOL    HW112284   4.801   5.919   0.997
 3795SOL    HW212285   4.721   5.825   1.103
 3796SOL     OW12286   4.523   2.090   2.641
 3796SOL    HW112287   4.593   2.142   2.690
 3796SOL    HW212288   4.557   1.998   2.622
 3797SOL     OW12289   0.439   3.410   3.009
 3797SOL    HW112290   0.487   3.412   3.096
 3797SOL    HW212291   0.472   3.484   2.951
 3798SOL     OW12292   2.547   6.187   2.609
 3798SOL    HW112293   2.610   6.257   2.575
 3798SOL    HW212294   2.454   6.224   2.608
 3799SOL     OW12295   6.516   2.885   3.693
 3799SOL    HW112296   6.585   2.817   3.667
 3799SOL    HW212297   6.496   2.944   3.615
 3800SOL     OW12298   5.413   1.439   3.719
 3800SOL    HW112299   5.325   1.433   3.671
 3800SOL    HW212300   5.451   1.530   3.705
 3801SOL     OW12301   6.162   6.581   1.934
 3801SOL    HW112302   6.064   6.568   1.945
 3801SOL    HW212303   6.202   6.501   1.889
 3802SOL     OW12304   1.323   1.963   1.595
 3802SOL    HW112305   1.282   2.000   1.512
 3802SOL    HW212306   1.396   1.899   1.570
 3803SOL     OW12307   3.926   3.582   3.137
 3803SOL    HW112308   3.976   3.576   3.051
 3803SOL    HW212309   3.990   3.581   3.213
 3804SOL     OW12310   4.202   0.984   3.234
 3804SOL    HW112311   4.208   1.080   3.262
 3804SOL    HW212312   4.255   0.927   3.297
 3805SOL     OW12313   1.882   3.156   1.981
 3805SOL    HW112314   1.959   3.178   2.042
 3805SOL    HW212315   1.798   3.192   2.019
 3806SOL     OW12316   3.667   3.815   5.684
 3806SOL    HW112317   3.677   3.768   5.771
 3806SOL    HW212318   3.744   3.792   5.625
 3807SOL     OW12319   2.016   5.249   2.931
 3807SOL    HW112320   1.989   5.342   2.958
 3807SOL    HW212321   2.114   5.245   2.916
 3808SOL     OW12322   4.134   1.225   0.329
 3808SOL    HW112323   4.231   1.205   0.325
 3808SOL    HW212324   4.119   1.318   0.363
 3809SOL     OW12325   5.615   2.615   1.445
 3809SOL    HW112326   5.546   2.560   1.492
 3809SOL    HW212327   5.698   2.561   1.433
 3810SOL     OW12328   5.654   2.871   3.773
 3810SOL    HW112329   5.688   2.793   3.721
 3810SOL    HW212330   5.612   2.937   3.710
 3811SOL     OW12331   0.027   6.469   4.653
 3811SOL    HW112332   0.091   6.396   4.678
 3811SOL    HW212333   0.076   6.557   4.654
 3812SOL     OW12334   4.363   5.064   5.145
 3812SOL    HW112335   4.448   5.116   5.137
 3812SOL    HW212336   4.305   5.084   5.067
 3813SOL     OW12337   5.432   3.830   0.146
 3813SOL    HW112338   5.338   3.862   0.145
 3813SOL    HW212339   5.451   3.782   0.232
 3814SOL     OW12340   6.600   0.256   5.392
 3814SOL    HW112341   6.576   0.342   5.436
 3814SOL    HW212342   6.669   0.272   5.322
 3815SOL     OW12343   3.700   1.788   1.075
 3815SOL    HW112344   3.688   1.689   1.075
 3815SOL    HW212345   3.611   1.833   1.072
 3816SOL     OW12346   1.503   4.984   6.560
 3816SOL    HW112347   1.454   4.926   6.625
 3816SOL    HW212348   1.469   4.967   6.468
 3817SOL     OW12349   5.022   3.432   2.161
 3817SOL    HW112350   5.116   3.417   2.194
 3817SOL    HW212351   5.002   3.365   2.089
 3818SOL     OW12352   6.216   1.395   0.023
 3818SOL    HW112353   6.306   1.356   0.043
 3818SOL    HW212354   6.166   1.333   6.984
 3819SOL     OW12355   5.787   5.605   2.833
 3819SOL    HW112356   5.860   5.621   2.900
 3819SOL    HW212357   5.729   5.530   2.865
 3820SOL     OW12358   5.188   0.027   4.059
 3820SOL    HW112359   5.265   0.085   4.083
 3820SOL    HW212360   5.198   6.958   4.102
 3821SOL     OW12361   1.666   0.700   1.874
 3821SOL    HW112362   1.669   0.726   1.971
 3821SOL    HW212363   1.614   0.768   1.823
 3822SOL     OW12364   2.465   6.825   0.457
 3822SOL    HW112365   2.524   6.776   0.393
 3822SOL    HW212366   2.434   6.763   0.528
 3823SOL     OW12367   2.962   3.886   6.068
 3823SOL    HW112368   2.922   3.795   6.059
 3823SOL    HW212369   2.944   3.940   5.985
 3824SOL     OW12370   0.676   2.792   0.272
 3824SOL    HW112371   0.705   2.707   0.227
 3824SOL    HW212372   0.737   2.811   0.349
 3825SOL     OW12373   0.526   5.167   0.444
 3825SOL    HW112374   0.530   5.090   0.379
 3825SOL    HW212375   0.617   5.182   0.482
 3826SOL     OW12376   1.127   3.793   0.520
 3826SOL    HW112377   1.044   3.847   0.530
 3826SOL    HW212378   1.106   3.696   0.526
 3827SOL     OW12379   1.304   0.980   1.945
 3827SOL    HW112380   1.383   1.038   1.962
 3827SOL    HW212381   1.255   1.014   1.865
 3828SOL     OW12382   3.487   3.250   3.804
 3828SOL    HW112383   3.539   3.321   3.757
 3828SOL    HW212384   3.544   3.170   3.819
 3829SOL     OW12385   0.825   4.885   2.377
 3829SOL    HW112386   0.900   4.893   2.312
 3829SOL    HW212387   0.809   4.788   2.398
 3830SOL     OW12388   1.005   0.600   5.327
 3830SOL    HW112389   0.975   0.562   5.240
 3830SOL    HW212390   1.068   0.676   5.311
 3831SOL     OW12391   4.681   2.273   2.801
 3831SOL    HW112392   4.727   2.244   2.885
 3831SOL    HW212393   4.728   2.352   2.762
 3832SOL     OW12394   0.431   0.936   3.070
 3832SOL    HW112395   0.354   0.990   3.104
 3832SOL    HW212396   0.406   0.892   2.984
 3833SOL     OW12397   0.361   5.896   6.588
 3833SOL    HW112398   0.391   5.921   6.680
 3833SOL    HW212399   0.321   5.804   6.590
 3834SOL     OW12400   3.624   3.936   0.764
 3834SOL    HW112401   3.566   3.890   0.832
 3834SOL    HW212402   3.720   3.923   0.788
 3835SOL     OW12403   4.033   5.947   4.551
 3835SOL    HW112404   4.010   5.873   4.613
 3835SOL    HW212405   3.953   6.004   4.534
 3836SOL     OW12406   0.338   4.941   6.019
 3836SOL    HW112407   0.372   4.886   5.943
 3836SOL    HW212408   0.292   5.022   5.983
 3837SOL     OW12409   4.777   4.212   6.436
 3837SOL    HW112410   4.715   4.149   6.482
 3837SOL    HW212411   4.725   4.289   6.399
 3838SOL     OW12412   0.842   3.168   3.639
 3838SOL    HW112413   0.918   3.203   3.583
 3838SOL    HW212414   0.877   3.139   3.728
 3839SOL     OW12415   5.610   1.740   3.212
 3839SOL    HW112416   5.613   1.672   3.285
 3839SOL    HW212417   5.518   1.741   3.172
 3840SOL     OW12418   3.318   1.816   6.561
 3840SOL    HW112419   3.232   1.865   6.575
 3840SOL    HW212420   3.334   1.804   6.463
 3841SOL     OW12421   0.332   3.153   4.674
 3841SOL    HW112422   0.267   3.229   4.675
 3841SOL    HW212423   0.411   3.177   4.617
 3842SOL     OW12424   1.799   2.571   2.147
 3842SOL    HW112425   1.730   2.616   2.203
 3842SOL    HW212426   1.874   2.539   2.205
 3843SOL     OW12427   5.433   4.253   2.776
 3843SOL    HW112428   5.486   4.283   2.697
 3843SOL    HW212429   5.487   4.265   2.859
 3844SOL     OW12430   1.088   2.584   5.504
 3844SOL    HW112431   1.154   2.511   5.514
 3844SOL    HW212432   1.133   2.665   5.466
 3845SOL     OW12433   3.379   4.378   5.722
 3845SOL    HW112434   3.369   4.278   5.728
 3845SOL    HW212435   3.470   4.400   5.687
 3846SOL     OW12436   6.920   4.878   3.044
 3846SOL    HW112437   6.885   4.972   3.041
 3846SOL    HW212438   6.966   4.857   2.957
 3847SOL     OW12439   5.221   3.113   4.225
 3847SOL    HW112440   5.121   3.110   4.234
 3847SOL    HW212441   5.255   3.022   4.202
 3848SOL     OW12442   4.426   4.652   2.652
 3848SOL    HW112443   4.482   4.639   2.733
 3848SOL    HW212444   4.429   4.748   2.625
 3849SOL     OW12445   0.982   1.384   5.779
 3849SOL    HW112446   1.018   1.378   5.686
 3849SOL    HW212447   0.940   1.296   5.804
 3850SOL     OW12448   2.206   3.591   1.693
 3850SOL    HW112449   2.245   3.528   1.760
 3850SOL    HW212450   2.267   3.669   1.680
 3851SOL     OW12451   1.010   4.614   2.546
 3851SOL    HW112452   1.088   4.570   2.502
 3851SOL    HW212453   0.941   4.637   2.477
 3852SOL     OW12454   4.175   6.382   4.131
 3852SOL    HW112455   4.271   6.367   4.156
 3852SOL    HW212456   4.117   6.366   4.211
 3853SOL     OW12457   0.501   4.216   3.868
 3853SOL    HW112458   0.577   4.274   3.897
 3853SOL    HW212459   0.521   4.180   3.777
 3854SOL     OW12460   1.598   2.056   2.632
 3854SOL    HW112461   1.599   2.032   2.730
 3854SOL    HW212462   1.638   1.981   2.580
 3855SOL     OW12463   5.217   6.556   6.256
 3855SOL    HW112464   5.180   6.508   6.336
 3855SOL    HW212465   5.302   6.512   6.228
 3856SOL     OW12466   6.523   0.332   6.189
 3856SOL    HW112467   6.574   0.303   6.270
 3856SOL    HW212468   6.528   0.260   6.119
 3857SOL     OW12469   0.555   6.184   6.893
 3857SOL    HW112470   0.497   6.262   6.916
 3857SOL    HW212471   0.561   6.123   6.972
 3858SOL     OW12472   2.320   0.908   5.673
 3858SOL    HW112473   2.325   0.990   5.730
 3858SOL    HW212474   2.287   0.933   5.582
 3859SOL     OW12475   5.360   0.859   2.006
 3859SOL    HW112476   5.301   0.778   2.005
 3859SOL    HW212477   5.321   0.930   1.947
 3860SOL     OW12478   2.201   1.368   4.783
 3860SOL    HW112479   2.103   1.355   4.768
 3860SOL    HW212480   2.246   1.278   4.790
 3861SOL     OW12481   4.356   5.378   3.048
 3861SOL    HW112482   4.341   5.477   3.056
 3861SOL    HW212483   4.392   5.357   2.957
 3862SOL     OW12484   0.586   0.649   5.065
 3862SOL    HW112485   0.555   0.572   5.121
 3862SOL    HW212486   0.518   0.722   5.069
 3863SOL     OW12487   5.664   2.766   0.117
 3863SOL    HW112488   5.602   2.843   0.099
 3863SOL    HW212489   5.712   2.782   0.203
 3864SOL     OW12490   2.268   0.779   5.265
 3864SOL    HW112491   2.366   0.761   5.275
 3864SOL    HW212492   2.241   0.850   5.329
 3865SOL     OW12493   3.570   0.946   0.486
 3865SOL    HW112494   3.632   1.021   0.462
 3865SOL    HW212495   3.528   0.910   0.404
 3866SOL     OW12496   3.304   0.510   1.026
 3866SOL    HW112497   3.290   0.459   1.110
 3866SOL    HW212498   3.287   0.450   0.947
 3867SOL     OW12499   0.581   5.150   3.993
 3867SOL    HW112500   0.531   5.165   3.908
 3867SOL    HW212501   0.671   5.194   3.988
 3868SOL     OW12502   3.031   6.734   0.368
 3868SOL    HW112503   3.032   6.721   0.467
 3868SOL    HW212504   2.969   6.809   0.345
 3869SOL     OW12505   6.163   4.135   4.970
 3869SOL    HW112506   6.244   4.182   4.935
 3869SOL    HW212507   6.082   4.191   4.953
 3870SOL     OW12508   6.091   5.904   0.217
 3870SOL    HW112509   6.049   5.994   0.218
 3870SOL    HW212510   6.121   5.880   0.310
 3871SOL     OW12511   3.016   0.325   2.755
 3871SOL    HW112512   3.113   0.304   2.738
 3871SOL    HW212513   2.960   0.245   2.734
 3872SOL     OW12514   3.890   3.046   3.920
 3872SOL    HW112515   3.832   2.971   3.950
 3872SOL    HW212516   3.918   3.101   3.998
 3873SOL     OW12517   6.725   2.945   0.988
 3873SOL    HW112518   6.654   2.921   0.922
 3873SOL    HW212519   6.762   2.861   1.029
 3874SOL     OW12520   4.391   6.140   6.680
 3874SOL    HW112521   4.348   6.197   6.610
 3874SOL    HW212522   4.321   6.090   6.731
 3875SOL     OW12523   2.143   3.287   2.371
 3875SOL    HW112524   2.102   3.242   2.451
 3875SOL    HW212525   2.235   3.252   2.357
 3876SOL     OW12526   3.881   5.593   1.404
 3876SOL    HW112527   3.799   5.606   1.348
 3876SOL    HW212528   3.877   5.504   1.449
 3877SOL     OW12529   5.694   2.781   0.729
 3877SOL    HW112530   5.665   2.806   0.637
 3877SOL    HW212531   5.793   2.792   0.736
 3878SOL     OW12532   3.284   0.265   4.406
 3878SOL    HW112533   3.343   0.327   4.355
 3878SOL    HW212534   3.265   0.184   4.351
 3879SOL     OW12535   5.609   5.475   1.345
 3879SOL    HW112536   5.523   5.430   1.368
 3879SOL    HW212537   5.597   5.529   1.262
 3880SOL     OW12538   5.304   4.820   4.756
 3880SOL    HW112539   5.247   4.738   4.746
 3880SOL    HW212540   5.400   4.793   4.766
 3881SOL     OW12541   1.248   3.396   1.526
 3881SOL    HW112542   1.324   3.450   1.562
 3881SOL    HW212543   1.172   3.457   1.503
 3882SOL     OW12544   1.303   1.227   5.652
 3882SOL    HW112545   1.304   1.143   5.705
 3882SOL    HW212546   1.363   1.295   5.695
 3883SOL     OW12547   3.941   0.940   3.116
 3883SOL    HW112548   4.004   0.989   3.176
 3883SOL    HW212549   3.976   0.848   3.099
 3884SOL     OW12550   0.585   5.454   3.213
 3884SOL    HW112551   0.499   5.436   3.165
 3884SOL    HW212552   0.629   5.367   3.235
 3885SOL     OW12553   6.792   0.265   2.908
 3885SOL    HW112554   6.772   0.230   2.817
 3885SOL    HW212555   6.872   0.218   2.945
 3886SOL     OW12556   5.968   5.790   5.246
 3886SOL    HW112557   5.879   5.761   5.283
 3886SOL    HW212558   5.954   5.867   5.184
 3887SOL     OW12559   0.032   0.653   6.053
 3887SOL    HW112560   0.084   0.574   6.086
 3887SOL    HW212561   7.005   0.628   5.968
 3888SOL     OW12562   6.954   0.447   5.274
 3888SOL    HW112563   6.888   0.375   5.254
 3888SOL    HW212564   0.014   0.435   5.217
 3889SOL     OW12565   7.011   3.793   6.424
 3889SOL    HW112566   6.961   3.720   6.471
 3889SOL    HW212567   0.055   3.835   6.487
 3890SOL     OW12568   5.807   5.381   3.025
 3890SOL    HW112569   5.793   5.314   2.952
 3890SOL    HW212570   5.720   5.396   3.073
 3891SOL     OW12571   5.603   4.584   5.192
 3891SOL    HW112572   5.560   4.598   5.281
 3891SOL    HW212573   5.588   4.664   5.134
 3892SOL     OW12574   0.346   2.218   1.411
 3892SOL    HW112575   0.441   2.249   1.403
 3892SOL    HW212576   0.285   2.296   1.397
 3893SOL     OW12577   4.532   3.929   1.294
 3893SOL    HW112578   4.496   3.907   1.384
 3893SOL    HW212579   4.632   3.920   1.295
 3894SOL     OW12580   3.158   1.901   1.507
 3894SOL    HW112581   3.191   1.924   1.416
 3894SOL    HW212582   3.182   1.807   1.529
 3895SOL     OW12583   1.621   0.759   5.666
 3895SOL    HW112584   1.534   0.781   5.621
 3895SOL    HW212585   1.624   0.661   5.686
 3896SOL     OW12586   0.029   0.473   5.798
 3896SOL    HW112587   6.951   0.477   5.787
 3896SOL    HW212588   0.052   0.401   5.864
 3897SOL     OW12589   3.438   5.747   2.465
 3897SOL    HW112590   3.509   5.783   2.526
 3897SOL    HW212591   3.454   5.650   2.449
 3898SOL     OW12592   3.187   3.751   4.791
 3898SOL    HW112593   3.188   3.765   4.890
 3898SOL    HW212594   3.108   3.798   4.752
 3899SOL     OW12595   5.818   0.141   4.951
 3899SOL    HW112596   5.813   0.043   4.974
 3899SOL    HW212597   5.749   0.191   5.003
 3900SOL     OW12598   5.054   2.937   4.079
 3900SOL    HW112599   5.101   2.939   3.991
 3900SOL    HW212600   5.064   2.847   4.120
 3901SOL     OW12601   3.097   0.525   5.664
 3901SOL    HW112602   3.166   0.539   5.593
 3901SOL    HW212603   3.108   0.595   5.735
 3902SOL     OW12604   5.961   3.576   2.211
 3902SOL    HW112605   5.960   3.489   2.161
 3902SOL    HW212606   6.037   3.632   2.179
 3903SOL     OW12607   4.408   5.610   0.206
 3903SOL    HW112608   4.313   5.635   0.188
 3903SOL    HW212609   4.414   5.566   0.295
 3904SOL     OW12610   2.050   0.458   4.543
 3904SOL    HW112611   1.996   0.541   4.535
 3904SOL    HW212612   2.002   0.383   4.497
 3905SOL     OW12613   6.841   0.054   5.858
 3905SOL    HW112614   6.842   0.097   5.767
 3905SOL    HW212615   6.768   7.006   5.861
 3906SOL     OW12616   3.853   5.255   4.892
 3906SOL    HW112617   3.891   5.256   4.800
 3906SOL    HW212618   3.800   5.171   4.906
 3907SOL     OW12619   6.312   6.779   5.452
 3907SOL    HW112620   6.388   6.840   5.474
 3907SOL    HW212621   6.226   6.828   5.461
 3908SOL     OW12622   0.877   0.923   0.238
 3908SOL    HW112623   0.937   0.904   0.316
 3908SOL    HW212624   0.795   0.971   0.271
 3909SOL     OW12625   0.403   5.534   5.455
 3909SOL    HW112626   0.457   5.505   5.377
 3909SOL    HW212627   0.307   5.512   5.440
 3910SOL     OW12628   3.540   3.766   1.933
 3910SOL    HW112629   3.542   3.696   1.861
 3910SOL    HW212630   3.479   3.736   2.006
 3911SOL     OW12631   4.161   1.362   0.075
 3911SOL    HW112632   4.172   1.269   0.039
 3911SOL    HW212633   4.124   1.357   0.168
 3912SOL     OW12634   3.021   0.759   6.235
 3912SOL    HW112635   2.943   0.728   6.289
 3912SOL    HW212636   2.990   0.793   6.146
 3913SOL     OW12637   2.157   5.925   5.978
 3913SOL    HW112638   2.171   6.009   5.925
 3913SOL    HW212639   2.230   5.860   5.958
 3914SOL     OW12640   3.848   1.282   1.191
 3914SOL    HW112641   3.875   1.319   1.279
 3914SOL    HW212642   3.751   1.298   1.176
 3915SOL     OW12643   3.587   6.409   1.739
 3915SOL    HW112644   3.614   6.324   1.694
 3915SOL    HW212645   3.497   6.437   1.707
 3916SOL     OW12646   1.644   5.989   2.761
 3916SOL    HW112647   1.647   6.086   2.785
 3916SOL    HW212648   1.737   5.955   2.749
 3917SOL     OW12649   1.284   4.587   6.829
 3917SOL    HW112650   1.205   4.527   6.844
 3917SOL    HW212651   1.361   4.533   6.795
 3918SOL     OW12652   5.497   6.706   2.616
 3918SOL    HW112653   5.488   6.667   2.525
 3918SOL    HW212654   5.437   6.786   2.624
 3919SOL     OW12655   2.939   6.022   6.709
 3919SOL    HW112656   2.977   5.934   6.738
 3919SOL    HW212657   2.974   6.045   6.618
 3920SOL     OW12658   2.865   2.526   6.753
 3920SOL    HW112659   2.769   2.510   6.774
 3920SOL    HW212660   2.876   2.540   6.654
 3921SOL     OW12661   6.938   3.135   0.957
 3921SOL    HW112662   6.937   3.186   1.043
 3921SOL    HW212663   6.867   3.064   0.961
 3922SOL     OW12664   5.591   4.343   1.383
 3922SOL    HW112665   5.565   4.247   1.370
 3922SOL    HW212666   5.646   4.373   1.305
 3923SOL     OW12667   6.819   1.911   0.451
 3923SOL    HW112668   6.882   1.835   0.463
 3923SOL    HW212669   6.742   1.901   0.514
 3924SOL     OW12670   0.171   5.637   3.226
 3924SOL    HW112671   0.199   5.730   3.205
 3924SOL    HW212672   0.082   5.618   3.184
 3925SOL     OW12673   3.728   4.296   1.031
 3925SOL    HW112674   3.630   4.277   1.043
 3925SOL    HW212675   3.742   4.395   1.025
 3926SOL     OW12676   6.409   5.591   2.556
 3926SOL    HW112677   6.501   5.550   2.562
 3926SOL    HW212678   6.345   5.538   2.612
 3927SOL     OW12679   0.143   3.743   3.714
 3927SOL    HW112680   0.058   3.795   3.726
 3927SOL    HW212681   0.200   3.753   3.795
 3928SOL     OW12682   2.998   5.260   4.854
 3928SOL    HW112683   2.912   5.268   4.804
 3928SOL    HW212684   3.008   5.338   4.916
 3929SOL     OW12685   0.586   2.128   6.523
 3929SOL    HW112686   0.613   2.075   6.603
 3929SOL    HW212687   0.553   2.065   6.452
 3930SOL     OW12688   1.914   1.565   4.057
 3930SOL    HW112689   1.941   1.657   4.027
 3930SOL    HW212690   1.833   1.571   4.114
 3931SOL     OW12691   2.032   1.742   2.756
 3931SOL    HW112692   2.066   1.664   2.703
 3931SOL    HW212693   2.009   1.817   2.694
 3932SOL     OW12694   1.373   4.266   2.897
 3932SOL    HW112695   1.465   4.226   2.896
 3932SOL    HW212696   1.366   4.332   2.972
 3933SOL     OW12697   2.373   6.879   6.469
 3933SOL    HW112698   2.414   6.928   6.546
 3933SOL    HW212699   2.310   6.809   6.504
 3934SOL     OW12700   0.397   0.821   1.284
 3934SOL    HW112701   0.304   0.842   1.253
 3934SOL    HW212702   0.420   0.726   1.259
 3935SOL     OW12703   2.126   6.836   5.668
 3935SOL    HW112704   2.045   6.825   5.725
 3935SOL    HW212705   2.173   6.921   5.693
 3936SOL     OW12706   0.220   5.340   5.481
 3936SOL    HW112707   0.287   5.273   5.513
 3936SOL    HW212708   0.142   5.342   5.544
 3937SOL     OW12709   0.547   0.376   2.195
 3937SOL    HW112710   0.459   0.338   2.224
 3937SOL    HW212711   0.588   0.427   2.271
 3938SOL     OW12712   6.561   2.493   3.989
 3938SOL    HW112713   6.627   2.517   3.918
 3938SOL    HW212714   6.608   2.446   4.064
 3939SOL     OW12715   2.917   1.888   2.571
 3939SOL    HW112716   2.868   1.804   2.594
 3939SOL    HW212717   2.850   1.962   2.558
 3940SOL     OW12718   4.050   4.882   2.071
 3940SOL    HW112719   4.124   4.828   2.029
 3940SOL    HW212720   4.089   4.956   2.125
 3941SOL     OW12721   5.270   1.637   6.435
 3941SOL    HW112722   5.235   1.561   6.380
 3941SOL    HW212723   5.345   1.682   6.386
 3942SOL     OW12724   0.663   6.829   5.435
 3942SOL    HW112725   0.723   6.797   5.508
 3942SOL    HW212726   0.606   6.753   5.403
 3943SOL     OW12727   0.873   3.724   2.762
 3943SOL    HW112728   0.783   3.724   2.717
 3943SOL    HW212729   0.914   3.633   2.752
 3944SOL     OW12730   5.901   4.123   5.738
 3944SOL    HW112731   5.858   4.201   5.782
 3944SOL    HW212732   5.846   4.095   5.659
 3945SOL     OW12733   1.218   2.243   2.026
 3945SOL    HW112734   1.247   2.153   1.993
 3945SOL    HW212735   1.166   2.232   2.110
 3946SOL     OW12736   6.263   4.616   5.926
 3946SOL    HW112737   6.249   4.701   5.875
 3946SOL    HW212738   6.312   4.636   6.011
 3947SOL     OW12739   5.951   5.216   1.763
 3947SOL    HW112740   5.886   5.187   1.834
 3947SOL    HW212741   6.030   5.154   1.764
 3948SOL     OW12742   1.231   5.072   1.289
 3948SOL    HW112743   1.294   5.110   1.221
 3948SOL    HW212744   1.280   5.060   1.376
 3949SOL     OW12745   5.520   0.560   2.562
 3949SOL    HW112746   5.592   0.516   2.509
 3949SOL    HW212747   5.541   0.657   2.574
 3950SOL     OW12748   3.224   3.851   1.605
 3950SOL    HW112749   3.152   3.883   1.667
 3950SOL    HW212750   3.312   3.885   1.638
 3951SOL     OW12751   0.027   6.918   0.042
 3951SOL    HW112752   6.990   6.917   6.980
 3951SOL    HW212753   6.989   6.921   0.123
 3952SOL     OW12754   6.840   3.894   4.407
 3952SOL    HW112755   6.756   3.890   4.353
 3952SOL    HW212756   6.846   3.983   4.454
 3953SOL     OW12757   3.009   4.244   0.756
 3953SOL    HW112758   2.982   4.282   0.667
 3953SOL    HW212759   3.068   4.309   0.804
 3954SOL     OW12760   6.048   5.213   5.701
 3954SOL    HW112761   6.044   5.292   5.639
 3954SOL    HW212762   6.093   5.136   5.655
 3955SOL     OW12763   3.878   6.619   6.957
 3955SOL    HW112764   3.893   6.589   6.863
 3955SOL    HW212765   3.960   6.600   7.011
 3956SOL     OW12766   0.892   2.339   3.149
 3956SOL    HW112767   0.935   2.429   3.159
 3956SOL    HW212768   0.867   2.304   3.239
 3957SOL     OW12769   4.844   6.848   3.339
 3957SOL    HW112770   4.774   6.783   3.307
 3957SOL    HW212771   4.931   6.828   3.293
 3958SOL     OW12772   5.702   0.200   6.223
 3958SOL    HW112773   5.757   0.190   6.141
 3958SOL    HW212774   5.692   0.111   6.268
 3959SOL     OW12775   3.322   6.687   0.996
 3959SOL    HW112776   3.278   6.604   0.962
 3959SOL    HW212777   3.294   6.704   1.091
 3960SOL     OW12778   4.946   1.733   6.302
 3960SOL    HW112779   4.907   1.797   6.368
 3960SOL    HW212780   4.936   1.639   6.336
 3961SOL     OW12781   5.712   2.452   2.132
 3961SOL    HW112782   5.767   2.536   2.132
 3961SOL    HW212783   5.722   2.406   2.220
 3962SOL     OW12784   1.855   5.294   6.811
 3962SOL    HW112785   1.924   5.222   6.817
 3962SOL    HW212786   1.855   5.348   6.895
 3963SOL     OW12787   4.609   4.368   4.012
 3963SOL    HW112788   4.512   4.393   4.007
 3963SOL    HW212789   4.658   4.438   4.065
 3964SOL     OW12790   4.624   4.794   3.862
 3964SOL    HW112791   4.566   4.722   3.826
 3964SOL    HW212792   4.718   4.781   3.831
 3965SOL     OW12793   3.834   3.100   5.901
 3965SOL    HW112794   3.765   3.145   5.957
 3965SOL    HW212795   3.804   3.007   5.878
 3966SOL     OW12796   6.178   5.384   0.454
 3966SOL    HW112797   6.196   5.287   0.470
 3966SOL    HW212798   6.080   5.400   0.449
 3967SOL     OW12799   1.541   3.897   2.766
 3967SOL    HW112800   1.594   3.981   2.765
 3967SOL    HW212801   1.604   3.819   2.773
 3968SOL     OW12802   6.515   0.192   1.461
 3968SOL    HW112803   6.477   0.283   1.476
 3968SOL    HW212804   6.560   0.188   1.372
 3969SOL     OW12805   1.495   3.507   2.468
 3969SOL    HW112806   1.468   3.512   2.372
 3969SOL    HW212807   1.414   3.511   2.526
 3970SOL     OW12808   5.268   5.512   4.055
 3970SOL    HW112809   5.331   5.497   3.979
 3970SOL    HW212810   5.291   5.451   4.131
 3971SOL     OW12811   2.696   4.972   1.936
 3971SOL    HW112812   2.766   4.951   1.868
 3971SOL    HW212813   2.620   4.908   1.927
 3972SOL     OW12814   1.531   5.660   0.680
 3972SOL    HW112815   1.546   5.729   0.609
 3972SOL    HW212816   1.587   5.682   0.760
 3973SOL     OW12817   1.204   4.003   5.737
 3973SOL    HW112818   1.221   4.078   5.674
 3973SOL    HW212819   1.137   4.031   5.806
 3974SOL     OW12820   0.786   0.265   5.068
 3974SOL    HW112821   0.802   0.190   5.132
 3974SOL    HW212822   0.723   0.331   5.109
 3975SOL     OW12823   5.283   0.426   6.107
 3975SOL    HW112824   5.302   0.484   6.186
 3975SOL    HW212825   5.349   0.351   6.103
 3976SOL     OW12826   1.350   5.283   1.689
 3976SOL    HW112827   1.306   5.327   1.767
 3976SOL    HW212828   1.302   5.308   1.605
 3977SOL     OW12829   3.152   4.617   5.435
 3977SOL    HW112830   3.092   4.541   5.408
 3977SOL    HW212831   3.141   4.634   5.533
 3978SOL     OW12832   5.325   0.255   4.549
 3978SOL    HW112833   5.319   0.273   4.648
 3978SOL    HW212834   5.237   0.221   4.516
 3979SOL     OW12835   2.685   5.965   2.080
 3979SOL    HW112836   2.660   5.940   1.986
 3979SOL    HW212837   2.698   5.882   2.134
 3980SOL     OW12838   0.350   5.280   6.512
 3980SOL    HW112839   0.272   5.221   6.531
 3980SOL    HW212840   0.377   5.328   6.596
 3981SOL     OW12841   1.827   1.593   6.101
 3981SOL    HW112842   1.856   1.573   6.008
 3981SOL    HW212843   1.903   1.636   6.151
 3982SOL     OW12844   2.176   0.716   4.203
 3982SOL    HW112845   2.228   0.633   4.182
 3982SOL    HW212846   2.199   0.788   4.138
 3983SOL     OW12847   4.343   5.109   4.010
 3983SOL    HW112848   4.402   5.180   4.049
 3983SOL    HW212849   4.392   5.022   4.008
 3984SOL     OW12850   1.099   0.570   2.762
 3984SOL    HW112851   1.144   0.548   2.676
 3984SOL    HW212852   1.109   0.493   2.826
 3985SOL     OW12853   3.860   4.691   6.311
 3985SOL    HW112854   3.772   4.649   6.333
 3985SOL    HW212855   3.881   4.678   6.215
 3986SOL     OW12856   6.598   2.129   2.654
 3986SOL    HW112857   6.633   2.218   2.625
 3986SOL    HW212858   6.670   2.079   2.702
 3987SOL     OW12859   3.338   5.637   4.048
 3987SOL    HW112860   3.360   5.654   3.952
 3987SOL    HW212861   3.349   5.540   4.069
 3988SOL     OW12862   3.715   3.420   6.575
 3988SOL    HW112863   3.790   3.407   6.511
 3988SOL    HW212864   3.635   3.455   6.526
 3989SOL     OW12865   6.584   1.928   0.048
 3989SOL    HW112866   6.561   1.838   0.083
 3989SOL    HW212867   6.665   1.963   0.096
 3990SOL     OW12868   5.437   2.208   2.970
 3990SOL    HW112869   5.438   2.263   2.887
 3990SOL    HW212870   5.530   2.180   2.993
 3991SOL     OW12871   5.581   1.156   1.820
 3991SOL    HW112872   5.588   1.127   1.724
 3991SOL    HW212873   5.669   1.194   1.849
 3992SOL     OW12874   4.124   2.364   6.981
 3992SOL    HW112875   4.124   2.424   6.902
 3992SOL    HW212876   4.192   2.292   6.968
 3993SOL     OW12877   0.411   2.601   3.142
 3993SOL    HW112878   0.377   2.532   3.079
 3993SOL    HW212879   0.353   2.683   3.135
 3994SOL     OW12880   0.667   1.491   6.535
 3994SOL    HW112881   0.676   1.510   6.633
 3994SOL    HW212882   0.737   1.542   6.485
 3995SOL     OW12883   1.827   3.843   3.992
 3995SOL    HW112884   1.806   3.770   4.057
 3995SOL    HW212885   1.869   3.920   4.041
 3996SOL     OW12886   0.699   1.235   4.727
 3996SOL    HW112887   0.782   1.190   4.694
 3996SOL    HW212888   0.683   1.318   4.673
 3997SOL     OW12889   4.851   2.402   3.748
 3997SOL    HW112890   4.883   2.343   3.674
 3997SOL    HW212891   4.807   2.483   3.709
 3998SOL     OW12892   4.071   1.228   2.375
 3998SOL    HW112893   4.155   1.281   2.370
 3998SOL    HW212894   4.042   1.220   2.471
 3999SOL     OW12895   5.516   3.369   3.894
 3999SOL    HW112896   5.532   3.319   3.980
 3999SOL    HW212897   5.561   3.458   3.899
 4000SOL     OW12898   2.830   4.782   3.217
 4000SOL    HW112899   2.798   4.813   3.306
 4000SOL    HW212900   2.794   4.691   3.197
 4001SOL     OW12901   2.489   2.174   4.137
 4001SOL    HW112902   2.462   2.155   4.043
 4001SOL    HW212903   2.465   2.095   4.195
 4002SOL     OW12904   3.077   2.561   0.480
 4002SOL    HW112905   3.062   2.472   0.523
 4002SOL    HW212906   3.144   2.552   0.406
 4003SOL     OW12907   2.833   6.391   5.011
 4003SOL    HW112908   2.821   6.489   5.027
 4003SOL    HW212909   2.758   6.341   5.055
 4004SOL     OW12910   5.828   1.891   4.170
 4004SOL    HW112911   5.818   1.872   4.268
 4004SOL    HW212912   5.843   1.805   4.121
 4005SOL     OW12913   5.641   5.726   0.899
 4005SOL    HW112914   5.660   5.794   0.969
 4005SOL    HW212915   5.724   5.710   0.845
 4006SOL     OW12916   4.024   5.087   2.274
 4006SOL    HW112917   3.969   5.040   2.343
 4006SOL    HW212918   4.121   5.079   2.299
 4007SOL     OW12919   1.077   3.114   1.541
 4007SOL    HW112920   0.991   3.118   1.489
 4007SOL    HW212921   1.154   3.127   1.479
 4008SOL     OW12922   3.866   2.142   4.403
 4008SOL    HW112923   3.787   2.099   4.360
 4008SOL    HW212924   3.874   2.237   4.371
 4009SOL     OW12925   5.129   3.109   0.202
 4009SOL    HW112926   5.141   3.176   0.275
 4009SOL    HW212927   5.210   3.109   0.143
 4010SOL     OW12928   2.339   3.250   1.430
 4010SOL    HW112929   2.332   3.159   1.389
 4010SOL    HW212930   2.248   3.281   1.459
 4011SOL     OW12931   0.929   0.893   1.507
 4011SOL    HW112932   0.962   0.987   1.497
 4011SOL    HW212933   0.869   0.870   1.430
 4012SOL     OW12934   4.446   5.311   1.954
 4012SOL    HW112935   4.493   5.227   1.982
 4012SOL    HW212936   4.511   5.374   1.912
 4013SOL     OW12937   2.842   0.210   0.532
 4013SOL    HW112938   2.816   0.283   0.469
 4013SOL    HW212939   2.866   0.249   0.621
 4014SOL     OW12940   4.182   5.827   3.209
 4014SOL    HW112941   4.134   5.747   3.244
 4014SOL    HW212942   4.176   5.902   3.275
 4015SOL     OW12943   4.499   5.676   6.218
 4015SOL    HW112944   4.451   5.721   6.293
 4015SOL    HW212945   4.582   5.726   6.196
 4016SOL     OW12946   1.822   5.717   6.269
 4016SOL    HW112947   1.835   5.727   6.170
 4016SOL    HW212948   1.813   5.620   6.291
 4017SOL     OW12949   0.052   6.370   0.425
 4017SOL    HW112950   0.114   6.381   0.348
 4017SOL    HW212951   7.004   6.300   0.403
 4018SOL     OW12952   5.516   6.893   2.279
 4018SOL    HW112953   5.418   6.913   2.284
 4018SOL    HW212954   5.554   6.893   2.371
 4019SOL     OW12955   5.960   3.432   3.062
 4019SOL    HW112956   5.989   3.490   2.985
 4019SOL    HW212957   6.022   3.447   3.139
 4020SOL     OW12958   5.857   2.405   5.228
 4020SOL    HW112959   5.859   2.307   5.212
 4020SOL    HW212960   5.802   2.450   5.158
 4021SOL     OW12961   3.072   3.296   5.329
 4021SOL    HW112962   3.058   3.219   5.391
 4021SOL    HW212963   3.002   3.293   5.257
 4022SOL     OW12964   4.574   0.270   0.309
 4022SOL    HW112965   4.603   0.222   0.226
 4022SOL    HW212966   4.477   0.293   0.302
 4023SOL     OW12967   6.449   1.898   5.160
 4023SOL    HW112968   6.498   1.825   5.114
 4023SOL    HW212969   6.452   1.884   5.259
 4024SOL     OW12970   3.048   5.114   3.947
 4024SOL    HW112971   3.031   5.135   4.044
 4024SOL    HW212972   3.078   5.019   3.939
 4025SOL     OW12973   0.825   6.213   4.567
 4025SOL    HW112974   0.821   6.115   4.584
 4025SOL    HW212975   0.834   6.230   4.469
 4026SOL     OW12976   6.036   5.767   3.752
 4026SOL    HW112977   5.982   5.760   3.836
 4026SOL    HW212978   5.976   5.760   3.673
 4027SOL     OW12979   3.251   4.014   2.218
 4027SOL    HW112980   3.152   3.995   2.218
 4027SOL    HW212981   3.299   3.936   2.259
 4028SOL     OW12982   1.209   2.259   3.991
 4028SOL    HW112983   1.261   2.203   3.927
 4028SOL    HW212984   1.180   2.343   3.946
 4029SOL     OW12985   2.554   4.280   6.617
 4029SOL    HW112986   2.536   4.252   6.523
 4029SOL    HW212987   2.583   4.376   6.619
 4030SOL     OW12988   1.535   1.755   6.442
 4030SOL    HW112989   1.618   1.710   6.475
 4030SOL    HW212990   1.460   1.688   6.439
 4031SOL     OW12991   4.232   5.851   2.829
 4031SOL    HW112992   4.243   5.756   2.800
 4031SOL    HW212993   4.171   5.898   2.765
 4032SOL     OW12994   6.074   0.447   2.833
 4032SOL    HW112995   6.156   0.433   2.778
 4032SOL    HW212996   6.067   0.375   2.902
 4033SOL     OW12997   2.933   3.298   2.938
 4033SOL    HW112998   2.894   3.271   2.850
 4033SOL    HW212999   3.018   3.247   2.955
 4034SOL     OW13000   6.244   1.824   4.833
 4034SOL    HW113001   6.214   1.905   4.783
 4034SOL    HW213002   6.175   1.799   4.901
 4035SOL     OW13003   0.205   3.039   0.881
 4035SOL    HW113004   0.127   3.062   0.938
 4035SOL    HW213005   0.208   3.101   0.802
 4036SOL     OW13006   5.632   7.009   2.926
 4036SOL    HW113007   5.633   0.027   3.018
 4036SOL    HW213008   5.537   6.990   2.898
 4037SOL     OW13009   1.674   2.164   0.623
 4037SOL    HW113010   1.640   2.083   0.670
 4037SOL    HW213011   1.773   2.159   0.614
 4038SOL     OW13012   4.793   4.632   1.753
 4038SOL    HW113013   4.870   4.572   1.778
 4038SOL    HW213014   4.726   4.579   1.701
 4039SOL     OW13015   5.193   5.197   1.256
 4039SOL    HW113016   5.276   5.241   1.291
 4039SOL    HW213017   5.209   5.166   1.162
 4040SOL     OW13018   3.039   6.944   6.549
 4040SOL    HW113019   3.093   6.860   6.543
 4040SOL    HW213020   3.058   7.001   6.469
 4041SOL     OW13021   1.806   5.599   1.565
 4041SOL    HW113022   1.788   5.598   1.663
 4041SOL    HW213023   1.742   5.662   1.520
 4042SOL     OW13024   6.012   4.475   2.716
 4042SOL    HW113025   6.055   4.385   2.724
 4042SOL    HW213026   5.912   4.464   2.719
 4043SOL     OW13027   5.329   2.285   4.600
 4043SOL    HW113028   5.320   2.186   4.589
 4043SOL    HW213029   5.404   2.305   4.663
 4044SOL     OW13030   4.852   0.313   4.315
 4044SOL    HW113031   4.889   0.357   4.398
 4044SOL    HW213032   4.852   0.379   4.240
 4045SOL     OW13033   2.601   4.457   6.247
 4045SOL    HW113034   2.700   4.469   6.255
 4045SOL    HW213035   2.581   4.401   6.166
 4046SOL     OW13036   0.837   1.527   3.620
 4046SOL    HW113037   0.771   1.464   3.661
 4046SOL    HW213038   0.881   1.483   3.542
 4047SOL     OW13039   2.938   2.660   1.183
 4047SOL    HW113040   3.007   2.588   1.175
 4047SOL    HW213041   2.858   2.625   1.232
 4048SOL     OW13042   5.504   1.300   2.051
 4048SOL    HW113043   5.525   1.226   1.987
 4048SOL    HW213044   5.579   1.310   2.116
 4049SOL     OW13045   6.349   5.990   6.634
 4049SOL    HW113046   6.378   5.914   6.691
 4049SOL    HW213047   6.255   6.016   6.659
 4050SOL     OW13048   1.850   6.407   0.589
 4050SOL    HW113049   1.884   6.318   0.558
 4050SOL    HW213050   1.768   6.394   0.643
 4051SOL     OW13051   4.010   3.091   0.132
 4051SOL    HW113052   4.017   3.035   0.215
 4051SOL    HW213053   3.948   3.045   0.067
 4052SOL     OW13054   0.962   0.673   1.664
 4052SOL    HW113055   0.956   0.754   1.605
 4052SOL    HW213056   0.977   0.702   1.759
 4053SOL     OW13057   3.492   4.958   3.950
 4053SOL    HW113058   3.411   4.961   4.009
 4053SOL    HW213059   3.489   4.877   3.892
 4054SOL     OW13060   1.307   2.747   1.300
 4054SOL    HW113061   1.243   2.728   1.225
 4054SOL    HW213062   1.259   2.739   1.387
 4055SOL     OW13063   2.953   3.706   5.756
 4055SOL    HW113064   2.976   3.803   5.747
 4055SOL    HW213065   2.885   3.681   5.687
 4056SOL     OW13066   4.542   2.554   6.763
 4056SOL    HW113067   4.486   2.548   6.845
 4056SOL    HW213068   4.576   2.648   6.753
 4057SOL     OW13069   5.354   2.798   6.658
 4057SOL    HW113070   5.314   2.736   6.590
 4057SOL    HW213071   5.289   2.871   6.678
 4058SOL     OW13072   1.603   1.671   4.743
 4058SOL    HW113073   1.512   1.685   4.704
 4058SOL    HW213074   1.672   1.703   4.678
 4059SOL     OW13075   1.858   2.389   3.320
 4059SOL    HW113076   1.943   2.437   3.297
 4059SOL    HW213077   1.795   2.394   3.242
 4060SOL     OW13078   4.241   5.473   5.142
 4060SOL    HW113079   4.232   5.572   5.131
 4060SOL    HW213080   4.191   5.427   5.069
 4061SOL     OW13081   3.426   4.741   1.630
 4061SOL    HW113082   3.478   4.728   1.715
 4061SOL    HW213083   3.475   4.805   1.570
 4062SOL     OW13084   3.357   1.639   3.170
 4062SOL    HW113085   3.357   1.678   3.262
 4062SOL    HW213086   3.402   1.702   3.107
 4063SOL     OW13087   4.814   0.032   5.079
 4063SOL    HW113088   4.856   0.080   5.002
 4063SOL    HW213089   4.715   0.043   5.075
 4064SOL     OW13090   1.695   6.779   3.365
 4064SOL    HW113091   1.680   6.861   3.421
 4064SOL    HW213092   1.761   6.799   3.293
 4065SOL     OW13093   1.717   6.799   0.107
 4065SOL    HW113094   1.727   6.856   0.189
 4065SOL    HW213095   1.622   6.770   0.098
 4066SOL     OW13096   5.013   4.866   2.666
 4066SOL    HW113097   4.918   4.843   2.688
 4066SOL    HW213098   5.016   4.911   2.577
 4067SOL     OW13099   6.007   3.125   2.288
 4067SOL    HW113100   5.987   3.083   2.200
 4067SOL    HW213101   5.944   3.089   2.357
 4068SOL     OW13102   4.220   0.583   4.656
 4068SOL    HW113103   4.299   0.525   4.675
 4068SOL    HW213104   4.249   0.679   4.652
 4069SOL     OW13105   4.172   3.453   6.909
 4069SOL    HW113106   4.117   3.447   6.992
 4069SOL    HW213107   4.151   3.539   6.862
 4070SOL     OW13108   1.306   3.427   2.692
 4070SOL    HW113109   1.303   3.385   2.783
 4070SOL    HW213110   1.248   3.374   2.630
 4071SOL     OW13111   1.165   1.059   4.771
 4071SOL    HW113112   1.253   1.074   4.727
 4071SOL    HW213113   1.169   0.975   4.826
 4072SOL     OW13114   0.873   6.432   3.721
 4072SOL    HW113115   0.816   6.422   3.640
 4072SOL    HW213116   0.873   6.528   3.750
 4073SOL     OW13117   2.457   5.357   5.738
 4073SOL    HW113118   2.435   5.307   5.822
 4073SOL    HW213119   2.432   5.301   5.659
 4074SOL     OW13120   1.190   2.523   2.444
 4074SOL    HW113121   1.191   2.556   2.539
 4074SOL    HW213122   1.240   2.437   2.438
 4075SOL     OW13123   4.833   2.495   2.777
 4075SOL    HW113124   4.897   2.466   2.849
 4075SOL    HW213125   4.885   2.530   2.699
 4076SOL     OW13126   2.101   3.935   5.908
 4076SOL    HW113127   2.111   3.880   5.825
 4076SOL    HW213128   2.116   3.878   5.988
 4077SOL     OW13129   3.230   6.382   0.594
 4077SOL    HW113130   3.269   6.464   0.554
 4077SOL    HW213131   3.138   6.367   0.556
 4078SOL     OW13132   6.390   5.387   2.079
 4078SOL    HW113133   6.395   5.474   2.129
 4078SOL    HW213134   6.357   5.315   2.140
 4079SOL     OW13135   1.253   1.147   3.497
 4079SOL    HW113136   1.251   1.245   3.517
 4079SOL    HW213137   1.346   1.112   3.511
 4080SOL     OW13138   2.709   2.965   0.148
 4080SOL    HW113139   2.619   2.926   0.171
 4080SOL    HW213140   2.697   3.037   0.080
 4081SOL     OW13141   1.804   1.243   4.278
 4081SOL    HW113142   1.728   1.262   4.340
 4081SOL    HW213143   1.769   1.219   4.188
 4082SOL     OW13144   1.749   1.790   0.393
 4082SOL    HW113145   1.781   1.697   0.415
 4082SOL    HW213146   1.789   1.855   0.457
 4083SOL     OW13147   5.868   4.208   3.651
 4083SOL    HW113148   5.848   4.131   3.711
 4083SOL    HW213149   5.893   4.288   3.706
 4084SOL     OW13150   5.167   3.223   3.208
 4084SOL    HW113151   5.185   3.136   3.163
 4084SOL    HW213152   5.089   3.213   3.270
 4085SOL     OW13153   2.928   5.273   0.274
 4085SOL    HW113154   2.895   5.365   0.296
 4085SOL    HW213155   2.877   5.206   0.328
 4086SOL     OW13156   0.545   4.744   0.642
 4086SOL    HW113157   0.577   4.816   0.704
 4086SOL    HW213158   0.623   4.688   0.614
 4087SOL     OW13159   2.384   0.988   2.563
 4087SOL    HW113160   2.341   1.075   2.538
 4087SOL    HW213161   2.354   0.960   2.654
 4088SOL     OW13162   6.241   0.775   5.465
 4088SOL    HW113163   6.285   0.686   5.479
 4088SOL    HW213164   6.237   0.796   5.368
 4089SOL     OW13165   6.708   5.695   4.447
 4089SOL    HW113166   6.610   5.709   4.454
 4089SOL    HW213167   6.731   5.669   4.353
 4090SOL     OW13168   1.593   5.687   5.047
 4090SOL    HW113169   1.509   5.645   5.081
 4090SOL    HW213170   1.648   5.719   5.124
 4091SOL     OW13171   0.771   5.656   6.941
 4091SOL    HW113172   0.821   5.741   6.921
 4091SOL    HW213173   0.674   5.669   6.922
 4092SOL     OW13174   5.371   2.859   4.234
 4092SOL    HW113175   5.381   2.848   4.135
 4092SOL    HW213176   5.343   2.772   4.275
 4093SOL     OW13177   5.608   6.290   1.420
 4093SOL    HW113178   5.589   6.387   1.411
 4093SOL    HW213179   5.661   6.273   1.503
 4094SOL     OW13180   1.114   4.614   6.498
 4094SOL    HW113181   1.052   4.687   6.525
 4094SOL    HW213182   1.197   4.617   6.554
 4095SOL     OW13183   0.952   3.676   0.236
 4095SOL    HW113184   0.932   3.735   0.157
 4095SOL    HW213185   0.869   3.665   0.291
 4096SOL     OW13186   2.636   0.977   6.167
 4096SOL    HW113187   2.568   0.910   6.197
 4096SOL    HW213188   2.589   1.057   6.130
 4097SOL     OW13189   5.933   4.842   5.309
 4097SOL    HW113190   5.908   4.936   5.285
 4097SOL    HW213191   5.924   4.829   5.408
 4098SOL     OW13192   1.948   3.209   1.287
 4098SOL    HW113193   1.871   3.246   1.340
 4098SOL    HW213194   2.034   3.239   1.329
 4099SOL     OW13195   3.053   4.690   0.296
 4099SOL    HW113196   3.142   4.712   0.337
 4099SOL    HW213197   3.058   4.600   0.253
 4100SOL     OW13198   1.276   1.014   4.005
 4100SOL    HW113199   1.288   0.989   4.101
 4100SOL    HW213200   1.360   0.994   3.954
 4101SOL     OW13201   0.226   1.533   6.629
 4101SOL    HW113202   0.177   1.612   6.592
 4101SOL    HW213203   0.199   1.451   6.580
 4102SOL     OW13204   1.999   0.549   0.610
 4102SOL    HW113205   2.020   0.569   0.705
 4102SOL    HW213206   1.903   0.524   0.601
 4103SOL     OW13207   6.911   6.652   1.879
 4103SOL    HW113208   6.964   6.621   1.800
 4103SOL    HW213209   6.901   6.576   1.944
 4104SOL     OW13210   0.519   5.268   3.708
 4104SOL    HW113211   0.491   5.214   3.628
 4104SOL    HW213212   0.599   5.322   3.684
 4105SOL     OW13213   5.185   0.658   2.251
 4105SOL    HW113214   5.199   0.640   2.348
 4105SOL    HW213215   5.187   0.571   2.201
 4106SOL     OW13216   0.601   2.062   3.466
 4106SOL    HW113217   0.535   2.114   3.519
 4106SOL    HW213218   0.571   1.967   3.459
 4107SOL     OW13219   1.690   5.950   0.090
 4107SOL    HW113220   1.620   6.021   0.086
 4107SOL    HW213221   1.648   5.862   0.113
 4108SOL     OW13222   6.902   5.209   4.648
 4108SOL    HW113223   6.995   5.224   4.683
 4108SOL    HW213224   6.897   5.242   4.554
 4109SOL     OW13225   5.587   6.647   4.571
 4109SOL    HW113226   5.498   6.602   4.579
 4109SOL    HW213227   5.601   6.709   4.648
 4110SOL     OW13228   3.816   3.196   6.273
 4110SOL    HW113229   3.758   3.143   6.335
 4110SOL    HW213230   3.761   3.228   6.196
 4111SOL     OW13231   6.192   4.972   6.595
 4111SOL    HW113232   6.258   5.023   6.541
 4111SOL    HW213233   6.225   4.965   6.690
 4112SOL     OW13234   4.645   6.868   4.406
 4112SOL    HW113235   4.651   6.833   4.499
 4112SOL    HW213236   4.718   6.936   4.392
 4113SOL     OW13237   4.597   5.746   4.668
 4113SOL    HW113238   4.555   5.702   4.747
 4113SOL    HW213239   4.663   5.815   4.700
 4114SOL     OW13240   6.830   1.657   3.061
 4114SOL    HW113241   6.793   1.692   2.975
 4114SOL    HW213242   6.906   1.594   3.041
 4115SOL     OW13243   3.031   5.070   3.451
 4115SOL    HW113244   3.055   5.158   3.409
 4115SOL    HW213245   3.007   5.085   3.547
 4116SOL     OW13246   4.707   1.812   3.547
 4116SOL    HW113247   4.739   1.750   3.475
 4116SOL    HW213248   4.630   1.771   3.595
 4117SOL     OW13249   1.163   2.452   3.601
 4117SOL    HW113250   1.245   2.448   3.544
 4117SOL    HW213251   1.128   2.360   3.615
 4118SOL     OW13252   5.315   6.642   6.588
 4118SOL    HW113253   5.340   6.710   6.520
 4118SOL    HW213254   5.344   6.673   6.679
 4119SOL     OW13255   3.024   1.498   3.314
 4119SOL    HW113256   3.110   1.449   3.301
 4119SOL    HW213257   2.997   1.493   3.410
 4120SOL     OW13258   3.591   1.283   5.994
 4120SOL    HW113259   3.521   1.343   5.955
 4120SOL    HW213260   3.586   1.287   6.094
 4121SOL     OW13261   6.335   0.256   3.191
 4121SOL    HW113262   6.319   0.341   3.141
 4121SOL    HW213263   6.365   0.185   3.126
 4122SOL     OW13264   2.200   6.411   4.911
 4122SOL    HW113265   2.165   6.389   4.820
 4122SOL    HW213266   2.244   6.330   4.949
 4123SOL     OW13267   3.990   4.846   3.956
 4123SOL    HW113268   3.980   4.946   3.957
 4123SOL    HW213269   3.933   4.806   4.028
 4124SOL     OW13270   6.643   0.201   1.229
 4124SOL    HW113271   6.694   0.287   1.238
 4124SOL    HW213272   6.706   0.126   1.213
 4125SOL     OW13273   4.464   2.433   2.778
 4125SOL    HW113274   4.493   2.470   2.690
 4125SOL    HW213275   4.526   2.360   2.806
 4126SOL     OW13276   1.971   3.420   3.093
 4126SOL    HW113277   1.873   3.406   3.084
 4126SOL    HW213278   2.015   3.408   3.004
 4127SOL     OW13279   5.679   2.609   5.105
 4127SOL    HW113280   5.609   2.648   5.165
 4127SOL    HW213281   5.724   2.682   5.054
 4128SOL     OW13282   0.930   3.445   1.332
 4128SOL    HW113283   1.000   3.407   1.272
 4128SOL    HW213284   0.862   3.493   1.277
 4129SOL     OW13285   3.117   1.244   0.293
 4129SOL    HW113286   3.043   1.303   0.262
 4129SOL    HW213287   3.164   1.205   0.214
 4130SOL     OW13288   6.094   1.966   0.540
 4130SOL    HW113289   6.075   2.026   0.463
 4130SOL    HW213290   6.166   1.902   0.515
 4131SOL     OW13291   0.411   1.353   2.824
 4131SOL    HW113292   0.355   1.360   2.741
 4131SOL    HW213293   0.353   1.332   2.902
 4132SOL     OW13294   5.209   3.817   4.583
 4132SOL    HW113295   5.240   3.731   4.624
 4132SOL    HW213296   5.114   3.808   4.553
 4133SOL     OW13297   4.159   6.088   1.635
 4133SOL    HW113298   4.129   6.141   1.714
 4133SOL    HW213299   4.166   5.992   1.660
 4134SOL     OW13300   2.029   3.979   0.526
 4134SOL    HW113301   2.035   3.917   0.604
 4134SOL    HW213302   2.087   3.945   0.452
 4135SOL     OW13303   0.474   2.551   2.107
 4135SOL    HW113304   0.407   2.477   2.114
 4135SOL    HW213305   0.505   2.576   2.199
 4136SOL     OW13306   1.048   3.634   2.390
 4136SOL    HW113307   1.126   3.591   2.345
 4136SOL    HW213308   1.075   3.665   2.481
 4137SOL     OW13309   1.922   3.588   0.243
 4137SOL    HW113310   2.011   3.565   0.203
 4137SOL    HW213311   1.849   3.552   0.185
 4138SOL     OW13312   3.382   4.861   2.261
 4138SOL    HW113313   3.473   4.890   2.289
 4138SOL    HW213314   3.364   4.892   2.168
 4139SOL     OW13315   1.425   1.578   3.806
 4139SOL    HW113316   1.333   1.540   3.808
 4139SOL    HW213317   1.422   1.673   3.838
 4140SOL     OW13318   3.455   1.847   4.052
 4140SOL    HW113319   3.388   1.779   4.083
 4140SOL    HW213320   3.528   1.802   4.001
 4141SOL     OW13321   5.521   6.870   1.151
 4141SOL    HW113322   5.541   6.820   1.066
 4141SOL    HW213323   5.424   6.890   1.155
 4142SOL     OW13324   6.256   3.716   1.557
 4142SOL    HW113325   6.247   3.697   1.459
 4142SOL    HW213326   6.248   3.814   1.572
 4143SOL     OW13327   5.728   2.607   0.462
 4143SOL    HW113328   5.692   2.701   0.455
 4143SOL    HW213329   5.688   2.563   0.542
 4144SOL     OW13330   4.718   1.499   0.296
 4144SOL    HW113331   4.799   1.557   0.290
 4144SOL    HW213332   4.640   1.546   0.253
 4145SOL     OW13333   1.096   5.871   0.222
 4145SOL    HW113334   1.177   5.846   0.276
 4145SOL    HW213335   1.123   5.886   0.127
 4146SOL     OW13336   6.585   0.637   3.511
 4146SOL    HW113337   6.654   0.658   3.442
 4146SOL    HW213338   6.630   0.605   3.595
 4147SOL     OW13339   4.726   4.488   6.334
 4147SOL    HW113340   4.817   4.519   6.364
 4147SOL    HW213341   4.720   4.497   6.234
 4148SOL     OW13342   2.745   0.615   5.298
 4148SOL    HW113343   2.844   0.606   5.286
 4148SOL    HW213344   2.725   0.695   5.353
 4149SOL     OW13345   0.491   3.307   1.328
 4149SOL    HW113346   0.429   3.377   1.364
 4149SOL    HW213347   0.558   3.282   1.398
 4150SOL     OW13348   0.024   1.600   5.183
 4150SOL    HW113349   0.031   1.505   5.214
 4150SOL    HW213350   0.031   1.603   5.083
 4151SOL     OW13351   2.828   6.130   5.865
 4151SOL    HW113352   2.786   6.069   5.932
 4151SOL    HW213353   2.816   6.092   5.773
 4152SOL     OW13354   3.959   5.647   1.104
 4152SOL    HW113355   4.051   5.621   1.076
 4152SOL    HW213356   3.944   5.623   1.200
 4153SOL     OW13357   5.789   5.333   1.476
 4153SOL    HW113358   5.866   5.309   1.417
 4153SOL    HW213359   5.732   5.401   1.430
 4154SOL     OW13360   0.029   6.154   4.091
 4154SOL    HW113361   0.064   6.247   4.080
 4154SOL    HW213362   6.986   6.152   4.169
 4155SOL     OW13363   0.286   1.293   0.958
 4155SOL    HW113364   0.253   1.369   1.013
 4155SOL    HW213365   0.378   1.313   0.926
 4156SOL     OW13366   6.156   5.287   5.199
 4156SOL    HW113367   6.208   5.263   5.281
 4156SOL    HW213368   6.118   5.379   5.209
 4157SOL     OW13369   5.004   6.254   3.655
 4157SOL    HW113370   4.945   6.297   3.586
 4157SOL    HW213371   5.084   6.214   3.611
 4158SOL     OW13372   0.597   3.098   2.168
 4158SOL    HW113373   0.502   3.126   2.181
 4158SOL    HW213374   0.618   3.020   2.228
 4159SOL     OW13375   1.575   2.721   3.391
 4159SOL    HW113376   1.611   2.783   3.460
 4159SOL    HW213377   1.640   2.713   3.315
 4160SOL     OW13378   5.597   6.636   0.026
 4160SOL    HW113379   5.675   6.619   0.087
 4160SOL    HW213380   5.517   6.586   0.059
 4161SOL     OW13381   1.601   2.210   1.567
 4161SOL    HW113382   1.664   2.287   1.560
 4161SOL    HW213383   1.511   2.244   1.597
 4162SOL     OW13384   6.187   5.813   0.520
 4162SOL    HW113385   6.155   5.732   0.569
 4162SOL    HW213386   6.158   5.896   0.568
 4163SOL     OW13387   5.608   0.857   3.038
 4163SOL    HW113388   5.556   0.934   3.075
 4163SOL    HW213389   5.660   0.888   2.958
 4164SOL     OW13390   1.381   0.091   4.606
 4164SOL    HW113391   1.430   0.098   4.693
 4164SOL    HW213392   1.293   0.047   4.621
 4165SOL     OW13393   4.901   0.477   5.755
 4165SOL    HW113394   4.891   0.481   5.656
 4165SOL    HW213395   4.945   0.561   5.787
 4166SOL     OW13396   4.849   0.970   1.305
 4166SOL    HW113397   4.930   0.911   1.311
 4166SOL    HW213398   4.878   1.065   1.294
 4167SOL     OW13399   3.425   4.773   6.776
 4167SOL    HW113400   3.440   4.695   6.837
 4167SOL    HW213401   3.499   4.839   6.787
 4168SOL     OW13402   0.050   3.936   0.868
 4168SOL    HW113403   6.989   3.969   0.916
 4168SOL    HW213404   0.042   3.838   0.853
 4169SOL     OW13405   6.206   4.694   4.725
 4169SOL    HW113406   6.217   4.596   4.712
 4169SOL    HW213407   6.131   4.712   4.788
 4170SOL     OW13408   5.181   3.282   5.314
 4170SOL    HW113409   5.100   3.271   5.372
 4170SOL    HW213410   5.244   3.346   5.358
 4171SOL     OW13411   6.728   5.143   0.779
 4171SOL    HW113412   6.680   5.092   0.708
 4171SOL    HW213413   6.714   5.241   0.766
 4172SOL     OW13414   2.353   2.141   0.148
 4172SOL    HW113415   2.392   2.227   0.115
 4172SOL    HW213416   2.411   2.104   0.220
 4173SOL     OW13417   5.405   3.813   4.928
 4173SOL    HW113418   5.356   3.760   4.997
 4173SOL    HW213419   5.409   3.909   4.956
 4174SOL     OW13420   4.650   1.842   2.403
 4174SOL    HW113421   4.588   1.817   2.478
 4174SOL    HW213422   4.639   1.939   2.383
 4175SOL     OW13423   2.106   4.749   4.295
 4175SOL    HW113424   2.140   4.770   4.203
 4175SOL    HW213425   2.097   4.650   4.305
 4176SOL     OW13426   4.175   6.611   1.168
 4176SOL    HW113427   4.133   6.694   1.204
 4176SOL    HW213428   4.118   6.532   1.193
 4177SOL     OW13429   5.702   5.199   5.769
 4177SOL    HW113430   5.678   5.289   5.734
 4177SOL    HW213431   5.738   5.143   5.693
 4178SOL     OW13432   4.209   6.954   3.661
 4178SOL    HW113433   4.286   7.009   3.693
 4178SOL    HW213434   4.158   6.919   3.740
 4179SOL     OW13435   5.284   3.762   3.236
 4179SOL    HW113436   5.242   3.710   3.311
 4179SOL    HW213437   5.377   3.788   3.261
 4180SOL     OW13438   4.820   2.694   0.618
 4180SOL    HW113439   4.815   2.624   0.689
 4180SOL    HW213440   4.756   2.768   0.639
 4181SOL     OW13441   4.268   0.622   6.544
 4181SOL    HW113442   4.332   0.689   6.580
 4181SOL    HW213443   4.218   0.662   6.467
 4182SOL     OW13444   0.475   5.646   3.687
 4182SOL    HW113445   0.522   5.610   3.606
 4182SOL    HW213446   0.436   5.735   3.665
 4183SOL     OW13447   2.382   1.741   0.410
 4183SOL    HW113448   2.327   1.825   0.414
 4183SOL    HW213449   2.451   1.750   0.338
 4184SOL     OW13450   3.074   0.030   2.387
 4184SOL    HW113451   3.109   6.992   2.313
 4184SOL    HW213452   2.996   7.006   2.431
 4185SOL     OW13453   0.690   4.524   3.186
 4185SOL    HW113454   0.767   4.534   3.249
 4185SOL    HW213455   0.622   4.463   3.227
 4186SOL     OW13456   2.347   4.897   6.617
 4186SOL    HW113457   2.353   4.947   6.530
 4186SOL    HW213458   2.331   4.800   6.598
 4187SOL     OW13459   2.680   3.174   5.533
 4187SOL    HW113460   2.710   3.125   5.451
 4187SOL    HW213461   2.719   3.266   5.532
 4188SOL     OW13462   5.099   0.593   5.271
 4188SOL    HW113463   5.179   0.643   5.237
 4188SOL    HW213464   5.025   0.657   5.290
 4189SOL     OW13465   3.186   5.140   4.485
 4189SOL    HW113466   3.129   5.063   4.510
 4189SOL    HW213467   3.258   5.110   4.422
 4190SOL     OW13468   0.835   0.218   0.969
 4190SOL    HW113469   0.885   0.240   1.053
 4190SOL    HW213470   0.779   0.136   0.984
 4191SOL     OW13471   5.016   4.669   4.193
 4191SOL    HW113472   5.020   4.764   4.226
 4191SOL    HW213473   5.065   4.663   4.105
 4192SOL     OW13474   0.655   1.758   2.849
 4192SOL    HW113475   0.653   1.812   2.933
 4192SOL    HW213476   0.561   1.747   2.814
 4193SOL     OW13477   6.431   0.462   0.853
 4193SOL    HW113478   6.467   0.469   0.760
 4193SOL    HW213479   6.383   0.375   0.863
 4194SOL     OW13480   4.484   0.447   4.771
 4194SOL    HW113481   4.543   0.466   4.692
 4194SOL    HW213482   4.504   0.356   4.807
 4195SOL     OW13483   3.591   5.533   1.547
 4195SOL    HW113484   3.667   5.475   1.577
 4195SOL    HW213485   3.590   5.539   1.447
 4196SOL     OW13486   6.235   2.678   2.748
 4196SOL    HW113487   6.194   2.727   2.671
 4196SOL    HW213488   6.165   2.624   2.795
 4197SOL     OW13489   4.623   5.550   5.973
 4197SOL    HW113490   4.559   5.539   5.897
 4197SOL    HW213491   4.575   5.583   6.053
 4198SOL     OW13492   5.984   1.724   0.657
 4198SOL    HW113493   6.013   1.815   0.627
 4198SOL    HW213494   5.964   1.667   0.577
 4199SOL     OW13495   1.044   2.723   6.292
 4199SOL    HW113496   1.030   2.685   6.200
 4199SOL    HW213497   1.065   2.820   6.284
 4200SOL     OW13498   2.813   0.251   6.204
 4200SOL    HW113499   2.756   0.183   6.251
 4200SOL    HW213500   2.809   0.234   6.106
 4201SOL     OW13501   5.627   6.752   3.313
 4201SOL    HW113502   5.682   6.832   3.288
 4201SOL    HW213503   5.686   6.680   3.348
 4202SOL     OW13504   3.063   5.565   6.198
 4202SOL    HW113505   3.122   5.487   6.177
 4202SOL    HW213506   2.998   5.540   6.269
 4203SOL     OW13507   4.122   4.223   0.271
 4203SOL    HW113508   4.096   4.241   0.176
 4203SOL    HW213509   4.113   4.308   0.324
 4204SOL     OW13510   4.130   3.574   3.933
 4204SOL    HW113511   4.064   3.581   3.859
 4204SOL    HW213512   4.223   3.569   3.895
 4205SOL     OW13513   4.534   6.650   4.252
 4205SOL    HW113514   4.605   6.590   4.214
 4205SOL    HW213515   4.578   6.722   4.307
 4206SOL     OW13516   6.308   0.768   5.185
 4206SOL    HW113517   6.407   0.754   5.175
 4206SOL    HW213518   6.279   0.839   5.121
 4207SOL     OW13519   2.100   2.208   1.834
 4207SOL    HW113520   2.121   2.294   1.879
 4207SOL    HW213521   2.030   2.159   1.886
 4208SOL     OW13522   0.058   3.758   5.312
 4208SOL    HW113523   0.002   3.695   5.259
 4208SOL    HW213524   0.017   3.849   5.311
 4209SOL     OW13525   7.010   6.827   4.490
 4209SOL    HW113526   0.010   6.855   4.397
 4209SOL    HW213527   6.924   6.870   4.520
 4210SOL     OW13528   3.828   3.752   2.141
 4210SOL    HW113529   3.737   3.756   2.100
 4210SOL    HW213530   3.883   3.685   2.093
 4211SOL     OW13531   3.500   0.516   6.102
 4211SOL    HW113532   3.529   0.433   6.149
 4211SOL    HW213533   3.402   0.510   6.081
 4212SOL     OW13534   6.629   1.991   3.068
 4212SOL    HW113535   6.541   2.038   3.064
 4212SOL    HW213536   6.666   1.981   2.976
 4213SOL     OW13537   2.154   0.325   2.583
 4213SOL    HW113538   2.131   0.373   2.498
 4213SOL    HW213539   2.218   0.251   2.563
 4214SOL     OW13540   1.076   5.611   5.520
 4214SOL    HW113541   1.144   5.543   5.493
 4214SOL    HW213542   1.036   5.653   5.439
 4215SOL     OW13543   4.709   0.085   6.255
 4215SOL    HW113544   4.622   0.127   6.282
 4215SOL    HW213545   4.707   0.064   6.158
 4216SOL     OW13546   1.555   0.855   3.043
 4216SOL    HW113547   1.502   0.844   2.959
 4216SOL    HW213548   1.633   0.791   3.042
 4217SOL     OW13549   1.044   0.782   2.952
 4217SOL    HW113550   1.040   0.690   2.912
 4217SOL    HW213551   1.011   0.778   3.047
 4218SOL     OW13552   3.863   1.406   1.777
 4218SOL    HW113553   3.768   1.421   1.749
 4218SOL    HW213554   3.898   1.486   1.825
 4219SOL     OW13555   4.146   6.144   4.031
 4219SOL    HW113556   4.162   6.243   4.031
 4219SOL    HW213557   4.234   6.097   4.024
 4220SOL     OW13558   6.470   3.092   3.478
 4220SOL    HW113559   6.429   3.159   3.540
 4220SOL    HW213560   6.459   3.123   3.383
 4221SOL     OW13561   6.045   5.511   6.547
 4221SOL    HW113562   6.090   5.434   6.501
 4221SOL    HW213563   5.947   5.493   6.555
 4222SOL     OW13564   0.396   1.472   2.172
 4222SOL    HW113565   0.495   1.488   2.169
 4222SOL    HW213566   0.349   1.560   2.175
 4223SOL     OW13567   3.506   3.232   0.015
 4223SOL    HW113568   3.516   3.133   0.022
 4223SOL    HW213569   3.597   3.274   0.012
 4224SOL     OW13570   5.547   4.405   3.966
 4224SOL    HW113571   5.621   4.470   3.975
 4224SOL    HW213572   5.583   4.317   3.935
 4225SOL     OW13573   2.703   2.513   5.689
 4225SOL    HW113574   2.803   2.517   5.700
 4225SOL    HW213575   2.668   2.605   5.674
 4226SOL     OW13576   0.585   6.977   2.795
 4226SOL    HW113577   0.542   7.010   2.879
 4226SOL    HW213578   0.685   6.987   2.803
 4227SOL     OW13579   3.764   5.071   1.560
 4227SOL    HW113580   3.759   5.171   1.555
 4227SOL    HW213581   3.856   5.041   1.537
 4228SOL     OW13582   1.135   5.243   5.036
 4228SOL    HW113583   1.124   5.263   5.133
 4228SOL    HW213584   1.143   5.329   4.985
 4229SOL     OW13585   5.059   6.498   6.008
 4229SOL    HW113586   5.081   6.498   6.105
 4229SOL    HW213587   5.121   6.437   5.960
 4230SOL     OW13588   0.599   5.716   2.670
 4230SOL    HW113589   0.525   5.693   2.733
 4230SOL    HW213590   0.568   5.784   2.604
 4231SOL     OW13591   5.723   6.673   5.841
 4231SOL    HW113592   5.681   6.588   5.873
 4231SOL    HW213593   5.662   6.718   5.776
 4232SOL     OW13594   6.923   4.605   2.909
 4232SOL    HW113595   6.833   4.564   2.918
 4232SOL    HW213596   6.928   4.653   2.821
 4233SOL     OW13597   6.660   6.848   5.878
 4233SOL    HW113598   6.608   6.881   5.957
 4233SOL    HW213599   6.668   6.748   5.883
 4234SOL     OW13600   2.521   6.150   4.865
 4234SOL    HW113601   2.564   6.209   4.798
 4234SOL    HW213602   2.567   6.159   4.953
 4235SOL     OW13603   5.717   4.618   5.913
 4235SOL    HW113604   5.680   4.533   5.950
 4235SOL    HW213605   5.765   4.668   5.985
 4236SOL     OW13606   6.290   3.595   2.395
 4236SOL    HW113607   6.231   3.520   2.425
 4236SOL    HW213608   6.238   3.655   2.335
 4237SOL     OW13609   5.703   5.711   3.343
 4237SOL    HW113610   5.706   5.715   3.443
 4237SOL    HW213611   5.779   5.655   3.310
 4238SOL     OW13612   2.284   6.313   2.599
 4238SOL    HW113613   2.191   6.281   2.582
 4238SOL    HW213614   2.309   6.381   2.530
 4239SOL     OW13615   5.106   1.038   2.507
 4239SOL    HW113616   5.108   1.058   2.605
 4239SOL    HW213617   5.091   1.123   2.456
 4240SOL     OW13618   2.783   5.718   0.503
 4240SOL    HW113619   2.823   5.810   0.505
 4240SOL    HW213620   2.691   5.721   0.542
 4241SOL     OW13621   6.081   1.173   0.416
 4241SOL    HW113622   5.984   1.183   0.396
 4241SOL    HW213623   6.093   1.115   0.497
 4242SOL     OW13624   3.253   1.704   4.162
 4242SOL    HW113625   3.184   1.631   4.166
 4242SOL    HW213626   3.241   1.765   4.240
 4243SOL     OW13627   6.543   2.875   2.665
 4243SOL    HW113628   6.616   2.807   2.662
 4243SOL    HW213629   6.466   2.845   2.608
 4244SOL     OW13630   4.268   4.315   1.679
 4244SOL    HW113631   4.335   4.271   1.739
 4244SOL    HW213632   4.257   4.411   1.704
 4245SOL     OW13633   6.793   1.110   6.558
 4245SOL    HW113634   6.878   1.084   6.513
 4245SOL    HW213635   6.718   1.107   6.491
 4246SOL     OW13636   6.838   4.229   3.111
 4246SOL    HW113637   6.891   4.181   3.041
 4246SOL    HW213638   6.786   4.303   3.069
 4247SOL     OW13639   2.927   6.058   3.842
 4247SOL    HW113640   2.970   5.985   3.788
 4247SOL    HW213641   2.962   6.055   3.935
 4248SOL     OW13642   3.712   1.571   3.409
 4248SOL    HW113643   3.691   1.660   3.367
 4248SOL    HW213644   3.739   1.506   3.338
 4249SOL     OW13645   5.894   2.378   4.059
 4249SOL    HW113646   5.884   2.371   3.959
 4249SOL    HW213647   5.962   2.448   4.080
 4250SOL     OW13648   6.304   4.483   2.937
 4250SOL    HW113649   6.213   4.463   2.901
 4250SOL    HW213650   6.372   4.468   2.865
 4251SOL     OW13651   5.467   4.583   1.404
 4251SOL    HW113652   5.499   4.625   1.488
 4251SOL    HW213653   5.514   4.495   1.390
 4252SOL     OW13654   5.452   5.950   6.107
 4252SOL    HW113655   5.393   5.973   6.030
 4252SOL    HW213656   5.405   5.973   6.192
 4253SOL     OW13657   3.528   6.614   0.825
 4253SOL    HW113658   3.451   6.663   0.866
 4253SOL    HW213659   3.571   6.673   0.756
 4254SOL     OW13660   0.801   3.225   1.753
 4254SOL    HW113661   0.844   3.135   1.745
 4254SOL    HW213662   0.869   3.293   1.779
 4255SOL     OW13663   6.701   4.230   3.496
 4255SOL    HW113664   6.686   4.311   3.440
 4255SOL    HW213665   6.773   4.174   3.453
 4256SOL     OW13666   2.399   6.406   0.231
 4256SOL    HW113667   2.335   6.332   0.209
 4256SOL    HW213668   2.352   6.494   0.223
 4257SOL     OW13669   2.881   0.734   4.517
 4257SOL    HW113670   2.965   0.688   4.486
 4257SOL    HW213671   2.801   0.681   4.490
 4258SOL     OW13672   4.697   6.654   0.992
 4258SOL    HW113673   4.765   6.582   1.002
 4258SOL    HW213674   4.671   6.688   1.083
 4259SOL     OW13675   2.661   0.949   0.994
 4259SOL    HW113676   2.624   0.856   0.987
 4259SOL    HW213677   2.650   0.995   0.906
 4260SOL     OW13678   5.129   0.107   0.938
 4260SOL    HW113679   5.173   0.061   0.861
 4260SOL    HW213680   5.046   0.058   0.964
 4261SOL     OW13681   1.720   0.106   1.847
 4261SOL    HW113682   1.799   0.057   1.882
 4261SOL    HW213683   1.708   0.192   1.898
 4262SOL     OW13684   0.966   4.760   5.655
 4262SOL    HW113685   0.982   4.665   5.628
 4262SOL    HW213686   0.973   4.767   5.755
 4263SOL     OW13687   2.948   5.920   3.524
 4263SOL    HW113688   2.984   5.925   3.430
 4263SOL    HW213689   2.959   5.828   3.559
 4264SOL     OW13690   0.276   2.495   2.949
 4264SOL    HW113691   0.176   2.495   2.954
 4264SOL    HW213692   0.305   2.463   2.859
 4265SOL     OW13693   5.228   1.844   0.733
 4265SOL    HW113694   5.218   1.746   0.749
 4265SOL    HW213695   5.200   1.894   0.814
 4266SOL     OW13696   2.130   5.516   0.268
 4266SOL    HW113697   2.191   5.591   0.294
 4266SOL    HW213698   2.036   5.542   0.285
 4267SOL     OW13699   1.800   3.200   4.716
 4267SOL    HW113700   1.797   3.219   4.618
 4267SOL    HW213701   1.863   3.125   4.734
 4268SOL     OW13702   1.521   6.232   6.144
 4268SOL    HW113703   1.472   6.148   6.120
 4268SOL    HW213704   1.614   6.209   6.170
 4269SOL     OW13705   2.732   0.859   1.576
 4269SOL    HW113706   2.704   0.937   1.521
 4269SOL    HW213707   2.830   0.866   1.597
 4270SOL     OW13708   4.102   3.396   3.572
 4270SOL    HW113709   4.102   3.480   3.626
 4270SOL    HW213710   4.081   3.318   3.632
 4271SOL     OW13711   6.667   1.135   6.923
 4271SOL    HW113712   6.617   1.183   6.851
 4271SOL    HW213713   6.686   1.199   6.998
 4272SOL     OW13714   6.314   2.645   4.290
 4272SOL    HW113715   6.309   2.682   4.198
 4272SOL    HW213716   6.383   2.694   4.343
 4273SOL     OW13717   4.356   6.840   4.576
 4273SOL    HW113718   4.438   6.795   4.611
 4273SOL    HW213719   4.298   6.867   4.652
 4274SOL     OW13720   0.897   6.156   1.632
 4274SOL    HW113721   0.987   6.179   1.596
 4274SOL    HW213722   0.830   6.158   1.558
 4275SOL     OW13723   6.360   0.704   3.799
 4275SOL    HW113724   6.261   0.706   3.790
 4275SOL    HW213725   6.392   0.609   3.803
 4276SOL     OW13726   1.792   4.782   3.277
 4276SOL    HW113727   1.818   4.827   3.192
 4276SOL    HW213728   1.705   4.733   3.263
 4277SOL     OW13729   6.040   4.259   3.968
 4277SOL    HW113730   5.994   4.318   3.902
 4277SOL    HW213731   6.037   4.300   4.058
 4278SOL     OW13732   0.058   0.507   4.306
 4278SOL    HW113733   0.013   0.529   4.220
 4278SOL    HW213734   0.149   0.549   4.307
 4279SOL     OW13735   3.122   0.638   4.458
 4279SOL    HW113736   3.118   0.681   4.368
 4279SOL    HW213737   3.215   0.607   4.476
 4280SOL     OW13738   4.681   0.507   5.897
 4280SOL    HW113739   4.753   0.465   5.840
 4280SOL    HW213740   4.675   0.459   5.984
 4281SOL     OW13741   0.412   4.754   3.525
 4281SOL    HW113742   0.491   4.707   3.565
 4281SOL    HW213743   0.444   4.826   3.463
 4282SOL     OW13744   2.881   4.473   5.982
 4282SOL    HW113745   2.881   4.463   5.883
 4282SOL    HW213746   2.914   4.389   6.025
 4283SOL     OW13747   1.236   0.508   3.591
 4283SOL    HW113748   1.206   0.515   3.686
 4283SOL    HW213749   1.207   0.589   3.541
 4284SOL     OW13750   4.030   4.940   1.629
 4284SOL    HW113751   4.000   4.855   1.672
 4284SOL    HW213752   4.095   4.919   1.556
 4285SOL     OW13753   0.951   0.888   5.873
 4285SOL    HW113754   1.048   0.898   5.896
 4285SOL    HW213755   0.941   0.877   5.774
 4286SOL     OW13756   4.745   6.344   6.042
 4286SOL    HW113757   4.782   6.413   5.979
 4286SOL    HW213758   4.656   6.313   6.009
 4287SOL     OW13759   6.000   2.597   6.447
 4287SOL    HW113760   6.067   2.634   6.511
 4287SOL    HW213761   5.957   2.671   6.396
 4288SOL     OW13762   0.741   6.011   3.799
 4288SOL    HW113763   0.648   5.975   3.811
 4288SOL    HW213764   0.745   6.105   3.834
 4289SOL     OW13765   6.920   2.540   0.326
 4289SOL    HW113766   6.981   2.608   0.285
 4289SOL    HW213767   6.825   2.567   0.309
 4290SOL     OW13768   1.356   6.848   2.674
 4290SOL    HW113769   1.301   6.917   2.627
 4290SOL    HW213770   1.369   6.770   2.614
 4291SOL     OW13771   4.417   3.236   1.230
 4291SOL    HW113772   4.442   3.237   1.133
 4291SOL    HW213773   4.338   3.295   1.243
 4292SOL     OW13774   6.199   3.524   0.549
 4292SOL    HW113775   6.123   3.567   0.598
 4292SOL    HW213776   6.165   3.444   0.500
 4293SOL     OW13777   2.353   3.065   0.518
 4293SOL    HW113778   2.312   3.057   0.427
 4293SOL    HW213779   2.367   3.162   0.539
 4294SOL     OW13780   2.321   2.948   6.708
 4294SOL    HW113781   2.375   2.878   6.662
 4294SOL    HW213782   2.383   3.013   6.753
 4295SOL     OW13783   4.100   5.467   4.158
 4295SOL    HW113784   4.129   5.441   4.250
 4295SOL    HW213785   4.164   5.430   4.091
 4296SOL     OW13786   3.600   0.536   0.320
 4296SOL    HW113787   3.515   0.589   0.309
 4296SOL    HW213788   3.674   0.598   0.344
 4297SOL     OW13789   4.922   0.788   0.025
 4297SOL    HW113790   4.830   0.827   0.022
 4297SOL    HW213791   4.928   0.713   6.979
 4298SOL     OW13792   3.727   5.244   0.571
 4298SOL    HW113793   3.630   5.220   0.572
 4298SOL    HW213794   3.746   5.306   0.648
 4299SOL     OW13795   0.800   2.883   6.468
 4299SOL    HW113796   0.835   2.789   6.477
 4299SOL    HW213797   0.876   2.947   6.463
 4300SOL     OW13798   3.970   0.413   6.764
 4300SOL    HW113799   3.944   0.373   6.677
 4300SOL    HW213800   4.018   0.345   6.819
 4301SOL     OW13801   4.108   0.988   1.703
 4301SOL    HW113802   4.095   1.086   1.719
 4301SOL    HW213803   4.041   0.936   1.756
 4302SOL     OW13804   1.630   6.787   6.284
 4302SOL    HW113805   1.688   6.723   6.234
 4302SOL    HW213806   1.546   6.803   6.231
 4303SOL     OW13807   0.048   4.965   4.056
 4303SOL    HW113808   0.026   4.950   4.152
 4303SOL    HW213809   0.066   4.876   4.012
 4304SOL     OW13810   2.980   3.793   3.302
 4304SOL    HW113811   3.005   3.890   3.298
 4304SOL    HW213812   2.955   3.761   3.210
 4305SOL     OW13813   6.456   0.254   4.896
 4305SOL    HW113814   6.518   0.285   4.823
 4305SOL    HW213815   6.495   0.173   4.940
 4306SOL     OW13816   5.765   3.940   6.276
 4306SOL    HW113817   5.749   3.862   6.216
 4306SOL    HW213818   5.734   3.917   6.369
 4307SOL     OW13819   3.938   4.056   6.206
 4307SOL    HW113820   3.978   4.147   6.217
 4307SOL    HW213821   3.840   4.061   6.221
 4308SOL     OW13822   6.073   5.427   6.972
 4308SOL    HW113823   6.120   5.478   6.901
 4308SOL    HW213824   6.062   5.484   0.033
 4309SOL     OW13825   1.108   1.617   0.104
 4309SOL    HW113826   1.188   1.647   0.156
 4309SOL    HW213827   1.073   1.693   0.049
 4310SOL     OW13828   1.270   2.800   2.428
 4310SOL    HW113829   1.230   2.849   2.506
 4310SOL    HW213830   1.229   2.709   2.421
 4311SOL     OW13831   2.028   6.199   2.978
 4311SOL    HW113832   2.073   6.127   2.925
 4311SOL    HW213833   2.074   6.286   2.961
 4312SOL     OW13834   1.385   4.768   0.849
 4312SOL    HW113835   1.403   4.799   0.756
 4312SOL    HW213836   1.463   4.714   0.882
 4313SOL     OW13837   5.095   1.357   1.935
 4313SOL    HW113838   5.140   1.388   1.850
 4313SOL    HW213839   5.007   1.315   1.913
 4314SOL     OW13840   6.154   0.698   4.583
 4314SOL    HW113841   6.151   0.709   4.483
 4314SOL    HW213842   6.137   0.786   4.627
 4315SOL     OW13843   1.959   6.638   1.615
 4315SOL    HW113844   1.980   6.723   1.663
 4315SOL    HW213845   1.864   6.642   1.583
 4316SOL     OW13846   5.381   0.135   1.698
 4316SOL    HW113847   5.334   0.202   1.640
 4316SOL    HW213848   5.370   0.160   1.794
 4317SOL     OW13849   4.949   1.929   4.554
 4317SOL    HW113850   4.961   1.995   4.480
 4317SOL    HW213851   4.931   1.978   4.639
 4318SOL     OW13852   0.446   3.312   4.899
 4318SOL    HW113853   0.427   3.376   4.973
 4318SOL    HW213854   0.375   3.320   4.828
 4319SOL     OW13855   2.212   2.647   1.027
 4319SOL    HW113856   2.169   2.618   1.113
 4319SOL    HW213857   2.246   2.741   1.037
 4320SOL     OW13858   6.332   5.519   1.533
 4320SOL    HW113859   6.235   5.507   1.551
 4320SOL    HW213860   6.366   5.599   1.582
 4321SOL     OW13861   6.770   6.751   5.555
 4321SOL    HW113862   6.758   6.790   5.464
 4321SOL    HW213863   6.852   6.789   5.597
 4322SOL     OW13864   6.764   2.882   6.678
 4322SOL    HW113865   6.742   2.884   6.776
 4322SOL    HW213866   6.704   2.817   6.632
 4323SOL     OW13867   4.400   3.674   1.044
 4323SOL    HW113868   4.443   3.662   1.133
 4323SOL    HW213869   4.444   3.750   0.996
 4324SOL     OW13870   5.523   4.484   0.037
 4324SOL    HW113871   5.570   4.477   6.970
 4324SOL    HW213872   5.427   4.504   0.022
 4325SOL     OW13873   2.092   1.172   1.674
 4325SOL    HW113874   1.999   1.191   1.707
 4325SOL    HW213875   2.156   1.235   1.717
 4326SOL     OW13876   4.807   5.013   5.186
 4326SOL    HW113877   4.861   5.068   5.249
 4326SOL    HW213878   4.806   4.918   5.217
 4327SOL     OW13879   5.872   6.126   1.873
 4327SOL    HW113880   5.831   6.148   1.962
 4327SOL    HW213881   5.971   6.122   1.882
 4328SOL     OW13882   4.753   3.730   5.336
 4328SOL    HW113883   4.811   3.668   5.389
 4328SOL    HW213884   4.699   3.677   5.270
 4329SOL     OW13885   4.259   1.747   5.826
 4329SOL    HW113886   4.272   1.703   5.915
 4329SOL    HW213887   4.197   1.825   5.836
 4330SOL     OW13888   2.459   0.331   5.010
 4330SOL    HW113889   2.403   0.283   4.942
 4330SOL    HW213890   2.399   0.374   5.078
 4331SOL     OW13891   5.346   1.928   1.570
 4331SOL    HW113892   5.349   1.918   1.670
 4331SOL    HW213893   5.335   2.024   1.547
 4332SOL     OW13894   5.133   4.178   2.534
 4332SOL    HW113895   5.129   4.167   2.634
 4332SOL    HW213896   5.100   4.095   2.490
 4333SOL     OW13897   3.697   0.373   5.121
 4333SOL    HW113898   3.614   0.369   5.066
 4333SOL    HW213899   3.767   0.424   5.072
 4334SOL     OW13900   1.499   2.727   2.762
 4334SOL    HW113901   1.543   2.688   2.682
 4334SOL    HW213902   1.465   2.819   2.740
 4335SOL     OW13903   3.554   3.612   2.343
 4335SOL    HW113904   3.510   3.652   2.423
 4335SOL    HW213905   3.648   3.587   2.365
 4336SOL     OW13906   2.322   6.329   6.991
 4336SOL    HW113907   2.268   6.246   7.001
 4336SOL    HW213908   2.262   6.406   6.972
 4337SOL     OW13909   0.264   4.134   0.832
 4337SOL    HW113910   0.240   4.191   0.910
 4337SOL    HW213911   0.235   4.040   0.849
 4338SOL     OW13912   5.832   5.574   5.065
 4338SOL    HW113913   5.880   5.662   5.061
 4338SOL    HW213914   5.748   5.580   5.011
 4339SOL     OW13915   5.710   3.793   5.018
 4339SOL    HW113916   5.712   3.699   4.986
 4339SOL    HW213917   5.618   3.815   5.053
 4340SOL     OW13918   6.700   3.544   1.104
 4340SOL    HW113919   6.640   3.620   1.129
 4340SOL    HW213920   6.793   3.563   1.136
 4341SOL     OW13921   0.677   6.122   1.844
 4341SOL    HW113922   0.649   6.132   1.940
 4341SOL    HW213923   0.774   6.101   1.840
 4342SOL     OW13924   6.175   3.970   4.434
 4342SOL    HW113925   6.256   3.939   4.484
 4342SOL    HW213926   6.190   4.063   4.401
 4343SOL     OW13927   2.547   5.820   5.333
 4343SOL    HW113928   2.461   5.837   5.285
 4343SOL    HW213929   2.617   5.794   5.267
 4344SOL     OW13930   1.131   4.868   2.536
 4344SOL    HW113931   1.086   4.782   2.560
 4344SOL    HW213932   1.152   4.919   2.620
 4345SOL     OW13933   3.139   3.544   5.383
 4345SOL    HW113934   3.123   3.446   5.375
 4345SOL    HW213935   3.052   3.593   5.376
 4346SOL     OW13936   1.849   2.999   2.276
 4346SOL    HW113937   1.944   3.022   2.253
 4346SOL    HW213938   1.804   3.080   2.315
 4347SOL     OW13939   6.871   6.884   2.858
 4347SOL    HW113940   6.910   6.890   2.766
 4347SOL    HW213941   6.782   6.930   2.860
 4348SOL     OW13942   6.688   4.428   2.943
 4348SOL    HW113943   6.629   4.379   2.879
 4348SOL    HW213944   6.634   4.460   3.021
 4349SOL     OW13945   6.937   1.637   2.684
 4349SOL    HW113946   6.950   1.542   2.712
 4349SOL    HW213947   7.001   1.696   2.733
 4350SOL     OW13948   4.933   1.451   4.046
 4350SOL    HW113949   4.868   1.521   4.017
 4350SOL    HW213950   4.996   1.430   3.971
 4351SOL     OW13951   2.090   5.409   0.971
 4351SOL    HW113952   2.136   5.492   0.938
 4351SOL    HW213953   2.057   5.425   1.064
 4352SOL     OW13954   6.915   3.031   2.353
 4352SOL    HW113955   6.847   2.958   2.353
 4352SOL    HW213956   6.947   3.048   2.260
 4353SOL     OW13957   3.940   3.404   6.442
 4353SOL    HW113958   3.935   3.338   6.366
 4353SOL    HW213959   4.019   3.382   6.499
 4354SOL     OW13960   2.746   6.885   5.477
 4354SOL    HW113961   2.686   6.959   5.447
 4354SOL    HW213962   2.695   6.800   5.482
 4355SOL     OW13963   2.743   0.324   2.607
 4355SOL    HW113964   2.677   0.399   2.609
 4355SOL    HW213965   2.807   0.338   2.532
 4356SOL     OW13966   5.133   4.133   0.943
 4356SOL    HW113967   5.199   4.195   0.985
 4356SOL    HW213968   5.156   4.120   0.847
 4357SOL     OW13969   6.896   0.955   0.599
 4357SOL    HW113970   6.840   0.975   0.519
 4357SOL    HW213971   6.993   0.970   0.577
 4358SOL     OW13972   0.412   6.417   6.965
 4358SOL    HW113973   0.464   6.462   0.016
 4358SOL    HW213974   0.369   6.485   6.906
 4359SOL     OW13975   2.149   1.791   6.900
 4359SOL    HW113976   2.132   1.864   6.967
 4359SOL    HW213977   2.235   1.810   6.852
 4360SOL     OW13978   1.417   2.243   3.524
 4360SOL    HW113979   1.486   2.304   3.565
 4360SOL    HW213980   1.463   2.171   3.473
 4361SOL     OW13981   2.324   3.401   0.824
 4361SOL    HW113982   2.335   3.355   0.913
 4361SOL    HW213983   2.355   3.496   0.833
 4362SOL     OW13984   6.124   5.442   3.020
 4362SOL    HW113985   6.069   5.500   2.960
 4362SOL    HW213986   6.065   5.375   3.065
 4363SOL     OW13987   5.096   2.870   0.346
 4363SOL    HW113988   5.015   2.811   0.345
 4363SOL    HW213989   5.078   2.951   0.289
 4364SOL     OW13990   2.945   3.249   4.722
 4364SOL    HW113991   2.877   3.176   4.711
 4364SOL    HW213992   3.008   3.225   4.795
 4365SOL     OW13993   2.143   1.610   1.887
 4365SOL    HW113994   2.141   1.695   1.833
 4365SOL    HW213995   2.100   1.627   1.976
 4366SOL     OW13996   6.059   0.059   0.320
 4366SOL    HW113997   6.039   0.157   0.316
 4366SOL    HW213998   5.974   0.009   0.335
 4367SOL     OW13999   2.123   4.490   4.399
 4367SOL    HW114000   2.143   4.515   4.493
 4367SOL    HW214001   2.118   4.390   4.392
 4368SOL     OW14002   3.918   4.222   0.824
 4368SOL    HW114003   4.004   4.176   0.847
 4368SOL    HW214004   3.863   4.234   0.907
 4369SOL     OW14005   4.134   5.524   2.880
 4369SOL    HW114006   4.182   5.549   2.964
 4369SOL    HW214007   4.197   5.528   2.803
 4370SOL     OW14008   4.171   5.371   2.400
 4370SOL    HW114009   4.183   5.339   2.306
 4370SOL    HW214010   4.182   5.294   2.463
 4371SOL     OW14011   1.009   2.056   1.615
 4371SOL    HW114012   1.095   2.023   1.654
 4371SOL    HW214013   0.958   1.979   1.577
 4372SOL     OW14014   3.385   1.465   2.451
 4372SOL    HW114015   3.457   1.404   2.418
 4372SOL    HW214016   3.383   1.548   2.395
 4373SOL     OW14017   6.394   2.312   6.549
 4373SOL    HW114018   6.372   2.406   6.575
 4373SOL    HW214019   6.482   2.286   6.587
 4374SOL     OW14020   1.648   1.998   1.989
 4374SOL    HW114021   1.737   1.970   2.024
 4374SOL    HW214022   1.613   2.073   2.046
 4375SOL     OW14023   4.410   7.009   2.863
 4375SOL    HW114024   4.367   0.011   2.951
 4375SOL    HW214025   4.413   0.071   2.806
 4376SOL     OW14026   0.229   6.794   1.011
 4376SOL    HW114027   0.154   6.860   1.007
 4376SOL    HW214028   0.280   6.795   0.925
 4377SOL     OW14029   5.227   4.840   0.630
 4377SOL    HW114030   5.134   4.857   0.662
 4377SOL    HW214031   5.229   4.842   0.530
 4378SOL     OW14032   2.220   2.370   3.059
 4378SOL    HW114033   2.193   2.283   3.018
 4378SOL    HW214034   2.257   2.430   2.988
 4379SOL     OW14035   1.780   1.426   2.729
 4379SOL    HW114036   1.789   1.525   2.727
 4379SOL    HW214037   1.728   1.399   2.811
 4380SOL     OW14038   0.593   7.009   2.445
 4380SOL    HW114039   0.677   6.978   2.491
 4380SOL    HW214040   0.517   7.006   2.510
 4381SOL     OW14041   1.057   5.318   5.304
 4381SOL    HW114042   1.125   5.335   5.374
 4381SOL    HW214043   1.012   5.230   5.322
 4382SOL     OW14044   6.957   2.982   5.348
 4382SOL    HW114045   0.011   3.032   5.392
 4382SOL    HW214046   6.993   2.898   5.307
 4383SOL     OW14047   0.970   3.357   6.096
 4383SOL    HW114048   0.880   3.398   6.110
 4383SOL    HW214049   1.007   3.327   6.184
 4384SOL     OW14050   5.543   0.823   4.709
 4384SOL    HW114051   5.540   0.724   4.717
 4384SOL    HW214052   5.596   0.849   4.628
 4385SOL     OW14053   5.674   2.211   5.011
 4385SOL    HW114054   5.606   2.274   5.048
 4385SOL    HW214055   5.737   2.184   5.084
 4386SOL     OW14056   1.864   3.685   5.881
 4386SOL    HW114057   1.912   3.636   5.954
 4386SOL    HW214058   1.929   3.742   5.831
 4387SOL     OW14059   7.010   1.845   1.390
 4387SOL    HW114060   0.075   1.895   1.377
 4387SOL    HW214061   6.934   1.900   1.356
 4388SOL     OW14062   4.268   2.190   5.994
 4388SOL    HW114063   4.311   2.220   6.079
 4388SOL    HW214064   4.188   2.134   6.015
 4389SOL     OW14065   6.379   3.120   0.845
 4389SOL    HW114066   6.281   3.136   0.853
 4389SOL    HW214067   6.429   3.204   0.868
 4390SOL     OW14068   4.228   6.953   1.526
 4390SOL    HW114069   4.150   6.988   1.578
 4390SOL    HW214070   4.211   6.965   1.428
 4391SOL     OW14071   2.546   5.431   6.734
 4391SOL    HW114072   2.471   5.382   6.689
 4391SOL    HW214073   2.553   5.523   6.696
 4392SOL     OW14074   6.668   3.382   4.937
 4392SOL    HW114075   6.718   3.461   4.973
 4392SOL    HW214076   6.672   3.382   4.838
 4393SOL     OW14077   6.020   0.857   2.762
 4393SOL    HW114078   5.975   0.774   2.794
 4393SOL    HW214079   5.953   0.930   2.752
 4394SOL     OW14080   6.776   5.152   2.446
 4394SOL    HW114081   6.784   5.064   2.493
 4394SOL    HW214082   6.864   5.199   2.447
 4395SOL     OW14083   1.734   6.947   2.386
 4395SOL    HW114084   1.670   6.997   2.327
 4395SOL    HW214085   1.697   6.943   2.479
 4396SOL     OW14086   2.579   1.804   4.066
 4396SOL    HW114087   2.585   1.784   4.164
 4396SOL    HW214088   2.655   1.760   4.018
 4397SOL     OW14089   1.429   2.064   4.167
 4397SOL    HW114090   1.353   2.122   4.135
 4397SOL    HW214091   1.494   2.121   4.218
 4398SOL     OW14092   0.604   3.676   6.120
 4398SOL    HW114093   0.596   3.710   6.213
 4398SOL    HW214094   0.519   3.630   6.094
 4399SOL     OW14095   2.566   0.214   3.090
 4399SOL    HW114096   2.512   0.131   3.073
 4399SOL    HW214097   2.600   0.250   3.004
 4400SOL     OW14098   2.899   6.801   5.264
 4400SOL    HW114099   2.956   6.720   5.280
 4400SOL    HW214100   2.840   6.816   5.344
 4401SOL     OW14101   2.791   0.122   5.957
 4401SOL    HW114102   2.828   0.152   5.868
 4401SOL    HW214103   2.809   0.024   5.969
 4402SOL     OW14104   1.683   0.781   2.118
 4402SOL    HW114105   1.747   0.712   2.151
 4402SOL    HW214106   1.708   0.870   2.155
 4403SOL     OW14107   0.892   0.513   0.521
 4403SOL    HW114108   0.890   0.496   0.620
 4403SOL    HW214109   0.799   0.504   0.484
 4404SOL     OW14110   1.794   5.884   5.484
 4404SOL    HW114111   1.711   5.894   5.539
 4404SOL    HW214112   1.874   5.892   5.543
 4405SOL     OW14113   1.859   4.192   2.019
 4405SOL    HW114114   1.761   4.172   2.024
 4405SOL    HW214115   1.872   4.291   2.015
 4406SOL     OW14116   0.417   3.087   1.174
 4406SOL    HW114117   0.466   3.078   1.087
 4406SOL    HW214118   0.436   3.177   1.214
 4407SOL     OW14119   6.310   5.571   0.843
 4407SOL    HW114120   6.297   5.663   0.880
 4407SOL    HW214121   6.399   5.536   0.872
 4408SOL     OW14122   2.526   0.375   1.046
 4408SOL    HW114123   2.541   0.394   0.949
 4408SOL    HW214124   2.606   0.328   1.084
 4409SOL     OW14125   4.597   1.570   2.160
 4409SOL    HW114126   4.636   1.577   2.068
 4409SOL    HW214127   4.640   1.638   2.219
 4410SOL     OW14128   1.628   4.870   0.091
 4410SOL    HW114129   1.699   4.933   0.060
 4410SOL    HW214130   1.539   4.916   0.086
 4411SOL     OW14131   3.565   4.163   5.282
 4411SOL    HW114132   3.633   4.191   5.214
 4411SOL    HW214133   3.489   4.228   5.281
 4412SOL     OW14134   4.437   6.355   4.208
 4412SOL    HW114135   4.464   6.323   4.298
 4412SOL    HW214136   4.514   6.402   4.165
 4413SOL     OW14137   5.535   4.666   4.756
 4413SOL    HW114138   5.601   4.717   4.702
 4413SOL    HW214139   5.541   4.569   4.733
 4414SOL     OW14140   3.483   5.181   1.344
 4414SOL    HW114141   3.574   5.204   1.378
 4414SOL    HW214142   3.489   5.155   1.247
 4415SOL     OW14143   5.111   2.732   0.592
 4415SOL    HW114144   5.124   2.789   0.512
 4415SOL    HW214145   5.029   2.676   0.580
 4416SOL     OW14146   3.901   1.706   3.999
 4416SOL    HW114147   3.919   1.805   4.004
 4416SOL    HW214148   3.925   1.672   3.908
 4417SOL     OW14149   5.626   4.113   3.886
 4417SOL    HW114150   5.725   4.101   3.886
 4417SOL    HW214151   5.585   4.051   3.818
 4418SOL     OW14152   6.018   1.666   2.218
 4418SOL    HW114153   5.985   1.752   2.255
 4418SOL    HW214154   5.942   1.617   2.174
 4419SOL     OW14155   5.616   6.720   6.164
 4419SOL    HW114156   5.565   6.649   6.115
 4419SOL    HW214157   5.700   6.681   6.202
 4420SOL     OW14158   4.699   1.442   1.883
 4420SOL    HW114159   4.738   1.371   1.941
 4420SOL    HW214160   4.751   1.447   1.797
 4421SOL     OW14161   1.906   1.537   4.884
 4421SOL    HW114162   1.990   1.559   4.835
 4421SOL    HW214163   1.913   1.572   4.978
 4422SOL     OW14164   1.473   3.909   0.195
 4422SOL    HW114165   1.464   3.941   0.289
 4422SOL    HW214166   1.568   3.913   0.167
 4423SOL     OW14167   0.096   3.222   5.387
 4423SOL    HW114168   0.149   3.160   5.446
 4423SOL    HW214169   0.056   3.295   5.442
 4424SOL     OW14170   5.655   1.050   4.470
 4424SOL    HW114171   5.604   1.015   4.392
 4424SOL    HW214172   5.729   0.987   4.492
 4425SOL     OW14173   2.723   4.320   0.147
 4425SOL    HW114174   2.692   4.240   0.095
 4425SOL    HW214175   2.727   4.298   0.244
 4426SOL     OW14176   0.643   1.150   4.132
 4426SOL    HW114177   0.727   1.201   4.116
 4426SOL    HW214178   0.583   1.204   4.192
 4427SOL     OW14179   6.967   6.415   2.051
 4427SOL    HW114180   6.896   6.351   2.022
 4427SOL    HW214181   6.969   6.419   2.151
 4428SOL     OW14182   3.650   1.025   3.954
 4428SOL    HW114183   3.707   1.037   3.872
 4428SOL    HW214184   3.706   1.038   4.035
 4429SOL     OW14185   2.905   6.913   2.554
 4429SOL    HW114186   2.869   6.827   2.589
 4429SOL    HW214187   2.924   6.975   2.630
 4430SOL     OW14188   4.692   4.834   5.493
 4430SOL    HW114189   4.689   4.765   5.566
 4430SOL    HW214190   4.722   4.922   5.532
 4431SOL     OW14191   3.107   1.158   2.683
 4431SOL    HW114192   3.028   1.129   2.738
 4431SOL    HW214193   3.102   1.257   2.668
 4432SOL     OW14194   2.703   3.342   6.236
 4432SOL    HW114195   2.655   3.396   6.305
 4432SOL    HW214196   2.645   3.266   6.206
 4433SOL     OW14197   5.400   1.714   4.767
 4433SOL    HW114198   5.458   1.649   4.718
 4433SOL    HW214199   5.421   1.807   4.736
 4434SOL     OW14200   5.329   1.271   3.012
 4434SOL    HW114201   5.287   1.325   3.085
 4434SOL    HW214202   5.363   1.185   3.051
 4435SOL     OW14203   4.817   3.722   1.060
 4435SOL    HW114204   4.875   3.645   1.087
 4435SOL    HW214205   4.872   3.805   1.057
 4436SOL     OW14206   4.234   0.672   1.448
 4436SOL    HW114207   4.167   0.721   1.392
 4436SOL    HW214208   4.322   0.672   1.401
 4437SOL     OW14209   0.543   3.087   2.667
 4437SOL    HW114210   0.466   3.070   2.606
 4437SOL    HW214211   0.552   3.186   2.683
 4438SOL     OW14212   4.986   0.126   6.229
 4438SOL    HW114213   5.014   0.058   6.160
 4438SOL    HW214214   4.887   0.119   6.243
 4439SOL     OW14215   0.295   3.715   1.899
 4439SOL    HW114216   0.365   3.657   1.856
 4439SOL    HW214217   0.225   3.657   1.940
 4440SOL     OW14218   2.795   4.599   0.508
 4440SOL    HW114219   2.812   4.692   0.540
 4440SOL    HW214220   2.765   4.602   0.413
 4441SOL     OW14221   0.548   1.908   2.256
 4441SOL    HW114222   0.506   1.851   2.327
 4441SOL    HW214223   0.517   2.002   2.266
 4442SOL     OW14224   1.923   5.114   4.121
 4442SOL    HW114225   1.850   5.143   4.182
 4442SOL    HW214226   1.890   5.041   4.061
 4443SOL     OW14227   1.325   3.460   6.278
 4443SOL    HW114228   1.389   3.435   6.206
 4443SOL    HW214229   1.272   3.379   6.304
 4444SOL     OW14230   3.304   4.026   5.311
 4444SOL    HW114231   3.257   4.073   5.235
 4444SOL    HW214232   3.385   4.078   5.336
 4445SOL     OW14233   1.661   6.485   6.797
 4445SOL    HW114234   1.751   6.528   6.806
 4445SOL    HW214235   1.660   6.423   6.719
 4446SOL     OW14236   4.925   1.215   1.255
 4446SOL    HW114237   4.989   1.243   1.326
 4446SOL    HW214238   4.973   1.206   1.168
 4447SOL     OW14239   4.976   4.603   6.140
 4447SOL    HW114240   4.931   4.687   6.111
 4447SOL    HW214241   4.996   4.546   6.060
 4448SOL     OW14242   2.353   4.277   1.337
 4448SOL    HW114243   2.340   4.308   1.431
 4448SOL    HW214244   2.315   4.185   1.327
 4449SOL     OW14245   4.926   1.473   6.384
 4449SOL    HW114246   4.955   1.414   6.460
 4449SOL    HW214247   4.830   1.457   6.364
 4450SOL     OW14248   3.922   2.603   5.763
 4450SOL    HW114249   3.900   2.524   5.707
 4450SOL    HW214250   4.019   2.600   5.789
 4451SOL     OW14251   5.571   4.494   3.318
 4451SOL    HW114252   5.530   4.456   3.400
 4451SOL    HW214253   5.666   4.461   3.310
 4452SOL     OW14254   5.638   5.875   4.388
 4452SOL    HW114255   5.659   5.971   4.372
 4452SOL    HW214256   5.540   5.865   4.406
 4453SOL     OW14257   1.094   2.751   1.127
 4453SOL    HW114258   1.124   2.828   1.072
 4453SOL    HW214259   1.029   2.695   1.074
 4454SOL     OW14260   1.201   1.897   0.198
 4454SOL    HW114261   1.139   1.881   0.121
 4454SOL    HW214262   1.263   1.819   0.208
 4455SOL     OW14263   5.015   5.867   5.618
 4455SOL    HW114264   4.918   5.848   5.631
 4455SOL    HW214265   5.050   5.917   5.698
 4456SOL     OW14266   2.729   6.220   2.806
 4456SOL    HW114267   2.667   6.161   2.755
 4456SOL    HW214268   2.690   6.312   2.813
 4457SOL     OW14269   3.649   1.383   2.811
 4457SOL    HW114270   3.700   1.390   2.726
 4457SOL    HW214271   3.602   1.295   2.816
 4458SOL     OW14272   1.926   2.562   0.305
 4458SOL    HW114273   2.008   2.590   0.257
 4458SOL    HW214274   1.951   2.508   0.386
 4459SOL     OW14275   4.190   1.846   4.040
 4459SOL    HW114276   4.139   1.905   4.104
 4459SOL    HW214277   4.251   1.786   4.092
 4460SOL     OW14278   1.518   2.706   6.465
 4460SOL    HW114279   1.524   2.796   6.422
 4460SOL    HW214280   1.423   2.675   6.464
 4461SOL     OW14281   2.069   0.441   1.041
 4461SOL    HW114282   2.142   0.421   0.976
 4461SOL    HW214283   1.981   0.444   0.993
 4462SOL     OW14284   6.131   4.807   2.275
 4462SOL    HW114285   6.075   4.740   2.324
 4462SOL    HW214286   6.119   4.796   2.176
 4463SOL     OW14287   4.696   1.162   0.557
 4463SOL    HW114288   4.614   1.197   0.602
 4463SOL    HW214289   4.721   1.074   0.597
 4464SOL     OW14290   0.116   5.621   0.315
 4464SOL    HW114291   0.083   5.607   0.409
 4464SOL    HW214292   0.077   5.705   0.278
 4465SOL     OW14293   3.670   4.997   1.132
 4465SOL    HW114294   3.643   4.901   1.131
 4465SOL    HW214295   3.648   5.039   1.044
 4466SOL     OW14296   1.281   1.586   3.039
 4466SOL    HW114297   1.299   1.509   2.978
 4466SOL    HW214298   1.287   1.672   2.987
 4467SOL     OW14299   1.588   5.493   2.553
 4467SOL    HW114300   1.598   5.443   2.639
 4467SOL    HW214301   1.623   5.586   2.565
 4468SOL     OW14302   1.719   4.149   0.197
 4468SOL    HW114303   1.711   4.096   0.282
 4468SOL    HW214304   1.796   4.212   0.204
 4469SOL     OW14305   3.131   0.753   2.112
 4469SOL    HW114306   3.144   0.743   2.211
 4469SOL    HW214307   3.116   0.663   2.071
 4470SOL     OW14308   0.294   2.066   2.095
 4470SOL    HW114309   0.237   2.147   2.112
 4470SOL    HW214310   0.382   2.095   2.058
 4471SOL     OW14311   1.125   2.343   6.512
 4471SOL    HW114312   1.133   2.443   6.509
 4471SOL    HW214313   1.216   2.303   6.518
 4472SOL     OW14314   0.627   3.283   1.957
 4472SOL    HW114315   0.604   3.196   2.002
 4472SOL    HW214316   0.658   3.264   1.864
 4473SOL     OW14317   5.860   2.983   3.885
 4473SOL    HW114318   5.785   2.938   3.838
 4473SOL    HW214319   5.827   3.022   3.971
 4474SOL     OW14320   2.358   0.504   2.123
 4474SOL    HW114321   2.454   0.500   2.093
 4474SOL    HW214322   2.341   0.592   2.168
 4475SOL     OW14323   1.134   4.317   1.951
 4475SOL    HW114324   1.077   4.241   1.917
 4475SOL    HW214325   1.087   4.363   2.026
 4476SOL     OW14326   5.734   0.647   3.185
 4476SOL    HW114327   5.774   0.591   3.113
 4476SOL    HW214328   5.685   0.724   3.144
 4477SOL     OW14329   1.508   0.159   5.462
 4477SOL    HW114330   1.513   0.257   5.447
 4477SOL    HW214331   1.577   0.112   5.407
 4478SOL     OW14332   3.347   0.023   2.448
 4478SOL    HW114333   3.261   0.074   2.444
 4478SOL    HW214334   3.330   6.954   2.489
 4479SOL     OW14335   0.463   2.170   1.011
 4479SOL    HW114336   0.421   2.251   1.052
 4479SOL    HW214337   0.554   2.156   1.050
 4480SOL     OW14338   0.326   4.390   4.986
 4480SOL    HW114339   0.340   4.346   5.075
 4480SOL    HW214340   0.361   4.331   4.913
 4481SOL     OW14341   3.548   5.757   4.445
 4481SOL    HW114342   3.489   5.751   4.364
 4481SOL    HW214343   3.640   5.727   4.421
 4482SOL     OW14344   1.992   3.176   5.254
 4482SOL    HW114345   2.047   3.134   5.181
 4482SOL    HW214346   1.903   3.130   5.259
 4483SOL     OW14347   6.162   2.479   2.269
 4483SOL    HW114348   6.249   2.483   2.220
 4483SOL    HW214349   6.135   2.571   2.296
 4484SOL     OW14350   3.495   2.423   6.851
 4484SOL    HW114351   3.526   2.469   6.768
 4484SOL    HW214352   3.564   2.357   6.881
 4485SOL     OW14353   5.688   2.462   4.257
 4485SOL    HW114354   5.732   2.418   4.180
 4485SOL    HW214355   5.720   2.421   4.343
 4486SOL     OW14356   6.552   5.516   5.472
 4486SOL    HW114357   6.581   5.432   5.427
 4486SOL    HW214358   6.611   5.534   5.551
 4487SOL     OW14359   3.105   2.820   6.291
 4487SOL    HW114360   3.062   2.736   6.259
 4487SOL    HW214361   3.156   2.861   6.216
 4488SOL     OW14362   0.118   3.670   5.823
 4488SOL    HW114363   0.137   3.675   5.921
 4488SOL    HW214364   0.204   3.677   5.772
 4489SOL     OW14365   5.047   5.579   5.097
 4489SOL    HW114366   5.050   5.679   5.096
 4489SOL    HW214367   5.140   5.542   5.086
 4490SOL     OW14368   5.481   1.979   2.309
 4490SOL    HW114369   5.539   2.045   2.357
 4490SOL    HW214370   5.385   1.997   2.330
 4491SOL     OW14371   0.332   3.192   3.608
 4491SOL    HW114372   0.324   3.096   3.636
 4491SOL    HW214373   0.294   3.251   3.678
 4492SOL     OW14374   5.750   4.490   2.446
 4492SOL    HW114375   5.709   4.399   2.440
 4492SOL    HW214376   5.733   4.541   2.361
 4493SOL     OW14377   4.948   5.441   4.642
 4493SOL    HW114378   4.920   5.350   4.612
 4493SOL    HW214379   4.878   5.479   4.703
 4494SOL     OW14380   0.454   0.925   6.607
 4494SOL    HW114381   0.474   1.002   6.667
 4494SOL    HW214382   0.481   0.948   6.513
 4495SOL     OW14383   4.073   6.951   3.914
 4495SOL    HW114384   4.061   0.027   3.891
 4495SOL    HW214385   4.052   6.937   4.011
 4496SOL     OW14386   5.862   6.417   1.278
 4496SOL    HW114387   5.820   6.333   1.311
 4496SOL    HW214388   5.800   6.494   1.292
 4497SOL     OW14389   4.775   2.256   6.653
 4497SOL    HW114390   4.726   2.341   6.633
 4497SOL    HW214391   4.790   2.248   6.751
 4498SOL     OW14392   6.932   3.395   0.337
 4498SOL    HW114393   7.011   3.400   0.275
 4498SOL    HW214394   6.960   3.422   0.428
 4499SOL     OW14395   6.061   3.607   4.396
 4499SOL    HW114396   6.029   3.534   4.456
 4499SOL    HW214397   6.035   3.696   4.433
 4500SOL     OW14398   3.297   3.215   4.781
 4500SOL    HW114399   3.303   3.312   4.807
 4500SOL    HW214400   3.380   3.168   4.809
 4501SOL     OW14401   0.337   3.428   2.601
 4501SOL    HW114402   0.266   3.403   2.668
 4501SOL    HW214403   0.426   3.431   2.647
 4502SOL     OW14404   0.532   2.886   7.012
 4502SOL    HW114405   0.476   2.804   7.013
 4502SOL    HW214406   0.627   2.862   0.009
 4503SOL     OW14407   3.766   6.885   2.017
 4503SOL    HW114408   3.679   6.853   2.054
 4503SOL    HW214409   3.815   6.809   1.974
 4504SOL     OW14410   0.039   1.111   4.638
 4504SOL    HW114411   0.127   1.157   4.630
 4504SOL    HW214412   0.054   1.014   4.655
 4505SOL     OW14413   6.635   5.317   2.263
 4505SOL    HW114414   6.689   5.257   2.322
 4505SOL    HW214415   6.573   5.262   2.207
 4506SOL     OW14416   4.871   3.015   3.453
 4506SOL    HW114417   4.851   3.098   3.399
 4506SOL    HW214418   4.846   3.031   3.549
 4507SOL     OW14419   6.206   4.534   3.660
 4507SOL    HW114420   6.255   4.521   3.574
 4507SOL    HW214421   6.118   4.578   3.642
 4508SOL     OW14422   1.462   5.220   6.942
 4508SOL    HW114423   1.367   5.212   6.911
 4508SOL    HW214424   1.524   5.181   6.874
 4509SOL     OW14425   4.978   2.406   2.979
 4509SOL    HW114426   5.032   2.324   2.958
 4509SOL    HW214427   4.938   2.397   3.071
 4510SOL     OW14428   4.372   2.091   4.133
 4510SOL    HW114429   4.446   2.042   4.178
 4510SOL    HW214430   4.342   2.040   4.052
 4511SOL     OW14431   5.973   4.100   6.167
 4511SOL    HW114432   5.988   4.172   6.235
 4511SOL    HW214433   5.898   4.041   6.198
 4512SOL     OW14434   2.508   1.195   6.069
 4512SOL    HW114435   2.441   1.268   6.056
 4512SOL    HW214436   2.594   1.221   6.026
 4513SOL     OW14437   0.594   4.991   6.140
 4513SOL    HW114438   0.523   4.943   6.088
 4513SOL    HW214439   0.556   5.019   6.229
 4514SOL     OW14440   3.389   1.977   6.301
 4514SOL    HW114441   3.463   2.034   6.265
 4514SOL    HW214442   3.320   2.035   6.344
 4515SOL     OW14443   5.936   1.885   5.429
 4515SOL    HW114444   5.907   1.980   5.435
 4515SOL    HW214445   5.935   1.844   5.520
 4516SOL     OW14446   2.383   6.793   0.107
 4516SOL    HW114447   2.418   6.887   0.116
 4516SOL    HW214448   2.460   6.730   0.095
 4517SOL     OW14449   4.763   6.870   6.884
 4517SOL    HW114450   4.807   6.784   6.908
 4517SOL    HW214451   4.765   6.932   6.962
 4518SOL     OW14452   6.806   7.000   2.418
 4518SOL    HW114453   6.821   0.014   2.326
 4518SOL    HW214454   6.749   6.918   2.414
 4519SOL     OW14455   6.135   0.221   1.200
 4519SOL    HW114456   6.112   0.227   1.103
 4519SOL    HW214457   6.055   0.187   1.250
 4520SOL     OW14458   4.247   6.383   5.637
 4520SOL    HW114459   4.319   6.385   5.707
 4520SOL    HW214460   4.246   6.469   5.587
 4521SOL     OW14461   5.877   2.145   5.189
 4521SOL    HW114462   5.967   2.104   5.173
 4521SOL    HW214463   5.845   2.120   5.281
 4522SOL     OW14464   5.593   5.201   3.719
 4522SOL    HW114465   5.557   5.260   3.647
 4522SOL    HW214466   5.671   5.150   3.684
 4523SOL     OW14467   1.363   4.785   0.183
 4523SOL    HW114468   1.381   4.726   0.261
 4523SOL    HW214469   1.290   4.746   0.127
 4524SOL     OW14470   6.518   2.860   1.929
 4524SOL    HW114471   6.515   2.852   2.029
 4524SOL    HW214472   6.466   2.785   1.888
 4525SOL     OW14473   5.079   2.543   5.410
 4525SOL    HW114474   5.123   2.621   5.455
 4525SOL    HW214475   4.995   2.573   5.366
 4526SOL     OW14476   6.679   0.511   6.416
 4526SOL    HW114477   6.723   0.571   6.484
 4526SOL    HW214478   6.749   0.457   6.369
 4527SOL     OW14479   6.616   1.256   2.856
 4527SOL    HW114480   6.592   1.324   2.926
 4527SOL    HW214481   6.695   1.203   2.887
 4528SOL     OW14482   4.576   0.196   6.570
 4528SOL    HW114483   4.625   0.114   6.541
 4528SOL    HW214484   4.609   0.275   6.519
 4529SOL     OW14485   2.100   0.849   5.035
 4529SOL    HW114486   2.031   0.777   5.033
 4529SOL    HW214487   2.158   0.837   5.116
 4530SOL     OW14488   1.972   5.568   4.095
 4530SOL    HW114489   2.049   5.510   4.068
 4530SOL    HW214490   1.937   5.538   4.184
 4531SOL     OW14491   0.734   2.740   5.396
 4531SOL    HW114492   0.657   2.799   5.419
 4531SOL    HW214493   0.808   2.795   5.356
 4532SOL     OW14494   6.419   1.557   2.155
 4532SOL    HW114495   6.381   1.639   2.198
 4532SOL    HW214496   6.494   1.583   2.094
 4533SOL     OW14497   1.740   1.068   2.556
 4533SOL    HW114498   1.709   1.162   2.542
 4533SOL    HW214499   1.667   1.005   2.530
 4534SOL     OW14500   5.772   4.450   5.024
 4534SOL    HW114501   5.722   4.383   4.970
 4534SOL    HW214502   5.708   4.502   5.081
 4535SOL     OW14503   3.431   0.622   2.201
 4535SOL    HW114504   3.343   0.581   2.178
 4535SOL    HW214505   3.484   0.557   2.256
 4536SOL     OW14506   4.562   1.664   4.673
 4536SOL    HW114507   4.526   1.597   4.738
 4536SOL    HW214508   4.661   1.653   4.666
 4537SOL     OW14509   4.103   3.563   0.726
 4537SOL    HW114510   4.148   3.562   0.816
 4537SOL    HW214511   4.006   3.586   0.738
 4538SOL     OW14512   1.986   0.900   2.594
 4538SOL    HW114513   1.909   0.943   2.546
 4538SOL    HW214514   1.989   0.803   2.570
 4539SOL     OW14515   3.510   6.367   4.901
 4539SOL    HW114516   3.417   6.332   4.910
 4539SOL    HW214517   3.573   6.289   4.894
 4540SOL     OW14518   2.243   2.442   6.889
 4540SOL    HW114519   2.241   2.483   6.798
 4540SOL    HW214520   2.308   2.492   6.946
 4541SOL     OW14521   5.816   1.804   6.572
 4541SOL    HW114522   5.719   1.793   6.593
 4541SOL    HW214523   5.866   1.724   6.605
 4542SOL     OW14524   0.188   2.442   1.359
 4542SOL    HW114525   0.109   2.474   1.308
 4542SOL    HW214526   0.210   2.508   1.431
 4543SOL     OW14527   4.660   2.487   0.963
 4543SOL    HW114528   4.640   2.492   1.061
 4543SOL    HW214529   4.586   2.531   0.912
 4544SOL     OW14530   3.386   5.469   6.426
 4544SOL    HW114531   3.467   5.436   6.475
 4544SOL    HW214532   3.361   5.560   6.460
 4545SOL     OW14533   6.168   3.356   4.224
 4545SOL    HW114534   6.250   3.388   4.176
 4545SOL    HW214535   6.116   3.435   4.257
 4546SOL     OW14536   2.318   0.502   4.127
 4546SOL    HW114537   2.348   0.421   4.076
 4546SOL    HW214538   2.344   0.492   4.223
 4547SOL     OW14539   6.249   2.059   0.982
 4547SOL    HW114540   6.183   2.014   0.921
 4547SOL    HW214541   6.337   2.066   0.937
 4548SOL     OW14542   2.076   2.429   3.728
 4548SOL    HW114543   2.144   2.421   3.655
 4548SOL    HW214544   1.985   2.440   3.687
 4549SOL     OW14545   5.386   3.982   2.604
 4549SOL    HW114546   5.374   4.017   2.511
 4549SOL    HW214547   5.356   4.052   2.669
 4550SOL     OW14548   1.261   5.184   3.241
 4550SOL    HW114549   1.279   5.261   3.180
 4550SOL    HW214550   1.219   5.217   3.325
 4551SOL     OW14551   0.964   3.438   4.543
 4551SOL    HW114552   0.986   3.373   4.471
 4551SOL    HW214553   0.986   3.531   4.512
 4552SOL     OW14554   5.666   2.029   1.195
 4552SOL    HW114555   5.614   2.111   1.170
 4552SOL    HW214556   5.714   2.045   1.281
 4553SOL     OW14557   4.662   4.265   0.465
 4553SOL    HW114558   4.726   4.250   0.540
 4553SOL    HW214559   4.579   4.307   0.500
 4554SOL     OW14560   6.670   6.732   2.436
 4554SOL    HW114561   6.671   6.705   2.533
 4554SOL    HW214562   6.611   6.669   2.385
 4555SOL     OW14563   1.884   2.027   5.353
 4555SOL    HW114564   1.933   2.093   5.410
 4555SOL    HW214565   1.928   1.938   5.358
 4556SOL     OW14566   5.491   3.887   4.573
 4556SOL    HW114567   5.515   3.814   4.637
 4556SOL    HW214568   5.400   3.870   4.535
 4557SOL     OW14569   4.671   5.758   4.372
 4557SOL    HW114570   4.633   5.795   4.457
 4557SOL    HW214571   4.766   5.731   4.387
 4558SOL     OW14572   0.116   4.257   4.665
 4558SOL    HW114573   0.166   4.333   4.623
 4558SOL    HW214574   0.082   4.285   4.755
 4559SOL     OW14575   0.156   3.333   2.432
 4559SOL    HW114576   0.111   3.257   2.479
 4559SOL    HW214577   0.225   3.374   2.492
 4560SOL     OW14578   5.751   3.727   0.859
 4560SOL    HW114579   5.697   3.715   0.942
 4560SOL    HW214580   5.843   3.760   0.884
 4561SOL     OW14581   3.449   2.000   3.250
 4561SOL    HW114582   3.414   1.961   3.165
 4561SOL    HW214583   3.374   2.035   3.305
 4562SOL     OW14584   1.990   6.968   6.869
 4562SOL    HW114585   1.909   7.014   6.906
 4562SOL    HW214586   1.962   6.881   6.827
 4563SOL     OW14587   6.993   2.788   1.302
 4563SOL    HW114588   6.924   2.842   1.350
 4563SOL    HW214589   0.057   2.841   1.296
 4564SOL     OW14590   0.086   6.366   1.797
 4564SOL    HW114591   0.174   6.413   1.800
 4564SOL    HW214592   0.038   6.379   1.884
 4565SOL     OW14593   1.253   0.471   4.503
 4565SOL    HW114594   1.345   0.444   4.533
 4565SOL    HW214595   1.235   0.434   4.412
 4566SOL     OW14596   0.207   3.186   0.619
 4566SOL    HW114597   0.186   3.163   0.524
 4566SOL    HW214598   0.228   3.284   0.626
 4567SOL     OW14599   6.630   1.388   6.397
 4567SOL    HW114600   6.640   1.460   6.466
 4567SOL    HW214601   6.715   1.336   6.390
 4568SOL     OW14602   1.944   3.421   5.771
 4568SOL    HW114603   1.998   3.498   5.737
 4568SOL    HW214604   1.981   3.336   5.733
 4569SOL     OW14605   2.518   0.645   3.174
 4569SOL    HW114606   2.471   0.722   3.132
 4569SOL    HW214607   2.613   0.642   3.141
 4570SOL     OW14608   0.145   6.513   2.270
 4570SOL    HW114609   0.195   6.530   2.354
 4570SOL    HW214610   0.059   6.466   2.291
 4571SOL     OW14611   4.184   3.706   6.146
 4571SOL    HW114612   4.238   3.686   6.228
 4571SOL    HW214613   4.244   3.707   6.067
 4572SOL     OW14614   1.634   0.866   6.382
 4572SOL    HW114615   1.559   0.932   6.372
 4572SOL    HW214616   1.698   0.878   6.306
 4573SOL     OW14617   6.877   0.282   0.461
 4573SOL    HW114618   6.843   0.193   0.490
 4573SOL    HW214619   6.940   0.318   0.530
 4574SOL     OW14620   5.957   4.215   0.608
 4574SOL    HW114621   6.051   4.210   0.576
 4574SOL    HW214622   5.904   4.275   0.549
 4575SOL     OW14623   5.896   0.560   5.620
 4575SOL    HW114624   5.877   0.606   5.533
 4575SOL    HW214625   5.812   0.555   5.674
 4576SOL     OW14626   3.573   5.697   5.686
 4576SOL    HW114627   3.559   5.701   5.587
 4576SOL    HW214628   3.587   5.602   5.714
 4577SOL     OW14629   1.003   2.105   4.289
 4577SOL    HW114630   1.090   2.118   4.336
 4577SOL    HW214631   0.988   2.180   4.225
 4578SOL     OW14632   0.891   2.273   5.261
 4578SOL    HW114633   0.875   2.356   5.314
 4578SOL    HW214634   0.821   2.266   5.189
 4579SOL     OW14635   4.027   0.220   3.107
 4579SOL    HW114636   4.002   0.264   3.021
 4579SOL    HW214637   4.027   0.121   3.096
 4580SOL     OW14638   5.638   4.496   1.082
 4580SOL    HW114639   5.681   4.586   1.086
 4580SOL    HW214640   5.556   4.502   1.025
 4581SOL     OW14641   1.798   5.999   2.393
 4581SOL    HW114642   1.881   6.006   2.337
 4581SOL    HW214643   1.741   6.080   2.378
 4582SOL     OW14644   4.492   0.680   4.882
 4582SOL    HW114645   4.500   0.584   4.856
 4582SOL    HW214646   4.403   0.695   4.925
 4583SOL     OW14647   3.015   1.990   6.878
 4583SOL    HW114648   3.063   2.077   6.881
 4583SOL    HW214649   2.918   2.005   6.901
 4584SOL     OW14650   1.186   4.589   5.228
 4584SOL    HW114651   1.131   4.669   5.253
 4584SOL    HW214652   1.143   4.506   5.263
 4585SOL     OW14653   1.560   5.372   3.218
 4585SOL    HW114654   1.556   5.278   3.184
 4585SOL    HW214655   1.505   5.432   3.159
 4586SOL     OW14656   3.998   4.502   0.822
 4586SOL    HW114657   4.043   4.515   0.911
 4586SOL    HW214658   3.961   4.409   0.818
 4587SOL     OW14659   3.217   4.068   3.530
 4587SOL    HW114660   3.233   4.118   3.615
 4587SOL    HW214661   3.199   3.972   3.550
 4588SOL     OW14662   2.776   3.607   5.550
 4588SOL    HW114663   2.697   3.668   5.560
 4588SOL    HW214664   2.763   3.525   5.605
 4589SOL     OW14665   6.188   0.611   2.056
 4589SOL    HW114666   6.140   0.684   2.106
 4589SOL    HW214667   6.121   0.549   2.016
 4590SOL     OW14668   4.523   5.529   1.331
 4590SOL    HW114669   4.432   5.563   1.304
 4590SOL    HW214670   4.543   5.558   1.425
 4591SOL     OW14671   1.999   0.678   4.738
 4591SOL    HW114672   1.952   0.726   4.664
 4591SOL    HW214673   2.093   0.661   4.711
 4592SOL     OW14674   3.073   1.719   3.157
 4592SOL    HW114675   3.172   1.709   3.156
 4592SOL    HW214676   3.032   1.639   3.202
 4593SOL     OW14677   4.961   6.482   2.053
 4593SOL    HW114678   4.914   6.415   2.111
 4593SOL    HW214679   4.894   6.546   2.015
 4594SOL     OW14680   2.540   1.303   3.113
 4594SOL    HW114681   2.530   1.288   3.211
 4594SOL    HW214682   2.623   1.356   3.096
 4595SOL     OW14683   4.969   3.210   5.706
 4595SOL    HW114684   4.912   3.237   5.784
 4595SOL    HW214685   5.031   3.136   5.734
 4596SOL     OW14686   6.413   1.066   2.843
 4596SOL    HW114687   6.491   1.129   2.842
 4596SOL    HW214688   6.348   1.091   2.772
 4597SOL     OW14689   3.604   5.394   6.588
 4597SOL    HW114690   3.565   5.340   6.662
 4597SOL    HW214691   3.701   5.411   6.606
 4598SOL     OW14692   1.176   5.837   1.028
 4598SOL    HW114693   1.205   5.803   0.938
 4598SOL    HW214694   1.122   5.767   1.074
 4599SOL     OW14695   1.907   5.124   0.559
 4599SOL    HW114696   1.846   5.196   0.524
 4599SOL    HW214697   1.889   5.111   0.657
 4600SOL     OW14698   0.550   5.811   5.317
 4600SOL    HW114699   0.598   5.802   5.405
 4600SOL    HW214700   0.475   5.744   5.313
 4601SOL     OW14701   1.515   1.438   5.365
 4601SOL    HW114702   1.574   1.477   5.436
 4601SOL    HW214703   1.470   1.511   5.314
 4602SOL     OW14704   3.225   6.679   0.187
 4602SOL    HW114705   3.247   6.766   0.141
 4602SOL    HW214706   3.140   6.689   0.238
 4603SOL     OW14707   3.810   6.106   0.932
 4603SOL    HW114708   3.727   6.058   0.905
 4603SOL    HW214709   3.861   6.050   0.998
 4604SOL     OW14710   4.581   0.182   6.943
 4604SOL    HW114711   4.500   0.236   6.923
 4604SOL    HW214712   4.559   0.111   7.010
 4605SOL     OW14713   1.387   5.746   2.465
 4605SOL    HW114714   1.348   5.656   2.444
 4605SOL    HW214715   1.485   5.745   2.444
 4606SOL     OW14716   0.332   0.033   2.538
 4606SOL    HW114717   0.279   7.008   2.467
 4606SOL    HW214718   0.271   0.090   2.594
 4607SOL     OW14719   2.160   3.142   2.989
 4607SOL    HW114720   2.198   3.136   3.081
 4607SOL    HW214721   2.160   3.051   2.948
 4608SOL     OW14722   0.410   5.453   3.874
 4608SOL    HW114723   0.431   5.537   3.824
 4608SOL    HW214724   0.432   5.374   3.817
 4609SOL     OW14725   4.912   5.267   0.134
 4609SOL    HW114726   4.944   5.282   0.041
 4609SOL    HW214727   4.829   5.320   0.151
 4610SOL     OW14728   4.972   1.601   0.239
 4610SOL    HW114729   5.066   1.627   0.258
 4610SOL    HW214730   4.952   1.614   0.142
 4611SOL     OW14731   0.837   0.034   6.087
 4611SOL    HW114732   0.746   7.013   6.084
 4611SOL    HW214733   0.898   6.998   6.142
 4612SOL     OW14734   1.704   6.230   0.755
 4612SOL    HW114735   1.738   6.136   0.747
 4612SOL    HW214736   1.629   6.244   0.690
 4613SOL     OW14737   1.236   5.614   2.192
 4613SOL    HW114738   1.257   5.702   2.149
 4613SOL    HW214739   1.319   5.573   2.228
 4614SOL     OW14740   6.020   3.375   3.612
 4614SOL    HW114741   6.071   3.422   3.684
 4614SOL    HW214742   5.944   3.325   3.653
 4615SOL     OW14743   1.450   1.329   6.981
 4615SOL    HW114744   1.367   1.276   6.965
 4615SOL    HW214745   1.524   1.267   7.008
 4616SOL     OW14746   6.676   1.116   4.540
 4616SOL    HW114747   6.579   1.142   4.544
 4616SOL    HW214748   6.683   1.016   4.543
 4617SOL     OW14749   1.048   1.658   2.854
 4617SOL    HW114750   1.086   1.726   2.916
 4617SOL    HW214751   0.963   1.692   2.814
 4618SOL     OW14752   2.323   3.040   5.503
 4618SOL    HW114753   2.398   3.005   5.560
 4618SOL    HW214754   2.358   3.111   5.442
 4619SOL     OW14755   3.199   5.985   3.759
 4619SOL    HW114756   3.289   6.002   3.800
 4619SOL    HW214757   3.159   6.072   3.731
 4620SOL     OW14758   1.250   5.229   0.822
 4620SOL    HW114759   1.346   5.204   0.839
 4620SOL    HW214760   1.243   5.328   0.808
 4621SOL     OW14761   4.666   0.526   2.701
 4621SOL    HW114762   4.693   0.595   2.634
 4621SOL    HW214763   4.653   0.438   2.656
 4622SOL     OW14764   3.807   5.096   0.844
 4622SOL    HW114765   3.772   5.189   0.838
 4622SOL    HW214766   3.907   5.098   0.849
 4623SOL     OW14767   5.151   6.039   2.004
 4623SOL    HW114768   5.246   6.038   1.975
 4623SOL    HW214769   5.098   6.099   1.943
 4624SOL     OW14770   3.338   0.016   3.041
 4624SOL    HW114771   3.393   6.970   3.091
 4624SOL    HW214772   3.397   0.077   2.989
 4625SOL     OW14773   1.824   4.609   1.615
 4625SOL    HW114774   1.923   4.620   1.628
 4625SOL    HW214775   1.806   4.579   1.521
 4626SOL     OW14776   4.721   3.808   1.785
 4626SOL    HW114777   4.665   3.746   1.730
 4626SOL    HW214778   4.705   3.902   1.756
 4627SOL     OW14779   1.888   5.118   4.914
 4627SOL    HW114780   1.804   5.083   4.954
 4627SOL    HW214781   1.866   5.172   4.832
 4628SOL     OW14782   4.768   4.232   4.979
 4628SOL    HW114783   4.728   4.174   4.908
 4628SOL    HW214784   4.729   4.208   5.067
 4629SOL     OW14785   2.894   5.490   5.326
 4629SOL    HW114786   2.908   5.460   5.421
 4629SOL    HW214787   2.979   5.479   5.275
 4630SOL     OW14788   2.041   6.149   2.309
 4630SOL    HW114789   1.978   6.210   2.260
 4630SOL    HW214790   2.130   6.148   2.263
 4631SOL     OW14791   1.150   6.066   3.050
 4631SOL    HW114792   1.095   6.149   3.058
 4631SOL    HW214793   1.145   6.032   2.956
 4632SOL     OW14794   2.333   4.230   2.726
 4632SOL    HW114795   2.391   4.311   2.724
 4632SOL    HW214796   2.239   4.255   2.702
 4633SOL     OW14797   6.055   0.447   4.617
 4633SOL    HW114798   6.140   0.394   4.610
 4633SOL    HW214799   6.073   0.542   4.591
 4634SOL     OW14800   2.828   3.975   5.248
 4634SOL    HW114801   2.736   4.008   5.272
 4634SOL    HW214802   2.820   3.898   5.184
 4635SOL     OW14803   4.618   4.036   1.651
 4635SOL    HW114804   4.552   3.984   1.597
 4635SOL    HW214805   4.570   4.107   1.702
 4636SOL     OW14806   2.504   4.702   0.506
 4636SOL    HW114807   2.567   4.653   0.446
 4636SOL    HW214808   2.556   4.760   0.569
 4637SOL     OW14809   0.388   6.780   0.782
 4637SOL    HW114810   0.348   6.713   0.720
 4637SOL    HW214811   0.488   6.770   0.783
 4638SOL     OW14812   3.992   5.206   6.866
 4638SOL    HW114813   3.958   5.192   6.773
 4638SOL    HW214814   3.953   5.137   6.926
 4639SOL     OW14815   3.505   3.366   6.766
 4639SOL    HW114816   3.588   3.375   6.711
 4639SOL    HW214817   3.531   3.356   6.863
 4640SOL     OW14818   5.095   4.148   4.477
 4640SOL    HW114819   5.173   4.184   4.527
 4640SOL    HW214820   5.050   4.077   4.531
 4641SOL     OW14821   2.916   0.844   4.775
 4641SOL    HW114822   2.934   0.792   4.859
 4641SOL    HW214823   2.911   0.781   4.697
 4642SOL     OW14824   1.171   6.948   2.921
 4642SOL    HW114825   1.136   6.873   2.977
 4642SOL    HW214826   1.110   6.962   2.843
 4643SOL     OW14827   6.648   2.273   0.613
 4643SOL    HW114828   6.567   2.227   0.648
 4643SOL    HW214829   6.639   2.372   0.628
 4644SOL     OW14830   0.863   6.777   5.606
 4644SOL    HW114831   0.861   6.857   5.666
 4644SOL    HW214832   0.958   6.756   5.581
 4645SOL     OW14833   1.101   0.576   4.234
 4645SOL    HW114834   1.029   0.603   4.298
 4645SOL    HW214835   1.154   0.657   4.208
 4646SOL     OW14836   2.246   5.407   3.261
 4646SOL    HW114837   2.198   5.479   3.311
 4646SOL    HW214838   2.240   5.424   3.163
 4647SOL     OW14839   1.882   0.154   2.681
 4647SOL    HW114840   1.947   0.123   2.751
 4647SOL    HW214841   1.809   0.206   2.724
 4648SOL     OW14842   3.543   0.368   2.722
 4648SOL    HW114843   3.603   0.289   2.719
 4648SOL    HW214844   3.494   0.370   2.809
 4649SOL     OW14845   5.686   0.758   0.398
 4649SOL    HW114846   5.720   0.826   0.462
 4649SOL    HW214847   5.708   0.666   0.431
 4650SOL     OW14848   4.772   5.597   1.994
 4650SOL    HW114849   4.795   5.672   1.932
 4650SOL    HW214850   4.856   5.552   2.024
 4651SOL     OW14851   6.393   3.711   6.297
 4651SOL    HW114852   6.327   3.636   6.296
 4651SOL    HW214853   6.377   3.770   6.218
 4652SOL     OW14854   6.141   5.988   4.745
 4652SOL    HW114855   6.203   5.995   4.666
 4652SOL    HW214856   6.055   6.033   4.723
 4653SOL     OW14857   5.358   5.894   1.151
 4653SOL    HW114858   5.259   5.884   1.164
 4653SOL    HW214859   5.404   5.874   1.238
 4654SOL     OW14860   0.864   5.876   6.350
 4654SOL    HW114861   0.877   5.797   6.410
 4654SOL    HW214862   0.952   5.920   6.332
 4655SOL     OW14863   5.989   3.489   0.819
 4655SOL    HW114864   6.045   3.413   0.785
 4655SOL    HW214865   5.954   3.542   0.742
 4656SOL     OW14866   1.271   0.891   1.566
 4656SOL    HW114867   1.197   0.911   1.630
 4656SOL    HW214868   1.237   0.898   1.472
 4657SOL     OW14869   4.592   5.796   1.488
 4657SOL    HW114870   4.559   5.722   1.546
 4657SOL    HW214871   4.562   5.884   1.525
 4658SOL     OW14872   3.274   0.315   4.662
 4658SOL    HW114873   3.258   0.308   4.564
 4658SOL    HW214874   3.232   0.238   4.709
 4659SOL     OW14875   2.534   4.559   5.945
 4659SOL    HW114876   2.510   4.599   6.033
 4659SOL    HW214877   2.608   4.611   5.903
 4660SOL     OW14878   0.993   5.887   4.876
 4660SOL    HW114879   1.058   5.817   4.908
 4660SOL    HW214880   1.008   5.972   4.927
 4661SOL     OW14881   3.413   4.451   6.448
 4661SOL    HW114882   3.379   4.400   6.527
 4661SOL    HW214883   3.358   4.534   6.436
 4662SOL     OW14884   2.760   0.234   5.691
 4662SOL    HW114885   2.799   0.325   5.685
 4662SOL    HW214886   2.821   0.168   5.647
 4663SOL     OW14887   0.539   1.040   1.487
 4663SOL    HW114888   0.634   1.070   1.481
 4663SOL    HW214889   0.497   1.044   1.396
 4664SOL     OW14890   1.227   1.206   0.328
 4664SOL    HW114891   1.314   1.159   0.315
 4664SOL    HW214892   1.202   1.254   0.244
 4665SOL     OW14893   3.625   6.927   6.345
 4665SOL    HW114894   3.553   6.976   6.295
 4665SOL    HW214895   3.593   6.835   6.368
 4666SOL     OW14896   2.430   2.651   6.951
 4666SOL    HW114897   2.487   2.645   0.012
 4666SOL    HW214898   2.414   2.747   6.928
 4667SOL     OW14899   6.625   3.790   1.890
 4667SOL    HW114900   6.664   3.875   1.925
 4667SOL    HW214901   6.570   3.747   1.962
 4668SOL     OW14902   5.150   1.452   3.858
 4668SOL    HW114903   5.157   1.356   3.831
 4668SOL    HW214904   5.142   1.509   3.777
 4669SOL     OW14905   4.641   6.175   0.725
 4669SOL    HW114906   4.575   6.233   0.772
 4669SOL    HW214907   4.617   6.170   0.628
 4670SOL     OW14908   1.363   2.400   6.331
 4670SOL    HW114909   1.324   2.490   6.352
 4670SOL    HW214910   1.383   2.352   6.416
 4671SOL     OW14911   1.067   3.313   6.548
 4671SOL    HW114912   1.149   3.275   6.506
 4671SOL    HW214913   1.035   3.392   6.495
 4672SOL     OW14914   2.718   4.994   5.748
 4672SOL    HW114915   2.753   4.963   5.836
 4672SOL    HW214916   2.649   4.930   5.716
 4673SOL     OW14917   5.252   6.921   1.650
 4673SOL    HW114918   5.314   6.993   1.681
 4673SOL    HW214919   5.178   6.961   1.597
 4674SOL     OW14920   4.919   1.087   0.130
 4674SOL    HW114921   4.852   1.028   0.087
 4674SOL    HW214922   4.878   1.132   0.209
 4675SOL     OW14923   2.440   0.908   0.159
 4675SOL    HW114924   2.357   0.852   0.150
 4675SOL    HW214925   2.521   0.850   0.150
 4676SOL     OW14926   6.700   6.675   4.355
 4676SOL    HW114927   6.626   6.719   4.304
 4676SOL    HW214928   6.742   6.742   4.417
 4677SOL     OW14929   2.624   0.750   6.999
 4677SOL    HW114930   2.576   0.704   0.052
 4677SOL    HW214931   2.723   0.749   7.017
 4678SOL     OW14932   1.924   4.270   2.831
 4678SOL    HW114933   2.005   4.297   2.779
 4678SOL    HW214934   1.951   4.234   2.920
 4679SOL     OW14935   3.507   1.431   0.271
 4679SOL    HW114936   3.461   1.495   0.209
 4679SOL    HW214937   3.593   1.401   0.229
 4680SOL     OW14938   1.897   0.874   1.889
 4680SOL    HW114939   1.825   0.805   1.877
 4680SOL    HW214940   1.983   0.828   1.912
 4681SOL     OW14941   6.159   5.684   5.876
 4681SOL    HW114942   6.181   5.638   5.962
 4681SOL    HW214943   6.240   5.685   5.817
 4682SOL     OW14944   4.294   4.302   6.324
 4682SOL    HW114945   4.202   4.332   6.297
 4682SOL    HW214946   4.361   4.339   6.259
 4683SOL     OW14947   4.450   4.453   2.465
 4683SOL    HW114948   4.372   4.449   2.402
 4683SOL    HW214949   4.421   4.492   2.552
 4684SOL     OW14950   0.091   1.771   4.499
 4684SOL    HW114951   0.091   1.799   4.596
 4684SOL    HW214952   0.027   1.829   4.449
 4685SOL     OW14953   0.280   6.309   5.207
 4685SOL    HW114954   0.283   6.281   5.304
 4685SOL    HW214955   0.367   6.353   5.183
 4686SOL     OW14956   5.239   5.471   0.499
 4686SOL    HW114957   5.250   5.558   0.451
 4686SOL    HW214958   5.315   5.410   0.477
 4687SOL     OW14959   6.670   5.027   5.441
 4687SOL    HW114960   6.571   5.020   5.454
 4687SOL    HW214961   6.703   4.948   5.389
 4688SOL     OW14962   6.549   3.780   5.558
 4688SOL    HW114963   6.644   3.790   5.528
 4688SOL    HW214964   6.488   3.813   5.487
 4689SOL     OW14965   5.975   0.621   0.312
 4689SOL    HW114966   5.908   0.598   0.382
 4689SOL    HW214967   5.928   0.643   0.227
 4690SOL     OW14968   1.221   0.981   0.101
 4690SOL    HW114969   1.218   1.039   0.183
 4690SOL    HW214970   1.228   1.039   0.020
 4691SOL     OW14971   2.975   4.821   2.101
 4691SOL    HW114972   2.905   4.893   2.099
 4691SOL    HW214973   2.940   4.740   2.054
 4692SOL     OW14974   6.933   5.928   2.341
 4692SOL    HW114975   6.958   5.966   2.252
 4692SOL    HW214976   6.955   5.995   2.413
 4693SOL     OW14977   0.855   0.552   3.589
 4693SOL    HW114978   0.856   0.454   3.608
 4693SOL    HW214979   0.781   0.596   3.639
 4694SOL     OW14980   2.662   0.781   0.591
 4694SOL    HW114981   2.694   0.697   0.635
 4694SOL    HW214982   2.614   0.838   0.658
 4695SOL     OW14983   2.228   3.189   1.797
 4695SOL    HW114984   2.281   3.269   1.827
 4695SOL    HW214985   2.135   3.218   1.776
 4696SOL     OW14986   0.405   4.463   5.858
 4696SOL    HW114987   0.485   4.479   5.801
 4696SOL    HW214988   0.355   4.549   5.871
 4697SOL     OW14989   2.260   2.819   0.682
 4697SOL    HW114990   2.257   2.916   0.658
 4697SOL    HW214991   2.168   2.788   0.708
 4698SOL     OW14992   3.826   6.033   2.742
 4698SOL    HW114993   3.881   5.966   2.792
 4698SOL    HW214994   3.780   6.093   2.807
 4699SOL     OW14995   0.932   6.286   2.064
 4699SOL    HW114996   0.975   6.375   2.080
 4699SOL    HW214997   0.846   6.280   2.116
 4700SOL     OW14998   6.427   1.589   2.462
 4700SOL    HW114999   6.418   1.520   2.534
 4700SOL    HW215000   6.356   1.574   2.393
 4701SOL     OW15001   2.330   2.475   0.849
 4701SOL    HW115002   2.282   2.549   0.895
 4701SOL    HW215003   2.272   2.393   0.848
 4702SOL     OW15004   5.902   4.577   6.772
 4702SOL    HW115005   5.810   4.572   6.734
 4702SOL    HW215006   5.933   4.672   6.770
 4703SOL     OW15007   1.170   2.772   1.985
 4703SOL    HW115008   1.244   2.735   1.929
 4703SOL    HW215009   1.082   2.738   1.952
 4704SOL     OW15010   1.255   6.646   6.955
 4704SOL    HW115011   1.264   6.741   6.925
 4704SOL    HW215012   1.158   6.623   6.964
 4705SOL     OW15013   3.539   3.115   2.346
 4705SOL    HW115014   3.494   3.043   2.294
 4705SOL    HW215015   3.606   3.073   2.409
 4706SOL     OW15016   3.772   6.459   6.052
 4706SOL    HW115017   3.829   6.491   6.128
 4706SOL    HW215018   3.689   6.417   6.088
 4707SOL     OW15019   2.941   5.585   0.810
 4707SOL    HW115020   2.843   5.564   0.814
 4707SOL    HW215021   2.973   5.577   0.716
 4708SOL     OW15022   1.238   2.617   6.459
 4708SOL    HW115023   1.230   2.666   6.545
 4708SOL    HW215024   1.169   2.652   6.395
 4709SOL     OW15025   4.416   6.067   5.688
 4709SOL    HW115026   4.324   6.080   5.725
 4709SOL    HW215027   4.424   5.975   5.651
 4710SOL     OW15028   3.748   1.065   5.946
 4710SOL    HW115029   3.683   1.141   5.933
 4710SOL    HW215030   3.699   0.983   5.972
 4711SOL     OW15031   5.626   0.881   1.869
 4711SOL    HW115032   5.649   0.978   1.872
 4711SOL    HW215033   5.530   0.869   1.896
 4712SOL     OW15034   3.278   3.846   0.463
 4712SOL    HW115035   3.191   3.797   0.456
 4712SOL    HW215036   3.298   3.863   0.560
 4713SOL     OW15037   3.326   3.563   1.197
 4713SOL    HW115038   3.230   3.579   1.219
 4713SOL    HW215039   3.367   3.507   1.269
 4714SOL     OW15040   1.510   2.479   6.885
 4714SOL    HW115041   1.550   2.552   6.940
 4714SOL    HW215042   1.411   2.476   6.898
 4715SOL     OW15043   6.778   3.160   1.801
 4715SOL    HW115044   6.766   3.062   1.814
 4715SOL    HW215045   6.690   3.207   1.810
 4716SOL     OW15046   4.633   6.495   6.258
 4716SOL    HW115047   4.695   6.573   6.262
 4716SOL    HW215048   4.653   6.441   6.176
 4717SOL     OW15049   0.119   6.576   3.581
 4717SOL    HW115050   0.094   6.498   3.638
 4717SOL    HW215051   0.036   6.618   3.544
 4718SOL     OW15052   5.481   2.145   0.637
 4718SOL    HW115053   5.487   2.084   0.558
 4718SOL    HW215054   5.560   2.207   0.638
 4719SOL     OW15055   5.261   3.020   2.394
 4719SOL    HW115056   5.246   3.062   2.305
 4719SOL    HW215057   5.358   3.003   2.408
 4720SOL     OW15058   1.768   5.758   5.232
 4720SOL    HW115059   1.855   5.708   5.239
 4720SOL    HW215060   1.746   5.797   5.322
 4721SOL     OW15061   6.677   2.564   1.195
 4721SOL    HW115062   6.725   2.596   1.113
 4721SOL    HW215063   6.743   2.543   1.266
 4722SOL     OW15064   0.927   5.925   6.883
 4722SOL    HW115065   1.024   5.941   6.904
 4722SOL    HW215066   0.888   6.009   6.844
 4723SOL     OW15067   1.861   4.534   5.976
 4723SOL    HW115068   1.920   4.559   6.053
 4723SOL    HW215069   1.867   4.605   5.906
 4724SOL     OW15070   5.206   6.186   2.977
 4724SOL    HW115071   5.228   6.194   3.074
 4724SOL    HW215072   5.109   6.206   2.964
 4725SOL     OW15073   6.409   6.444   2.676
 4725SOL    HW115074   6.355   6.418   2.757
 4725SOL    HW215075   6.487   6.499   2.705
 4726SOL     OW15076   1.869   2.969   6.414
 4726SOL    HW115077   1.855   2.915   6.331
 4726SOL    HW215078   1.794   2.954   6.478
 4727SOL     OW15079   0.812   6.153   6.770
 4727SOL    HW115080   0.822   6.235   6.714
 4727SOL    HW215081   0.717   6.144   6.798
 4728SOL     OW15082   5.157   0.700   0.534
 4728SOL    HW115083   5.088   0.741   0.594
 4728SOL    HW215084   5.245   0.747   0.548
 4729SOL     OW15085   2.411   1.609   1.976
 4729SOL    HW115086   2.315   1.603   1.949
 4729SOL    HW215087   2.468   1.572   1.902
 4730SOL     OW15088   3.151   5.847   4.802
 4730SOL    HW115089   3.243   5.809   4.794
 4730SOL    HW215090   3.086   5.783   4.762
 4731SOL     OW15091   4.040   0.316   6.072
 4731SOL    HW115092   3.975   0.304   6.146
 4731SOL    HW215093   4.128   0.347   6.109
 4732SOL     OW15094   0.516   3.596   5.349
 4732SOL    HW115095   0.448   3.669   5.339
 4732SOL    HW215096   0.587   3.625   5.413
 4733SOL     OW15097   1.529   4.363   3.915
 4733SOL    HW115098   1.603   4.425   3.940
 4733SOL    HW215099   1.549   4.320   3.827
 4734SOL     OW15100   5.152   2.452   6.613
 4734SOL    HW115101   5.248   2.434   6.632
 4734SOL    HW215102   5.144   2.533   6.554
 4735SOL     OW15103   0.570   6.041   4.352
 4735SOL    HW115104   0.640   5.969   4.350
 4735SOL    HW215105   0.590   6.109   4.282
 4736SOL     OW15106   0.007   1.798   6.607
 4736SOL    HW115107   0.104   1.820   6.594
 4736SOL    HW215108   6.975   1.882   6.612
 4737SOL     OW15109   1.555   4.884   2.311
 4737SOL    HW115110   1.639   4.830   2.319
 4737SOL    HW215111   1.573   4.966   2.257
 4738SOL     OW15112   6.971   6.128   2.787
 4738SOL    HW115113   6.928   6.212   2.755
 4738SOL    HW215114   6.966   6.123   2.887
 4739SOL     OW15115   4.658   6.626   3.216
 4739SOL    HW115116   4.682   6.540   3.260
 4739SOL    HW215117   4.674   6.620   3.118
 4740SOL     OW15118   0.960   1.529   0.823
 4740SOL    HW115119   0.950   1.503   0.727
 4740SOL    HW215120   1.058   1.536   0.845
 4741SOL     OW15121   3.574   2.759   1.600
 4741SOL    HW115122   3.503   2.694   1.628
 4741SOL    HW215123   3.537   2.819   1.528
 4742SOL     OW15124   2.602   6.247   5.126
 4742SOL    HW115125   2.593   6.199   5.213
 4742SOL    HW215126   2.552   6.333   5.130
 4743SOL     OW15127   2.269   4.105   3.244
 4743SOL    HW115128   2.244   4.008   3.250
 4743SOL    HW215129   2.272   4.133   3.148
 4744SOL     OW15130   2.376   4.814   0.789
 4744SOL    HW115131   2.363   4.732   0.845
 4744SOL    HW215132   2.308   4.816   0.715
 4745SOL     OW15133   3.096   4.393   6.353
 4745SOL    HW115134   3.039   4.317   6.321
 4745SOL    HW215135   3.181   4.357   6.393
 4746SOL     OW15136   4.502   6.378   3.563
 4746SOL    HW115137   4.479   6.475   3.553
 4746SOL    HW215138   4.559   6.366   3.644
 4747SOL     OW15139   1.416   3.734   0.016
 4747SOL    HW115140   1.498   3.740   6.979
 4747SOL    HW215141   1.430   3.786   0.100
 4748SOL     OW15142   1.823   5.537   1.151
 4748SOL    HW115143   1.867   5.496   1.231
 4748SOL    HW215144   1.741   5.587   1.180
 4749SOL     OW15145   2.265   6.350   6.415
 4749SOL    HW115146   2.167   6.346   6.437
 4749SOL    HW215147   2.279   6.325   6.319
 4750SOL     OW15148   6.928   3.597   5.153
 4750SOL    HW115149   6.964   3.531   5.088
 4750SOL    HW215150   6.840   3.632   5.120
 4751SOL     OW15151   4.445   2.137   3.195
 4751SOL    HW115152   4.528   2.186   3.220
 4751SOL    HW215153   4.393   2.191   3.128
 4752SOL     OW15154   4.720   1.322   0.043
 4752SOL    HW115155   4.766   1.390   0.101
 4752SOL    HW215156   4.658   1.369   7.001
 4753SOL     OW15157   0.689   0.313   4.197
 4753SOL    HW115158   0.702   0.314   4.098
 4753SOL    HW215159   0.769   0.275   4.242
 4754SOL     OW15160   5.780   4.202   4.235
 4754SOL    HW115161   5.853   4.219   4.301
 4754SOL    HW215162   5.737   4.114   4.254
 4755SOL     OW15163   2.615   1.132   0.726
 4755SOL    HW115164   2.613   1.083   0.639
 4755SOL    HW215165   2.522   1.144   0.760
 4756SOL     OW15166   5.763   3.759   6.088
 4756SOL    HW115167   5.742   3.661   6.094
 4756SOL    HW215168   5.783   3.783   5.993
 4757SOL     OW15169   2.338   2.475   1.246
 4757SOL    HW115170   2.246   2.515   1.254
 4757SOL    HW215171   2.394   2.505   1.323
 4758SOL     OW15172   1.533   6.603   2.980
 4758SOL    HW115173   1.508   6.700   2.985
 4758SOL    HW215174   1.583   6.585   2.896
 4759SOL     OW15175   1.016   4.897   6.209
 4759SOL    HW115176   1.072   4.821   6.242
 4759SOL    HW215177   1.028   4.976   6.270
 4760SOL     OW15178   2.177   1.929   0.378
 4760SOL    HW115179   2.134   2.016   0.397
 4760SOL    HW215180   2.117   1.873   0.321
 4761SOL     OW15181   1.188   6.605   0.285
 4761SOL    HW115182   1.134   6.545   0.225
 4761SOL    HW215183   1.157   6.699   0.275
 4762SOL     OW15184   1.033   5.430   2.106
 4762SOL    HW115185   0.980   5.428   2.190
 4762SOL    HW215186   1.117   5.483   2.121
 4763SOL     OW15187   4.909   0.817   2.714
 4763SOL    HW115188   4.859   0.765   2.644
 4763SOL    HW215189   4.993   0.854   2.673
 4764SOL     OW15190   4.170   3.828   5.287
 4764SOL    HW115191   4.217   3.763   5.228
 4764SOL    HW215192   4.079   3.848   5.249
 4765SOL     OW15193   3.454   1.175   5.544
 4765SOL    HW115194   3.362   1.136   5.550
 4765SOL    HW215195   3.469   1.210   5.451
 4766SOL     OW15196   5.782   5.471   3.848
 4766SOL    HW115197   5.873   5.434   3.827
 4766SOL    HW215198   5.716   5.396   3.854
 4767SOL     OW15199   3.086   4.996   4.811
 4767SOL    HW115200   3.171   5.025   4.766
 4767SOL    HW215201   3.038   5.077   4.846
 4768SOL     OW15202   3.770   2.521   6.326
 4768SOL    HW115203   3.780   2.468   6.242
 4768SOL    HW215204   3.782   2.461   6.405
 4769SOL     OW15205   4.423   5.403   0.409
 4769SOL    HW115206   4.331   5.375   0.436
 4769SOL    HW215207   4.486   5.393   0.486
 4770SOL     OW15208   0.441   2.214   4.257
 4770SOL    HW115209   0.523   2.189   4.204
 4770SOL    HW215210   0.407   2.303   4.225
 4771SOL     OW15211   3.030   6.609   6.069
 4771SOL    HW115212   3.050   6.554   5.989
 4771SOL    HW215213   2.934   6.599   6.095
 4772SOL     OW15214   3.884   4.959   6.967
 4772SOL    HW115215   3.938   4.884   6.928
 4772SOL    HW215216   3.900   4.964   0.045
 4773SOL     OW15217   0.547   5.206   5.502
 4773SOL    HW115218   0.609   5.261   5.445
 4773SOL    HW215219   0.596   5.176   5.584
 4774SOL     OW15220   1.666   3.868   1.015
 4774SOL    HW115221   1.721   3.865   0.932
 4774SOL    HW215222   1.620   3.957   1.022
 4775SOL     OW15223   5.394   6.188   3.702
 4775SOL    HW115224   5.357   6.242   3.627
 4775SOL    HW215225   5.454   6.117   3.666
 4776SOL     OW15226   0.872   0.540   5.094
 4776SOL    HW115227   0.891   0.465   5.031
 4776SOL    HW215228   0.785   0.583   5.071
 4777SOL     OW15229   2.151   5.241   0.315
 4777SOL    HW115230   2.165   5.244   0.414
 4777SOL    HW215231   2.151   5.334   0.278
 4778SOL     OW15232   6.994   2.678   4.579
 4778SOL    HW115233   6.944   2.591   4.570
 4778SOL    HW215234   6.973   2.737   4.501
 4779SOL     OW15235   5.263   0.244   3.582
 4779SOL    HW115236   5.211   0.271   3.500
 4779SOL    HW215237   5.361   0.246   3.561
 4780SOL     OW15238   6.243   3.007   6.862
 4780SOL    HW115239   6.230   2.913   6.893
 4780SOL    HW215240   6.307   3.053   6.923
 4781SOL     OW15241   3.050   5.091   1.914
 4781SOL    HW115242   3.019   4.999   1.892
 4781SOL    HW215243   3.030   5.152   1.837
 4782SOL     OW15244   6.353   5.119   6.971
 4782SOL    HW115245   6.396   5.123   6.881
 4782SOL    HW215246   6.381   5.199   0.004
 4783SOL     OW15247   5.441   3.387   6.466
 4783SOL    HW115248   5.438   3.292   6.497
 4783SOL    HW215249   5.351   3.412   6.428
 4784SOL     OW15250   6.351   1.842   6.422
 4784SOL    HW115251   6.375   1.893   6.339
 4784SOL    HW215252   6.269   1.882   6.464
 4785SOL     OW15253   0.016   6.483   3.078
 4785SOL    HW115254   0.089   6.415   3.068
 4785SOL    HW215255   0.052   6.563   3.126
 4786SOL     OW15256   2.656   6.688   0.069
 4786SOL    HW115257   2.595   6.612   0.048
 4786SOL    HW215258   2.727   6.694   7.019
 4787SOL     OW15259   3.750   1.708   3.056
 4787SOL    HW115260   3.732   1.750   2.967
 4787SOL    HW215261   3.712   1.765   3.129
 4788SOL     OW15262   7.004   6.638   0.466
 4788SOL    HW115263   0.002   6.541   0.451
 4788SOL    HW215264   6.989   6.654   0.563
 4789SOL     OW15265   4.987   1.257   1.674
 4789SOL    HW115266   5.033   1.195   1.738
 4789SOL    HW215267   4.888   1.250   1.688
 4790SOL     OW15268   5.940   1.439   5.625
 4790SOL    HW115269   6.028   1.487   5.616
 4790SOL    HW215270   5.955   1.341   5.620
 4791SOL     OW15271   0.041   2.985   1.561
 4791SOL    HW115272   0.094   3.024   1.636
 4791SOL    HW215273   0.099   2.980   1.479
 4792SOL     OW15274   2.402   4.489   4.207
 4792SOL    HW115275   2.352   4.403   4.203
 4792SOL    HW215276   2.378   4.538   4.291
 4793SOL     OW15277   1.363   3.278   5.538
 4793SOL    HW115278   1.458   3.309   5.543
 4793SOL    HW215279   1.302   3.356   5.556
 4794SOL     OW15280   4.574   0.176   4.223
 4794SOL    HW115281   4.602   0.082   4.238
 4794SOL    HW215282   4.646   0.238   4.255
 4795SOL     OW15283   6.290   1.370   4.532
 4795SOL    HW115284   6.267   1.459   4.572
 4795SOL    HW215285   6.375   1.378   4.480
 4796SOL     OW15286   3.881   0.801   6.120
 4796SOL    HW115287   3.938   0.871   6.077
 4796SOL    HW215288   3.907   0.711   6.086
 4797SOL     OW15289   0.459   6.652   4.723
 4797SOL    HW115290   0.533   6.590   4.695
 4797SOL    HW215291   0.376   6.629   4.672
 4798SOL     OW15292   0.228   4.729   6.179
 4798SOL    HW115293   0.134   4.732   6.144
 4798SOL    HW215294   0.268   4.821   6.175
 4799SOL     OW15295   4.376   1.453   0.714
 4799SOL    HW115296   4.413   1.487   0.628
 4799SOL    HW215297   4.449   1.410   0.768
 4800SOL     OW15298   2.158   3.285   6.646
 4800SOL    HW115299   2.121   3.192   6.648
 4800SOL    HW215300   2.258   3.281   6.638
 4801SOL     OW15301   3.417   2.558   0.162
 4801SOL    HW115302   3.368   2.484   0.209
 4801SOL    HW215303   3.362   2.593   0.087
 4802SOL     OW15304   0.489   6.788   1.707
 4802SOL    HW115305   0.424   6.850   1.661
 4802SOL    HW215306   0.486   6.805   1.805
 4803SOL     OW15307   0.631   4.113   0.593
 4803SOL    HW115308   0.598   4.156   0.510
 4803SOL    HW215309   0.650   4.183   0.662
 4804SOL     OW15310   6.474   6.319   1.637
 4804SOL    HW115311   6.476   6.224   1.607
 4804SOL    HW215312   6.439   6.377   1.563
 4805SOL     OW15313   6.218   1.344   2.784
 4805SOL    HW115314   6.207   1.278   2.710
 4805SOL    HW215315   6.305   1.392   2.774
 4806SOL     OW15316   0.926   4.170   2.872
 4806SOL    HW115317   0.851   4.109   2.897
 4806SOL    HW215318   0.908   4.262   2.908
 4807SOL     OW15319   0.795   4.834   6.371
 4807SOL    HW115320   0.756   4.924   6.354
 4807SOL    HW215321   0.855   4.809   6.295
 4808SOL     OW15322   4.236   5.420   0.769
 4808SOL    HW115323   4.235   5.492   0.700
 4808SOL    HW215324   4.322   5.369   0.763
 4809SOL     OW15325   3.776   4.587   1.051
 4809SOL    HW115326   3.793   4.610   0.955
 4809SOL    HW215327   3.862   4.567   1.097
 4810SOL     OW15328   1.434   4.205   3.286
 4810SOL    HW115329   1.347   4.194   3.238
 4810SOL    HW215330   1.417   4.213   3.385
 4811SOL     OW15331   4.025   3.333   2.821
 4811SOL    HW115332   3.997   3.429   2.827
 4811SOL    HW215333   3.989   3.294   2.736
 4812SOL     OW15334   0.707   0.490   2.386
 4812SOL    HW115335   0.804   0.498   2.363
 4812SOL    HW215336   0.698   0.453   2.478
 4813SOL     OW15337   5.970   1.561   6.559
 4813SOL    HW115338   5.986   1.479   6.504
 4813SOL    HW215339   6.057   1.596   6.592
 4814SOL     OW15340   6.807   2.945   1.398
 4814SOL    HW115341   6.870   3.005   1.446
 4814SOL    HW215342   6.747   2.900   1.464
 4815SOL     OW15343   5.451   4.189   3.271
 4815SOL    HW115344   5.529   4.235   3.314
 4815SOL    HW215345   5.380   4.172   3.339
 4816SOL     OW15346   2.671   5.278   1.247
 4816SOL    HW115347   2.602   5.275   1.320
 4816SOL    HW215348   2.634   5.234   1.165
 4817SOL     OW15349   2.311   1.320   1.376
 4817SOL    HW115350   2.375   1.376   1.324
 4817SOL    HW215351   2.359   1.240   1.413
 4818SOL     OW15352   1.011   1.137   4.259
 4818SOL    HW115353   1.001   1.200   4.182
 4818SOL    HW215354   0.943   1.157   4.329
 4819SOL     OW15355   2.578   2.368   1.498
 4819SOL    HW115356   2.674   2.395   1.504
 4819SOL    HW215357   2.521   2.449   1.486
 4820SOL     OW15358   6.696   1.977   0.927
 4820SOL    HW115359   6.771   1.919   0.897
 4820SOL    HW215360   6.631   1.989   0.852
 4821SOL     OW15361   0.150   0.523   1.138
 4821SOL    HW115362   0.104   0.516   1.049
 4821SOL    HW215363   0.140   0.437   1.188
 4822SOL     OW15364   1.863   3.016   3.753
 4822SOL    HW115365   1.884   3.113   3.743
 4822SOL    HW215366   1.946   2.968   3.782
 4823SOL     OW15367   0.749   1.610   3.893
 4823SOL    HW115368   0.704   1.686   3.940
 4823SOL    HW215369   0.750   1.627   3.794
 4824SOL     OW15370   5.651   1.870   4.565
 4824SOL    HW115371   5.695   1.793   4.518
 4824SOL    HW215372   5.688   1.956   4.529
 4825SOL     OW15373   1.898   2.634   4.606
 4825SOL    HW115374   1.861   2.562   4.547
 4825SOL    HW215375   1.886   2.723   4.561
 4826SOL     OW15376   0.246   0.276   5.899
 4826SOL    HW115377   0.250   0.177   5.910
 4826SOL    HW215378   0.278   0.301   5.807
 4827SOL     OW15379   6.041   2.042   1.656
 4827SOL    HW115380   6.092   2.125   1.677
 4827SOL    HW215381   6.073   2.005   1.568
 4828SOL     OW15382   5.746   2.931   1.157
 4828SOL    HW115383   5.716   3.024   1.179
 4828SOL    HW215384   5.688   2.865   1.204
 4829SOL     OW15385   3.907   6.564   6.683
 4829SOL    HW115386   3.834   6.500   6.656
 4829SOL    HW215387   3.958   6.592   6.602
 4830SOL     OW15388   4.917   6.400   3.864
 4830SOL    HW115389   4.927   6.363   3.957
 4830SOL    HW215390   4.980   6.352   3.802
 4831SOL     OW15391   6.908   4.668   6.561
 4831SOL    HW115392   6.970   4.644   6.486
 4831SOL    HW215393   6.893   4.587   6.619
 4832SOL     OW15394   2.508   2.733   5.609
 4832SOL    HW115395   2.474   2.731   5.515
 4832SOL    HW215396   2.440   2.694   5.671
 4833SOL     OW15397   4.829   1.201   2.579
 4833SOL    HW115398   4.792   1.116   2.539
 4833SOL    HW215399   4.927   1.191   2.592
 4834SOL     OW15400   3.711   0.591   0.974
 4834SOL    HW115401   3.694   0.535   0.893
 4834SOL    HW215402   3.650   0.670   0.974
 4835SOL     OW15403   0.482   1.708   6.418
 4835SOL    HW115404   0.529   1.630   6.459
 4835SOL    HW215405   0.550   1.773   6.384
 4836SOL     OW15406   5.133   2.865   3.820
 4836SOL    HW115407   5.072   2.786   3.831
 4836SOL    HW215408   5.124   2.901   3.727
 4837SOL     OW15409   4.777   3.402   1.758
 4837SOL    HW115410   4.770   3.493   1.719
 4837SOL    HW215411   4.704   3.344   1.721
 4838SOL     OW15412   1.202   4.780   1.916
 4838SOL    HW115413   1.245   4.719   1.984
 4838SOL    HW215414   1.251   4.772   1.829
 4839SOL     OW15415   0.991   3.291   5.563
 4839SOL    HW115416   1.043   3.314   5.646
 4839SOL    HW215417   0.942   3.205   5.578
 4840SOL     OW15418   1.001   6.010   5.566
 4840SOL    HW115419   1.072   5.968   5.622
 4840SOL    HW215420   0.946   6.071   5.623
 4841SOL     OW15421   2.824   6.311   1.492
 4841SOL    HW115422   2.896   6.253   1.454
 4841SOL    HW215423   2.836   6.317   1.591
 4842SOL     OW15424   3.252   4.812   1.873
 4842SOL    HW115425   3.191   4.769   1.940
 4842SOL    HW215426   3.305   4.884   1.918
 4843SOL     OW15427   5.922   3.167   0.542
 4843SOL    HW115428   5.824   3.168   0.558
 4843SOL    HW215429   5.947   3.082   0.496
 4844SOL     OW15430   6.876   3.687   5.540
 4844SOL    HW115431   6.910   3.763   5.595
 4844SOL    HW215432   6.833   3.722   5.457
 4845SOL     OW15433   6.186   5.539   4.995
 4845SOL    HW115434   6.162   5.596   5.074
 4845SOL    HW215435   6.269   5.576   4.952
 4846SOL     OW15436   6.457   3.138   3.212
 4846SOL    HW115437   6.363   3.169   3.198
 4846SOL    HW215438   6.520   3.201   3.166
 4847SOL     OW15439   3.136   1.281   5.751
 4847SOL    HW115440   3.094   1.307   5.837
 4847SOL    HW215441   3.079   1.213   5.705
 4848SOL     OW15442   1.381   1.401   4.266
 4848SOL    HW115443   1.309   1.365   4.326
 4848SOL    HW215444   1.343   1.419   4.176
 4849SOL     OW15445   1.118   6.689   6.393
 4849SOL    HW115446   1.053   6.726   6.459
 4849SOL    HW215447   1.211   6.719   6.417
 4850SOL     OW15448   3.954   1.640   2.781
 4850SOL    HW115449   3.951   1.584   2.864
 4850SOL    HW215450   3.904   1.725   2.796
 4851SOL     OW15451   4.138   6.233   5.221
 4851SOL    HW115452   4.226   6.279   5.222
 4851SOL    HW215453   4.127   6.178   5.304
 4852SOL     OW15454   1.033   0.203   5.290
 4852SOL    HW115455   1.078   0.140   5.354
 4852SOL    HW215456   0.940   0.220   5.320
 4853SOL     OW15457   2.881   1.228   3.233
 4853SOL    HW115458   2.849   1.321   3.213
 4853SOL    HW215459   2.974   1.233   3.271
 4854SOL     OW15460   5.638   6.795   2.029
 4854SOL    HW115461   5.615   6.810   2.126
 4854SOL    HW215462   5.641   6.883   1.982
 4855SOL     OW15463   6.652   2.675   2.186
 4855SOL    HW115464   6.622   2.620   2.265
 4855SOL    HW215465   6.705   2.618   2.124
 4856SOL     OW15466   1.653   3.982   2.258
 4856SOL    HW115467   1.566   4.018   2.294
 4856SOL    HW215468   1.671   4.023   2.168
 4857SOL     OW15469   1.408   2.619   5.526
 4857SOL    HW115470   1.482   2.627   5.460
 4857SOL    HW215471   1.337   2.686   5.504
 4858SOL     OW15472   0.996   1.381   4.810
 4858SOL    HW115473   1.048   1.298   4.830
 4858SOL    HW215474   1.004   1.404   4.713
 4859SOL     OW15475   1.165   0.926   4.461
 4859SOL    HW115476   1.144   0.856   4.529
 4859SOL    HW215477   1.230   0.992   4.499
 4860SOL     OW15478   4.120   4.678   1.321
 4860SOL    HW115479   4.096   4.641   1.410
 4860SOL    HW215480   4.143   4.775   1.331
 4861SOL     OW15481   5.076   4.519   6.864
 4861SOL    HW115482   5.142   4.449   6.836
 4861SOL    HW215483   5.002   4.524   6.797
 4862SOL     OW15484   2.864   4.778   4.788
 4862SOL    HW115485   2.889   4.705   4.853
 4862SOL    HW215486   2.937   4.847   4.786
 4863SOL     OW15487   6.326   3.942   2.233
 4863SOL    HW115488   6.259   4.015   2.246
 4863SOL    HW215489   6.416   3.982   2.218
 4864SOL     OW15490   3.878   1.124   3.422
 4864SOL    HW115491   3.822   1.175   3.356
 4864SOL    HW215492   3.829   1.042   3.452
 4865SOL     OW15493   2.073   0.593   5.268
 4865SOL    HW115494   2.144   0.661   5.251
 4865SOL    HW215495   2.083   0.557   5.361
 4866SOL     OW15496   6.613   1.758   1.154
 4866SOL    HW115497   6.667   1.765   1.070
 4866SOL    HW215498   6.551   1.836   1.160
 4867SOL     OW15499   3.564   5.097   2.333
 4867SOL    HW115500   3.472   5.059   2.340
 4867SOL    HW215501   3.590   5.138   2.420
 4868SOL     OW15502   6.358   5.202   2.569
 4868SOL    HW115503   6.357   5.263   2.490
 4868SOL    HW215504   6.295   5.126   2.553
 4869SOL     OW15505   1.063   1.828   2.261
 4869SOL    HW115506   1.130   1.873   2.202
 4869SOL    HW215507   1.103   1.815   2.352
 4870SOL     OW15508   0.519   6.504   1.610
 4870SOL    HW115509   0.555   6.587   1.653
 4870SOL    HW215510   0.590   6.463   1.552
 4871SOL     OW15511   1.540   0.972   3.902
 4871SOL    HW115512   1.628   0.925   3.910
 4871SOL    HW215513   1.504   0.958   3.810
 4872SOL     OW15514   6.454   0.193   3.792
 4872SOL    HW115515   6.426   0.099   3.810
 4872SOL    HW215516   6.374   0.250   3.774
 4873SOL     OW15517   6.407   5.391   3.983
 4873SOL    HW115518   6.453   5.343   3.909
 4873SOL    HW215519   6.332   5.335   4.018
 4874SOL     OW15520   6.350   3.346   2.824
 4874SOL    HW115521   6.330   3.343   2.922
 4874SOL    HW215522   6.414   3.273   2.801
 4875SOL     OW15523   5.801   1.345   0.670
 4875SOL    HW115524   5.886   1.392   0.647
 4875SOL    HW215525   5.737   1.409   0.712
 4876SOL     OW15526   5.778   2.583   3.175
 4876SOL    HW115527   5.729   2.600   3.089
 4876SOL    HW215528   5.861   2.638   3.177
 4877SOL     OW15529   1.420   1.985   6.506
 4877SOL    HW115530   1.332   1.950   6.472
 4877SOL    HW215531   1.491   1.916   6.490
 4878SOL     OW15532   6.092   0.963   2.002
 4878SOL    HW115533   6.020   0.895   1.987
 4878SOL    HW215534   6.135   0.987   1.914
 4879SOL     OW15535   4.198   0.740   2.770
 4879SOL    HW115536   4.287   0.752   2.814
 4879SOL    HW215537   4.126   0.770   2.832
 4880SOL     OW15538   5.563   3.285   6.953
 4880SOL    HW115539   5.625   3.241   6.888
 4880SOL    HW215540   5.595   3.378   6.972
 4881SOL     OW15541   1.165   1.330   0.076
 4881SOL    HW115542   1.097   1.283   0.020
 4881SOL    HW215543   1.142   1.428   0.080
 4882SOL     OW15544   4.684   0.665   5.085
 4882SOL    HW115545   4.636   0.660   5.173
 4882SOL    HW215546   4.617   0.664   5.010
 4883SOL     OW15547   5.130   5.179   1.536
 4883SOL    HW115548   5.149   5.163   1.439
 4883SOL    HW215549   5.046   5.131   1.562
 4884SOL     OW15550   2.710   6.569   1.521
 4884SOL    HW115551   2.756   6.486   1.489
 4884SOL    HW215552   2.668   6.616   1.444
 4885SOL     OW15553   2.338   5.388   1.929
 4885SOL    HW115554   2.398   5.457   1.969
 4885SOL    HW215555   2.244   5.424   1.925
 4886SOL     OW15556   1.141   6.258   1.472
 4886SOL    HW115557   1.227   6.212   1.448
 4886SOL    HW215558   1.092   6.281   1.388
 4887SOL     OW15559   0.053   0.232   1.748
 4887SOL    HW115560   6.985   0.241   1.794
 4887SOL    HW215561   0.039   0.210   1.652
 4888SOL     OW15562   2.570   0.222   4.428
 4888SOL    HW115563   2.473   0.218   4.453
 4888SOL    HW215564   2.625   0.238   4.511
 4889SOL     OW15565   6.805   2.130   5.281
 4889SOL    HW115566   6.744   2.180   5.343
 4889SOL    HW215567   6.828   2.042   5.321
 4890SOL     OW15568   0.003   0.879   6.510
 4890SOL    HW115569   0.018   0.885   6.411
 4890SOL    HW215570   6.959   0.804   6.529
 4891SOL     OW15571   2.244   4.810   0.140
 4891SOL    HW115572   2.328   4.801   0.086
 4891SOL    HW215573   2.246   4.742   0.215
 4892SOL     OW15574   3.254   6.122   2.476
 4892SOL    HW115575   3.252   6.058   2.399
 4892SOL    HW215576   3.253   6.216   2.441
 4893SOL     OW15577   6.761   3.335   1.481
 4893SOL    HW115578   6.817   3.318   1.400
 4893SOL    HW215579   6.798   3.283   1.558
 4894SOL     OW15580   3.231   0.873   3.225
 4894SOL    HW115581   3.164   0.818   3.276
 4894SOL    HW215582   3.275   0.815   3.156
 4895SOL     OW15583   0.890   5.014   4.431
 4895SOL    HW115584   0.956   4.967   4.490
 4895SOL    HW215585   0.936   5.046   4.348
 4896SOL     OW15586   1.735   4.544   1.875
 4896SOL    HW115587   1.759   4.529   1.779
 4896SOL    HW215588   1.771   4.632   1.905
 4897SOL     OW15589   1.645   4.463   5.545
 4897SOL    HW115590   1.561   4.457   5.598
 4897SOL    HW215591   1.717   4.412   5.591
 4898SOL     OW15592   4.632   0.921   4.843
 4898SOL    HW115593   4.559   0.855   4.857
 4898SOL    HW215594   4.720   0.879   4.864
 4899SOL     OW15595   5.557   5.394   3.104
 4899SOL    HW115596   5.480   5.336   3.080
 4899SOL    HW215597   5.525   5.471   3.160
 4900SOL     OW15598   3.264   6.149   5.239
 4900SOL    HW115599   3.281   6.081   5.310
 4900SOL    HW215600   3.170   6.183   5.248
 4901SOL     OW15601   3.181   1.283   5.095
 4901SOL    HW115602   3.185   1.281   5.195
 4901SOL    HW215603   3.245   1.216   5.058
 4902SOL     OW15604   1.897   2.025   4.876
 4902SOL    HW115605   1.921   2.029   4.973
 4902SOL    HW215606   1.801   2.001   4.867
 4903SOL     OW15607   3.803   5.769   6.992
 4903SOL    HW115608   3.870   5.816   0.028
 4903SOL    HW215609   3.737   5.721   0.030
 4904SOL     OW15610   2.321   0.474   5.191
 4904SOL    HW115611   2.223   0.459   5.206
 4904SOL    HW215612   2.364   0.502   5.277
 4905SOL     OW15613   3.440   0.799   2.778
 4905SOL    HW115614   3.507   0.774   2.849
 4905SOL    HW215615   3.426   0.721   2.717
 4906SOL     OW15616   5.337   1.768   6.696
 4906SOL    HW115617   5.304   1.780   6.790
 4906SOL    HW215618   5.293   1.836   6.637
 4907SOL     OW15619   4.324   6.150   2.167
 4907SOL    HW115620   4.273   6.190   2.243
 4907SOL    HW215621   4.409   6.109   2.201
 4908SOL     OW15622   5.434   5.922   0.336
 4908SOL    HW115623   5.479   5.927   0.426
 4908SOL    HW215624   5.502   5.939   0.264
 4909SOL     OW15625   0.631   6.555   4.538
 4909SOL    HW115626   0.729   6.542   4.527
 4909SOL    HW215627   0.587   6.466   4.548
 4910SOL     OW15628   5.524   1.028   4.967
 4910SOL    HW115629   5.523   1.006   5.065
 4910SOL    HW215630   5.484   1.118   4.953
 4911SOL     OW15631   1.103   4.262   3.684
 4911SOL    HW115632   1.011   4.236   3.654
 4911SOL    HW215633   1.096   4.333   3.753
 4912SOL     OW15634   5.466   1.189   6.301
 4912SOL    HW115635   5.385   1.135   6.325
 4912SOL    HW215636   5.461   1.214   6.204
 4913SOL     OW15637   4.049   3.171   5.275
 4913SOL    HW115638   3.959   3.127   5.281
 4913SOL    HW215639   4.113   3.121   5.334
 4914SOL     OW15640   3.570   0.134   4.710
 4914SOL    HW115641   3.509   0.065   4.751
 4914SOL    HW215642   3.553   0.137   4.612
 4915SOL     OW15643   3.512   6.350   5.878
 4915SOL    HW115644   3.591   6.304   5.837
 4915SOL    HW215645   3.457   6.283   5.927
 4916SOL     OW15646   1.217   0.336   4.258
 4916SOL    HW115647   1.159   0.415   4.237
 4916SOL    HW215648   1.275   0.316   4.179
 4917SOL     OW15649   2.450   5.638   1.907
 4917SOL    HW115650   2.399   5.624   1.822
 4917SOL    HW215651   2.426   5.726   1.947
 4918SOL     OW15652   4.729   5.837   2.819
 4918SOL    HW115653   4.673   5.889   2.754
 4918SOL    HW215654   4.728   5.883   2.908
 4919SOL     OW15655   3.495   2.475   0.803
 4919SOL    HW115656   3.469   2.547   0.867
 4919SOL    HW215657   3.586   2.440   0.827
 4920SOL     OW15658   5.320   0.562   4.499
 4920SOL    HW115659   5.355   0.548   4.591
 4920SOL    HW215660   5.281   0.477   4.464
 4921SOL     OW15661   1.107   5.403   0.324
 4921SOL    HW115662   1.137   5.465   0.396
 4921SOL    HW215663   1.022   5.358   0.351
 4922SOL     OW15664   2.627   2.571   5.297
 4922SOL    HW115665   2.718   2.598   5.330
 4922SOL    HW215666   2.565   2.649   5.304
 4923SOL     OW15667   3.979   1.951   2.836
 4923SOL    HW115668   3.960   2.000   2.920
 4923SOL    HW215669   3.908   1.881   2.821
 4924SOL     OW15670   3.913   1.144   4.949
 4924SOL    HW115671   3.851   1.181   4.881
 4924SOL    HW215672   3.989   1.208   4.964
 4925SOL     OW15673   6.811   0.171   2.649
 4925SOL    HW115674   6.788   0.114   2.570
 4925SOL    HW215675   6.911   0.181   2.655
 4926SOL     OW15676   4.752   0.613   0.517
 4926SOL    HW115677   4.811   0.616   0.598
 4926SOL    HW215678   4.726   0.705   0.491
 4927SOL     OW15679   3.438   3.810   4.727
 4927SOL    HW115680   3.342   3.784   4.737
 4927SOL    HW215681   3.477   3.763   4.648
 4928SOL     OW15682   2.255   6.895   6.898
 4928SOL    HW115683   2.276   6.860   6.990
 4928SOL    HW215684   2.158   6.917   6.893
 4929SOL     OW15685   6.752   6.908   4.531
 4929SOL    HW115686   6.738   6.982   4.465
 4929SOL    HW215687   6.673   6.905   4.593
 4930SOL     OW15688   5.215   0.769   2.678
 4930SOL    HW115689   5.265   0.855   2.681
 4930SOL    HW215690   5.230   0.718   2.762
 4931SOL     OW15691   6.836   6.834   0.946
 4931SOL    HW115692   6.904   6.883   0.891
 4931SOL    HW215693   6.833   6.738   0.918
 4932SOL     OW15694   3.444   2.786   1.957
 4932SOL    HW115695   3.392   2.842   1.894
 4932SOL    HW215696   3.407   2.693   1.958
 4933SOL     OW15697   2.317   6.563   2.481
 4933SOL    HW115698   2.290   6.597   2.391
 4933SOL    HW215699   2.297   6.632   2.550
 4934SOL     OW15700   3.359   5.496   2.953
 4934SOL    HW115701   3.349   5.531   3.046
 4934SOL    HW215702   3.326   5.564   2.888
 4935SOL     OW15703   2.010   2.004   6.268
 4935SOL    HW115704   2.057   2.017   6.355
 4935SOL    HW215705   1.992   1.906   6.255
 4936SOL     OW15706   2.869   4.845   1.444
 4936SOL    HW115707   2.851   4.932   1.397
 4936SOL    HW215708   2.822   4.771   1.397
 4937SOL     OW15709   5.537   3.325   5.648
 4937SOL    HW115710   5.597   3.400   5.621
 4937SOL    HW215711   5.477   3.301   5.572
 4938SOL     OW15712   2.153   5.167   5.767
 4938SOL    HW115713   2.187   5.100   5.701
 4938SOL    HW215714   2.228   5.196   5.826
 4939SOL     OW15715   5.908   2.193   4.609
 4939SOL    HW115716   5.969   2.223   4.535
 4939SOL    HW215717   5.818   2.172   4.571
 4940SOL     OW15718   0.263   1.252   4.542
 4940SOL    HW115719   0.266   1.298   4.453
 4940SOL    HW215720   0.342   1.192   4.551
 4941SOL     OW15721   4.905   2.060   5.852
 4941SOL    HW115722   4.985   2.072   5.911
 4941SOL    HW215723   4.831   2.118   5.885
 4942SOL     OW15724   4.706   2.224   5.931
 4942SOL    HW115725   4.617   2.188   5.903
 4942SOL    HW215726   4.703   2.251   6.027
 4943SOL     OW15727   4.689   3.494   6.652
 4943SOL    HW115728   4.708   3.487   6.554
 4943SOL    HW215729   4.750   3.434   6.703
 4944SOL     OW15730   2.065   4.692   1.707
 4944SOL    HW115731   2.156   4.654   1.726
 4944SOL    HW215732   2.072   4.790   1.693
 4945SOL     OW15733   1.426   0.700   4.108
 4945SOL    HW115734   1.372   0.735   4.031
 4945SOL    HW215735   1.430   0.770   4.180
 4946SOL     OW15736   0.758   3.646   0.406
 4946SOL    HW115737   0.721   3.732   0.441
 4946SOL    HW215738   0.816   3.605   0.476
 4947SOL     OW15739   1.914   0.995   1.387
 4947SOL    HW115740   1.962   1.082   1.373
 4947SOL    HW215741   1.980   0.922   1.403
 4948SOL     OW15742   1.558   2.060   2.267
 4948SOL    HW115743   1.474   2.009   2.288
 4948SOL    HW215744   1.634   2.020   2.318
 4949SOL     OW15745   4.433   6.880   6.204
 4949SOL    HW115746   4.368   6.956   6.200
 4949SOL    HW215747   4.383   6.794   6.213
 4950SOL     OW15748   2.837   5.371   4.240
 4950SOL    HW115749   2.745   5.366   4.279
 4950SOL    HW215750   2.868   5.466   4.241
 4951SOL     OW15751   5.255   1.293   4.386
 4951SOL    HW115752   5.203   1.378   4.388
 4951SOL    HW215753   5.205   1.222   4.435
 4952SOL     OW15754   0.135   0.965   5.458
 4952SOL    HW115755   0.080   0.918   5.527
 4952SOL    HW215756   0.213   0.908   5.433
 4953SOL     OW15757   1.905   6.294   2.091
 4953SOL    HW115758   1.988   6.326   2.045
 4953SOL    HW215759   1.842   6.371   2.104
 4954SOL     OW15760   4.338   3.658   6.753
 4954SOL    HW115761   4.316   3.629   6.660
 4954SOL    HW215762   4.254   3.682   6.802
 4955SOL     OW15763   2.669   6.076   6.761
 4955SOL    HW115764   2.685   6.173   6.779
 4955SOL    HW215765   2.755   6.032   6.735
 4956SOL     OW15766   2.515   6.920   5.138
 4956SOL    HW115767   2.567   7.003   5.117
 4956SOL    HW215768   2.417   6.939   5.130
 4957SOL     OW15769   6.698   1.930   2.487
 4957SOL    HW115770   6.793   1.920   2.514
 4957SOL    HW215771   6.662   2.017   2.522
 4958SOL     OW15772   6.735   5.331   5.077
 4958SOL    HW115773   6.713   5.278   4.995
 4958SOL    HW215774   6.804   5.399   5.056
 4959SOL     OW15775   6.400   1.309   6.242
 4959SOL    HW115776   6.414   1.303   6.143
 4959SOL    HW215777   6.486   1.332   6.287
 4960SOL     OW15778   3.651   5.693   3.200
 4960SOL    HW115779   3.636   5.712   3.103
 4960SOL    HW215780   3.675   5.596   3.212
 4961SOL     OW15781   4.825   1.630   6.071
 4961SOL    HW115782   4.823   1.689   5.991
 4961SOL    HW215783   4.871   1.677   6.147
 4962SOL     OW15784   6.428   2.570   0.462
 4962SOL    HW115785   6.504   2.551   0.399
 4962SOL    HW215786   6.427   2.668   0.483
 4963SOL     OW15787   6.389   5.756   6.809
 4963SOL    HW115788   6.373   5.788   6.903
 4963SOL    HW215789   6.334   5.674   6.792
 4964SOL     OW15790   3.286   0.055   4.226
 4964SOL    HW115791   3.229   0.008   4.158
 4964SOL    HW215792   3.378   0.066   4.190
 4965SOL     OW15793   0.347   0.510   3.803
 4965SOL    HW115794   0.401   0.436   3.763
 4965SOL    HW215795   0.340   0.585   3.738
 4966SOL     OW15796   2.285   0.634   4.740
 4966SOL    HW115797   2.312   0.696   4.813
 4966SOL    HW215798   2.362   0.575   4.716
 4967SOL     OW15799   3.616   3.563   6.024
 4967SOL    HW115800   3.682   3.531   5.956
 4967SOL    HW215801   3.658   3.563   6.115
 4968SOL     OW15802   5.757   2.407   3.388
 4968SOL    HW115803   5.834   2.423   3.450
 4968SOL    HW215804   5.760   2.475   3.314
 4969SOL     OW15805   2.386   0.713   2.301
 4969SOL    HW115806   2.459   0.775   2.330
 4969SOL    HW215807   2.297   0.748   2.331
 4970SOL     OW15808   1.629   1.869   3.961
 4970SOL    HW115809   1.530   1.864   3.972
 4970SOL    HW215810   1.660   1.792   3.905
 4971SOL     OW15811   6.216   6.382   3.694
 4971SOL    HW115812   6.172   6.471   3.683
 4971SOL    HW215813   6.281   6.386   3.770
 4972SOL     OW15814   2.119   2.846   6.924
 4972SOL    HW115815   2.021   2.847   6.943
 4972SOL    HW215816   2.135   2.797   6.838
 4973SOL     OW15817   0.381   0.393   2.612
 4973SOL    HW115818   0.368   0.399   2.513
 4973SOL    HW215819   0.450   0.324   2.633
 4974SOL     OW15820   5.845   4.997   1.260
 4974SOL    HW115821   5.774   4.981   1.329
 4974SOL    HW215822   5.907   4.919   1.259
 4975SOL     OW15823   5.492   5.425   6.051
 4975SOL    HW115824   5.477   5.477   5.968
 4975SOL    HW215825   5.582   5.447   6.089
 4976SOL     OW15826   3.163   0.072   4.731
 4976SOL    HW115827   3.199   0.005   4.796
 4976SOL    HW215828   3.130   0.024   4.649
 4977SOL     OW15829   4.261   3.921   0.656
 4977SOL    HW115830   4.275   3.937   0.754
 4977SOL    HW215831   4.344   3.880   0.617
 4978SOL     OW15832   7.013   4.108   5.522
 4978SOL    HW115833   6.949   4.178   5.554
 4978SOL    HW215834   7.009   4.028   5.582
 4979SOL     OW15835   0.758   0.267   5.346
 4979SOL    HW115836   0.674   0.317   5.324
 4979SOL    HW215837   0.756   0.238   5.442
 4980SOL     OW15838   4.645   6.370   3.332
 4980SOL    HW115839   4.615   6.291   3.279
 4980SOL    HW215840   4.592   6.376   3.417
 4981SOL     OW15841   4.916   5.535   6.451
 4981SOL    HW115842   4.854   5.457   6.463
 4981SOL    HW215843   5.010   5.506   6.467
 4982SOL     OW15844   2.075   2.014   6.524
 4982SOL    HW115845   2.133   1.937   6.549
 4982SOL    HW215846   1.998   2.020   6.588
 4983SOL     OW15847   5.354   2.143   4.324
 4983SOL    HW115848   5.365   2.088   4.241
 4983SOL    HW215849   5.393   2.234   4.309
 4984SOL     OW15850   6.169   4.222   4.355
 4984SOL    HW115851   6.255   4.241   4.403
 4984SOL    HW215852   6.145   4.300   4.297
 4985SOL     OW15853   6.163   6.635   3.200
 4985SOL    HW115854   6.177   6.566   3.129
 4985SOL    HW215855   6.235   6.628   3.269
 4986SOL     OW15856   5.740   4.428   2.795
 4986SOL    HW115857   5.669   4.471   2.851
 4986SOL    HW215858   5.809   4.388   2.855
 4987SOL     OW15859   1.004   1.413   1.054
 4987SOL    HW115860   0.927   1.408   1.118
 4987SOL    HW215861   0.977   1.467   0.975
 4988SOL     OW15862   5.811   1.160   3.107
 4988SOL    HW115863   5.893   1.206   3.074
 4988SOL    HW215864   5.743   1.229   3.135
 4989SOL     OW15865   5.500   0.303   1.339
 4989SOL    HW115866   5.437   0.333   1.267
 4989SOL    HW215867   5.549   0.382   1.375
 4990SOL     OW15868   1.720   1.945   5.597
 4990SOL    HW115869   1.803   1.999   5.582
 4990SOL    HW215870   1.715   1.917   5.692
 4991SOL     OW15871   0.514   3.341   4.561
 4991SOL    HW115872   0.560   3.277   4.500
 4991SOL    HW215873   0.582   3.400   4.605
 4992SOL     OW15874   4.867   0.771   4.899
 4992SOL    HW115875   4.959   0.797   4.929
 4992SOL    HW215876   4.815   0.736   4.977
 4993SOL     OW15877   3.875   5.154   3.876
 4993SOL    HW115878   3.923   5.231   3.835
 4993SOL    HW215879   3.795   5.131   3.820
 4994SOL     OW15880   0.844   0.564   2.651
 4994SOL    HW115881   0.845   0.464   2.642
 4994SOL    HW215882   0.934   0.595   2.684
 4995SOL     OW15883   6.504   2.853   5.936
 4995SOL    HW115884   6.586   2.910   5.936
 4995SOL    HW215885   6.514   2.781   6.005
 4996SOL     OW15886   1.353   0.710   2.812
 4996SOL    HW115887   1.361   0.805   2.782
 4996SOL    HW215888   1.257   0.686   2.820
 4997SOL     OW15889   6.469   1.442   3.029
 4997SOL    HW115890   6.424   1.504   2.965
 4997SOL    HW215891   6.404   1.374   3.062
 4998SOL     OW15892   2.263   3.720   5.240
 4998SOL    HW115893   2.305   3.809   5.227
 4998SOL    HW215894   2.260   3.670   5.153
 4999SOL     OW15895   5.549   5.143   1.153
 4999SOL    HW115896   5.569   5.058   1.102
 4999SOL    HW215897   5.586   5.135   1.245
 5000SOL     OW15898   1.923   6.712   4.164
 5000SOL    HW115899   1.973   6.683   4.082
 5000SOL    HW215900   1.988   6.742   4.234
 5001SOL     OW15901   1.652   4.610   0.049
 5001SOL    HW115902   1.676   4.556   0.130
 5001SOL    HW215903   1.631   4.703   0.076
 5002SOL     OW15904   1.483   3.367   3.035
 5002SOL    HW115905   1.559   3.375   3.099
 5002SOL    HW215906   1.466   3.456   2.992
 5003SOL     OW15907   2.187   6.430   2.885
 5003SOL    HW115908   2.226   6.508   2.935
 5003SOL    HW215909   2.248   6.405   2.810
 5004SOL     OW15910   3.123   5.037   5.694
 5004SOL    HW115911   3.138   5.136   5.691
 5004SOL    HW215912   3.191   4.991   5.637
 5005SOL     OW15913   3.463   2.173   0.903
 5005SOL    HW115914   3.557   2.205   0.912
 5005SOL    HW215915   3.407   2.246   0.864
 5006SOL     OW15916   4.731   6.374   6.667
 5006SOL    HW115917   4.683   6.371   6.579
 5006SOL    HW215918   4.668   6.348   6.740
 5007SOL     OW15919   2.332   0.159   6.848
 5007SOL    HW115920   2.330   0.083   6.913
 5007SOL    HW215921   2.273   0.137   6.770
 5008SOL     OW15922   6.424   0.655   3.297
 5008SOL    HW115923   6.481   0.699   3.366
 5008SOL    HW215924   6.346   0.610   3.343
 5009SOL     OW15925   1.834   6.036   1.594
 5009SOL    HW115926   1.910   6.099   1.586
 5009SOL    HW215927   1.783   6.032   1.508
 5010SOL     OW15928   3.568   2.897   2.834
 5010SOL    HW115929   3.485   2.896   2.778
 5010SOL    HW215930   3.648   2.907   2.775
 5011SOL     OW15931   1.749   3.593   2.514
 5011SOL    HW115932   1.660   3.568   2.477
 5011SOL    HW215933   1.818   3.527   2.484
 5012SOL     OW15934   4.958   3.385   6.053
 5012SOL    HW115935   4.965   3.408   6.150
 5012SOL    HW215936   4.968   3.469   5.999
 5013SOL     OW15937   5.413   1.865   0.496
 5013SOL    HW115938   5.369   1.869   0.586
 5013SOL    HW215939   5.369   1.929   0.434
 5014SOL     OW15940   5.243   4.421   0.247
 5014SOL    HW115941   5.244   4.496   0.180
 5014SOL    HW215942   5.152   4.415   0.289
 5015SOL     OW15943   4.767   2.225   4.030
 5015SOL    HW115944   4.735   2.130   4.032
 5015SOL    HW215945   4.723   2.274   3.955
 5016SOL     OW15946   2.904   1.868   0.907
 5016SOL    HW115947   2.959   1.785   0.909
 5016SOL    HW215948   2.957   1.944   0.943
 5017SOL     OW15949   1.835   2.657   6.779
 5017SOL    HW115950   1.878   2.590   6.839
 5017SOL    HW215951   1.755   2.617   6.735
 5018SOL     OW15952   0.950   4.541   1.445
 5018SOL    HW115953   0.863   4.492   1.431
 5018SOL    HW215954   0.930   4.634   1.476
 5019SOL     OW15955   1.845   4.756   6.610
 5019SOL    HW115956   1.893   4.669   6.602
 5019SOL    HW215957   1.779   4.751   6.685
 5020SOL     OW15958   4.826   6.666   6.006
 5020SOL    HW115959   4.816   6.659   6.105
 5020SOL    HW215960   4.908   6.617   5.977
 5021SOL     OW15961   1.675   1.807   5.899
 5021SOL    HW115962   1.771   1.820   5.874
 5021SOL    HW215963   1.666   1.805   5.998
 5022SOL     OW15964   1.890   0.387   0.259
 5022SOL    HW115965   1.916   0.340   0.175
 5022SOL    HW215966   1.972   0.403   0.314
 5023SOL     OW15967   6.210   2.577   1.183
 5023SOL    HW115968   6.240   2.485   1.159
 5023SOL    HW215969   6.280   2.620   1.241
 5024SOL     OW15970   6.501   4.483   3.120
 5024SOL    HW115971   6.426   4.500   3.056
 5024SOL    HW215972   6.509   4.560   3.182
 5025SOL     OW15973   3.997   2.239   1.910
 5025SOL    HW115974   3.970   2.284   1.825
 5025SOL    HW215975   3.916   2.206   1.958
 5026SOL     OW15976   5.671   6.099   6.335
 5026SOL    HW115977   5.754   6.063   6.377
 5026SOL    HW215978   5.617   6.023   6.298
 5027SOL     OW15979   0.098   0.168   2.359
 5027SOL    HW115980   0.104   0.070   2.378
 5027SOL    HW215981   0.086   0.182   2.260
 5028SOL     OW15982   0.294   6.598   3.266
 5028SOL    HW115983   0.289   6.685   3.216
 5028SOL    HW215984   0.332   6.614   3.357
 5029SOL     OW15985   6.611   3.635   3.569
 5029SOL    HW115986   6.628   3.715   3.626
 5029SOL    HW215987   6.627   3.552   3.624
 5030SOL     OW15988   0.065   0.420   6.638
 5030SOL    HW115989   0.072   0.423   6.737
 5030SOL    HW215990   0.120   0.493   6.598
 5031SOL     OW15991   5.277   0.897   4.716
 5031SOL    HW115992   5.246   0.862   4.627
 5031SOL    HW215993   5.368   0.937   4.706
 5032SOL     OW15994   1.471   4.147   1.383
 5032SOL    HW115995   1.393   4.153   1.445
 5032SOL    HW215996   1.529   4.070   1.408
 5033SOL     OW15997   1.568   4.695   6.294
 5033SOL    HW115998   1.598   4.601   6.278
 5033SOL    HW215999   1.645   4.750   6.326
 5034SOL     OW16000   6.478   2.456   3.014
 5034SOL    HW116001   6.427   2.383   3.060
 5034SOL    HW216002   6.576   2.436   3.020
 5035SOL     OW16003   6.138   4.437   0.714
 5035SOL    HW116004   6.185   4.376   0.651
 5035SOL    HW216005   6.083   4.384   0.778
 5036SOL     OW16006   6.949   4.646   0.318
 5036SOL    HW116007   0.011   4.644   0.261
 5036SOL    HW216008   6.883   4.581   0.283
 5037SOL     OW16009   4.889   2.103   2.395
 5037SOL    HW116010   4.790   2.113   2.386
 5037SOL    HW216011   4.915   2.009   2.375
 5038SOL     OW16012   1.845   5.021   5.365
 5038SOL    HW116013   1.793   4.942   5.335
 5038SOL    HW216014   1.914   5.044   5.296
 5039SOL     OW16015   2.051   3.827   5.670
 5039SOL    HW116016   1.987   3.904   5.669
 5039SOL    HW216017   2.035   3.770   5.589
 5040SOL     OW16018   1.937   4.269   6.252
 5040SOL    HW116019   1.987   4.351   6.280
 5040SOL    HW216020   2.001   4.195   6.233
 5041SOL     OW16021   1.568   3.299   1.414
 5041SOL    HW116022   1.513   3.247   1.349
 5041SOL    HW216023   1.580   3.393   1.381
 5042SOL     OW16024   6.792   3.103   0.114
 5042SOL    HW116025   6.877   3.083   0.162
 5042SOL    HW216026   6.715   3.061   0.163
 5043SOL     OW16027   3.008   1.225   6.012
 5043SOL    HW116028   2.946   1.199   6.087
 5043SOL    HW216029   3.001   1.323   5.996
 5044SOL     OW16030   6.158   6.866   2.493
 5044SOL    HW116031   6.126   6.847   2.586
 5044SOL    HW216032   6.081   6.893   2.435
 5045SOL     OW16033   5.461   2.963   0.097
 5045SOL    HW116034   5.424   2.870   0.090
 5045SOL    HW216035   5.400   3.026   0.049
 5046SOL     OW16036   3.206   4.127   5.056
 5046SOL    HW116037   3.134   4.190   5.028
 5046SOL    HW216038   3.288   4.142   5.001
 5047SOL     OW16039   0.268   2.382   2.281
 5047SOL    HW116040   0.201   2.331   2.228
 5047SOL    HW216041   0.267   2.351   2.376
 5048SOL     OW16042   6.698   1.255   1.072
 5048SOL    HW116043   6.632   1.193   1.029
 5048SOL    HW216044   6.659   1.291   1.157
 5049SOL     OW16045   6.530   1.423   4.423
 5049SOL    HW116046   6.620   1.413   4.467
 5049SOL    HW216047   6.542   1.426   4.324
 5050SOL     OW16048   1.058   1.351   1.819
 5050SOL    HW116049   0.985   1.409   1.855
 5050SOL    HW216050   1.132   1.345   1.887
 5051SOL     OW16051   4.279   3.639   0.379
 5051SOL    HW116052   4.282   3.574   0.303
 5051SOL    HW216053   4.188   3.635   0.422
 5052SOL     OW16054   2.397   5.196   5.943
 5052SOL    HW116055   2.421   5.099   5.945
 5052SOL    HW216056   2.355   5.221   6.030
 5053SOL     OW16057   1.629   4.034   3.424
 5053SOL    HW116058   1.567   4.071   3.355
 5053SOL    HW216059   1.709   4.093   3.432
 5054SOL     OW16060   3.536   5.466   5.306
 5054SOL    HW116061   3.576   5.411   5.379
 5054SOL    HW216062   3.466   5.413   5.258
 5055SOL     OW16063   0.561   1.025   5.108
 5055SOL    HW116064   0.628   1.089   5.071
 5055SOL    HW216065   0.550   1.042   5.206
 5056SOL     OW16066   6.215   3.783   0.703
 5056SOL    HW116067   6.164   3.819   0.624
 5056SOL    HW216068   6.278   3.712   0.671
 5057SOL     OW16069   0.912   5.585   3.945
 5057SOL    HW116070   0.941   5.613   4.036
 5057SOL    HW216071   0.846   5.650   3.909
 5058SOL     OW16072   2.474   4.196   6.339
 5058SOL    HW116073   2.452   4.195   6.242
 5058SOL    HW216074   2.474   4.103   6.375
 5059SOL     OW16075   5.607   3.669   3.926
 5059SOL    HW116076   5.657   3.686   3.842
 5059SOL    HW216077   5.510   3.692   3.912
 5060SOL     OW16078   0.138   2.736   5.276
 5060SOL    HW116079   0.238   2.735   5.274
 5060SOL    HW216080   0.104   2.731   5.182
 5061SOL     OW16081   3.244   2.986   4.011
 5061SOL    HW116082   3.158   2.990   4.061
 5061SOL    HW216083   3.239   3.044   3.930
 5062SOL     OW16084   5.022   1.115   2.748
 5062SOL    HW116085   4.961   1.192   2.769
 5062SOL    HW216086   5.099   1.116   2.811
 5063SOL     OW16087   1.303   6.111   1.785
 5063SOL    HW116088   1.283   6.203   1.818
 5063SOL    HW216089   1.390   6.112   1.736
 5064SOL     OW16090   4.998   4.507   1.378
 5064SOL    HW116091   5.077   4.559   1.411
 5064SOL    HW216092   4.914   4.554   1.404
 5065SOL     OW16093   1.344   1.926   2.855
 5065SOL    HW116094   1.316   2.022   2.861
 5065SOL    HW216095   1.408   1.905   2.929
 5066SOL     OW16096   3.108   4.000   1.849
 5066SOL    HW116097   3.075   4.093   1.830
 5066SOL    HW216098   3.202   4.005   1.883
 5067SOL     OW16099   3.585   1.052   2.640
 5067SOL    HW116100   3.548   1.014   2.724
 5067SOL    HW216101   3.649   0.987   2.599
 5068SOL     OW16102   3.365   4.775   0.177
 5068SOL    HW116103   3.384   4.677   0.165
 5068SOL    HW216104   3.451   4.824   0.187
 5069SOL     OW16105   1.719   2.868   6.191
 5069SOL    HW116106   1.742   2.896   6.098
 5069SOL    HW216107   1.668   2.782   6.188
 5070SOL     OW16108   5.152   4.858   5.297
 5070SOL    HW116109   5.234   4.887   5.249
 5070SOL    HW216110   5.079   4.841   5.231
 5071SOL     OW16111   4.124   2.209   4.005
 5071SOL    HW116112   4.167   2.210   4.095
 5071SOL    HW216113   4.088   2.118   3.986
 5072SOL     OW16114   1.656   1.550   1.387
 5072SOL    HW116115   1.626   1.517   1.477
 5072SOL    HW216116   1.583   1.538   1.320
 5073SOL     OW16117   1.848   5.101   1.198
 5073SOL    HW116118   1.853   5.039   1.276
 5073SOL    HW216119   1.932   5.154   1.192
 5074SOL     OW16120   3.815   2.095   2.219
 5074SOL    HW116121   3.900   2.148   2.212
 5074SOL    HW216122   3.764   2.103   2.134
 5075SOL     OW16123   1.052   1.827   6.997
 5075SOL    HW116124   0.958   1.810   6.967
 5075SOL    HW216125   1.085   1.912   6.956
 5076SOL     OW16126   5.571   0.083   0.771
 5076SOL    HW116127   5.586   0.132   0.686
 5076SOL    HW216128   5.541   0.147   0.842
 5077SOL     OW16129   0.569   4.076   6.457
 5077SOL    HW116130   0.502   4.145   6.485
 5077SOL    HW216131   0.582   4.082   6.358
 5078SOL     OW16132   0.658   1.330   3.687
 5078SOL    HW116133   0.588   1.282   3.634
 5078SOL    HW216134   0.629   1.336   3.783
 5079SOL     OW16135   2.457   2.779   5.359
 5079SOL    HW116136   2.515   2.839   5.304
 5079SOL    HW216137   2.364   2.780   5.322
 5080SOL     OW16138   6.137   5.921   5.530
 5080SOL    HW116139   6.130   5.821   5.521
 5080SOL    HW216140   6.214   5.954   5.475
 5081SOL     OW16141   2.869   4.554   6.244
 5081SOL    HW116142   2.954   4.531   6.291
 5081SOL    HW216143   2.877   4.532   6.147
 5082SOL     OW16144   5.186   0.336   0.694
 5082SOL    HW116145   5.120   0.411   0.682
 5082SOL    HW216146   5.149   0.268   0.757
 5083SOL     OW16147   2.890   0.395   2.381
 5083SOL    HW116148   2.908   0.481   2.428
 5083SOL    HW216149   2.971   0.368   2.329
 5084SOL     OW16150   1.121   4.997   3.791
 5084SOL    HW116151   1.101   4.925   3.725
 5084SOL    HW216152   1.076   5.082   3.762
 5085SOL     OW16153   6.775   2.489   5.540
 5085SOL    HW116154   6.813   2.477   5.631
 5085SOL    HW216155   6.836   2.547   5.485
 5086SOL     OW16156   1.317   4.615   2.882
 5086SOL    HW116157   1.220   4.631   2.861
 5086SOL    HW216158   1.327   4.527   2.929
 5087SOL     OW16159   0.161   5.351   1.604
 5087SOL    HW116160   0.182   5.375   1.509
 5087SOL    HW216161   0.079   5.400   1.634
 5088SOL     OW16162   5.187   0.010   3.696
 5088SOL    HW116163   5.259   7.004   3.760
 5088SOL    HW216164   5.215   0.090   3.644
 5089SOL     OW16165   6.169   4.572   4.345
 5089SOL    HW116166   6.178   4.655   4.291
 5089SOL    HW216167   6.258   4.547   4.383
 5090SOL     OW16168   1.719   1.719   2.669
 5090SOL    HW116169   1.722   1.769   2.756
 5090SOL    HW216170   1.731   1.783   2.593
 5091SOL     OW16171   6.551   1.046   2.050
 5091SOL    HW116172   6.546   1.144   2.066
 5091SOL    HW216173   6.564   1.028   1.952
 5092SOL     OW16174   3.721   3.369   3.666
 5092SOL    HW116175   3.681   3.325   3.586
 5092SOL    HW216176   3.819   3.382   3.652
 5093SOL     OW16177   3.512   1.345   0.736
 5093SOL    HW116178   3.421   1.386   0.746
 5093SOL    HW216179   3.574   1.412   0.694
 5094SOL     OW16180   2.475   6.007   6.002
 5094SOL    HW116181   2.566   5.985   6.038
 5094SOL    HW216182   2.415   5.928   6.015
 5095SOL     OW16183   6.998   2.486   2.945
 5095SOL    HW116184   6.990   2.569   2.999
 5095SOL    HW216185   7.006   2.407   3.005
 5096SOL     OW16186   4.575   5.220   6.841
 5096SOL    HW116187   4.664   5.187   6.806
 5096SOL    HW216188   4.570   5.319   6.830
 5097SOL     OW16189   0.573   6.832   6.781
 5097SOL    HW116190   0.638   6.849   6.855
 5097SOL    HW216191   0.480   6.847   6.814
 5098SOL     OW16192   2.502   1.140   2.080
 5098SOL    HW116193   2.555   1.224   2.092
 5098SOL    HW216194   2.507   1.085   2.163
 5099SOL     OW16195   0.437   6.822   1.329
 5099SOL    HW116196   0.432   6.772   1.243
 5099SOL    HW216197   0.509   6.782   1.387
 5100SOL     OW16198   3.519   5.274   4.714
 5100SOL    HW116199   3.424   5.282   4.741
 5100SOL    HW216200   3.539   5.340   4.641
 5101SOL     OW16201   4.198   0.032   5.866
 5101SOL    HW116202   4.207   6.955   5.887
 5101SOL    HW216203   4.110   0.049   5.822
 5102SOL     OW16204   5.296   6.855   4.226
 5102SOL    HW116205   5.348   6.854   4.140
 5102SOL    HW216206   5.287   6.761   4.260
 5103SOL     OW16207   0.084   1.426   3.925
 5103SOL    HW116208   0.074   1.376   4.010
 5103SOL    HW216209   0.052   1.520   3.938
 5104SOL     OW16210   1.983   6.890   1.744
 5104SOL    HW116211   1.900   6.913   1.795
 5104SOL    HW216212   2.027   6.974   1.712
 5105SOL     OW16213   3.495   2.799   0.282
 5105SOL    HW116214   3.511   2.714   0.232
 5105SOL    HW216215   3.399   2.826   0.275
 5106SOL     OW16216   4.458   1.339   1.176
 5106SOL    HW116217   4.369   1.314   1.214
 5106SOL    HW216218   4.528   1.332   1.248
 5107SOL     OW16219   4.691   2.768   1.494
 5107SOL    HW116220   4.643   2.684   1.472
 5107SOL    HW216221   4.684   2.832   1.417
 5108SOL     OW16222   3.915   3.949   5.213
 5108SOL    HW116223   3.953   4.041   5.208
 5108SOL    HW216224   3.833   3.944   5.156
 5109SOL     OW16225   0.900   2.162   0.035
 5109SOL    HW116226   0.823   2.099   0.046
 5109SOL    HW216227   0.925   2.199   0.125
 5110SOL     OW16228   0.356   0.474   6.365
 5110SOL    HW116229   0.425   0.413   6.406
 5110SOL    HW216230   0.311   0.427   6.290
 5111SOL     OW16231   1.562   1.016   4.342
 5111SOL    HW116232   1.588   1.111   4.363
 5111SOL    HW216233   1.625   0.980   4.273
 5112SOL     OW16234   1.004   0.234   2.870
 5112SOL    HW116235   0.963   0.213   2.959
 5112SOL    HW216236   1.096   0.271   2.884
 5113SOL     OW16237   2.076   5.544   1.419
 5113SOL    HW116238   2.141   5.614   1.448
 5113SOL    HW216239   1.986   5.564   1.459
 5114SOL     OW16240   3.982   0.174   6.342
 5114SOL    HW116241   4.066   0.166   6.396
 5114SOL    HW216242   3.949   0.082   6.319
 5115SOL     OW16243   1.552   5.702   3.485
 5115SOL    HW116244   1.602   5.655   3.413
 5115SOL    HW216245   1.492   5.771   3.445
 5116SOL     OW16246   1.152   6.292   0.514
 5116SOL    HW116247   1.211   6.330   0.584
 5116SOL    HW216248   1.205   6.231   0.455
 5117SOL     OW16249   1.528   3.994   4.133
 5117SOL    HW116250   1.438   3.999   4.177
 5117SOL    HW216251   1.526   4.040   4.045
 5118SOL     OW16252   5.415   0.875   6.860
 5118SOL    HW116253   5.492   0.931   6.891
 5118SOL    HW216254   5.330   0.912   6.898
 5119SOL     OW16255   4.413   0.916   2.299
 5119SOL    HW116256   4.320   0.912   2.335
 5119SOL    HW216257   4.471   0.967   2.362
 5120SOL     OW16258   3.942   0.206   4.544
 5120SOL    HW116259   3.850   0.230   4.576
 5120SOL    HW216260   3.943   0.205   4.444
 5121SOL     OW16261   3.854   3.035   6.934
 5121SOL    HW116262   3.760   3.054   6.960
 5121SOL    HW216263   3.876   3.082   6.848
 5122SOL     OW16264   3.589   6.093   3.329
 5122SOL    HW116265   3.544   6.006   3.346
 5122SOL    HW216266   3.569   6.124   3.236
 5123SOL     OW16267   5.132   1.882   4.271
 5123SOL    HW116268   5.170   1.797   4.308
 5123SOL    HW216269   5.164   1.959   4.327
 5124SOL     OW16270   1.619   5.898   4.903
 5124SOL    HW116271   1.626   5.808   4.946
 5124SOL    HW216272   1.663   5.896   4.813
 5125SOL     OW16273   6.343   3.257   3.627
 5125SOL    HW116274   6.250   3.221   3.616
 5125SOL    HW216275   6.372   3.247   3.722
 5126SOL     OW16276   6.633   5.889   6.766
 5126SOL    HW116277   6.544   5.848   6.784
 5126SOL    HW216278   6.705   5.834   6.809
 5127SOL     OW16279   0.040   3.870   0.274
 5127SOL    HW116280   6.975   3.832   0.309
 5127SOL    HW216281   0.030   3.969   0.261
 5128SOL     OW16282   0.134   6.887   6.701
 5128SOL    HW116283   0.158   6.963   6.640
 5128SOL    HW216284   0.071   6.825   6.653
 5129SOL     OW16285   6.482   6.753   2.914
 5129SOL    HW116286   6.387   6.724   2.901
 5129SOL    HW216287   6.515   6.721   3.003
 5130SOL     OW16288   0.271   5.253   3.385
 5130SOL    HW116289   0.348   5.193   3.407
 5130SOL    HW216290   0.272   5.332   3.446
 5131SOL     OW16291   2.285   4.418   3.881
 5131SOL    HW116292   2.318   4.380   3.968
 5131SOL    HW216293   2.187   4.401   3.872
 5132SOL     OW16294   4.130   2.902   6.364
 5132SOL    HW116295   4.110   2.975   6.298
 5132SOL    HW216296   4.054   2.838   6.366
 5133SOL     OW16297   1.817   5.039   6.992
 5133SOL    HW116298   1.870   5.095   0.036
 5133SOL    HW216299   1.755   5.098   6.941
 5134SOL     OW16300   0.169   3.190   2.009
 5134SOL    HW116301   0.200   3.184   1.914
 5134SOL    HW216302   0.076   3.151   2.016
 5135SOL     OW16303   6.149   2.464   4.906
 5135SOL    HW116304   6.057   2.428   4.889
 5135SOL    HW216305   6.146   2.564   4.906
 5136SOL     OW16306   4.173   0.963   6.341
 5136SOL    HW116307   4.093   0.990   6.287
 5136SOL    HW216308   4.239   1.038   6.342
 5137SOL     OW16309   5.512   3.686   5.915
 5137SOL    HW116310   5.573   3.757   5.878
 5137SOL    HW216311   5.513   3.689   6.015
 5138SOL     OW16312   3.197   2.767   5.790
 5138SOL    HW116313   3.266   2.708   5.748
 5138SOL    HW216314   3.241   2.828   5.856
 5139SOL     OW16315   2.209   0.345   3.130
 5139SOL    HW116316   2.174   0.358   3.037
 5139SOL    HW216317   2.227   0.248   3.146
 5140SOL     OW16318   4.139   2.146   0.170
 5140SOL    HW116319   4.147   2.050   0.142
 5140SOL    HW216320   4.096   2.199   0.097
 5141SOL     OW16321   6.434   3.640   0.119
 5141SOL    HW116322   6.439   3.719   0.057
 5141SOL    HW216323   6.494   3.568   0.086
 5142SOL     OW16324   6.363   0.334   4.165
 5142SOL    HW116325   6.414   0.255   4.131
 5142SOL    HW216326   6.272   0.305   4.193
 5143SOL     OW16327   6.902   4.183   4.465
 5143SOL    HW116328   6.876   4.273   4.431
 5143SOL    HW216329   6.947   4.193   4.554
 5144SOL     OW16330   0.997   4.718   5.944
 5144SOL    HW116331   1.018   4.741   6.039
 5144SOL    HW216332   1.066   4.655   5.909
 5145SOL     OW16333   2.225   4.977   5.564
 5145SOL    HW116334   2.193   4.922   5.486
 5145SOL    HW216335   2.304   4.932   5.606
 5146SOL     OW16336   3.790   4.212   5.106
 5146SOL    HW116337   3.827   4.227   5.014
 5146SOL    HW216338   3.746   4.123   5.110
 5147SOL     OW16339   6.330   4.786   2.906
 5147SOL    HW116340   6.310   4.690   2.929
 5147SOL    HW216341   6.343   4.794   2.807
 5148SOL     OW16342   0.554   6.385   1.185
 5148SOL    HW116343   0.627   6.403   1.251
 5148SOL    HW216344   0.539   6.286   1.178
 5149SOL     OW16345   6.509   5.786   3.498
 5149SOL    HW116346   6.564   5.831   3.568
 5149SOL    HW216347   6.413   5.789   3.524
 5150SOL     OW16348   1.981   4.862   2.189
 5150SOL    HW116349   1.977   4.803   2.109
 5150SOL    HW216350   1.949   4.954   2.165
 5151SOL     OW16351   5.586   2.460   0.998
 5151SOL    HW116352   5.624   2.552   1.005
 5151SOL    HW216353   5.505   2.462   0.939
 5152SOL     OW16354   2.148   5.049   0.012
 5152SOL    HW116355   2.099   5.113   0.073
 5152SOL    HW216356   2.188   4.976   0.067
 5153SOL     OW16357   2.252   0.447   0.151
 5153SOL    HW116358   2.217   0.432   0.059
 5153SOL    HW216359   2.178   0.433   0.217
 5154SOL     OW16360   0.758   3.477   6.211
 5154SOL    HW116361   0.813   3.508   6.289
 5154SOL    HW216362   0.720   3.555   6.163
 5155SOL     OW16363   4.313   6.504   2.230
 5155SOL    HW116364   4.249   6.438   2.269
 5155SOL    HW216365   4.271   6.595   2.231
 5156SOL     OW16366   6.405   3.267   5.993
 5156SOL    HW116367   6.350   3.257   6.076
 5156SOL    HW216368   6.388   3.356   5.952
 5157SOL     OW16369   4.464   1.734   3.621
 5157SOL    HW116370   4.394   1.805   3.613
 5157SOL    HW216371   4.464   1.678   3.538
 5158SOL     OW16372   3.751   0.921   1.872
 5158SOL    HW116373   3.801   1.006   1.888
 5158SOL    HW216374   3.816   0.846   1.860
 5159SOL     OW16375   0.031   3.374   3.587
 5159SOL    HW116376   6.986   3.304   3.558
 5159SOL    HW216377   0.000   3.463   3.555
 5160SOL     OW16378   7.006   4.454   3.440
 5160SOL    HW116379   6.947   4.454   3.521
 5160SOL    HW216380   0.033   4.541   3.434
 5161SOL     OW16381   1.504   4.048   5.137
 5161SOL    HW116382   1.580   4.003   5.090
 5161SOL    HW216383   1.418   4.002   5.112
 5162SOL     OW16384   1.192   5.623   3.142
 5162SOL    HW116385   1.101   5.664   3.146
 5162SOL    HW216386   1.249   5.672   3.076
 5163SOL     OW16387   3.951   6.185   0.371
 5163SOL    HW116388   4.042   6.214   0.343
 5163SOL    HW216389   3.887   6.199   0.295
 5164SOL     OW16390   4.624   2.468   6.506
 5164SOL    HW116391   4.542   2.425   6.469
 5164SOL    HW216392   4.601   2.518   6.590
 5165SOL     OW16393   5.708   4.461   5.578
 5165SOL    HW116394   5.751   4.499   5.660
 5165SOL    HW216395   5.772   4.466   5.502
 5166SOL     OW16396   0.359   5.472   3.049
 5166SOL    HW116397   0.357   5.402   2.978
 5166SOL    HW216398   0.269   5.481   3.090
 5167SOL     OW16399   6.401   5.663   5.715
 5167SOL    HW116400   6.485   5.610   5.701
 5167SOL    HW216401   6.412   5.754   5.676
 5168SOL     OW16402   4.913   3.699   2.968
 5168SOL    HW116403   4.879   3.773   2.910
 5168SOL    HW216404   4.929   3.618   2.912
 5169SOL     OW16405   4.328   1.702   4.905
 5169SOL    HW116406   4.327   1.643   4.986
 5169SOL    HW216407   4.419   1.701   4.864
 5170SOL     OW16408   0.396   4.278   5.231
 5170SOL    HW116409   0.409   4.303   5.327
 5170SOL    HW216410   0.339   4.196   5.226
 5171SOL     OW16411   1.396   5.760   4.053
 5171SOL    HW116412   1.455   5.840   4.039
 5171SOL    HW216413   1.356   5.732   3.966
 5172SOL     OW16414   0.302   2.458   2.636
 5172SOL    HW116415   0.346   2.545   2.616
 5172SOL    HW216416   0.371   2.386   2.643
 5173SOL     OW16417   5.595   5.189   6.310
 5173SOL    HW116418   5.674   5.229   6.263
 5173SOL    HW216419   5.619   5.171   6.405
 5174SOL     OW16420   2.466   4.462   2.775
 5174SOL    HW116421   2.457   4.429   2.869
 5174SOL    HW216422   2.389   4.522   2.753
 5175SOL     OW16423   1.944   3.640   6.873
 5175SOL    HW116424   1.980   3.707   6.938
 5175SOL    HW216425   1.845   3.631   6.885
 5176SOL     OW16426   4.668   3.202   6.317
 5176SOL    HW116427   4.597   3.148   6.362
 5176SOL    HW216428   4.692   3.160   6.230
 5177SOL     OW16429   5.045   0.096   0.005
 5177SOL    HW116430   5.032   0.194   0.024
 5177SOL    HW216431   4.963   0.046   0.033
 5178SOL     OW16432   1.291   3.689   1.327
 5178SOL    HW116433   1.342   3.603   1.315
 5178SOL    HW216434   1.309   3.725   1.419
 5179SOL     OW16435   4.274   6.077   4.410
 5179SOL    HW116436   4.315   5.988   4.425
 5179SOL    HW216437   4.194   6.087   4.470
 5180SOL     OW16438   3.264   2.990   0.591
 5180SOL    HW116439   3.232   3.084   0.582
 5180SOL    HW216440   3.190   2.926   0.568
 5181SOL     OW16441   5.150   1.930   2.085
 5181SOL    HW116442   5.053   1.950   2.066
 5181SOL    HW216443   5.206   1.998   2.038
 5182SOL     OW16444   4.047   4.548   1.566
 5182SOL    HW116445   3.979   4.600   1.618
 5182SOL    HW216446   4.097   4.487   1.627
 5183SOL     OW16447   4.123   1.629   2.557
 5183SOL    HW116448   4.068   1.645   2.639
 5183SOL    HW216449   4.064   1.636   2.476
 5184SOL     OW16450   0.801   2.553   4.268
 5184SOL    HW116451   0.878   2.590   4.321
 5184SOL    HW216452   0.745   2.628   4.233
 5185SOL     OW16453   5.191   0.925   2.281
 5185SOL    HW116454   5.216   0.828   2.282
 5185SOL    HW216455   5.151   0.949   2.370
 5186SOL     OW16456   5.970   2.858   0.759
 5186SOL    HW116457   5.985   2.925   0.832
 5186SOL    HW216458   6.041   2.788   0.762
 5187SOL     OW16459   0.316   0.099   3.957
 5187SOL    HW116460   0.228   0.068   3.994
 5187SOL    HW216461   0.389   0.077   4.021
 5188SOL     OW16462   0.566   5.705   0.325
 5188SOL    HW116463   0.621   5.653   0.259
 5188SOL    HW216464   0.610   5.793   0.342
 5189SOL     OW16465   4.950   4.890   0.902
 5189SOL    HW116466   5.031   4.844   0.937
 5189SOL    HW216467   4.933   4.862   0.808
 5190SOL     OW16468   0.103   3.118   4.233
 5190SOL    HW116469   0.010   3.150   4.246
 5190SOL    HW216470   0.123   3.110   4.135
 5191SOL     OW16471   3.837   0.281   1.624
 5191SOL    HW116472   3.893   0.199   1.613
 5191SOL    HW216473   3.801   0.285   1.717
 5192SOL     OW16474   2.790   5.405   3.182
 5192SOL    HW116475   2.766   5.310   3.164
 5192SOL    HW216476   2.871   5.429   3.128
 5193SOL     OW16477   5.573   4.206   4.530
 5193SOL    HW116478   5.574   4.107   4.516
 5193SOL    HW216479   5.554   4.252   4.443
 5194SOL     OW16480   3.646   1.045   0.052
 5194SOL    HW116481   3.597   1.101   0.119
 5194SOL    HW216482   3.705   0.980   0.098
 5195SOL     OW16483   6.564   5.918   4.159
 5195SOL    HW116484   6.629   5.844   4.181
 5195SOL    HW216485   6.586   5.999   4.213
 5196SOL     OW16486   1.951   4.214   0.635
 5196SOL    HW116487   1.942   4.276   0.558
 5196SOL    HW216488   1.980   4.124   0.602
 5197SOL     OW16489   2.135   5.320   4.949
 5197SOL    HW116490   2.044   5.310   4.990
 5197SOL    HW216491   2.173   5.409   4.974
 5198SOL     OW16492   4.398   6.729   3.269
 5198SOL    HW116493   4.380   6.747   3.366
 5198SOL    HW216494   4.496   6.737   3.251
 5199SOL     OW16495   1.389   6.372   6.903
 5199SOL    HW116496   1.335   6.454   6.923
 5199SOL    HW216497   1.481   6.399   6.875
 5200SOL     OW16498   1.463   1.905   5.361
 5200SOL    HW116499   1.376   1.892   5.410
 5200SOL    HW216500   1.533   1.934   5.426
 5201SOL     OW16501   6.156   6.250   4.300
 5201SOL    HW116502   6.130   6.156   4.276
 5201SOL    HW216503   6.167   6.304   4.216
 5202SOL     OW16504   5.804   4.792   6.108
 5202SOL    HW116505   5.744   4.850   6.053
 5202SOL    HW216506   5.873   4.849   6.153
 5203SOL     OW16507   2.196   0.746   0.024
 5203SOL    HW116508   2.250   0.665   0.002
 5203SOL    HW216509   2.118   0.752   6.983
 5204SOL     OW16510   4.179   6.401   6.854
 5204SOL    HW116511   4.226   6.478   6.812
 5204SOL    HW216512   4.140   6.343   6.783
 5205SOL     OW16513   6.876   6.049   0.150
 5205SOL    HW116514   6.840   6.109   0.222
 5205SOL    HW216515   6.884   6.100   0.064
 5206SOL     OW16516   0.348   4.818   6.780
 5206SOL    HW116517   0.322   4.887   6.848
 5206SOL    HW216518   0.434   4.845   6.737
 5207SOL     OW16519   1.219   6.820   3.953
 5207SOL    HW116520   1.157   6.752   3.991
 5207SOL    HW216521   1.313   6.797   3.979
 5208SOL     OW16522   4.794   2.196   6.916
 5208SOL    HW116523   4.886   2.234   6.932
 5208SOL    HW216524   4.734   2.221   6.992
 5209SOL     OW16525   5.613   0.553   1.452
 5209SOL    HW116526   5.692   0.583   1.399
 5209SOL    HW216527   5.625   0.580   1.547
 5210SOL     OW16528   4.602   3.371   0.346
 5210SOL    HW116529   4.523   3.419   0.308
 5210SOL    HW216530   4.578   3.276   0.364
 5211SOL     OW16531   4.411   2.044   5.146
 5211SOL    HW116532   4.371   1.997   5.224
 5211SOL    HW216533   4.365   2.132   5.132
 5212SOL     OW16534   1.526   3.629   1.022
 5212SOL    HW116535   1.586   3.707   1.001
 5212SOL    HW216536   1.430   3.658   1.015
 5213SOL     OW16537   4.106   3.298   0.821
 5213SOL    HW116538   4.118   3.256   0.731
 5213SOL    HW216539   4.128   3.396   0.815
 5214SOL     OW16540   5.811   2.745   6.277
 5214SOL    HW116541   5.821   2.837   6.237
 5214SOL    HW216542   5.716   2.733   6.307
 5215SOL     OW16543   1.077   4.651   4.223
 5215SOL    HW116544   1.158   4.687   4.269
 5215SOL    HW216545   1.031   4.586   4.282
 5216SOL     OW16546   4.611   4.929   1.576
 5216SOL    HW116547   4.613   4.972   1.486
 5216SOL    HW216548   4.669   4.847   1.575
 5217SOL     OW16549   3.407   5.821   4.243
 5217SOL    HW116550   3.368   5.750   4.184
 5217SOL    HW216551   3.460   5.885   4.187
 5218SOL     OW16552   0.794   1.205   1.169
 5218SOL    HW116553   0.712   1.150   1.150
 5218SOL    HW216554   0.876   1.152   1.148
 5219SOL     OW16555   3.558   1.659   4.987
 5219SOL    HW116556   3.482   1.725   4.991
 5219SOL    HW216557   3.641   1.706   4.957
 5220SOL     OW16558   1.273   5.715   2.903
 5220SOL    HW116559   1.301   5.808   2.878
 5220SOL    HW216560   1.206   5.682   2.837
 5221SOL     OW16561   6.651   0.623   3.162
 5221SOL    HW116562   6.659   0.581   3.072
 5221SOL    HW216563   6.561   0.602   3.201
 5222SOL     OW16564   3.913   6.723   1.843
 5222SOL    HW116565   3.913   6.638   1.895
 5222SOL    HW216566   3.991   6.724   1.781
 5223SOL     OW16567   0.035   2.563   7.016
 5223SOL    HW116568   7.020   2.616   0.072
 5223SOL    HW216569   7.000   2.480   7.005
 5224SOL     OW16570   6.483   3.088   4.462
 5224SOL    HW116571   6.427   3.114   4.541
 5224SOL    HW216572   6.463   3.148   4.385
 5225SOL     OW16573   6.594   1.139   3.704
 5225SOL    HW116574   6.693   1.144   3.690
 5225SOL    HW216575   6.574   1.139   3.802
 5226SOL     OW16576   0.383   6.914   4.662
 5226SOL    HW116577   0.356   6.967   4.581
 5226SOL    HW216578   0.465   6.860   4.641
 5227SOL     OW16579   0.549   3.896   5.933
 5227SOL    HW116580   0.493   3.845   5.868
 5227SOL    HW216581   0.590   3.832   5.999
 5228SOL     OW16582   0.504   2.187   0.108
 5228SOL    HW116583   0.407   2.167   0.122
 5228SOL    HW216584   0.526   2.178   0.010
 5229SOL     OW16585   3.292   6.726   0.573
 5229SOL    HW116586   3.374   6.760   0.619
 5229SOL    HW216587   3.281   6.774   0.486
 5230SOL     OW16588   6.783   6.223   1.953
 5230SOL    HW116589   6.741   6.132   1.957
 5230SOL    HW216590   6.774   6.259   1.860
 5231SOL     OW16591   4.461   2.492   3.580
 5231SOL    HW116592   4.380   2.491   3.638
 5231SOL    HW216593   4.477   2.400   3.544
 5232SOL     OW16594   1.090   3.917   6.030
 5232SOL    HW116595   1.128   3.827   6.048
 5232SOL    HW216596   0.997   3.908   5.994
 5233SOL     OW16597   3.389   1.471   2.748
 5233SOL    HW116598   3.386   1.447   2.651
 5233SOL    HW216599   3.468   1.427   2.791
 5234SOL     OW16600   2.875   2.473   5.986
 5234SOL    HW116601   2.776   2.460   5.992
 5234SOL    HW216602   2.915   2.400   5.930
 5235SOL     OW16603   1.704   2.185   0.926
 5235SOL    HW116604   1.660   2.236   0.852
 5235SOL    HW216605   1.635   2.139   0.981
 5236SOL     OW16606   3.693   5.858   2.095
 5236SOL    HW116607   3.763   5.872   2.025
 5236SOL    HW216608   3.715   5.914   2.175
 5237SOL     OW16609   0.953   0.649   4.796
 5237SOL    HW116610   0.894   0.729   4.801
 5237SOL    HW216611   1.030   0.669   4.735
 5238SOL     OW16612   0.704   5.293   0.200
 5238SOL    HW116613   0.758   5.208   0.192
 5238SOL    HW216614   0.615   5.279   0.158
 5239SOL     OW16615   3.838   2.655   6.644
 5239SOL    HW116616   3.857   2.670   6.741
 5239SOL    HW216617   3.750   2.608   6.635
 5240SOL     OW16618   3.289   2.218   5.356
 5240SOL    HW116619   3.305   2.123   5.328
 5240SOL    HW216620   3.243   2.267   5.282
 5241SOL     OW16621   0.442   5.964   3.867
 5241SOL    HW116622   0.349   5.928   3.870
 5241SOL    HW216623   0.440   6.063   3.881
 5242SOL     OW16624   6.365   6.830   1.121
 5242SOL    HW116625   6.318   6.824   1.209
 5242SOL    HW216626   6.298   6.841   1.048
 5243SOL     OW16627   2.138   5.746   1.873
 5243SOL    HW116628   2.195   5.761   1.792
 5243SOL    HW216629   2.129   5.831   1.923
 5244SOL     OW16630   3.661   4.521   6.406
 5244SOL    HW116631   3.567   4.490   6.409
 5244SOL    HW216632   3.688   4.555   6.497
 5245SOL     OW16633   3.771   4.425   0.297
 5245SOL    HW116634   3.744   4.466   0.384
 5245SOL    HW216635   3.838   4.353   0.314
 5246SOL     OW16636   6.351   2.810   1.655
 5246SOL    HW116637   6.279   2.810   1.585
 5246SOL    HW216638   6.390   2.902   1.663
 5247SOL     OW16639   2.671   0.073   6.353
 5247SOL    HW116640   2.639   0.147   6.412
 5247SOL    HW216641   2.712   0.001   6.408
 5248SOL     OW16642   6.393   1.744   3.174
 5248SOL    HW116643   6.445   1.661   3.193
 5248SOL    HW216644   6.426   1.818   3.232
 5249SOL     OW16645   0.719   5.561   6.294
 5249SOL    HW116646   0.761   5.479   6.256
 5249SOL    HW216647   0.735   5.564   6.393
 5250SOL     OW16648   1.857   5.835   6.903
 5250SOL    HW116649   1.799   5.810   6.825
 5250SOL    HW216650   1.800   5.866   6.979
 5251SOL     OW16651   0.891   3.168   6.705
 5251SOL    HW116652   0.813   3.227   6.728
 5251SOL    HW216653   0.952   3.216   6.643
 5252SOL     OW16654   2.793   6.720   0.890
 5252SOL    HW116655   2.702   6.763   0.897
 5252SOL    HW216656   2.863   6.790   0.906
 5253SOL     OW16657   0.172   3.620   4.895
 5253SOL    HW116658   0.094   3.680   4.909
 5253SOL    HW216659   0.256   3.665   4.926
 5254SOL     OW16660   4.581   0.958   2.965
 5254SOL    HW116661   4.585   0.972   2.866
 5254SOL    HW216662   4.669   0.925   2.998
 5255SOL     OW16663   5.489   2.436   5.001
 5255SOL    HW116664   5.407   2.429   5.058
 5255SOL    HW216665   5.546   2.511   5.034
 5256SOL     OW16666   5.384   1.733   3.937
 5256SOL    HW116667   5.367   1.663   4.006
 5256SOL    HW216668   5.352   1.821   3.971
 5257SOL     OW16669   5.631   6.870   1.392
 5257SOL    HW116670   5.606   6.876   1.295
 5257SOL    HW216671   5.611   6.956   1.437
 5258SOL     OW16672   5.747   3.145   1.845
 5258SOL    HW116673   5.672   3.107   1.899
 5258SOL    HW216674   5.720   3.153   1.750
 5259SOL     OW16675   4.837   6.424   2.434
 5259SOL    HW116676   4.828   6.523   2.419
 5259SOL    HW216677   4.806   6.375   2.353
 5260SOL     OW16678   4.898   3.337   0.825
 5260SOL    HW116679   4.851   3.357   0.911
 5260SOL    HW216680   4.873   3.405   0.756
 5261SOL     OW16681   0.013   4.200   5.884
 5261SOL    HW116682   0.094   4.232   5.834
 5261SOL    HW216683   6.952   4.245   5.848
 5262SOL     OW16684   2.302   1.284   3.945
 5262SOL    HW116685   2.392   1.261   3.981
 5262SOL    HW216686   2.236   1.214   3.973
 5263SOL     OW16687   1.762   1.053   3.239
 5263SOL    HW116688   1.785   0.974   3.183
 5263SOL    HW216689   1.671   1.085   3.216
 5264SOL     OW16690   6.697   2.175   2.206
 5264SOL    HW116691   6.694   2.259   2.260
 5264SOL    HW216692   6.780   2.124   2.230
 5265SOL     OW16693   6.186   3.828   3.827
 5265SOL    HW116694   6.206   3.805   3.731
 5265SOL    HW216695   6.254   3.786   3.886
 5266SOL     OW16696   3.638   4.968   6.806
 5266SOL    HW116697   3.672   4.934   6.718
 5266SOL    HW216698   3.714   4.976   6.870
 5267SOL     OW16699   5.265   2.486   5.158
 5267SOL    HW116700   5.306   2.572   5.190
 5267SOL    HW216701   5.181   2.506   5.108
 5268SOL     OW16702   5.518   0.968   0.390
 5268SOL    HW116703   5.552   0.885   0.346
 5268SOL    HW216704   5.426   0.990   0.356
 5269SOL     OW16705   0.653   6.620   2.464
 5269SOL    HW116706   0.586   6.588   2.397
 5269SOL    HW216707   0.623   6.596   2.556
 5270SOL     OW16708   5.522   1.011   1.562
 5270SOL    HW116709   5.539   1.018   1.463
 5270SOL    HW216710   5.427   0.984   1.578
 5271SOL     OW16711   6.372   5.332   5.738
 5271SOL    HW116712   6.451   5.287   5.778
 5271SOL    HW216713   6.303   5.348   5.809
 5272SOL     OW16714   3.354   6.470   1.648
 5272SOL    HW116715   3.257   6.472   1.669
 5272SOL    HW216716   3.368   6.491   1.551
 5273SOL     OW16717   0.455   2.912   3.536
 5273SOL    HW116718   0.490   2.937   3.445
 5273SOL    HW216719   0.416   2.820   3.532
 5274SOL     OW16720   6.006   0.151   2.813
 5274SOL    HW116721   5.926   0.208   2.834
 5274SOL    HW216722   6.036   0.169   2.719
 5275SOL     OW16723   3.454   1.932   1.022
 5275SOL    HW116724   3.392   1.868   0.975
 5275SOL    HW216725   3.457   2.018   0.971
 5276SOL     OW16726   1.594   6.983   0.365
 5276SOL    HW116727   1.529   7.012   0.436
 5276SOL    HW216728   1.635   0.042   0.322
 5277SOL     OW16729   2.266   1.069   1.982
 5277SOL    HW116730   2.351   1.093   2.030
 5277SOL    HW216731   2.256   1.126   1.901
 5278SOL     OW16732   5.858   6.237   3.517
 5278SOL    HW116733   5.791   6.177   3.473
 5278SOL    HW216734   5.873   6.318   3.460
 5279SOL     OW16735   2.343   5.289   6.621
 5279SOL    HW116736   2.253   5.322   6.649
 5279SOL    HW216737   2.335   5.240   6.534
 5280SOL     OW16738   3.213   5.565   4.719
 5280SOL    HW116739   3.114   5.561   4.707
 5280SOL    HW216740   3.249   5.472   4.730
 5281SOL     OW16741   0.231   1.861   2.441
 5281SOL    HW116742   0.163   1.849   2.513
 5281SOL    HW216743   0.304   1.920   2.474
 5282SOL     OW16744   3.747   1.677   3.679
 5282SOL    HW116745   3.844   1.663   3.697
 5282SOL    HW216746   3.729   1.666   3.581
 5283SOL     OW16747   4.398   6.183   1.538
 5283SOL    HW116748   4.306   6.151   1.561
 5283SOL    HW216749   4.402   6.206   1.441
 5284SOL     OW16750   4.879   4.031   3.201
 5284SOL    HW116751   4.928   3.958   3.153
 5284SOL    HW216752   4.812   4.072   3.138
 5285SOL     OW16753   2.094   4.738   3.805
 5285SOL    HW116754   2.142   4.800   3.744
 5285SOL    HW216755   2.079   4.783   3.894
 5286SOL     OW16756   1.901   4.707   0.553
 5286SOL    HW116757   1.961   4.782   0.582
 5286SOL    HW216758   1.856   4.732   0.467
 5287SOL     OW16759   3.277   0.538   6.690
 5287SOL    HW116760   3.272   0.637   6.707
 5287SOL    HW216761   3.244   0.518   6.598
 5288SOL     OW16762   2.818   6.983   2.030
 5288SOL    HW116763   2.725   6.980   1.993
 5288SOL    HW216764   2.814   6.971   2.129
 5289SOL     OW16765   2.103   5.424   6.657
 5289SOL    HW116766   2.103   5.480   6.740
 5289SOL    HW216767   2.044   5.344   6.671
 5290SOL     OW16768   2.804   5.704   4.952
 5290SOL    HW116769   2.717   5.710   4.903
 5290SOL    HW216770   2.792   5.740   5.045
 5291SOL     OW16771   2.527   6.034   5.721
 5291SOL    HW116772   2.521   6.027   5.820
 5291SOL    HW216773   2.611   5.990   5.690
 5292SOL     OW16774   6.182   2.735   6.902
 5292SOL    HW116775   6.187   2.635   6.902
 5292SOL    HW216776   6.146   2.767   6.989
 5293SOL     OW16777   0.372   0.850   5.057
 5293SOL    HW116778   0.284   0.887   5.087
 5293SOL    HW216779   0.444   0.918   5.074
 5294SOL     OW16780   4.742   3.769   5.841
 5294SOL    HW116781   4.651   3.773   5.800
 5294SOL    HW216782   4.743   3.819   5.927
 5295SOL     OW16783   6.487   1.239   2.464
 5295SOL    HW116784   6.568   1.289   2.494
 5295SOL    HW216785   6.470   1.162   2.525
 5296SOL     OW16786   2.071   5.599   6.439
 5296SOL    HW116787   1.972   5.602   6.428
 5296SOL    HW216788   2.094   5.544   6.520
 5297SOL     OW16789   1.686   2.189   1.295
 5297SOL    HW116790   1.663   2.210   1.390
 5297SOL    HW216791   1.605   2.152   1.249
 5298SOL     OW16792   0.112   6.162   1.635
 5298SOL    HW116793   0.094   6.247   1.683
 5298SOL    HW216794   0.203   6.165   1.594
 5299SOL     OW16795   2.886   1.985   0.348
 5299SOL    HW116796   2.830   1.975   0.430
 5299SOL    HW216797   2.879   2.078   0.313
 5300SOL     OW16798   6.958   5.380   2.738
 5300SOL    HW116799   6.901   5.423   2.808
 5300SOL    HW216800   0.011   5.442   2.713
 5301SOL     OW16801   4.430   1.258   0.359
 5301SOL    HW116802   4.444   1.247   0.457
 5301SOL    HW216803   4.395   1.350   0.341
 5302SOL     OW16804   5.942   5.001   3.586
 5302SOL    HW116805   5.847   4.975   3.570
 5302SOL    HW216806   5.990   5.008   3.498
 5303SOL     OW16807   6.762   6.726   3.933
 5303SOL    HW116808   6.829   6.791   3.896
 5303SOL    HW216809   6.807   6.639   3.950
 5304SOL     OW16810   6.402   2.603   6.349
 5304SOL    HW116811   6.398   2.555   6.261
 5304SOL    HW216812   6.324   2.575   6.405
 5305SOL     OW16813   1.485   6.815   4.077
 5305SOL    HW116814   1.459   6.819   4.174
 5305SOL    HW216815   1.482   6.907   4.038
 5306SOL     OW16816   1.977   6.323   5.218
 5306SOL    HW116817   1.952   6.282   5.130
 5306SOL    HW216818   1.960   6.257   5.291
 5307SOL     OW16819   4.289   6.331   6.511
 5307SOL    HW116820   4.194   6.317   6.539
 5307SOL    HW216821   4.304   6.429   6.494
 5308SOL     OW16822   0.671   0.065   4.429
 5308SOL    HW116823   0.661   6.988   4.450
 5308SOL    HW216824   0.593   0.114   4.468
 5309SOL     OW16825   3.823   3.918   3.468
 5309SOL    HW116826   3.774   4.001   3.495
 5309SOL    HW216827   3.769   3.838   3.494
 5310SOL     OW16828   5.281   2.554   2.063
 5310SOL    HW116829   5.181   2.549   2.075
 5310SOL    HW216830   5.315   2.636   2.109
 5311SOL     OW16831   0.290   5.876   0.071
 5311SOL    HW116832   0.316   5.782   0.090
 5311SOL    HW216833   0.310   5.933   0.151
 5312SOL     OW16834   6.973   4.498   2.345
 5312SOL    HW116835   6.931   4.418   2.388
 5312SOL    HW216836   0.013   4.543   2.409
 5313SOL     OW16837   1.013   5.506   6.937
 5313SOL    HW116838   0.933   5.565   6.947
 5313SOL    HW216839   1.076   5.521   7.013
 5314SOL     OW16840   4.674   5.059   0.860
 5314SOL    HW116841   4.614   4.979   0.866
 5314SOL    HW216842   4.737   5.047   0.783
 5315SOL     OW16843   4.494   4.529   1.925
 5315SOL    HW116844   4.580   4.571   1.896
 5315SOL    HW216845   4.508   4.431   1.941
 5316SOL     OW16846   6.825   5.360   4.428
 5316SOL    HW116847   6.766   5.388   4.351
 5316SOL    HW216848   6.767   5.328   4.503
 5317SOL     OW16849   5.940   1.322   4.733
 5317SOL    HW116850   5.983   1.267   4.804
 5317SOL    HW216851   5.866   1.377   4.772
 5318SOL     OW16852   6.932   2.194   4.629
 5318SOL    HW116853   6.870   2.119   4.606
 5318SOL    HW216854   6.884   2.281   4.616
 5319SOL     OW16855   4.461   6.786   6.968
 5319SOL    HW116856   4.523   6.860   6.994
 5319SOL    HW216857   4.476   6.707   0.008
 5320SOL     OW16858   6.022   5.157   6.900
 5320SOL    HW116859   6.066   5.245   6.916
 5320SOL    HW216860   6.068   5.086   6.954
 5321SOL     OW16861   0.581   4.927   2.811
 5321SOL    HW116862   0.557   4.864   2.737
 5321SOL    HW216863   0.622   5.010   2.772
 5322SOL     OW16864   3.612   6.632   6.426
 5322SOL    HW116865   3.598   6.580   6.509
 5322SOL    HW216866   3.536   6.616   6.363
 5323SOL     OW16867   4.460   3.023   0.884
 5323SOL    HW116868   4.448   3.122   0.880
 5323SOL    HW216869   4.386   2.979   0.833
 5324SOL     OW16870   3.489   2.524   1.339
 5324SOL    HW116871   3.427   2.446   1.336
 5324SOL    HW216872   3.545   2.520   1.422
 5325SOL     OW16873   5.801   0.049   3.638
 5325SOL    HW116874   5.869   0.100   3.691
 5325SOL    HW216875   5.711   0.057   3.681
 5326SOL     OW16876   5.981   5.293   2.624
 5326SOL    HW116877   5.887   5.260   2.618
 5326SOL    HW216878   6.028   5.245   2.699
 5327SOL     OW16879   0.303   6.037   5.639
 5327SOL    HW116880   0.262   6.063   5.726
 5327SOL    HW216881   0.350   5.949   5.650
 5328SOL     OW16882   3.674   2.333   5.687
 5328SOL    HW116883   3.625   2.413   5.722
 5328SOL    HW216884   3.658   2.255   5.748
 5329SOL     OW16885   0.209   3.809   0.502
 5329SOL    HW116886   0.168   3.765   0.583
 5329SOL    HW216887   0.142   3.811   0.429
 5330SOL     OW16888   3.311   4.086   6.453
 5330SOL    HW116889   3.223   4.102   6.498
 5330SOL    HW216890   3.366   4.026   6.510
 5331SOL     OW16891   5.099   1.801   1.211
 5331SOL    HW116892   5.035   1.873   1.236
 5331SOL    HW216893   5.192   1.829   1.234
 5332SOL     OW16894   6.421   4.263   0.216
 5332SOL    HW116895   6.450   4.260   0.311
 5332SOL    HW216896   6.374   4.178   0.192
 5333SOL     OW16897   1.740   0.951   3.519
 5333SOL    HW116898   1.778   1.001   3.441
 5333SOL    HW216899   1.802   0.876   3.543
 5334SOL     OW16900   4.452   5.204   4.596
 5334SOL    HW116901   4.453   5.105   4.581
 5334SOL    HW216902   4.519   5.248   4.537
 5335SOL     OW16903   6.997   4.325   2.076
 5335SOL    HW116904   0.004   4.296   1.985
 5335SOL    HW216905   6.940   4.406   2.070
 5336SOL     OW16906   2.175   2.125   3.511
 5336SOL    HW116907   2.168   2.224   3.529
 5336SOL    HW216908   2.271   2.099   3.507
 5337SOL     OW16909   5.642   5.003   2.267
 5337SOL    HW116910   5.578   4.929   2.247
 5337SOL    HW216911   5.592   5.089   2.276
 5338SOL     OW16912   5.843   2.398   6.833
 5338SOL    HW116913   5.844   2.484   6.885
 5338SOL    HW216914   5.894   2.328   6.884
 5339SOL     OW16915   5.677   1.906   1.969
 5339SOL    HW116916   5.611   1.871   2.034
 5339SOL    HW216917   5.760   1.850   1.971
 5340SOL     OW16918   5.509   3.569   1.068
 5340SOL    HW116919   5.411   3.565   1.047
 5340SOL    HW216920   5.541   3.477   1.093
 5341SOL     OW16921   4.022   4.883   4.558
 5341SOL    HW116922   3.983   4.881   4.650
 5341SOL    HW216923   4.112   4.928   4.562
 5342SOL     OW16924   4.924   6.534   4.809
 5342SOL    HW116925   4.959   6.459   4.865
 5342SOL    HW216926   4.961   6.621   4.842
 5343SOL     OW16927   3.866   3.434   4.753
 5343SOL    HW116928   3.855   3.412   4.656
 5343SOL    HW216929   3.960   3.414   4.782
 5344SOL     OW16930   0.439   1.446   6.760
 5344SOL    HW116931   0.368   1.487   6.702
 5344SOL    HW216932   0.396   1.383   6.825
 5345SOL     OW16933   4.674   0.884   0.060
 5345SOL    HW116934   4.623   0.956   0.105
 5345SOL    HW216935   4.612   0.810   0.033
 5346SOL     OW16936   2.984   4.822   3.951
 5346SOL    HW116937   2.890   4.848   3.974
 5346SOL    HW216938   3.038   4.816   4.035
 5347SOL     OW16939   0.050   3.091   3.529
 5347SOL    HW116940   0.147   3.110   3.517
 5347SOL    HW216941   0.004   3.094   3.440
 5348SOL     OW16942   0.236   1.147   5.654
 5348SOL    HW116943   0.199   1.110   5.569
 5348SOL    HW216944   0.184   1.112   5.731
 5349SOL     OW16945   2.231   2.904   1.732
 5349SOL    HW116946   2.234   2.990   1.783
 5349SOL    HW216947   2.297   2.908   1.657
 5350SOL     OW16948   2.208   6.397   5.931
 5350SOL    HW116949   2.246   6.455   5.859
 5350SOL    HW216950   2.227   6.301   5.910
 5351SOL     OW16951   0.534   4.596   1.869
 5351SOL    HW116952   0.438   4.579   1.844
 5351SOL    HW216953   0.575   4.658   1.802
 5352SOL     OW16954   2.372   4.313   3.467
 5352SOL    HW116955   2.336   4.223   3.442
 5352SOL    HW216956   2.376   4.371   3.386
 5353SOL     OW16957   3.717   5.284   2.892
 5353SOL    HW116958   3.736   5.355   2.824
 5353SOL    HW216959   3.797   5.226   2.903
 5354SOL     OW16960   2.790   4.091   6.723
 5354SOL    HW116961   2.804   4.174   6.669
 5354SOL    HW216962   2.723   4.032   6.678
 5355SOL     OW16963   4.992   5.150   5.372
 5355SOL    HW116964   5.054   5.173   5.297
 5355SOL    HW216965   5.045   5.131   5.454
 5356SOL     OW16966   6.992   3.315   1.666
 5356SOL    HW116967   6.951   3.244   1.724
 5356SOL    HW216968   0.038   3.367   1.718
 5357SOL     OW16969   4.314   4.859   1.940
 5357SOL    HW116970   4.336   4.832   1.847
 5357SOL    HW216971   4.362   4.945   1.962
 5358SOL     OW16972   4.584   1.934   0.802
 5358SOL    HW116973   4.594   1.863   0.732
 5358SOL    HW216974   4.519   1.904   0.871
 5359SOL     OW16975   2.471   1.825   6.821
 5359SOL    HW116976   2.511   1.746   6.866
 5359SOL    HW216977   2.518   1.841   6.733
 5360SOL     OW16978   5.474   5.652   3.204
 5360SOL    HW116979   5.560   5.657   3.255
 5360SOL    HW216980   5.457   5.739   3.159
 5361SOL     OW16981   2.516   6.736   3.253
 5361SOL    HW116982   2.439   6.720   3.191
 5361SOL    HW216983   2.485   6.734   3.348
 5362SOL     OW16984   6.515   6.988   2.774
 5362SOL    HW116985   6.501   6.980   2.676
 5362SOL    HW216986   6.504   6.898   2.816
 5363SOL     OW16987   5.375   6.279   4.824
 5363SOL    HW116988   5.365   6.358   4.885
 5363SOL    HW216989   5.463   6.235   4.842
 5364SOL     OW16990   5.745   0.506   2.406
 5364SOL    HW116991   5.804   0.566   2.460
 5364SOL    HW216992   5.794   0.421   2.385
 5365SOL     OW16993   3.023   3.174   2.287
 5365SOL    HW116994   2.952   3.180   2.357
 5365SOL    HW216995   2.986   3.208   2.200
 5366SOL     OW16996   0.006   0.589   1.958
 5366SOL    HW116997   0.044   0.499   1.979
 5366SOL    HW216998   0.076   0.659   1.971
 5367SOL     OW16999   6.307   0.235   0.862
 5367SOL    HW117000   6.355   0.195   0.940
 5367SOL    HW217001   6.209   0.213   0.868
 5368SOL     OW17002   6.987   5.994   2.093
 5368SOL    HW117003   7.000   5.970   1.997
 5368SOL    HW217004   0.012   6.080   2.112
 5369SOL     OW17005   2.709   5.851   1.757
 5369SOL    HW117006   2.691   5.771   1.699
 5369SOL    HW217007   2.808   5.862   1.768
 5370SOL     OW17008   4.242   3.309   1.652
 5370SOL    HW117009   4.328   3.355   1.627
 5370SOL    HW217010   4.263   3.220   1.692
 5371SOL     OW17011   0.240   5.162   5.139
 5371SOL    HW117012   0.307   5.140   5.210
 5371SOL    HW217013   0.279   5.228   5.076
 5372SOL     OW17014   1.084   6.909   2.343
 5372SOL    HW117015   1.135   6.985   2.384
 5372SOL    HW217016   0.997   6.898   2.390
 5373SOL     OW17017   3.892   0.069   6.025
 5373SOL    HW117018   3.880   0.057   5.926
 5373SOL    HW217019   3.964   0.136   6.041
 5374SOL     OW17020   2.242   3.982   1.135
 5374SOL    HW117021   2.271   3.972   1.230
 5374SOL    HW217022   2.142   3.970   1.129
 5375SOL     OW17023   0.725   5.907   5.534
 5375SOL    HW117024   0.705   5.870   5.624
 5375SOL    HW217025   0.821   5.934   5.528
 5376SOL     OW17026   1.424   2.691   2.099
 5376SOL    HW117027   1.350   2.758   2.109
 5376SOL    HW217028   1.503   2.733   2.056
 5377SOL     OW17029   1.612   1.203   2.881
 5377SOL    HW117030   1.631   1.105   2.874
 5377SOL    HW217031   1.594   1.226   2.977
 5378SOL     OW17032   6.410   0.813   1.423
 5378SOL    HW117033   6.499   0.770   1.405
 5378SOL    HW217034   6.396   0.887   1.357
 5379SOL     OW17035   1.312   3.112   5.128
 5379SOL    HW117036   1.227   3.110   5.181
 5379SOL    HW217037   1.374   3.180   5.166
 5380SOL     OW17038   3.309   0.163   1.313
 5380SOL    HW117039   3.398   0.189   1.277
 5380SOL    HW217040   3.270   0.239   1.366
 5381SOL     OW17041   5.951   5.961   2.839
 5381SOL    HW117042   5.969   5.864   2.827
 5381SOL    HW217043   6.036   6.013   2.831
 5382SOL     OW17044   3.503   2.132   2.655
 5382SOL    HW117045   3.412   2.097   2.634
 5382SOL    HW217046   3.556   2.140   2.571
 5383SOL     OW17047   1.309   3.268   4.367
 5383SOL    HW117048   1.373   3.302   4.436
 5383SOL    HW217049   1.351   3.193   4.316
 5384SOL     OW17050   4.479   5.532   4.865
 5384SOL    HW117051   4.476   5.512   4.963
 5384SOL    HW217052   4.395   5.501   4.822
 5385SOL     OW17053   6.562   2.799   5.494
 5385SOL    HW117054   6.527   2.745   5.417
 5385SOL    HW217055   6.485   2.830   5.550
 5386SOL     OW17056   6.035   1.946   3.889
 5386SOL    HW117057   6.035   1.849   3.862
 5386SOL    HW217058   5.942   1.973   3.913
 5387SOL     OW17059   2.785   6.474   3.591
 5387SOL    HW117060   2.716   6.477   3.518
 5387SOL    HW217061   2.828   6.384   3.593
 5388SOL     OW17062   1.811   6.328   2.944
 5388SOL    HW117063   1.734   6.269   2.967
 5388SOL    HW217064   1.897   6.280   2.959
 5389SOL     OW17065   4.429   2.355   4.393
 5389SOL    HW117066   4.336   2.343   4.427
 5389SOL    HW217067   4.429   2.356   4.293
 5390SOL     OW17068   5.235   4.015   4.164
 5390SOL    HW117069   5.292   4.096   4.175
 5390SOL    HW217070   5.291   3.933   4.172
 5391SOL     OW17071   2.822   2.232   0.250
 5391SOL    HW117072   2.778   2.320   0.230
 5391SOL    HW217073   2.917   2.234   0.219
 5392SOL     OW17074   4.856   3.013   2.536
 5392SOL    HW117075   4.941   3.041   2.582
 5392SOL    HW217076   4.855   3.050   2.443
 5393SOL     OW17077   4.720   0.671   5.481
 5393SOL    HW117078   4.638   0.652   5.427
 5393SOL    HW217079   4.694   0.709   5.570
 5394SOL     OW17080   0.498   6.152   0.697
 5394SOL    HW117081   0.462   6.068   0.739
 5394SOL    HW217082   0.563   6.195   0.759
 5395SOL     OW17083   4.596   0.905   1.281
 5395SOL    HW117084   4.685   0.947   1.297
 5395SOL    HW217085   4.526   0.954   1.333
 5396SOL     OW17086   5.027   6.129   2.253
 5396SOL    HW117087   5.074   6.095   2.172
 5396SOL    HW217088   5.075   6.098   2.335
 5397SOL     OW17089   0.076   2.138   1.848
 5397SOL    HW117090   0.081   2.128   1.749
 5397SOL    HW217091   0.003   2.080   1.884
 5398SOL     OW17092   3.722   1.961   3.569
 5398SOL    HW117093   3.693   1.894   3.637
 5398SOL    HW217094   3.660   2.040   3.573
 5399SOL     OW17095   2.594   6.493   5.718
 5399SOL    HW117096   2.687   6.495   5.754
 5399SOL    HW217097   2.534   6.544   5.778
 5400SOL     OW17098   3.725   3.035   1.079
 5400SOL    HW117099   3.804   3.077   1.034
 5400SOL    HW217100   3.757   2.975   1.152
 5401SOL     OW17101   5.287   4.050   3.029
 5401SOL    HW117102   5.312   4.087   3.118
 5401SOL    HW217103   5.219   3.977   3.041
 5402SOL     OW17104   3.514   6.107   0.760
 5402SOL    HW117105   3.559   6.194   0.777
 5402SOL    HW217106   3.552   6.038   0.822
 5403SOL     OW17107   5.552   2.678   6.383
 5403SOL    HW117108   5.491   2.725   6.319
 5403SOL    HW217109   5.499   2.643   6.460
 5404SOL     OW17110   0.658   0.560   0.778
 5404SOL    HW117111   0.645   0.575   0.876
 5404SOL    HW217112   0.743   0.510   0.762
 5405SOL     OW17113   5.973   4.693   0.235
 5405SOL    HW117114   5.886   4.656   0.266
 5405SOL    HW217115   5.959   4.785   0.198
 5406SOL     OW17116   1.877   1.342   5.250
 5406SOL    HW117117   1.900   1.250   5.216
 5406SOL    HW217118   1.928   1.360   5.334
 5407SOL     OW17119   2.829   1.597   1.265
 5407SOL    HW117120   2.904   1.607   1.200
 5407SOL    HW217121   2.750   1.649   1.232
 5408SOL     OW17122   3.775   2.133   4.980
 5408SOL    HW117123   3.822   2.137   4.892
 5408SOL    HW217124   3.678   2.153   4.967
 5409SOL     OW17125   6.338   2.019   2.318
 5409SOL    HW117126   6.294   2.074   2.247
 5409SOL    HW217127   6.437   2.031   2.311
 5410SOL     OW17128   0.402   2.745   0.534
 5410SOL    HW117129   0.420   2.826   0.477
 5410SOL    HW217130   0.360   2.674   0.479
 5411SOL     OW17131   5.183   4.032   6.890
 5411SOL    HW117132   5.218   4.079   6.971
 5411SOL    HW217133   5.088   4.059   6.874
 5412SOL     OW17134   1.875   1.416   6.385
 5412SOL    HW117135   1.811   1.361   6.330
 5412SOL    HW217136   1.968   1.400   6.353
 5413SOL     OW17137   0.028   6.890   5.819
 5413SOL    HW117138   6.964   6.941   5.828
 5413SOL    HW217139   0.045   6.870   5.723
 5414SOL     OW17140   0.023   4.743   5.665
 5414SOL    HW117141   6.947   4.718   5.654
 5414SOL    HW217142   0.029   4.841   5.687
 5415SOL     OW17143   3.043   5.577   0.510
 5415SOL    HW117144   2.959   5.562   0.457
 5415SOL    HW217145   3.079   5.489   0.541
 5416SOL     OW17146   3.240   5.272   4.750
 5416SOL    HW117147   3.153   5.260   4.799
 5416SOL    HW217148   3.226   5.255   4.653
 5417SOL     OW17149   3.877   7.016   4.187
 5417SOL    HW117150   3.962   0.004   4.239
 5417SOL    HW217151   3.816   6.952   4.234
 5418SOL     OW17152   5.159   5.077   4.852
 5418SOL    HW117153   5.081   5.066   4.914
 5418SOL    HW217154   5.211   4.991   4.850
 5419SOL     OW17155   4.068   6.558   0.161
 5419SOL    HW117156   4.013   6.576   0.243
 5419SOL    HW217157   4.069   6.460   0.142
 5420SOL     OW17158   1.939   1.891   1.657
 5420SOL    HW117159   1.949   1.846   1.569
 5420SOL    HW217160   1.843   1.914   1.673
 5421SOL     OW17161   3.040   5.529   2.189
 5421SOL    HW117162   3.015   5.622   2.219
 5421SOL    HW217163   3.132   5.531   2.149
 5422SOL     OW17164   2.044   5.785   3.951
 5422SOL    HW117165   2.022   5.701   4.001
 5422SOL    HW217166   2.121   5.831   3.995
 5423SOL     OW17167   6.202   5.036   1.762
 5423SOL    HW117168   6.251   5.119   1.734
 5423SOL    HW217169   6.247   4.996   1.842
 5424SOL     OW17170   4.948   3.884   4.398
 5424SOL    HW117171   4.921   3.788   4.403
 5424SOL    HW217172   4.926   3.929   4.485
 5425SOL     OW17173   6.317   2.760   4.602
 5425SOL    HW117174   6.331   2.767   4.701
 5425SOL    HW217175   6.400   2.787   4.555
 5426SOL     OW17176   4.633   5.492   2.330
 5426SOL    HW117177   4.537   5.510   2.349
 5426SOL    HW217178   4.676   5.576   2.296
 5427SOL     OW17179   4.469   2.919   0.133
 5427SOL    HW117180   4.531   2.943   0.058
 5427SOL    HW217181   4.452   2.821   0.133
 5428SOL     OW17182   5.143   6.521   2.894
 5428SOL    HW117183   5.233   6.493   2.929
 5428SOL    HW217184   5.137   6.496   2.797
 5429SOL     OW17185   2.748   6.670   5.051
 5429SOL    HW117186   2.652   6.696   5.053
 5429SOL    HW217187   2.799   6.728   5.115
 5430SOL     OW17188   1.391   3.002   5.988
 5430SOL    HW117189   1.310   3.020   5.932
 5430SOL    HW217190   1.437   2.920   5.956
 5431SOL     OW17191   3.408   4.781   6.472
 5431SOL    HW117192   3.313   4.750   6.473
 5431SOL    HW217193   3.446   4.775   6.565
 5432SOL     OW17194   5.575   5.573   0.498
 5432SOL    HW117195   5.537   5.484   0.472
 5432SOL    HW217196   5.528   5.607   0.580
 5433SOL     OW17197   1.170   6.831   0.845
 5433SOL    HW117198   1.110   6.896   0.798
 5433SOL    HW217199   1.114   6.764   0.894
 5434SOL     OW17200   5.044   1.186   5.056
 5434SOL    HW117201   5.119   1.122   5.039
 5434SOL    HW217202   5.060   1.234   5.142
 5435SOL     OW17203   6.352   3.488   0.851
 5435SOL    HW117204   6.285   3.466   0.780
 5435SOL    HW217205   6.305   3.530   0.929
 5436SOL     OW17206   0.295   5.556   4.106
 5436SOL    HW117207   0.323   5.652   4.112
 5436SOL    HW217208   0.298   5.527   4.010
 5437SOL     OW17209   3.225   4.689   5.922
 5437SOL    HW117210   3.203   4.726   6.012
 5437SOL    HW217211   3.296   4.619   5.932
 5438SOL     OW17212   5.387   5.096   2.086
 5438SOL    HW117213   5.380   5.087   1.986
 5438SOL    HW217214   5.331   5.025   2.129
 5439SOL     OW17215   1.173   4.317   0.360
 5439SOL    HW117216   1.191   4.219   0.356
 5439SOL    HW217217   1.153   4.351   0.268
 5440SOL     OW17218   5.863   6.933   3.244
 5440SOL    HW117219   5.890   6.959   3.151
 5440SOL    HW217220   5.868   7.012   3.304
 5441SOL     OW17221   5.422   3.380   3.273
 5441SOL    HW117222   5.347   3.407   3.212
 5441SOL    HW217223   5.405   3.288   3.308
 5442SOL     OW17224   3.754   0.488   3.147
 5442SOL    HW117225   3.827   0.491   3.215
 5442SOL    HW217226   3.748   0.396   3.108
 5443SOL     OW17227   4.337   6.623   4.064
 5443SOL    HW117228   4.391   6.643   4.145
 5443SOL    HW217229   4.279   6.543   4.082
 5444SOL     OW17230   6.972   2.439   4.043
 5444SOL    HW117231   6.883   2.430   4.088
 5444SOL    HW217232   0.024   2.414   4.107
 5445SOL     OW17233   5.168   4.477   4.705
 5445SOL    HW117234   5.227   4.401   4.679
 5445SOL    HW217235   5.101   4.446   4.772
 5446SOL     OW17236   6.401   4.485   4.430
 5446SOL    HW117237   6.419   4.387   4.418
 5446SOL    HW217238   6.442   4.516   4.516
 5447SOL     OW17239   2.466   1.514   1.245
 5447SOL    HW117240   2.443   1.562   1.160
 5447SOL    HW217241   2.502   1.580   1.311
 5448SOL     OW17242   4.775   5.330   4.186
 5448SOL    HW117243   4.782   5.391   4.107
 5448SOL    HW217244   4.867   5.301   4.213
 5449SOL     OW17245   2.788   1.676   1.970
 5449SOL    HW117246   2.819   1.620   1.893
 5449SOL    HW217247   2.723   1.744   1.937
 5450SOL     OW17248   3.769   6.186   1.335
 5450SOL    HW117249   3.726   6.108   1.291
 5450SOL    HW217250   3.756   6.268   1.279
 5451SOL     OW17251   1.920   6.773   3.186
 5451SOL    HW117252   1.934   6.739   3.278
 5451SOL    HW217253   1.927   6.697   3.121
 5452SOL     OW17254   2.037   4.551   0.973
 5452SOL    HW117255   2.004   4.478   0.913
 5452SOL    HW217256   2.068   4.512   1.060
 5453SOL     OW17257   4.924   4.076   1.667
 5453SOL    HW117258   4.869   4.057   1.586
 5453SOL    HW217259   4.868   4.122   1.736
 5454SOL     OW17260   5.778   6.022   2.270
 5454SOL    HW117261   5.781   6.033   2.370
 5454SOL    HW217262   5.859   5.973   2.240
 5455SOL     OW17263   0.843   1.503   2.975
 5455SOL    HW117264   0.931   1.550   2.972
 5455SOL    HW217265   0.846   1.422   2.917
 5456SOL     OW17266   4.695   0.563   6.695
 5456SOL    HW117267   4.767   0.495   6.705
 5456SOL    HW217268   4.606   0.518   6.690
 5457SOL     OW17269   6.335   1.869   0.438
 5457SOL    HW117270   6.390   1.805   0.384
 5457SOL    HW217271   6.338   1.959   0.395
 5458SOL     OW17272   6.780   5.170   1.234
 5458SOL    HW117273   6.866   5.180   1.285
 5458SOL    HW217274   6.800   5.143   1.140
 5459SOL     OW17275   2.031   4.603   5.307
 5459SOL    HW117276   2.034   4.590   5.208
 5459SOL    HW217277   2.104   4.666   5.335
 5460SOL     OW17278   2.465   1.133   1.706
 5460SOL    HW117279   2.488   1.129   1.803
 5460SOL    HW217280   2.524   1.199   1.661
 5461SOL     OW17281   1.113   1.691   5.699
 5461SOL    HW117282   1.070   1.781   5.694
 5461SOL    HW217283   1.126   1.655   5.607
 5462SOL     OW17284   5.249   6.015   6.906
 5462SOL    HW117285   5.319   6.034   6.837
 5462SOL    HW217286   5.210   5.925   6.890
 5463SOL     OW17287   6.533   1.733   6.613
 5463SOL    HW117288   6.455   1.739   6.551
 5463SOL    HW217289   6.524   1.802   6.685
 5464SOL     OW17290   6.346   5.235   5.465
 5464SOL    HW117291   6.341   5.297   5.544
 5464SOL    HW217292   6.424   5.260   5.408
 5465SOL     OW17293   0.023   0.114   3.004
 5465SOL    HW117294   0.077   0.126   2.921
 5465SOL    HW217295   0.085   0.097   3.081
 5466SOL     OW17296   5.502   2.931   5.429
 5466SOL    HW117297   5.547   2.862   5.485
 5466SOL    HW217298   5.560   3.012   5.422
 5467SOL     OW17299   5.785   3.664   3.626
 5467SOL    HW117300   5.836   3.693   3.707
 5467SOL    HW217301   5.848   3.654   3.549
 5468SOL     OW17302   6.698   2.723   3.570
 5468SOL    HW117303   6.769   2.669   3.615
 5468SOL    HW217304   6.734   2.763   3.486
 5469SOL     OW17305   2.430   6.581   6.301
 5469SOL    HW117306   2.388   6.501   6.344
 5469SOL    HW217307   2.498   6.621   6.363
 5470SOL     OW17308   4.027   5.318   3.746
 5470SOL    HW117309   4.049   5.406   3.788
 5470SOL    HW217310   4.110   5.263   3.737
 5471SOL     OW17311   5.594   0.121   2.593
 5471SOL    HW117312   5.622   0.126   2.497
 5471SOL    HW217313   5.498   0.149   2.601
 5472SOL     OW17314   3.537   2.918   6.361
 5472SOL    HW117315   3.463   2.973   6.321
 5472SOL    HW217316   3.596   2.885   6.288
 5473SOL     OW17317   2.036   4.945   0.284
 5473SOL    HW117318   2.126   4.903   0.276
 5473SOL    HW217319   2.042   5.028   0.340
 5474SOL     OW17320   0.770   5.711   3.745
 5474SOL    HW117321   0.759   5.807   3.771
 5474SOL    HW217322   0.686   5.679   3.700
 5475SOL     OW17323   1.746   1.850   0.951
 5475SOL    HW117324   1.782   1.898   1.031
 5475SOL    HW217325   1.697   1.768   0.981
 5476SOL     OW17326   2.741   4.846   5.367
 5476SOL    HW117327   2.790   4.853   5.280
 5476SOL    HW217328   2.770   4.920   5.428
 5477SOL     OW17329   1.932   3.998   3.244
 5477SOL    HW117330   1.929   4.079   3.303
 5477SOL    HW217331   1.839   3.971   3.220
 5478SOL     OW17332   5.247   5.995   5.908
 5478SOL    HW117333   5.200   5.911   5.937
 5478SOL    HW217334   5.179   6.062   5.880
 5479SOL     OW17335   4.969   1.308   4.823
 5479SOL    HW117336   5.055   1.330   4.778
 5479SOL    HW217337   4.986   1.255   4.906
 5480SOL     OW17338   5.831   5.171   4.774
 5480SOL    HW117339   5.915   5.200   4.821
 5480SOL    HW217340   5.836   5.198   4.678
 5481SOL     OW17341   4.888   1.029   4.732
 5481SOL    HW117342   4.814   1.077   4.779
 5481SOL    HW217343   4.916   0.950   4.787
 5482SOL     OW17344   3.037   3.908   2.745
 5482SOL    HW117345   3.033   3.953   2.835
 5482SOL    HW217346   3.062   3.975   2.676
 5483SOL     OW17347   6.249   2.554   5.254
 5483SOL    HW117348   6.209   2.465   5.234
 5483SOL    HW217349   6.339   2.542   5.296
 5484SOL     OW17350   6.199   0.517   3.420
 5484SOL    HW117351   6.129   0.552   3.358
 5484SOL    HW217352   6.182   0.419   3.436
 5485SOL     OW17353   3.382   6.703   4.638
 5485SOL    HW117354   3.338   6.738   4.555
 5485SOL    HW217355   3.315   6.653   4.693
 5486SOL     OW17356   2.264   6.531   3.765
 5486SOL    HW117357   2.197   6.470   3.722
 5486SOL    HW217358   2.353   6.486   3.768
 5487SOL     OW17359   5.523   3.617   6.591
 5487SOL    HW117360   5.515   3.597   6.689
 5487SOL    HW217361   5.499   3.535   6.539
 5488SOL     OW17362   4.815   1.376   0.919
 5488SOL    HW117363   4.910   1.364   0.890
 5488SOL    HW217364   4.810   1.449   0.987
 5489SOL     OW17365   0.967   4.087   1.952
 5489SOL    HW117366   0.882   4.056   1.909
 5489SOL    HW217367   1.025   4.008   1.972
 5490SOL     OW17368   3.642   0.132   0.756
 5490SOL    HW117369   3.714   0.100   0.696
 5490SOL    HW217370   3.553   0.103   0.721
 5491SOL     OW17371   1.418   3.988   6.046
 5491SOL    HW117372   1.321   4.001   6.067
 5491SOL    HW217373   1.466   3.955   6.127
 5492SOL     OW17374   1.161   1.776   6.236
 5492SOL    HW117375   1.191   1.825   6.317
 5492SOL    HW217376   1.218   1.694   6.224
 5493SOL     OW17377   4.055   3.730   4.488
 5493SOL    HW117378   4.031   3.728   4.390
 5493SOL    HW217379   4.110   3.649   4.510
 5494SOL     OW17380   6.085   2.717   0.345
 5494SOL    HW117381   6.164   2.679   0.297
 5494SOL    HW217382   6.063   2.660   0.423
 5495SOL     OW17383   2.996   2.671   1.712
 5495SOL    HW117384   2.903   2.684   1.678
 5495SOL    HW217385   3.003   2.582   1.756
 5496SOL     OW17386   2.545   6.756   2.930
 5496SOL    HW117387   2.520   6.851   2.947
 5496SOL    HW217388   2.631   6.735   2.977
 5497SOL     OW17389   6.887   1.810   3.274
 5497SOL    HW117390   6.953   1.738   3.294
 5497SOL    HW217391   6.840   1.789   3.188
 5498SOL     OW17392   5.269   0.157   1.165
 5498SOL    HW117393   5.234   0.138   1.073
 5498SOL    HW217394   5.263   0.074   1.221
 5499SOL     OW17395   1.015   1.094   3.658
 5499SOL    HW117396   1.090   1.118   3.597
 5499SOL    HW217397   1.022   0.998   3.684
 5500SOL     OW17398   2.249   5.884   0.175
 5500SOL    HW117399   2.259   5.796   0.129
 5500SOL    HW217400   2.165   5.884   0.229
 5501SOL     OW17401   3.540   0.241   1.203
 5501SOL    HW117402   3.588   0.329   1.211
 5501SOL    HW217403   3.583   0.186   1.132
 5502SOL     OW17404   5.477   4.220   6.365
 5502SOL    HW117405   5.568   4.249   6.396
 5502SOL    HW217406   5.436   4.293   6.310
 5503SOL     OW17407   0.148   4.628   3.058
 5503SOL    HW117408   0.079   4.646   2.988
 5503SOL    HW217409   0.180   4.534   3.050
 5504SOL     OW17410   3.483   1.738   5.775
 5504SOL    HW117411   3.502   1.814   5.838
 5504SOL    HW217412   3.556   1.670   5.783
 5505SOL     OW17413   2.632   5.434   4.406
 5505SOL    HW117414   2.688   5.485   4.470
 5505SOL    HW217415   2.565   5.379   4.456
 5506SOL     OW17416   6.781   0.706   5.952
 5506SOL    HW117417   6.830   0.764   6.016
 5506SOL    HW217418   6.697   0.752   5.922
 5507SOL     OW17419   1.991   6.835   2.670
 5507SOL    HW117420   2.035   6.915   2.711
 5507SOL    HW217421   2.006   6.835   2.571
 5508SOL     OW17422   2.168   1.561   0.348
 5508SOL    HW117423   2.243   1.610   0.392
 5508SOL    HW217424   2.188   1.548   0.251
 5509SOL     OW17425   1.022   6.440   0.140
 5509SOL    HW117426   1.040   6.357   0.087
 5509SOL    HW217427   0.999   6.515   0.077
 5510SOL     OW17428   5.373   5.976   0.839
 5510SOL    HW117429   5.351   6.069   0.809
 5510SOL    HW217430   5.471   5.971   0.860
 5511SOL     OW17431   2.198   6.912   4.420
 5511SOL    HW117432   2.215   6.883   4.514
 5511SOL    HW217433   2.267   6.873   4.360
 5512SOL     OW17434   5.903   2.173   1.352
 5512SOL    HW117435   5.965   2.219   1.415
 5512SOL    HW217436   5.851   2.241   1.301
 5513SOL     OW17437   3.307   4.112   5.742
 5513SOL    HW117438   3.295   4.055   5.823
 5513SOL    HW217439   3.247   4.078   5.669
 5514SOL     OW17440   4.360   5.559   2.432
 5514SOL    HW117441   4.286   5.491   2.427
 5514SOL    HW217442   4.338   5.637   2.374
 5515SOL     OW17443   0.726   4.397   1.450
 5515SOL    HW117444   0.681   4.414   1.363
 5515SOL    HW217445   0.661   4.357   1.515
 5516SOL     OW17446   1.243   2.996   0.141
 5516SOL    HW117447   1.199   3.078   0.179
 5516SOL    HW217448   1.196   2.915   0.177
 5517SOL     OW17449   2.123   2.393   2.234
 5517SOL    HW117450   2.081   2.464   2.291
 5517SOL    HW217451   2.205   2.430   2.191
 5518SOL     OW17452   6.410   6.777   6.371
 5518SOL    HW117453   6.397   6.692   6.421
 5518SOL    HW217454   6.477   6.834   6.419
 5519SOL     OW17455   5.240   3.490   3.066
 5519SOL    HW117456   5.209   3.582   3.041
 5519SOL    HW217457   5.161   3.434   3.090
 5520SOL     OW17458   6.680   5.058   2.802
 5520SOL    HW117459   6.753   5.049   2.733
 5520SOL    HW217460   6.721   5.074   2.892
 5521SOL     OW17461   4.030   6.706   2.436
 5521SOL    HW117462   4.090   6.706   2.356
 5521SOL    HW217463   3.935   6.718   2.407
 5522SOL     OW17464   0.836   4.972   0.743
 5522SOL    HW117465   0.916   5.031   0.728
 5522SOL    HW217466   0.812   4.928   0.656
 5523SOL     OW17467   2.741   6.959   3.279
 5523SOL    HW117468   2.651   6.915   3.268
 5523SOL    HW217469   2.791   6.913   3.353
 5524SOL     OW17470   6.463   5.088   4.809
 5524SOL    HW117471   6.408   5.122   4.885
 5524SOL    HW217472   6.551   5.136   4.807
 5525SOL     OW17473   0.203   3.711   0.106
 5525SOL    HW117474   0.179   3.787   0.167
 5525SOL    HW217475   0.120   3.667   0.073
 5526SOL     OW17476   5.173   4.192   5.009
 5526SOL    HW117477   5.197   4.158   4.918
 5526SOL    HW217478   5.191   4.290   5.013
 5527SOL     OW17479   0.841   3.843   3.770
 5527SOL    HW117480   0.844   3.857   3.671
 5527SOL    HW217481   0.911   3.899   3.814
 5528SOL     OW17482   0.914   1.776   6.560
 5528SOL    HW117483   0.933   1.712   6.485
 5528SOL    HW217484   0.832   1.830   6.538
 5529SOL     OW17485   1.912   6.973   4.414
 5529SOL    HW117486   1.865   6.941   4.496
 5529SOL    HW217487   2.007   6.942   4.417
 5530SOL     OW17488   0.364   2.722   2.682
 5530SOL    HW117489   0.313   2.761   2.758
 5530SOL    HW217490   0.339   2.769   2.597
 5531SOL     OW17491   3.889   3.864   2.861
 5531SOL    HW117492   3.792   3.881   2.845
 5531SOL    HW217493   3.914   3.893   2.953
 5532SOL     OW17494   1.466   1.544   1.179
 5532SOL    HW117495   1.526   1.514   1.105
 5532SOL    HW217496   1.382   1.489   1.178
 5533SOL     OW17497   3.280   1.202   3.016
 5533SOL    HW117498   3.218   1.260   2.964
 5533SOL    HW217499   3.295   1.241   3.107
 5534SOL     OW17500   0.618   2.800   5.702
 5534SOL    HW117501   0.713   2.813   5.675
 5534SOL    HW217502   0.610   2.807   5.802
 5535SOL     OW17503   0.610   2.957   3.768
 5535SOL    HW117504   0.646   3.045   3.799
 5535SOL    HW217505   0.610   2.954   3.668
 5536SOL     OW17506   3.529   1.292   4.209
 5536SOL    HW117507   3.509   1.261   4.302
 5536SOL    HW217508   3.466   1.248   4.146
 5537SOL     OW17509   2.776   0.976   4.470
 5537SOL    HW117510   2.805   1.050   4.531
 5537SOL    HW217511   2.827   0.893   4.492
 5538SOL     OW17512   3.441   6.929   4.796
 5538SOL    HW117513   3.386   6.866   4.742
 5538SOL    HW217514   3.529   6.886   4.820
 5539SOL     OW17515   1.429   2.657   0.228
 5539SOL    HW117516   1.448   2.562   0.254
 5539SOL    HW217517   1.331   2.675   0.240
 5540SOL     OW17518   6.072   3.595   2.874
 5540SOL    HW117519   6.140   3.587   2.801
 5540SOL    HW217520   6.074   3.687   2.912
 5541SOL     OW17521   5.689   2.010   6.743
 5541SOL    HW117522   5.728   2.079   6.683
 5541SOL    HW217523   5.757   1.937   6.758
 5542SOL     OW17524   5.492   6.289   6.242
 5542SOL    HW117525   5.495   6.352   6.320
 5542SOL    HW217526   5.534   6.202   6.268
 5543SOL     OW17527   2.518   5.408   6.426
 5543SOL    HW117528   2.556   5.324   6.387
 5543SOL    HW217529   2.469   5.386   6.510
 5544SOL     OW17530   5.214   5.793   6.298
 5544SOL    HW117531   5.231   5.733   6.220
 5544SOL    HW217532   5.207   5.888   6.267
 5545SOL     OW17533   4.577   1.327   3.457
 5545SOL    HW117534   4.631   1.353   3.538
 5545SOL    HW217535   4.484   1.304   3.486
 5546SOL     OW17536   1.501   6.762   3.676
 5546SOL    HW117537   1.434   6.706   3.628
 5546SOL    HW217538   1.590   6.715   3.678
 5547SOL     OW17539   3.835   0.601   4.999
 5547SOL    HW117540   3.919   0.612   4.946
 5547SOL    HW217541   3.756   0.616   4.940
 5548SOL     OW17542   5.804   3.531   4.959
 5548SOL    HW117543   5.776   3.437   4.938
 5548SOL    HW217544   5.876   3.560   4.896
 5549SOL     OW17545   4.118   4.847   1.009
 5549SOL    HW117546   4.046   4.885   1.068
 5549SOL    HW217547   4.095   4.864   0.913
 5550SOL     OW17548   2.201   4.236   2.330
 5550SOL    HW117549   2.185   4.210   2.235
 5550SOL    HW217550   2.180   4.333   2.342
 5551SOL     OW17551   1.621   6.171   3.017
 5551SOL    HW117552   1.574   6.181   3.105
 5551SOL    HW217553   1.654   6.077   3.008
 5552SOL     OW17554   6.966   6.742   6.561
 5552SOL    HW117555   6.912   6.709   6.639
 5552SOL    HW217556   6.921   6.716   6.476
 5553SOL     OW17557   4.884   6.319   0.255
 5553SOL    HW117558   4.881   6.379   0.335
 5553SOL    HW217559   4.938   6.362   0.183
 5554SOL     OW17560   4.477   1.873   6.640
 5554SOL    HW117561   4.518   1.880   6.549
 5554SOL    HW217562   4.479   1.962   6.685
 5555SOL     OW17563   1.197   4.085   2.782
 5555SOL    HW117564   1.113   4.134   2.807
 5555SOL    HW217565   1.276   4.144   2.800
 5556SOL     OW17566   6.576   1.733   3.431
 5556SOL    HW117567   6.603   1.667   3.362
 5556SOL    HW217568   6.618   1.822   3.412
 5557SOL     OW17569   3.325   6.936   2.746
 5557SOL    HW117570   3.400   6.884   2.706
 5557SOL    HW217571   3.284   6.884   2.821
 5558SOL     OW17572   3.553   3.342   5.641
 5558SOL    HW117573   3.491   3.419   5.624
 5558SOL    HW217574   3.647   3.369   5.621
 5559SOL     OW17575   1.296   0.570   1.388
 5559SOL    HW117576   1.305   0.635   1.463
 5559SOL    HW217577   1.208   0.585   1.342
 5560SOL     OW17578   0.348   5.316   2.279
 5560SOL    HW117579   0.303   5.396   2.319
 5560SOL    HW217580   0.428   5.346   2.227
 5561SOL     OW17581   1.641   1.457   3.967
 5561SOL    HW117582   1.572   1.489   3.901
 5561SOL    HW217583   1.723   1.427   3.918
 5562SOL     OW17584   4.104   2.581   6.632
 5562SOL    HW117585   4.144   2.633   6.556
 5562SOL    HW217586   4.010   2.612   6.648
 5563SOL     OW17587   3.682   5.222   2.112
 5563SOL    HW117588   3.631   5.262   2.036
 5563SOL    HW217589   3.619   5.176   2.174
 5564SOL     OW17590   4.834   0.144   1.110
 5564SOL    HW117591   4.857   0.047   1.104
 5564SOL    HW217592   4.745   0.160   1.069
 5565SOL     OW17593   4.548   1.781   6.137
 5565SOL    HW117594   4.646   1.800   6.132
 5565SOL    HW217595   4.518   1.738   6.052
 5566SOL     OW17596   1.587   4.422   6.274
 5566SOL    HW117597   1.658   4.406   6.342
 5566SOL    HW217598   1.622   4.397   6.183
 5567SOL     OW17599   0.040   2.257   1.081
 5567SOL    HW117600   0.038   2.355   1.097
 5567SOL    HW217601   0.122   2.233   1.030
 5568SOL     OW17602   4.892   1.885   3.722
 5568SOL    HW117603   4.817   1.863   3.660
 5568SOL    HW217604   4.860   1.949   3.791
 5569SOL     OW17605   1.659   2.316   2.567
 5569SOL    HW117606   1.641   2.311   2.469
 5569SOL    HW217607   1.629   2.232   2.611
 5570SOL     OW17608   6.834   4.459   5.336
 5570SOL    HW117609   6.742   4.485   5.308
 5570SOL    HW217610   6.875   4.399   5.268
 5571SOL     OW17611   0.312   5.785   0.533
 5571SOL    HW117612   0.355   5.706   0.488
 5571SOL    HW217613   0.305   5.860   0.468
 5572SOL     OW17614   1.298   2.212   5.314
 5572SOL    HW117615   1.392   2.223   5.281
 5572SOL    HW217616   1.282   2.275   5.390
 5573SOL     OW17617   2.555   4.786   4.494
 5573SOL    HW117618   2.456   4.795   4.493
 5573SOL    HW217619   2.593   4.822   4.408
 5574SOL     OW17620   0.461   2.058   2.483
 5574SOL    HW117621   0.463   2.090   2.578
 5574SOL    HW217622   0.480   2.135   2.422
 5575SOL     OW17623   6.560   1.028   0.928
 5575SOL    HW117624   6.586   0.960   0.996
 5575SOL    HW217625   6.638   1.044   0.866
 5576SOL     OW17626   0.800   5.108   1.609
 5576SOL    HW117627   0.803   5.036   1.679
 5576SOL    HW217628   0.857   5.184   1.638
 5577SOL     OW17629   3.202   3.592   5.818
 5577SOL    HW117630   3.117   3.645   5.807
 5577SOL    HW217631   3.239   3.571   5.728
 5578SOL     OW17632   3.819   3.581   0.743
 5578SOL    HW117633   3.782   3.534   0.823
 5578SOL    HW217634   3.746   3.599   0.678
 5579SOL     OW17635   0.654   3.286   0.062
 5579SOL    HW117636   0.721   3.336   0.007
 5579SOL    HW217637   0.701   3.214   0.113
 5580SOL     OW17638   5.633   2.715   5.529
 5580SOL    HW117639   5.569   2.638   5.526
 5580SOL    HW217640   5.712   2.695   5.471
 5581SOL     OW17641   1.196   6.814   1.430
 5581SOL    HW117642   1.286   6.818   1.387
 5581SOL    HW217643   1.126   6.838   1.362
 5582SOL     OW17644   2.896   3.702   5.319
 5582SOL    HW117645   2.826   3.670   5.383
 5582SOL    HW217646   2.907   3.801   5.328
 5583SOL     OW17647   4.872   0.286   2.558
 5583SOL    HW117648   4.934   0.210   2.575
 5583SOL    HW217649   4.784   0.268   2.602
 5584SOL     OW17650   5.671   4.819   4.083
 5584SOL    HW117651   5.630   4.789   4.169
 5584SOL    HW217652   5.606   4.875   4.032
 5585SOL     OW17653   5.437   6.099   4.179
 5585SOL    HW117654   5.369   6.147   4.123
 5585SOL    HW217655   5.467   6.017   4.131
 5586SOL     OW17656   0.326   2.114   6.714
 5586SOL    HW117657   0.342   2.087   6.620
 5586SOL    HW217658   0.411   2.145   6.755
 5587SOL     OW17659   4.086   6.427   1.720
 5587SOL    HW117660   4.069   6.455   1.814
 5587SOL    HW217661   4.183   6.408   1.707
 5588SOL     OW17662   1.837   5.739   2.919
 5588SOL    HW117663   1.754   5.782   2.955
 5588SOL    HW217664   1.916   5.771   2.970
 5589SOL     OW17665   6.456   4.063   5.291
 5589SOL    HW117666   6.395   4.048   5.214
 5589SOL    HW217667   6.551   4.052   5.261
 5590SOL     OW17668   6.987   5.869   4.275
 5590SOL    HW117669   6.965   5.952   4.224
 5590SOL    HW217670   6.918   5.799   4.257
 5591SOL     OW17671   5.265   1.560   0.278
 5591SOL    HW117672   5.295   1.473   0.240
 5591SOL    HW217673   5.331   1.631   0.254
 5592SOL     OW17674   6.702   4.817   2.446
 5592SOL    HW117675   6.605   4.825   2.469
 5592SOL    HW217676   6.728   4.890   2.382
 5593SOL     OW17677   0.557   3.291   6.749
 5593SOL    HW117678   0.541   3.357   6.822
 5593SOL    HW217679   0.517   3.325   6.664
 5594SOL     OW17680   3.837   1.396   6.922
 5594SOL    HW117681   3.782   1.480   6.921
 5594SOL    HW217682   3.922   1.411   6.871
 5595SOL     OW17683   6.395   0.484   5.028
 5595SOL    HW117684   6.421   0.396   4.990
 5595SOL    HW217685   6.351   0.539   4.957
 5596SOL     OW17686   4.694   0.343   3.382
 5596SOL    HW117687   4.668   0.392   3.465
 5596SOL    HW217688   4.763   0.395   3.333
 5597SOL     OW17689   5.535   2.801   4.797
 5597SOL    HW117690   5.530   2.732   4.724
 5597SOL    HW217691   5.459   2.866   4.786
 5598SOL     OW17692   6.110   3.428   3.892
 5598SOL    HW117693   6.167   3.506   3.920
 5598SOL    HW217694   6.032   3.420   3.955
 5599SOL     OW17695   0.511   2.637   1.400
 5599SOL    HW117696   0.456   2.579   1.459
 5599SOL    HW217697   0.599   2.657   1.444
 5600SOL     OW17698   2.289   0.914   1.699
 5600SOL    HW117699   2.300   0.900   1.797
 5600SOL    HW217700   2.228   0.991   1.683
 5601SOL     OW17701   2.591   0.924   6.520
 5601SOL    HW117702   2.494   0.933   6.542
 5601SOL    HW217703   2.604   0.851   6.452
 5602SOL     OW17704   6.979   1.577   1.290
 5602SOL    HW117705   6.880   1.587   1.301
 5602SOL    HW217706   0.004   1.657   1.329
 5603SOL     OW17707   5.810   2.417   0.221
 5603SOL    HW117708   5.770   2.475   0.292
 5603SOL    HW217709   5.745   2.345   0.195
 5604SOL     OW17710   6.219   1.783   4.437
 5604SOL    HW117711   6.298   1.747   4.388
 5604SOL    HW217712   6.176   1.710   4.489
 5605SOL     OW17713   6.631   1.405   5.019
 5605SOL    HW117714   6.610   1.314   4.984
 5605SOL    HW217715   6.728   1.425   5.006
 5606SOL     OW17716   4.467   6.396   0.376
 5606SOL    HW117717   4.539   6.357   0.319
 5606SOL    HW217718   4.500   6.481   0.417
 5607SOL     OW17719   6.078   0.982   3.024
 5607SOL    HW117720   6.075   1.079   3.001
 5607SOL    HW217721   6.054   0.928   2.944
 5608SOL     OW17722   6.102   0.475   3.914
 5608SOL    HW117723   6.006   0.493   3.937
 5608SOL    HW217724   6.122   0.514   3.825
 5609SOL     OW17725   3.307   5.568   1.416
 5609SOL    HW117726   3.299   5.529   1.508
 5609SOL    HW217727   3.348   5.658   1.421
 5610SOL     OW17728   4.619   5.696   1.128
 5610SOL    HW117729   4.585   5.650   1.046
 5610SOL    HW217730   4.598   5.639   1.208
 5611SOL     OW17731   0.597   5.785   3.223
 5611SOL    HW117732   0.645   5.708   3.182
 5611SOL    HW217733   0.501   5.782   3.197
 5612SOL     OW17734   4.163   2.602   5.921
 5612SOL    HW117735   4.143   2.547   6.002
 5612SOL    HW217736   4.137   2.697   5.938
 5613SOL     OW17737   6.441   5.707   4.473
 5613SOL    HW117738   6.376   5.636   4.446
 5613SOL    HW217739   6.405   5.796   4.448
 5614SOL     OW17740   4.568   2.542   4.537
 5614SOL    HW117741   4.617   2.490   4.607
 5614SOL    HW217742   4.509   2.480   4.485
 5615SOL     OW17743   6.523   1.412   4.128
 5615SOL    HW117744   6.463   1.442   4.054
 5615SOL    HW217745   6.601   1.474   4.136
 5616SOL     OW17746   2.622   2.448   4.947
 5616SOL    HW117747   2.712   2.407   4.965
 5616SOL    HW217748   2.602   2.517   5.017
 5617SOL     OW17749   2.730   5.914   5.603
 5617SOL    HW117750   2.798   5.978   5.568
 5617SOL    HW217751   2.718   5.839   5.537
 5618SOL     OW17752   0.056   4.295   4.175
 5618SOL    HW117753   0.026   4.276   4.269
 5618SOL    HW217754   7.011   4.356   4.131
 5619SOL     OW17755   3.888   4.084   4.836
 5619SOL    HW117756   3.975   4.035   4.824
 5619SOL    HW217757   3.813   4.018   4.835
 5620SOL     OW17758   4.212   3.415   1.245
 5620SOL    HW117759   4.148   3.439   1.172
 5620SOL    HW217760   4.168   3.429   1.334
 5621SOL     OW17761   2.459   2.901   0.293
 5621SOL    HW117762   2.404   2.899   0.377
 5621SOL    HW217763   2.411   2.953   0.223
 5622SOL     OW17764   5.041   0.684   5.876
 5622SOL    HW117765   4.982   0.667   5.955
 5622SOL    HW217766   5.067   0.781   5.874
 5623SOL     OW17767   4.077   5.826   5.321
 5623SOL    HW117768   3.991   5.777   5.335
 5623SOL    HW217769   4.115   5.853   5.410
 5624SOL     OW17770   0.805   4.405   3.723
 5624SOL    HW117771   0.820   4.307   3.710
 5624SOL    HW217772   0.741   4.419   3.799
 5625SOL     OW17773   6.738   6.909   5.336
 5625SOL    HW117774   6.653   6.952   5.367
 5625SOL    HW217775   6.813   6.974   5.343
 5626SOL     OW17776   2.336   6.089   4.536
 5626SOL    HW117777   2.323   6.079   4.437
 5626SOL    HW217778   2.299   6.177   4.565
 5627SOL     OW17779   0.565   5.059   6.899
 5627SOL    HW117780   0.536   5.046   6.994
 5627SOL    HW217781   0.525   5.143   6.863
 5628SOL     OW17782   1.925   2.248   2.666
 5628SOL    HW117783   1.997   2.256   2.597
 5628SOL    HW217784   1.841   2.288   2.632
 5629SOL     OW17785   3.802   3.743   1.804
 5629SOL    HW117786   3.723   3.684   1.813
 5629SOL    HW217787   3.776   3.830   1.762
 5630SOL     OW17788   1.667   3.645   6.246
 5630SOL    HW117789   1.674   3.605   6.337
 5630SOL    HW217790   1.722   3.591   6.181
 5631SOL     OW17791   4.613   1.927   2.086
 5631SOL    HW117792   4.710   1.923   2.113
 5631SOL    HW217793   4.583   2.022   2.083
 5632SOL     OW17794   3.018   2.257   5.848
 5632SOL    HW117795   3.024   2.302   5.759
 5632SOL    HW217796   3.021   2.158   5.835
 5633SOL     OW17797   6.080   4.817   4.493
 5633SOL    HW117798   6.139   4.784   4.566
 5633SOL    HW217799   6.104   4.770   4.408
 5634SOL     OW17800   2.429   5.182   4.234
 5634SOL    HW117801   2.335   5.176   4.198
 5634SOL    HW217802   2.425   5.206   4.331
 5635SOL     OW17803   1.728   5.057   6.241
 5635SOL    HW117804   1.734   5.085   6.145
 5635SOL    HW217805   1.638   5.016   6.258
 5636SOL     OW17806   5.034   6.929   4.740
 5636SOL    HW117807   5.075   6.863   4.677
 5636SOL    HW217808   5.035   7.020   4.698
 5637SOL     OW17809   5.623   0.138   3.156
 5637SOL    HW117810   5.641   0.234   3.179
 5637SOL    HW217811   5.615   0.085   3.240
 5638SOL     OW17812   6.518   3.945   0.880
 5638SOL    HW117813   6.491   4.008   0.808
 5638SOL    HW217814   6.459   3.957   0.960
 5639SOL     OW17815   1.240   0.585   2.516
 5639SOL    HW117816   1.250   0.576   2.417
 5639SOL    HW217817   1.207   0.677   2.538
 5640SOL     OW17818   3.434   0.408   3.869
 5640SOL    HW117819   3.503   0.433   3.937
 5640SOL    HW217820   3.428   0.308   3.863
 5641SOL     OW17821   0.826   5.119   5.065
 5641SOL    HW117822   0.836   5.208   5.020
 5641SOL    HW217823   0.907   5.063   5.046
 5642SOL     OW17824   1.840   6.879   4.645
 5642SOL    HW117825   1.771   6.821   4.602
 5642SOL    HW217826   1.917   6.822   4.675
 5643SOL     OW17827   4.228   1.595   4.505
 5643SOL    HW117828   4.273   1.682   4.525
 5643SOL    HW217829   4.159   1.608   4.434
 5644SOL     OW17830   2.926   0.276   4.781
 5644SOL    HW117831   2.910   0.221   4.863
 5644SOL    HW217832   3.017   0.255   4.745
 5645SOL     OW17833   6.166   4.810   3.579
 5645SOL    HW117834   6.143   4.870   3.503
 5645SOL    HW217835   6.083   4.768   3.615
 5646SOL     OW17836   1.721   5.782   3.777
 5646SOL    HW117837   1.756   5.740   3.694
 5646SOL    HW217838   1.702   5.711   3.845
 5647SOL     OW17839   4.522   5.549   0.923
 5647SOL    HW117840   4.523   5.455   0.956
 5647SOL    HW217841   4.530   5.548   0.823
 5648SOL     OW17842   1.703   0.282   2.906
 5648SOL    HW117843   1.703   0.202   2.966
 5648SOL    HW217844   1.670   0.362   2.957
 5649SOL     OW17845   1.010   0.854   4.201
 5649SOL    HW117846   1.017   0.953   4.206
 5649SOL    HW217847   1.000   0.817   4.294
 5650SOL     OW17848   0.425   5.552   0.506
 5650SOL    HW117849   0.494   5.590   0.444
 5650SOL    HW217850   0.391   5.466   0.468
 5651SOL     OW17851   1.730   0.968   1.581
 5651SOL    HW117852   1.811   0.978   1.524
 5651SOL    HW217853   1.712   0.871   1.597
 5652SOL     OW17854   6.238   7.020   2.105
 5652SOL    HW117855   6.170   6.972   2.050
 5652SOL    HW217856   6.284   0.068   2.048
 5653SOL     OW17857   6.443   6.327   6.607
 5653SOL    HW117858   6.436   6.239   6.655
 5653SOL    HW217859   6.535   6.364   6.620
 5654SOL     OW17860   6.877   6.478   5.312
 5654SOL    HW117861   6.959   6.442   5.268
 5654SOL    HW217862   6.817   6.519   5.243
 5655SOL     OW17863   0.688   3.671   4.275
 5655SOL    HW117864   0.600   3.627   4.258
 5655SOL    HW217865   0.695   3.697   4.372
 5656SOL     OW17866   0.165   3.953   6.592
 5656SOL    HW117867   0.234   3.885   6.617
 5656SOL    HW217868   0.206   4.023   6.533
 5657SOL     OW17869   5.979   2.186   0.342
 5657SOL    HW117870   5.942   2.266   0.295
 5657SOL    HW217871   6.003   2.116   0.275
 5658SOL     OW17872   3.415   4.020   6.203
 5658SOL    HW117873   3.352   3.984   6.133
 5658SOL    HW217874   3.363   4.045   6.285
 5659SOL     OW17875   3.755   3.263   5.203
 5659SOL    HW117876   3.814   3.316   5.264
 5659SOL    HW217877   3.747   3.309   5.115
 5660SOL     OW17878   4.501   7.019   0.129
 5660SOL    HW117879   4.500   6.964   0.213
 5660SOL    HW217880   4.407   0.018   0.101
 5661SOL     OW17881   1.516   6.083   5.101
 5661SOL    HW117882   1.432   6.112   5.057
 5661SOL    HW217883   1.569   6.025   5.039
 5662SOL     OW17884   2.800   5.658   3.600
 5662SOL    HW117885   2.828   5.652   3.505
 5662SOL    HW217886   2.700   5.651   3.606
 5663SOL     OW17887   1.846   2.878   6.988
 5663SOL    HW117888   1.801   2.863   0.056
 5663SOL    HW217889   1.822   2.804   6.926
 5664SOL     OW17890   6.751   3.679   4.803
 5664SOL    HW117891   6.811   3.755   4.831
 5664SOL    HW217892   6.775   3.650   4.711
 5665SOL     OW17893   1.931   0.995   0.516
 5665SOL    HW117894   1.939   0.920   0.450
 5665SOL    HW217895   1.988   0.975   0.596
 5666SOL     OW17896   6.036   6.992   3.018
 5666SOL    HW117897   6.039   0.020   2.931
 5666SOL    HW217898   6.129   6.972   3.049
 5667SOL     OW17899   1.208   5.260   4.597
 5667SOL    HW117900   1.307   5.269   4.610
 5667SOL    HW217901   1.190   5.211   4.512
 5668SOL     OW17902   5.408   2.821   3.950
 5668SOL    HW117903   5.477   2.846   3.882
 5668SOL    HW217904   5.325   2.790   3.903
 5669SOL     OW17905   0.270   3.442   0.550
 5669SOL    HW117906   0.352   3.470   0.600
 5669SOL    HW217907   0.276   3.473   0.456
 5670SOL     OW17908   0.597   3.696   3.630
 5670SOL    HW117909   0.663   3.668   3.700
 5670SOL    HW217910   0.603   3.633   3.553
 5671SOL     OW17911   6.090   6.251   6.338
 5671SOL    HW117912   6.185   6.237   6.364
 5671SOL    HW217913   6.086   6.287   6.245
 5672SOL     OW17914   4.392   3.935   0.205
 5672SOL    HW117915   4.396   3.968   0.111
 5672SOL    HW217916   4.297   3.916   0.230
 5673SOL     OW17917   1.397   0.056   1.249
 5673SOL    HW117918   1.400   0.106   1.335
 5673SOL    HW217919   1.408   0.120   1.173
 5674SOL     OW17920   0.292   4.725   4.965
 5674SOL    HW117921   0.270   4.635   4.927
 5674SOL    HW217922   0.257   4.731   5.059
 5675SOL     OW17923   4.051   3.081   6.174
 5675SOL    HW117924   3.965   3.116   6.210
 5675SOL    HW217925   4.098   3.153   6.124
 5676SOL     OW17926   2.782   2.314   2.572
 5676SOL    HW117927   2.863   2.286   2.624
 5676SOL    HW217928   2.793   2.286   2.476
 5677SOL     OW17929   0.504   1.196   0.502
 5677SOL    HW117930   0.469   1.162   0.589
 5677SOL    HW217931   0.572   1.268   0.520
 5678SOL     OW17932   4.207   6.505   2.549
 5678SOL    HW117933   4.146   6.571   2.505
 5678SOL    HW217934   4.188   6.502   2.647
 5679SOL     OW17935   6.608   1.126   4.195
 5679SOL    HW117936   6.575   1.217   4.221
 5679SOL    HW217937   6.679   1.136   4.125
 5680SOL     OW17938   1.741   5.176   5.997
 5680SOL    HW117939   1.718   5.273   5.993
 5680SOL    HW217940   1.683   5.125   5.933
 5681SOL     OW17941   0.559   4.124   0.925
 5681SOL    HW117942   0.517   4.047   0.973
 5681SOL    HW217943   0.512   4.139   0.838
 5682SOL     OW17944   2.194   5.289   5.270
 5682SOL    HW117945   2.148   5.365   5.317
 5682SOL    HW217946   2.125   5.231   5.227
 5683SOL     OW17947   4.245   1.128   5.971
 5683SOL    HW117948   4.177   1.200   5.981
 5683SOL    HW217949   4.284   1.131   5.879
 5684SOL     OW17950   2.777   3.430   5.761
 5684SOL    HW117951   2.810   3.336   5.769
 5684SOL    HW217952   2.708   3.447   5.830
 5685SOL     OW17953   1.879   2.013   3.070
 5685SOL    HW117954   1.925   2.025   3.158
 5685SOL    HW217955   1.887   2.097   3.016
 5686SOL     OW17956   2.867   1.883   6.444
 5686SOL    HW117957   2.945   1.899   6.504
 5686SOL    HW217958   2.898   1.842   6.359
 5687SOL     OW17959   0.907   5.242   6.922
 5687SOL    HW117960   0.938   5.337   6.925
 5687SOL    HW217961   0.981   5.184   6.890
 5688SOL     OW17962   0.785   2.429   1.657
 5688SOL    HW117963   0.748   2.479   1.735
 5688SOL    HW217964   0.804   2.334   1.684
 5689SOL     OW17965   3.276   1.495   1.251
 5689SOL    HW117966   3.231   1.430   1.312
 5689SOL    HW217967   3.358   1.454   1.212
 5690SOL     OW17968   2.394   6.039   6.807
 5690SOL    HW117969   2.491   6.044   6.784
 5690SOL    HW217970   2.340   6.043   6.722
 5691SOL     OW17971   3.281   0.395   2.498
 5691SOL    HW117972   3.276   0.318   2.561
 5691SOL    HW217973   3.350   0.460   2.531
 5692SOL     OW17974   5.954   3.922   0.639
 5692SOL    HW117975   5.928   4.012   0.604
 5692SOL    HW217976   5.969   3.927   0.738
 5693SOL     OW17977   4.998   1.630   3.190
 5693SOL    HW117978   5.073   1.672   3.139
 5693SOL    HW217979   4.931   1.593   3.125
 5694SOL     OW17980   1.213   1.196   2.986
 5694SOL    HW117981   1.179   1.132   2.917
 5694SOL    HW217982   1.221   1.287   2.947
 5695SOL     OW17983   1.717   1.724   3.734
 5695SOL    HW117984   1.684   1.806   3.687
 5695SOL    HW217985   1.757   1.661   3.667
 5696SOL     OW17986   0.720   1.170   3.463
 5696SOL    HW117987   0.726   1.073   3.484
 5696SOL    HW217988   0.746   1.224   3.543
 5697SOL     OW17989   6.030   2.550   1.388
 5697SOL    HW117990   6.072   2.585   1.304
 5697SOL    HW217991   5.982   2.624   1.435
 5698SOL     OW17992   1.437   5.216   4.257
 5698SOL    HW117993   1.351   5.195   4.304
 5698SOL    HW217994   1.460   5.141   4.195
 5699SOL     OW17995   0.677   2.421   2.961
 5699SOL    HW117996   0.659   2.348   2.896
 5699SOL    HW217997   0.745   2.392   3.027
 5700SOL     OW17998   6.490   0.122   3.485
 5700SOL    HW117999   6.577   0.167   3.503
 5700SOL    HW218000   6.422   0.154   3.550
 5701SOL     OW18001   1.164   0.242   1.401
 5701SOL    HW118002   1.257   0.213   1.427
 5701SOL    HW218003   1.104   0.236   1.481
 5702SOL     OW18004   2.709   5.298   3.985
 5702SOL    HW118005   2.736   5.326   3.893
 5702SOL    HW218006   2.773   5.338   4.052
 5703SOL     OW18007   5.921   4.666   1.430
 5703SOL    HW118008   5.975   4.612   1.494
 5703SOL    HW218009   5.979   4.696   1.354
 5704SOL     OW18010   4.772   4.136   2.947
 5704SOL    HW118011   4.703   4.063   2.941
 5704SOL    HW218012   4.776   4.185   2.860
 5705SOL     OW18013   4.751   6.700   0.158
 5705SOL    HW118014   4.837   6.648   0.154
 5705SOL    HW218015   4.674   6.638   0.149
 5706SOL     OW18016   0.384   3.938   1.766
 5706SOL    HW118017   0.384   3.887   1.852
 5706SOL    HW218018   0.322   3.895   1.702
 5707SOL     OW18019   0.515   6.543   0.206
 5707SOL    HW118020   0.513   6.640   0.185
 5707SOL    HW218021   0.576   6.526   0.284
 5708SOL     OW18022   5.296   5.631   2.063
 5708SOL    HW118023   5.209   5.659   2.022
 5708SOL    HW218024   5.286   5.624   2.163
 5709SOL     OW18025   1.247   0.606   2.211
 5709SOL    HW118026   1.234   0.701   2.180
 5709SOL    HW218027   1.169   0.551   2.183
 5710SOL     OW18028   2.908   2.937   1.127
 5710SOL    HW118029   2.910   2.842   1.095
 5710SOL    HW218030   2.823   2.954   1.177
 5711SOL     OW18031   4.826   0.925   3.068
 5711SOL    HW118032   4.909   0.952   3.019
 5711SOL    HW218033   4.844   0.926   3.167
 5712SOL     OW18034   6.495   0.401   6.589
 5712SOL    HW118035   6.571   0.441   6.538
 5712SOL    HW218036   6.451   0.473   6.643
 5713SOL     OW18037   3.652   3.167   1.821
 5713SOL    HW118038   3.679   3.074   1.847
 5713SOL    HW218039   3.565   3.190   1.864
 5714SOL     OW18040   0.419   5.130   0.716
 5714SOL    HW118041   0.464   5.164   0.634
 5714SOL    HW218042   0.322   5.158   0.716
 5715SOL     OW18043   0.901   0.774   2.463
 5715SOL    HW118044   0.847   0.718   2.525
 5715SOL    HW218045   0.994   0.782   2.498
 5716SOL     OW18046   1.404   5.053   6.057
 5716SOL    HW118047   1.314   5.095   6.043
 5716SOL    HW218048   1.432   5.006   5.973
 5717SOL     OW18049   1.663   4.915   1.085
 5717SOL    HW118050   1.718   4.984   1.131
 5717SOL    HW218051   1.717   4.831   1.074
 5718SOL     OW18052   0.451   3.382   6.512
 5718SOL    HW118053   0.461   3.330   6.428
 5718SOL    HW218054   0.375   3.447   6.502
 5719SOL     OW18055   2.515   2.764   6.546
 5719SOL    HW118056   2.584   2.811   6.600
 5719SOL    HW218057   2.558   2.689   6.495
 5720SOL     OW18058   2.417   5.906   4.771
 5720SOL    HW118059   2.441   5.894   4.674
 5720SOL    HW218060   2.450   5.994   4.803
 5721SOL     OW18061   6.536   3.323   0.964
 5721SOL    HW118062   6.595   3.352   1.040
 5721SOL    HW218063   6.483   3.401   0.931
 5722SOL     OW18064   6.809   2.077   5.004
 5722SOL    HW118065   6.802   2.089   5.103
 5722SOL    HW218066   6.888   2.127   4.969
 5723SOL     OW18067   4.762   3.283   0.110
 5723SOL    HW118068   4.751   3.333   0.196
 5723SOL    HW218069   4.685   3.304   0.049
 5724SOL     OW18070   5.486   3.156   4.229
 5724SOL    HW118071   5.387   3.147   4.219
 5724SOL    HW218072   5.518   3.095   4.301
 5725SOL     OW18073   5.640   5.075   4.383
 5725SOL    HW118074   5.738   5.067   4.395
 5725SOL    HW218075   5.593   5.047   4.467
 5726SOL     OW18076   6.836   5.125   4.167
 5726SOL    HW118077   6.764   5.164   4.225
 5726SOL    HW218078   6.812   5.137   4.071
 5727SOL     OW18079   6.876   2.111   4.247
 5727SOL    HW118080   6.924   2.196   4.269
 5727SOL    HW218081   6.779   2.122   4.265
 5728SOL     OW18082   3.976   0.560   6.325
 5728SOL    HW118083   3.913   0.583   6.250
 5728SOL    HW218084   4.068   0.592   6.302
 5729SOL     OW18085   1.682   0.613   0.756
 5729SOL    HW118086   1.653   0.597   0.661
 5729SOL    HW218087   1.621   0.679   0.799
 5730SOL     OW18088   5.352   4.878   6.332
 5730SOL    HW118089   5.285   4.952   6.333
 5730SOL    HW218090   5.419   4.896   6.260
 5731SOL     OW18091   0.568   6.740   3.634
 5731SOL    HW118092   0.509   6.697   3.566
 5731SOL    HW218093   0.512   6.774   3.710
 5732SOL     OW18094   0.027   5.298   4.144
 5732SOL    HW118095   0.017   5.391   4.180
 5732SOL    HW218096   6.976   5.240   4.182
 5733SOL     OW18097   4.277   6.652   5.579
 5733SOL    HW118098   4.203   6.719   5.590
 5733SOL    HW218099   4.337   6.681   5.504
 5734SOL     OW18100   0.925   6.896   5.269
 5734SOL    HW118101   0.829   6.869   5.260
 5734SOL    HW218102   0.945   6.916   5.365
 5735SOL     OW18103   4.136   1.964   1.614
 5735SOL    HW118104   4.092   1.883   1.575
 5735SOL    HW218105   4.088   2.046   1.585
 5736SOL     OW18106   6.318   3.084   0.578
 5736SOL    HW118107   6.331   3.081   0.677
 5736SOL    HW218108   6.379   3.152   0.538
 5737SOL     OW18109   5.797   6.552   1.023
 5737SOL    HW118110   5.819   6.542   1.120
 5737SOL    HW218111   5.725   6.486   0.998
 5738SOL     OW18112   2.296   2.638   5.734
 5738SOL    HW118113   2.222   2.703   5.713
 5738SOL    HW218114   2.289   2.610   5.830
 5739SOL     OW18115   1.399   0.381   5.773
 5739SOL    HW118116   1.435   0.289   5.788
 5739SOL    HW218117   1.335   0.404   5.847
 5740SOL     OW18118   4.601   3.876   1.027
 5740SOL    HW118119   4.673   3.807   1.035
 5740SOL    HW218120   4.569   3.901   1.119
 5741SOL     OW18121   1.016   4.810   4.603
 5741SOL    HW118122   0.953   4.757   4.546
 5741SOL    HW218123   1.074   4.747   4.655
 5742SOL     OW18124   5.079   6.897   2.078
 5742SOL    HW118125   5.008   6.882   2.146
 5742SOL    HW218126   5.091   6.995   2.062
 5743SOL     OW18127   2.822   5.751   5.216
 5743SOL    HW118128   2.914   5.784   5.239
 5743SOL    HW218129   2.808   5.660   5.256
 5744SOL     OW18130   4.923   0.479   1.988
 5744SOL    HW118131   4.835   0.457   2.031
 5744SOL    HW218132   4.932   0.428   1.903
 5745SOL     OW18133   3.061   0.986   4.002
 5745SOL    HW118134   3.110   0.955   3.921
 5745SOL    HW218135   2.999   1.061   3.977
 5746SOL     OW18136   5.886   6.563   1.762
 5746SOL    HW118137   5.834   6.630   1.708
 5746SOL    HW218138   5.867   6.576   1.859
 5747SOL     OW18139   6.291   4.625   2.626
 5747SOL    HW118140   6.194   4.652   2.625
 5747SOL    HW218141   6.348   4.707   2.616
 5748SOL     OW18142   2.189   6.016   0.797
 5748SOL    HW118143   2.091   6.034   0.788
 5748SOL    HW218144   2.208   5.974   0.885
 5749SOL     OW18145   1.722   0.536   4.466
 5749SOL    HW118146   1.653   0.505   4.533
 5749SOL    HW218147   1.724   0.473   4.389
 5750SOL     OW18148   5.384   5.802   4.449
 5750SOL    HW118149   5.377   5.892   4.492
 5750SOL    HW218150   5.339   5.734   4.506
 5751SOL     OW18151   2.238   2.836   4.458
 5751SOL    HW118152   2.300   2.785   4.398
 5751SOL    HW218153   2.273   2.833   4.551
 5752SOL     OW18154   6.299   0.815   6.559
 5752SOL    HW118155   6.199   0.816   6.563
 5752SOL    HW218156   6.330   0.855   6.473
 5753SOL     OW18157   3.420   3.782   5.571
 5753SOL    HW118158   3.357   3.858   5.587
 5753SOL    HW218159   3.510   3.805   5.607
 5754SOL     OW18160   5.572   4.701   1.651
 5754SOL    HW118161   5.512   4.679   1.728
 5754SOL    HW218162   5.603   4.796   1.660
 5755SOL     OW18163   2.373   4.048   5.775
 5755SOL    HW118164   2.285   4.070   5.817
 5755SOL    HW218165   2.362   4.044   5.675
 5756SOL     OW18166   6.102   6.022   3.330
 5756SOL    HW118167   6.168   6.094   3.350
 5756SOL    HW218168   6.033   6.057   3.266
 5757SOL     OW18169   6.626   6.591   2.742
 5757SOL    HW118170   6.700   6.535   2.779
 5757SOL    HW218171   6.592   6.653   2.812
 5758SOL     OW18172   2.886   1.212   4.320
 5758SOL    HW118173   2.838   1.280   4.374
 5758SOL    HW218174   2.879   1.122   4.364
 5759SOL     OW18175   4.817   1.890   6.798
 5759SOL    HW118176   4.745   1.948   6.836
 5759SOL    HW218177   4.903   1.908   6.846
 5760SOL     OW18178   1.043   4.865   1.285
 5760SOL    HW118179   1.098   4.948   1.280
 5760SOL    HW218180   1.100   4.785   1.269
 5761SOL     OW18181   5.701   6.960   6.305
 5761SOL    HW118182   5.792   6.922   6.285
 5761SOL    HW218183   5.632   6.912   6.251
 5762SOL     OW18184   4.446   6.612   0.867
 5762SOL    HW118185   4.473   6.619   0.771
 5762SOL    HW218186   4.526   6.617   0.926
 5763SOL     OW18187   0.103   0.262   0.335
 5763SOL    HW118188   0.003   0.264   0.347
 5763SOL    HW218189   0.136   0.169   0.352
 5764SOL     OW18190   4.887   4.490   6.679
 5764SOL    HW118191   4.936   4.533   6.604
 5764SOL    HW218192   4.802   4.449   6.645
 5765SOL     OW18193   6.433   4.274   6.497
 5765SOL    HW118194   6.531   4.276   6.475
 5765SOL    HW218195   6.386   4.346   6.447
 5766SOL     OW18196   2.415   2.576   0.614
 5766SOL    HW118197   2.384   2.520   0.692
 5766SOL    HW218198   2.367   2.663   0.614
 5767SOL     OW18199   2.218   6.376   0.479
 5767SOL    HW118200   2.297   6.406   0.427
 5767SOL    HW218201   2.139   6.434   0.457
 5768SOL     OW18202   6.923   6.725   3.136
 5768SOL    HW118203   6.897   6.804   3.080
 5768SOL    HW218204   6.995   6.752   3.199
 5769SOL     OW18205   2.684   6.344   4.261
 5769SOL    HW118206   2.603   6.335   4.204
 5769SOL    HW218207   2.765   6.313   4.210
 5770SOL     OW18208   6.810   0.133   0.127
 5770SOL    HW118209   6.846   0.226   0.137
 5770SOL    HW218210   6.841   0.077   0.204
 5771SOL     OW18211   0.457   5.949   2.773
 5771SOL    HW118212   0.524   6.009   2.817
 5771SOL    HW218213   0.466   5.956   2.674
 5772SOL     OW18214   6.141   2.629   0.714
 5772SOL    HW118215   6.094   2.566   0.653
 5772SOL    HW218216   6.210   2.681   0.663
 5773SOL     OW18217   4.891   0.746   4.092
 5773SOL    HW118218   4.833   0.667   4.070
 5773SOL    HW218219   4.842   0.830   4.069
 5774SOL     OW18220   3.004   5.313   3.771
 5774SOL    HW118221   3.015   5.247   3.846
 5774SOL    HW218222   2.909   5.343   3.766
 5775SOL     OW18223   1.475   0.067   1.711
 5775SOL    HW118224   1.412   0.048   1.787
 5775SOL    HW218225   1.567   0.037   1.736
 5776SOL     OW18226   6.267   0.885   5.943
 5776SOL    HW118227   6.206   0.944   5.996
 5776SOL    HW218228   6.279   0.798   5.990
 5777SOL     OW18229   5.904   0.301   4.421
 5777SOL    HW118230   5.938   0.349   4.502
 5777SOL    HW218231   5.846   0.363   4.368
 5778SOL     OW18232   1.461   6.867   0.981
 5778SOL    HW118233   1.402   6.842   1.057
 5778SOL    HW218234   1.406   6.908   0.908
 5779SOL     OW18235   4.029   0.972   0.950
 5779SOL    HW118236   4.094   0.897   0.936
 5779SOL    HW218237   3.991   1.000   0.862
 5780SOL     OW18238   5.713   5.856   2.736
 5780SOL    HW118239   5.796   5.904   2.764
 5780SOL    HW218240   5.730   5.758   2.734
 5781SOL     OW18241   1.495   4.255   4.412
 5781SOL    HW118242   1.497   4.240   4.313
 5781SOL    HW218243   1.588   4.246   4.448
 5782SOL     OW18244   1.275   0.976   0.782
 5782SOL    HW118245   1.350   0.969   0.849
 5782SOL    HW218246   1.268   1.070   0.749
 5783SOL     OW18247   2.125   1.668   1.297
 5783SOL    HW118248   2.050   1.614   1.335
 5783SOL    HW218249   2.211   1.638   1.339
 5784SOL     OW18250   0.162   6.630   0.074
 5784SOL    HW118251   0.208   6.613   7.007
 5784SOL    HW218252   0.164   6.728   0.094
 5785SOL     OW18253   1.936   2.320   1.274
 5785SOL    HW118254   1.846   2.278   1.275
 5785SOL    HW218255   2.005   2.253   1.302
 5786SOL     OW18256   1.179   4.436   1.049
 5786SOL    HW118257   1.104   4.456   0.986
 5786SOL    HW218258   1.178   4.338   1.072
 5787SOL     OW18259   4.760   2.431   4.711
 5787SOL    HW118260   4.852   2.415   4.747
 5787SOL    HW218261   4.713   2.498   4.767
 5788SOL     OW18262   2.834   0.584   1.739
 5788SOL    HW118263   2.797   0.549   1.653
 5788SOL    HW218264   2.880   0.671   1.723
 5789SOL     OW18265   2.746   2.922   6.605
 5789SOL    HW118266   2.704   2.997   6.552
 5789SOL    HW218267   2.836   2.951   6.638
 5790SOL     OW18268   6.746   5.623   5.632
 5790SOL    HW118269   6.768   5.679   5.712
 5790SOL    HW218270   6.760   5.677   5.549
 5791SOL     OW18271   2.689   2.064   2.403
 5791SOL    HW118272   2.688   1.983   2.345
 5791SOL    HW218273   2.700   2.146   2.347
 5792SOL     OW18274   5.076   3.858   3.110
 5792SOL    HW118275   5.027   3.787   3.061
 5792SOL    HW218276   5.155   3.818   3.158
 5793SOL     OW18277   5.682   1.002   5.458
 5793SOL    HW118278   5.765   0.999   5.514
 5793SOL    HW218279   5.676   0.917   5.404
 5794SOL     OW18280   3.447   0.249   6.903
 5794SOL    HW118281   3.522   0.183   6.904
 5794SOL    HW218282   3.482   0.339   6.880
 5795SOL     OW18283   0.280   6.578   0.632
 5795SOL    HW118284   0.268   6.481   0.652
 5795SOL    HW218285   0.190   6.622   0.623
 5796SOL     OW18286   4.613   0.410   6.412
 5796SOL    HW118287   4.659   0.383   6.327
 5796SOL    HW218288   4.631   0.506   6.431
 5797SOL     OW18289   5.263   1.021   0.299
 5797SOL    HW118290   5.226   1.100   0.348
 5797SOL    HW218291   5.187   0.967   0.263
 5798SOL     OW18292   0.442   3.508   4.254
 5798SOL    HW118293   0.420   3.602   4.228
 5798SOL    HW218294   0.358   3.458   4.274
 5799SOL     OW18295   0.280   0.012   3.596
 5799SOL    HW118296   0.358   0.064   3.561
 5799SOL    HW218297   0.209   0.075   3.626
 5800SOL     OW18298   0.695   0.311   1.506
 5800SOL    HW118299   0.670   0.226   1.553
 5800SOL    HW218300   0.651   0.388   1.552
 5801SOL     OW18301   2.374   2.730   3.670
 5801SOL    HW118302   2.276   2.721   3.688
 5801SOL    HW218303   2.422   2.753   3.755
 5802SOL     OW18304   6.229   3.161   2.421
 5802SOL    HW118305   6.142   3.132   2.382
 5802SOL    HW218306   6.228   3.261   2.433
 5803SOL     OW18307   0.859   4.610   3.982
 5803SOL    HW118308   0.867   4.657   4.070
 5803SOL    HW218309   0.848   4.678   3.910
 5804SOL     OW18310   6.830   6.200   3.695
 5804SOL    HW118311   6.811   6.290   3.657
 5804SOL    HW218312   6.743   6.154   3.717
 5805SOL     OW18313   1.617   2.726   0.667
 5805SOL    HW118314   1.562   2.743   0.749
 5805SOL    HW218315   1.564   2.752   0.586
 5806SOL     OW18316   0.161   4.616   5.452
 5806SOL    HW118317   0.147   4.666   5.537
 5806SOL    HW218318   0.138   4.519   5.467
 5807SOL     OW18319   1.565   5.696   0.978
 5807SOL    HW118320   1.562   5.652   1.068
 5807SOL    HW218321   1.492   5.764   0.972
 5808SOL     OW18322   7.012   6.767   5.149
 5808SOL    HW118323   0.029   6.712   5.075
 5808SOL    HW218324   6.914   6.751   5.157
 5809SOL     OW18325   6.464   2.501   5.403
 5809SOL    HW118326   6.514   2.534   5.483
 5809SOL    HW218327   6.411   2.420   5.428
 5810SOL     OW18328   3.961   0.948   5.136
 5810SOL    HW118329   3.958   0.861   5.086
 5810SOL    HW218330   3.945   1.024   5.074
 5811SOL     OW18331   2.808   2.097   5.285
 5811SOL    HW118332   2.838   2.192   5.295
 5811SOL    HW218333   2.713   2.096   5.253
 5812SOL     OW18334   5.374   3.984   5.877
 5812SOL    HW118335   5.464   3.951   5.850
 5812SOL    HW218336   5.371   3.994   5.977
 5813SOL     OW18337   3.064   6.297   0.945
 5813SOL    HW118338   3.052   6.351   1.028
 5813SOL    HW218339   3.020   6.344   0.868
 5814SOL     OW18340   6.992   2.367   1.978
 5814SOL    HW118341   7.017   2.285   1.927
 5814SOL    HW218342   0.030   2.444   1.950
 5815SOL     OW18343   5.143   1.537   4.356
 5815SOL    HW118344   5.045   1.532   4.336
 5815SOL    HW218345   5.162   1.618   4.411
 5816SOL     OW18346   6.340   4.894   1.484
 5816SOL    HW118347   6.326   4.936   1.574
 5816SOL    HW218348   6.251   4.874   1.442
 5817SOL     OW18349   6.178   5.362   5.912
 5817SOL    HW118350   6.143   5.294   5.848
 5817SOL    HW218351   6.117   5.368   5.991
 5818SOL     OW18352   0.264   5.803   4.891
 5818SOL    HW118353   0.253   5.860   4.810
 5818SOL    HW218354   0.349   5.828   4.938
 5819SOL     OW18355   2.736   5.005   6.082
 5819SOL    HW118356   2.804   5.072   6.054
 5819SOL    HW218357   2.779   4.933   6.136
 5820SOL     OW18358   4.276   4.777   2.312
 5820SOL    HW118359   4.273   4.867   2.268
 5820SOL    HW218360   4.294   4.707   2.243
 5821SOL     OW18361   6.397   1.329   1.871
 5821SOL    HW118362   6.364   1.306   1.962
 5821SOL    HW218363   6.497   1.323   1.869
 5822SOL     OW18364   1.611   2.645   2.315
 5822SOL    HW118365   1.594   2.588   2.395
 5822SOL    HW218366   1.559   2.611   2.237
 5823SOL     OW18367   2.688   6.853   4.696
 5823SOL    HW118368   2.635   6.771   4.718
 5823SOL    HW218369   2.644   6.933   4.736
 5824SOL     OW18370   0.928   6.896   3.523
 5824SOL    HW118371   0.934   6.902   3.622
 5824SOL    HW218372   1.020   6.901   3.483
 5825SOL     OW18373   0.148   5.538   4.882
 5825SOL    HW118374   0.187   5.628   4.865
 5825SOL    HW218375   0.069   5.547   4.943
 5826SOL     OW18376   0.612   6.926   6.060
 5826SOL    HW118377   0.583   6.919   5.965
 5826SOL    HW218378   0.563   6.859   6.115
 5827SOL     OW18379   1.056   3.724   4.599
 5827SOL    HW118380   0.994   3.756   4.670
 5827SOL    HW218381   1.150   3.722   4.634
 5828SOL     OW18382   4.560   0.860   3.226
 5828SOL    HW118383   4.543   0.903   3.137
 5828SOL    HW218384   4.654   0.880   3.255
 5829SOL     OW18385   1.453   0.677   4.682
 5829SOL    HW118386   1.398   0.701   4.602
 5829SOL    HW218387   1.541   0.725   4.678
 5830SOL     OW18388   4.191   6.588   5.271
 5830SOL    HW118389   4.094   6.597   5.294
 5830SOL    HW218390   4.237   6.537   5.345
 5831SOL     OW18391   1.391   1.882   5.785
 5831SOL    HW118392   1.318   1.895   5.851
 5831SOL    HW218393   1.478   1.869   5.832
 5832SOL     OW18394   3.524   4.198   0.716
 5832SOL    HW118395   3.541   4.101   0.734
 5832SOL    HW218396   3.489   4.209   0.623
 5833SOL     OW18397   3.920   3.122   5.618
 5833SOL    HW118398   3.849   3.104   5.549
 5833SOL    HW218399   3.876   3.149   5.704
 5834SOL     OW18400   6.562   3.971   6.711
 5834SOL    HW118401   6.511   4.055   6.694
 5834SOL    HW218402   6.517   3.895   6.665
 5835SOL     OW18403   6.168   2.061   2.526
 5835SOL    HW118404   6.245   2.038   2.466
 5835SOL    HW218405   6.159   1.991   2.597
 5836SOL     OW18406   2.438   6.810   1.663
 5836SOL    HW118407   2.372   6.781   1.593
 5836SOL    HW218408   2.403   6.785   1.753
 5837SOL     OW18409   4.122   3.361   6.648
 5837SOL    HW118410   4.136   3.370   6.747
 5837SOL    HW218411   4.196   3.305   6.610
 5838SOL     OW18412   3.453   1.344   1.138
 5838SOL    HW118413   3.485   1.306   1.225
 5838SOL    HW218414   3.485   1.286   1.063
 5839SOL     OW18415   0.480   2.552   0.718
 5839SOL    HW118416   0.452   2.627   0.658
 5839SOL    HW218417   0.399   2.506   0.754
 5840SOL     OW18418   0.461   3.766   0.385
 5840SOL    HW118419   0.525   3.795   0.455
 5840SOL    HW218420   0.368   3.767   0.422
 5841SOL     OW18421   5.232   0.256   1.486
 5841SOL    HW118422   5.161   0.186   1.483
 5841SOL    HW218423   5.287   0.251   1.403
 5842SOL     OW18424   4.336   2.158   1.702
 5842SOL    HW118425   4.255   2.115   1.663
 5842SOL    HW218426   4.324   2.170   1.801
 5843SOL     OW18427   1.559   3.543   1.297
 5843SOL    HW118428   1.542   3.566   1.202
 5843SOL    HW218429   1.654   3.562   1.320
 5844SOL     OW18430   1.141   6.218   5.345
 5844SOL    HW118431   1.201   6.150   5.388
 5844SOL    HW218432   1.153   6.215   5.246
 5845SOL     OW18433   1.065   0.387   2.495
 5845SOL    HW118434   1.028   0.422   2.409
 5845SOL    HW218435   1.155   0.427   2.513
 5846SOL     OW18436   6.157   3.651   5.712
 5846SOL    HW118437   6.122   3.745   5.712
 5846SOL    HW218438   6.108   3.598   5.643
 5847SOL     OW18439   2.655   2.459   1.881
 5847SOL    HW118440   2.640   2.379   1.822
 5847SOL    HW218441   2.728   2.437   1.947
 5848SOL     OW18442   1.828   5.969   3.891
 5848SOL    HW118443   1.901   5.925   3.943
 5848SOL    HW218444   1.785   5.901   3.831
 5849SOL     OW18445   1.988   0.052   5.226
 5849SOL    HW118446   2.086   0.071   5.233
 5849SOL    HW218447   1.969   0.009   5.138
 5850SOL     OW18448   0.340   3.282   1.609
 5850SOL    HW118449   0.406   3.338   1.660
 5850SOL    HW218450   0.315   3.330   1.524
 5851SOL     OW18451   5.230   3.497   3.891
 5851SOL    HW118452   5.299   3.429   3.867
 5851SOL    HW218453   5.253   3.584   3.847
 5852SOL     OW18454   4.576   6.083   2.266
 5852SOL    HW118455   4.556   6.174   2.301
 5852SOL    HW218456   4.587   6.019   2.343
 5853SOL     OW18457   4.413   5.632   5.803
 5853SOL    HW118458   4.426   5.713   5.745
 5853SOL    HW218459   4.359   5.657   5.883
 5854SOL     OW18460   4.208   4.526   5.728
 5854SOL    HW118461   4.129   4.467   5.710
 5854SOL    HW218462   4.292   4.480   5.698
 5855SOL     OW18463   1.661   2.441   4.500
 5855SOL    HW118464   1.735   2.392   4.546
 5855SOL    HW218465   1.605   2.488   4.569
 5856SOL     OW18466   1.139   6.676   2.493
 5856SOL    HW118467   1.103   6.750   2.436
 5856SOL    HW218468   1.239   6.676   2.488
 5857SOL     OW18469   6.392   3.579   5.233
 5857SOL    HW118470   6.315   3.527   5.197
 5857SOL    HW218471   6.424   3.537   5.318
 5858SOL     OW18472   2.468   2.559   2.956
 5858SOL    HW118473   2.508   2.482   2.907
 5858SOL    HW218474   2.496   2.556   3.052
 5859SOL     OW18475   6.199   5.978   1.374
 5859SOL    HW118476   6.252   5.986   1.290
 5859SOL    HW218477   6.133   6.053   1.380
 5860SOL     OW18478   0.579   4.738   3.065
 5860SOL    HW118479   0.637   4.667   3.107
 5860SOL    HW218480   0.615   4.759   2.974
 5861SOL     OW18481   4.662   0.541   4.608
 5861SOL    HW118482   4.754   0.578   4.601
 5861SOL    HW218483   4.597   0.602   4.564
 5862SOL     OW18484   6.439   5.726   1.700
 5862SOL    HW118485   6.438   5.756   1.795
 5862SOL    HW218486   6.493   5.790   1.645
 5863SOL     OW18487   3.039   1.627   4.836
 5863SOL    HW118488   3.134   1.600   4.852
 5863SOL    HW218489   3.032   1.671   4.746
 5864SOL     OW18490   3.457   3.734   2.564
 5864SOL    HW118491   3.540   3.788   2.571
 5864SOL    HW218492   3.418   3.721   2.655
 5865SOL     OW18493   5.434   0.302   5.550
 5865SOL    HW118494   5.393   0.314   5.641
 5865SOL    HW218495   5.503   0.373   5.535
 5866SOL     OW18496   3.331   2.683   0.924
 5866SOL    HW118497   3.337   2.713   1.019
 5866SOL    HW218498   3.347   2.761   0.863
 5867SOL     OW18499   1.804   2.977   1.809
 5867SOL    HW118500   1.709   2.953   1.790
 5867SOL    HW218501   1.807   3.056   1.870
 5868SOL     OW18502   1.048   1.961   5.739
 5868SOL    HW118503   1.030   2.060   5.736
 5868SOL    HW218504   1.110   1.941   5.815
 5869SOL     OW18505   1.957   4.211   3.420
 5869SOL    HW118506   2.032   4.220   3.486
 5869SOL    HW218507   1.911   4.299   3.410
 5870SOL     OW18508   4.217   6.185   5.465
 5870SOL    HW118509   4.254   6.255   5.526
 5870SOL    HW218510   4.257   6.096   5.488
 5871SOL     OW18511   4.174   3.533   2.243
 5871SOL    HW118512   4.255   3.590   2.257
 5871SOL    HW218513   4.201   3.437   2.242
 5872SOL     OW18514   4.000   6.857   0.913
 5872SOL    HW118515   4.037   6.781   0.859
 5872SOL    HW218516   3.973   6.931   0.852
 5873SOL     OW18517   3.149   6.845   2.235
 5873SOL    HW118518   3.076   6.791   2.192
 5873SOL    HW218519   3.207   6.784   2.290
 5874SOL     OW18520   2.244   4.585   4.647
 5874SOL    HW118521   2.264   4.669   4.596
 5874SOL    HW218522   2.329   4.545   4.680
 5875SOL     OW18523   3.643   2.158   0.520
 5875SOL    HW118524   3.733   2.123   0.544
 5875SOL    HW218525   3.573   2.104   0.566
 5876SOL     OW18526   3.997   3.571   2.031
 5876SOL    HW118527   3.959   3.479   2.022
 5876SOL    HW218528   4.065   3.571   2.105
 5877SOL     OW18529   6.003   6.370   0.763
 5877SOL    HW118530   5.912   6.328   0.771
 5877SOL    HW218531   5.994   6.469   0.762
 5878SOL     OW18532   0.527   6.244   3.865
 5878SOL    HW118533   0.483   6.329   3.893
 5878SOL    HW218534   0.627   6.255   3.872
 5879SOL     OW18535   1.270   3.497   0.009
 5879SOL    HW118536   1.331   3.574   0.029
 5879SOL    HW218537   1.295   3.457   6.942
 5880SOL     OW18538   3.333   4.205   0.529
 5880SOL    HW118539   3.282   4.212   0.443
 5880SOL    HW218540   3.315   4.117   0.572
 5881SOL     OW18541   6.775   5.140   3.038
 5881SOL    HW118542   6.798   5.237   3.042
 5881SOL    HW218543   6.708   5.119   3.109
 5882SOL     OW18544   6.641   6.168   1.078
 5882SOL    HW118545   6.724   6.188   1.130
 5882SOL    HW218546   6.609   6.252   1.034
 5883SOL     OW18547   0.705   1.977   6.728
 5883SOL    HW118548   0.803   1.954   6.735
 5883SOL    HW218549   0.653   1.893   6.715
 5884SOL     OW18550   2.508   1.617   3.824
 5884SOL    HW118551   2.408   1.629   3.821
 5884SOL    HW218552   2.552   1.706   3.819
 5885SOL     OW18553   0.105   0.549   2.420
 5885SOL    HW118554   0.058   0.540   2.508
 5885SOL    HW218555   0.040   0.577   2.350
 5886SOL     OW18556   0.463   1.945   5.033
 5886SOL    HW118557   0.508   1.968   4.947
 5886SOL    HW218558   0.384   1.886   5.016
 5887SOL     OW18559   3.072   1.161   3.579
 5887SOL    HW118560   2.995   1.127   3.634
 5887SOL    HW218561   3.142   1.198   3.638
 5888SOL     OW18562   2.911   0.936   2.431
 5888SOL    HW118563   2.855   0.984   2.500
 5888SOL    HW218564   2.990   0.895   2.476
 5889SOL     OW18565   0.969   6.148   1.157
 5889SOL    HW118566   1.067   6.127   1.158
 5889SOL    HW218567   0.924   6.090   1.090
 5890SOL     OW18568   1.580   6.938   5.087
 5890SOL    HW118569   1.481   6.946   5.103
 5890SOL    HW218570   1.596   6.872   5.014
 5891SOL     OW18571   2.877   2.958   6.319
 5891SOL    HW118572   2.825   2.925   6.398
 5891SOL    HW218573   2.956   2.898   6.304
 5892SOL     OW18574   0.432   5.580   1.253
 5892SOL    HW118575   0.350   5.522   1.261
 5892SOL    HW218576   0.494   5.560   1.329
 5893SOL     OW18577   1.693   4.169   4.232
 5893SOL    HW118578   1.629   4.101   4.197
 5893SOL    HW218579   1.764   4.186   4.164
 5894SOL     OW18580   0.526   5.792   4.061
 5894SOL    HW118581   0.509   5.835   3.973
 5894SOL    HW218582   0.462   5.830   4.129
 5895SOL     OW18583   5.573   3.421   4.321
 5895SOL    HW118584   5.555   3.386   4.413
 5895SOL    HW218585   5.555   3.349   4.254
 5896SOL     OW18586   4.088   1.384   0.699
 5896SOL    HW118587   4.068   1.347   0.790
 5896SOL    HW218588   4.187   1.398   0.690
 5897SOL     OW18589   3.814   0.736   1.455
 5897SOL    HW118590   3.826   0.668   1.382
 5897SOL    HW218591   3.882   0.808   1.444
 5898SOL     OW18592   2.596   6.281   3.129
 5898SOL    HW118593   2.531   6.205   3.123
 5898SOL    HW218594   2.614   6.317   3.038
 5899SOL     OW18595   5.073   6.780   5.780
 5899SOL    HW118596   5.152   6.792   5.720
 5899SOL    HW218597   5.070   6.686   5.814
 5900SOL     OW18598   5.030   5.339   3.322
 5900SOL    HW118599   5.003   5.242   3.319
 5900SOL    HW218600   4.956   5.395   3.284
 5901SOL     OW18601   2.864   0.394   0.123
 5901SOL    HW118602   2.812   0.397   0.208
 5901SOL    HW218603   2.932   0.468   0.124
 5902SOL     OW18604   6.579   2.228   6.733
 5902SOL    HW118605   6.633   2.153   6.771
 5902SOL    HW218606   6.634   2.311   6.730
 5903SOL     OW18607   4.180   3.566   0.990
 5903SOL    HW118608   4.112   3.634   1.021
 5903SOL    HW218609   4.272   3.605   1.000
 5904SOL     OW18610   1.019   3.552   1.553
 5904SOL    HW118611   0.974   3.637   1.582
 5904SOL    HW218612   0.983   3.524   1.464
 5905SOL     OW18613   6.066   6.370   3.125
 5905SOL    HW118614   6.007   6.294   3.149
 5905SOL    HW218615   6.113   6.350   3.038
 5906SOL     OW18616   4.548   1.732   3.904
 5906SOL    HW118617   4.490   1.730   3.823
 5906SOL    HW218618   4.538   1.646   3.954
 5907SOL     OW18619   1.579   5.178   1.554
 5907SOL    HW118620   1.549   5.091   1.517
 5907SOL    HW218621   1.505   5.219   1.608
 5908SOL     OW18622   0.328   2.463   6.748
 5908SOL    HW118623   0.426   2.478   6.731
 5908SOL    HW218624   0.284   2.552   6.764
 5909SOL     OW18625   6.842   4.996   1.016
 5909SOL    HW118626   6.935   5.002   1.050
 5909SOL    HW218627   6.839   5.026   0.921
 5910SOL     OW18628   0.590   2.911   3.288
 5910SOL    HW118629   0.595   2.850   3.209
 5910SOL    HW218630   0.675   2.964   3.294
 5911SOL     OW18631   6.317   6.558   6.517
 5911SOL    HW118632   6.238   6.575   6.577
 5911SOL    HW218633   6.371   6.483   6.554
 5912SOL     OW18634   0.082   0.381   5.488
 5912SOL    HW118635   0.020   0.404   5.413
 5912SOL    HW218636   0.042   0.408   5.575
 5913SOL     OW18637   4.820   2.829   6.323
 5913SOL    HW118638   4.849   2.735   6.337
 5913SOL    HW218639   4.774   2.863   6.406
 5914SOL     OW18640   1.265   5.426   6.820
 5914SOL    HW118641   1.186   5.438   6.880
 5914SOL    HW218642   1.306   5.516   6.801
 5915SOL     OW18643   4.716   6.246   1.688
 5915SOL    HW118644   4.693   6.271   1.782
 5915SOL    HW218645   4.754   6.326   1.641
 5916SOL     OW18646   6.513   6.019   3.239
 5916SOL    HW118647   6.494   6.117   3.241
 5916SOL    HW218648   6.529   5.986   3.332
 5917SOL     OW18649   3.010   3.942   4.417
 5917SOL    HW118650   2.946   3.971   4.347
 5917SOL    HW218651   2.967   3.874   4.476
 5918SOL     OW18652   2.230   4.811   5.344
 5918SOL    HW118653   2.226   4.822   5.245
 5918SOL    HW218654   2.325   4.799   5.373
 5919SOL     OW18655   3.351   3.075   3.175
 5919SOL    HW118656   3.378   3.116   3.087
 5919SOL    HW218657   3.409   2.997   3.194
 5920SOL     OW18658   5.166   0.823   6.146
 5920SOL    HW118659   5.136   0.861   6.059
 5920SOL    HW218660   5.117   0.867   6.221
 5921SOL     OW18661   4.327   5.216   6.691
 5921SOL    HW118662   4.389   5.187   6.764
 5921SOL    HW218663   4.379   5.264   6.620
 5922SOL     OW18664   5.926   4.192   4.454
 5922SOL    HW118665   6.015   4.199   4.408
 5922SOL    HW218666   5.928   4.243   4.540
 5923SOL     OW18667   6.884   1.968   1.932
 5923SOL    HW118668   6.879   1.951   1.833
 5923SOL    HW218669   6.822   1.906   1.979
 5924SOL     OW18670   6.513   0.240   2.790
 5924SOL    HW118671   6.497   0.144   2.768
 5924SOL    HW218672   6.571   0.246   2.871
 5925SOL     OW18673   3.217   6.784   1.903
 5925SOL    HW118674   3.177   6.863   1.950
 5925SOL    HW218675   3.203   6.794   1.804
 5926SOL     OW18676   3.872   4.902   2.459
 5926SOL    HW118677   3.824   4.908   2.546
 5926SOL    HW218678   3.809   4.873   2.387
 5927SOL     OW18679   0.805   5.182   2.246
 5927SOL    HW118680   0.885   5.174   2.304
 5927SOL    HW218681   0.813   5.117   2.170
 5928SOL     OW18682   3.388   0.033   0.675
 5928SOL    HW118683   3.332   7.007   0.743
 5928SOL    HW218684   3.329   0.082   0.611
 5929SOL     OW18685   6.419   0.221   5.657
 5929SOL    HW118686   6.360   0.141   5.667
 5929SOL    HW218687   6.382   0.282   5.587
 5930SOL     OW18688   0.170   3.476   3.300
 5930SOL    HW118689   0.139   3.448   3.209
 5930SOL    HW218690   0.092   3.481   3.362
 5931SOL     OW18691   6.441   6.298   3.135
 5931SOL    HW118692   6.391   6.302   3.222
 5931SOL    HW218693   6.539   6.306   3.152
 5932SOL     OW18694   3.507   0.298   0.399
 5932SOL    HW118695   3.566   0.369   0.359
 5932SOL    HW218696   3.464   0.333   0.482
 5933SOL     OW18697   6.566   5.115   4.357
 5933SOL    HW118698   6.588   5.020   4.379
 5933SOL    HW218699   6.488   5.144   4.413
 5934SOL     OW18700   3.833   2.840   5.056
 5934SOL    HW118701   3.911   2.779   5.044
 5934SOL    HW218702   3.852   2.907   5.127
 5935SOL     OW18703   6.934   4.918   6.322
 5935SOL    HW118704   6.967   4.845   6.382
 5935SOL    HW218705   7.008   4.950   6.264
 5936SOL     OW18706   3.098   3.146   1.669
 5936SOL    HW118707   3.117   3.241   1.695
 5936SOL    HW218708   3.090   3.091   1.752
 5937SOL     OW18709   5.784   3.393   1.918
 5937SOL    HW118710   5.751   3.304   1.888
 5937SOL    HW218711   5.863   3.381   1.978
 5938SOL     OW18712   6.223   5.560   3.644
 5938SOL    HW118713   6.156   5.586   3.574
 5938SOL    HW218714   6.210   5.616   3.726
 5939SOL     OW18715   2.589   5.688   3.843
 5939SOL    HW118716   2.523   5.620   3.874
 5939SOL    HW218717   2.541   5.763   3.797
 5940SOL     OW18718   4.465   5.067   2.871
 5940SOL    HW118719   4.552   5.037   2.832
 5940SOL    HW218720   4.442   5.158   2.836
 5941SOL     OW18721   5.718   3.170   2.179
 5941SOL    HW118722   5.730   3.248   2.240
 5941SOL    HW218723   5.643   3.188   2.115
 5942SOL     OW18724   5.340   3.521   6.855
 5942SOL    HW118725   5.335   3.427   6.821
 5942SOL    HW218726   5.288   3.581   6.793
 5943SOL     OW18727   3.231   3.949   5.975
 5943SOL    HW118728   3.147   3.929   6.025
 5943SOL    HW218729   3.285   3.865   5.966
 5944SOL     OW18730   6.792   2.224   0.173
 5944SOL    HW118731   6.806   2.128   0.149
 5944SOL    HW218732   6.836   2.243   0.261
 5945SOL     OW18733   6.960   4.694   5.050
 5945SOL    HW118734   6.920   4.677   4.960
 5945SOL    HW218735   6.897   4.748   5.105
 5946SOL     OW18736   3.297   3.744   6.256
 5946SOL    HW118737   3.357   3.775   6.182
 5946SOL    HW218738   3.340   3.762   6.344
 5947SOL     OW18739   3.114   3.460   3.201
 5947SOL    HW118740   3.024   3.495   3.175
 5947SOL    HW218741   3.148   3.399   3.129
 5948SOL     OW18742   3.784   4.960   2.700
 5948SOL    HW118743   3.713   4.953   2.770
 5948SOL    HW218744   3.828   5.049   2.706
 5949SOL     OW18745   5.197   4.635   1.494
 5949SOL    HW118746   5.189   4.650   1.592
 5949SOL    HW218747   5.289   4.659   1.464
 5950SOL     OW18748   5.775   1.938   4.917
 5950SOL    HW118749   5.691   1.897   4.882
 5950SOL    HW218750   5.778   1.929   5.017
 5951SOL     OW18751   0.845   5.605   4.464
 5951SOL    HW118752   0.940   5.574   4.472
 5951SOL    HW218753   0.786   5.548   4.521
 5952SOL     OW18754   5.169   6.093   3.509
 5952SOL    HW118755   5.202   6.001   3.528
 5952SOL    HW218756   5.089   6.088   3.449
 5953SOL     OW18757   6.927   4.161   4.991
 5953SOL    HW118758   6.830   4.147   5.009
 5953SOL    HW218759   6.943   4.254   4.960
 5954SOL     OW18760   6.586   5.285   5.317
 5954SOL    HW118761   6.618   5.307   5.224
 5954SOL    HW218762   6.644   5.214   5.356
 5955SOL     OW18763   4.464   5.650   2.015
 5955SOL    HW118764   4.564   5.640   2.021
 5955SOL    HW218765   4.442   5.723   1.950
 5956SOL     OW18766   5.575   1.862   4.171
 5956SOL    HW118767   5.661   1.912   4.158
 5956SOL    HW218768   5.498   1.918   4.142
 5957SOL     OW18769   3.182   1.866   4.381
 5957SOL    HW118770   3.179   1.962   4.408
 5957SOL    HW218771   3.234   1.814   4.449
 5958SOL     OW18772   4.289   6.957   2.435
 5958SOL    HW118773   4.303   0.033   2.458
 5958SOL    HW218774   4.279   6.903   2.519
 5959SOL     OW18775   4.509   2.950   5.789
 5959SOL    HW118776   4.435   3.001   5.747
 5959SOL    HW218777   4.594   2.965   5.739
 5960SOL     OW18778   3.590   5.817   4.947
 5960SOL    HW118779   3.678   5.863   4.936
 5960SOL    HW218780   3.533   5.834   4.867
 5961SOL     OW18781   4.692   1.765   2.881
 5961SOL    HW118782   4.719   1.838   2.945
 5961SOL    HW218783   4.724   1.677   2.915
 5962SOL     OW18784   5.681   6.487   6.675
 5962SOL    HW118785   5.651   6.581   6.691
 5962SOL    HW218786   5.767   6.488   6.625
 5963SOL     OW18787   2.852   3.825   6.341
 5963SOL    HW118788   2.866   3.853   6.246
 5963SOL    HW218789   2.839   3.726   6.344
 5964SOL     OW18790   1.526   6.677   4.957
 5964SOL    HW118791   1.446   6.642   5.007
 5964SOL    HW218792   1.501   6.691   4.861
 5965SOL     OW18793   2.150   1.568   0.010
 5965SOL    HW118794   2.143   1.664   7.001
 5965SOL    HW218795   2.065   1.541   0.054
 5966SOL     OW18796   2.442   6.150   6.511
 5966SOL    HW118797   2.376   6.195   6.451
 5966SOL    HW218798   2.456   6.205   6.594
 5967SOL     OW18799   2.325   0.457   5.751
 5967SOL    HW118800   2.368   0.374   5.716
 5967SOL    HW218801   2.352   0.535   5.694
 5968SOL     OW18802   5.401   2.606   0.441
 5968SOL    HW118803   5.394   2.703   0.463
 5968SOL    HW218804   5.469   2.563   0.500
 5969SOL     OW18805   6.197   0.513   6.805
 5969SOL    HW118806   6.230   0.440   6.866
 5969SOL    HW218807   6.270   0.580   6.791
 5970SOL     OW18808   6.933   4.616   1.871
 5970SOL    HW118809   6.910   4.703   1.828
 5970SOL    HW218810   6.928   4.626   1.971
 5971SOL     OW18811   6.970   0.962   1.791
 5971SOL    HW118812   7.013   1.005   1.712
 5971SOL    HW218813   0.015   0.901   1.836
 5972SOL     OW18814   4.700   5.865   6.225
 5972SOL    HW118815   4.711   5.957   6.263
 5972SOL    HW218816   4.782   5.811   6.244
 5973SOL     OW18817   1.763   2.532   2.687
 5973SOL    HW118818   1.693   2.480   2.639
 5973SOL    HW218819   1.772   2.623   2.645
 5974SOL     OW18820   5.191   6.142   0.288
 5974SOL    HW118821   5.260   6.097   0.346
 5974SOL    HW218822   5.118   6.077   0.267
 5975SOL     OW18823   3.682   0.060   1.013
 5975SOL    HW118824   3.650   6.993   1.050
 5975SOL    HW218825   3.628   0.084   0.932
 5976SOL     OW18826   4.148   3.013   5.741
 5976SOL    HW118827   4.082   3.073   5.695
 5976SOL    HW218828   4.105   2.971   5.820
 5977SOL     OW18829   1.302   5.726   0.785
 5977SOL    HW118830   1.281   5.768   0.697
 5977SOL    HW218831   1.394   5.688   0.783
 5978SOL     OW18832   3.359   5.470   1.670
 5978SOL    HW118833   3.452   5.476   1.632
 5978SOL    HW218834   3.330   5.375   1.672
 5979SOL     OW18835   6.853   0.712   2.778
 5979SOL    HW118836   6.782   0.676   2.839
 5979SOL    HW218837   6.814   0.728   2.687
 5980SOL     OW18838   3.902   4.061   1.394
 5980SOL    HW118839   3.826   4.104   1.346
 5980SOL    HW218840   3.870   4.026   1.482
 5981SOL     OW18841   4.935   1.515   0.548
 5981SOL    HW118842   4.903   1.423   0.571
 5981SOL    HW218843   4.959   1.519   0.451
 5982SOL     OW18844   6.363   2.097   3.007
 5982SOL    HW118845   6.306   2.015   3.001
 5982SOL    HW218846   6.358   2.148   2.922
 5983SOL     OW18847   0.899   1.382   4.480
 5983SOL    HW118848   0.922   1.476   4.457
 5983SOL    HW218849   0.806   1.379   4.516
 5984SOL     OW18850   5.545   6.394   3.242
 5984SOL    HW118851   5.562   6.296   3.238
 5984SOL    HW218852   5.475   6.418   3.174
 5985SOL     OW18853   6.714   2.899   3.333
 5985SOL    HW118854   6.683   2.851   3.252
 5985SOL    HW218855   6.637   2.945   3.377
 5986SOL     OW18856   2.960   3.906   4.795
 5986SOL    HW118857   2.929   3.961   4.718
 5986SOL    HW218858   2.888   3.840   4.820
 5987SOL     OW18859   5.036   0.469   4.459
 5987SOL    HW118860   5.005   0.519   4.540
 5987SOL    HW218861   5.102   0.524   4.409
 5988SOL     OW18862   4.675   0.750   5.765
 5988SOL    HW118863   4.684   0.667   5.819
 5988SOL    HW218864   4.587   0.793   5.785
 5989SOL     OW18865   1.961   5.519   6.007
 5989SOL    HW118866   1.924   5.464   5.932
 5989SOL    HW218867   2.044   5.565   5.978
 5990SOL     OW18868   3.846   3.371   0.507
 5990SOL    HW118869   3.769   3.432   0.524
 5990SOL    HW218870   3.844   3.295   0.572
 5991SOL     OW18871   3.890   5.813   6.745
 5991SOL    HW118872   3.810   5.795   6.689
 5991SOL    HW218873   3.862   5.830   6.840
 5992SOL     OW18874   3.246   0.203   1.987
 5992SOL    HW118875   3.193   0.130   2.029
 5992SOL    HW218876   3.188   0.257   1.927
 5993SOL     OW18877   3.921   4.062   5.775
 5993SOL    HW118878   3.939   4.072   5.677
 5993SOL    HW218879   3.823   4.071   5.792
 5994SOL     OW18880   6.861   2.186   0.485
 5994SOL    HW118881   6.786   2.229   0.536
 5994SOL    HW218882   6.863   2.088   0.507
 5995SOL     OW18883   4.875   3.123   2.265
 5995SOL    HW118884   4.914   3.184   2.195
 5995SOL    HW218885   4.800   3.070   2.225
 5996SOL     OW18886   0.238   6.306   0.667
 5996SOL    HW118887   0.287   6.220   0.675
 5996SOL    HW218888   0.192   6.310   0.578
 5997SOL     OW18889   0.347   5.277   2.857
 5997SOL    HW118890   0.291   5.197   2.877
 5997SOL    HW218891   0.392   5.264   2.768
 5998SOL     OW18892   6.283   1.747   2.287
 5998SOL    HW118893   6.188   1.757   2.256
 5998SOL    HW218894   6.317   1.835   2.319
 5999SOL     OW18895   2.822   3.310   1.374
 5999SOL    HW118896   2.861   3.220   1.394
 5999SOL    HW218897   2.820   3.323   1.274
 6000SOL     OW18898   2.016   6.037   6.785
 6000SOL    HW118899   1.958   5.967   6.827
 6000SOL    HW218900   2.091   6.060   6.847
 6001SOL     OW18901   0.084   4.879   6.637
 6001SOL    HW118902   0.157   4.825   6.679
 6001SOL    HW218903   0.010   4.818   6.609
 6002SOL     OW18904   5.580   6.879   6.928
 6002SOL    HW118905   5.653   6.945   6.945
 6002SOL    HW218906   5.588   6.803   6.992
 6003SOL     OW18907   5.559   1.954   5.196
 6003SOL    HW118908   5.512   1.869   5.218
 6003SOL    HW218909   5.657   1.944   5.214
 6004SOL     OW18910   6.559   3.788   3.016
 6004SOL    HW118911   6.606   3.874   3.036
 6004SOL    HW218912   6.496   3.803   2.939
 6005SOL     OW18913   5.430   5.318   4.877
 6005SOL    HW118914   5.509   5.372   4.848
 6005SOL    HW218915   5.358   5.324   4.808
 6006SOL     OW18916   2.119   1.140   5.081
 6006SOL    HW118917   2.214   1.114   5.065
 6006SOL    HW218918   2.058   1.066   5.050
 6007SOL     OW18919   6.277   3.511   5.919
 6007SOL    HW118920   6.264   3.589   5.980
 6007SOL    HW218921   6.268   3.541   5.824
 6008SOL     OW18922   2.833   5.094   5.476
 6008SOL    HW118923   2.927   5.077   5.447
 6008SOL    HW218924   2.826   5.078   5.575
 6009SOL     OW18925   3.385   0.664   3.707
 6009SOL    HW118926   3.412   0.569   3.721
 6009SOL    HW218927   3.465   0.717   3.679
 6010SOL     OW18928   1.397   4.574   4.266
 6010SOL    HW118929   1.386   4.506   4.338
 6010SOL    HW218930   1.427   4.660   4.306
 6011SOL     OW18931   6.104   3.244   3.412
 6011SOL    HW118932   6.071   3.302   3.487
 6011SOL    HW218933   6.037   3.172   3.395
 6012SOL     OW18934   5.672   0.828   0.777
 6012SOL    HW118935   5.673   0.913   0.831
 6012SOL    HW218936   5.736   0.837   0.700
 6013SOL     OW18937   4.595   0.915   2.656
 6013SOL    HW118938   4.572   0.974   2.578
 6013SOL    HW218939   4.649   0.838   2.624
 6014SOL     OW18940   3.637   4.118   3.491
 6014SOL    HW118941   3.617   4.145   3.585
 6014SOL    HW218942   3.553   4.117   3.437
 6015SOL     OW18943   5.860   4.524   4.578
 6015SOL    HW118944   5.775   4.489   4.618
 6015SOL    HW218945   5.898   4.595   4.637
 6016SOL     OW18946   6.683   1.641   6.140
 6016SOL    HW118947   6.729   1.694   6.211
 6016SOL    HW218948   6.589   1.622   6.167
 6017SOL     OW18949   6.165   4.808   4.217
 6017SOL    HW118950   6.082   4.845   4.176
 6017SOL    HW218951   6.245   4.858   4.183
 6018SOL     OW18952   3.581   1.302   6.286
 6018SOL    HW118953   3.498   1.342   6.324
 6018SOL    HW218954   3.569   1.204   6.272
 6019SOL     OW18955   0.770   2.758   5.021
 6019SOL    HW118956   0.720   2.698   5.083
 6019SOL    HW218957   0.868   2.742   5.031
 6020SOL     OW18958   0.543   4.928   0.275
 6020SOL    HW118959   0.601   4.849   0.298
 6020SOL    HW218960   0.568   4.962   0.185
 6021SOL     OW18961   4.335   0.777   3.373
 6021SOL    HW118962   4.422   0.803   3.330
 6021SOL    HW218963   4.292   0.704   3.320
 6022SOL     OW18964   6.683   1.602   3.655
 6022SOL    HW118965   6.614   1.605   3.728
 6022SOL    HW218966   6.641   1.634   3.569
 6023SOL     OW18967   5.257   1.094   1.797
 6023SOL    HW118968   5.251   1.033   1.718
 6023SOL    HW218969   5.307   1.177   1.771
 6024SOL     OW18970   1.367   4.727   1.676
 6024SOL    HW118971   1.328   4.636   1.681
 6024SOL    HW218972   1.310   4.785   1.617
 6025SOL     OW18973   3.034   1.950   3.589
 6025SOL    HW118974   2.985   1.934   3.504
 6025SOL    HW218975   2.999   1.889   3.660
 6026SOL     OW18976   0.023   5.344   5.226
 6026SOL    HW118977   0.093   5.282   5.193
 6026SOL    HW218978   0.056   5.392   5.308
 6027SOL     OW18979   6.975   3.806   6.132
 6027SOL    HW118980   6.960   3.833   6.227
 6027SOL    HW218981   0.041   3.757   6.124
 6028SOL     OW18982   5.799   4.736   0.931
 6028SOL    HW118983   5.862   4.810   0.909
 6028SOL    HW218984   5.850   4.659   0.970
 6029SOL     OW18985   2.885   6.408   3.850
 6029SOL    HW118986   2.827   6.480   3.886
 6029SOL    HW218987   2.837   6.358   3.778
 6030SOL     OW18988   4.439   4.863   3.046
 6030SOL    HW118989   4.428   4.935   2.976
 6030SOL    HW218990   4.464   4.906   3.133
 6031SOL     OW18991   3.441   5.366   4.067
 6031SOL    HW118992   3.516   5.377   4.133
 6031SOL    HW218993   3.476   5.320   3.985
 6032SOL     OW18994   2.168   4.728   2.303
 6032SOL    HW118995   2.259   4.768   2.306
 6032SOL    HW218996   2.102   4.795   2.269
 6033SOL     OW18997   2.056   2.571   3.216
 6033SOL    HW118998   2.147   2.530   3.220
 6033SOL    HW218999   2.045   2.620   3.130
 6034SOL     OW19000   1.136   0.816   5.230
 6034SOL    HW119001   1.127   0.794   5.133
 6034SOL    HW219002   1.232   0.829   5.253
 6035SOL     OW19003   1.020   1.167   1.606
 6035SOL    HW119004   0.929   1.196   1.578
 6035SOL    HW219005   1.054   1.229   1.677
 6036SOL     OW19006   5.060   5.407   2.623
 6036SOL    HW119007   5.136   5.344   2.609
 6036SOL    HW219008   5.094   5.501   2.631
 6037SOL     OW19009   3.843   0.492   0.622
 6037SOL    HW119010   3.892   0.568   0.664
 6037SOL    HW219011   3.776   0.456   0.687
 6038SOL     OW19012   1.552   3.121   6.168
 6038SOL    HW119013   1.584   3.047   6.227
 6038SOL    HW219014   1.502   3.083   6.091
 6039SOL     OW19015   3.681   3.322   2.923
 6039SOL    HW119016   3.703   3.378   2.843
 6039SOL    HW219017   3.765   3.306   2.975
 6040SOL     OW19018   1.493   2.090   1.114
 6040SOL    HW119019   1.414   2.110   1.055
 6040SOL    HW219020   1.478   2.003   1.161
 6041SOL     OW19021   3.105   1.277   5.363
 6041SOL    HW119022   3.136   1.195   5.412
 6041SOL    HW219023   3.092   1.351   5.428
 6042SOL     OW19024   4.292   6.835   2.703
 6042SOL    HW119025   4.322   6.742   2.724
 6042SOL    HW219026   4.349   6.900   2.753
 6043SOL     OW19027   1.139   6.421   5.488
 6043SOL    HW119028   1.165   6.338   5.439
 6043SOL    HW219029   1.041   6.436   5.480
 6044SOL     OW19030   1.646   2.613   1.468
 6044SOL    HW119031   1.690   2.571   1.547
 6044SOL    HW219032   1.559   2.568   1.451
 6045SOL     OW19033   5.707   4.082   2.992
 6045SOL    HW119034   5.637   4.014   2.973
 6045SOL    HW219035   5.665   4.171   3.005
 6046SOL     OW19036   3.329   2.737   1.405
 6046SOL    HW119037   3.297   2.716   1.497
 6046SOL    HW219038   3.375   2.656   1.367
 6047SOL     OW19039   5.144   1.618   1.780
 6047SOL    HW119040   5.235   1.603   1.818
 6047SOL    HW219041   5.079   1.632   1.854
 6048SOL     OW19042   4.599   5.162   5.115
 6048SOL    HW119043   4.595   5.159   5.015
 6048SOL    HW219044   4.687   5.125   5.146
 6049SOL     OW19045   4.611   3.780   0.101
 6049SOL    HW119046   4.526   3.814   0.140
 6049SOL    HW219047   4.592   3.735   0.013
 6050SOL     OW19048   2.547   4.794   6.154
 6050SOL    HW119049   2.586   4.885   6.172
 6050SOL    HW219050   2.614   4.739   6.105
 6051SOL     OW19051   1.903   0.184   3.346
 6051SOL    HW119052   1.808   0.205   3.367
 6051SOL    HW219053   1.963   0.241   3.403
 6052SOL     OW19054   5.124   1.186   1.034
 6052SOL    HW119055   5.089   1.268   0.988
 6052SOL    HW219056   5.156   1.120   0.965
 6053SOL     OW19057   3.944   1.076   6.134
 6053SOL    HW119058   3.886   1.068   6.053
 6053SOL    HW219059   3.890   1.059   6.216
 6054SOL     OW19060   2.642   3.523   0.047
 6054SOL    HW119061   2.607   3.430   0.049
 6054SOL    HW219062   2.636   3.563   0.138
 6055SOL     OW19063   5.483   6.944   5.411
 6055SOL    HW119064   5.556   6.960   5.477
 6055SOL    HW219065   5.424   6.870   5.444
 6056SOL     OW19066   4.996   3.540   5.233
 6056SOL    HW119067   4.973   3.546   5.330
 6056SOL    HW219068   4.913   3.524   5.180
 6057SOL     OW19069   0.130   0.986   2.201
 6057SOL    HW119070   0.038   1.023   2.214
 6057SOL    HW219071   0.197   1.060   2.208
 6058SOL     OW19072   5.637   4.236   1.078
 6058SOL    HW119073   5.654   4.211   0.983
 6058SOL    HW219074   5.622   4.335   1.084
 6059SOL     OW19075   4.791   5.288   6.528
 6059SOL    HW119076   4.808   5.208   6.470
 6059SOL    HW219077   4.782   5.258   6.623
 6060SOL     OW19078   2.822   3.171   5.865
 6060SOL    HW119079   2.783   3.087   5.904
 6060SOL    HW219080   2.912   3.187   5.906
 6061SOL     OW19081   5.194   3.280   0.525
 6061SOL    HW119082   5.162   3.227   0.604
 6061SOL    HW219083   5.120   3.288   0.458
 6062SOL     OW19084   2.404   1.339   5.728
 6062SOL    HW119085   2.473   1.326   5.657
 6062SOL    HW219086   2.404   1.260   5.789
 6063SOL     OW19087   4.370   2.472   6.194
 6063SOL    HW119088   4.445   2.538   6.193
 6063SOL    HW219089   4.407   2.380   6.208
 6064SOL     OW19090   1.272   0.516   0.757
 6064SOL    HW119091   1.191   0.535   0.812
 6064SOL    HW219092   1.345   0.580   0.781
 6065SOL     OW19093   1.010   6.274   2.754
 6065SOL    HW119094   1.040   6.179   2.745
 6065SOL    HW219095   0.999   6.297   2.851
 6066SOL     OW19096   5.409   1.709   5.212
 6066SOL    HW119097   5.341   1.696   5.140
 6066SOL    HW219098   5.469   1.630   5.215
 6067SOL     OW19099   5.104   0.937   5.918
 6067SOL    HW119100   5.173   0.988   5.866
 6067SOL    HW219101   5.022   0.993   5.928
 6068SOL     OW19102   4.688   2.789   4.479
 6068SOL    HW119103   4.625   2.718   4.513
 6068SOL    HW219104   4.779   2.750   4.469
 6069SOL     OW19105   5.745   2.866   5.027
 6069SOL    HW119106   5.658   2.883   4.981
 6069SOL    HW219107   5.768   2.945   5.084
 6070SOL     OW19108   2.726   2.516   1.279
 6070SOL    HW119109   2.639   2.565   1.286
 6070SOL    HW219110   2.742   2.465   1.364
 6071SOL     OW19111   6.775   5.674   5.245
 6071SOL    HW119112   6.743   5.728   5.323
 6071SOL    HW219113   6.702   5.666   5.178
 6072SOL     OW19114   0.274   0.405   1.732
 6072SOL    HW119115   0.189   0.366   1.766
 6072SOL    HW219116   0.351   0.368   1.784
 6073SOL     OW19117   5.407   2.878   0.954
 6073SOL    HW119118   5.502   2.866   0.925
 6073SOL    HW219119   5.348   2.817   0.900
 6074SOL     OW19120   1.032   5.660   2.344
 6074SOL    HW119121   0.957   5.593   2.349
 6074SOL    HW219122   1.104   5.624   2.285
 6075SOL     OW19123   4.619   0.043   5.711
 6075SOL    HW119124   4.664   6.986   5.756
 6075SOL    HW219125   4.688   0.108   5.680
 6076SOL     OW19126   3.480   5.314   3.151
 6076SOL    HW119127   3.427   5.352   3.075
 6076SOL    HW219128   3.558   5.374   3.171
 6077SOL     OW19129   6.329   5.249   1.682
 6077SOL    HW119130   6.325   5.348   1.696
 6077SOL    HW219131   6.405   5.227   1.620
 6078SOL     OW19132   4.998   5.442   0.362
 6078SOL    HW119133   5.069   5.445   0.432
 6078SOL    HW219134   5.024   5.375   0.291
 6079SOL     OW19135   4.960   3.623   5.508
 6079SOL    HW119136   4.976   3.547   5.571
 6079SOL    HW219137   5.045   3.676   5.499
 6080SOL     OW19138   0.009   5.980   0.923
 6080SOL    HW119139   0.067   6.048   0.878
 6080SOL    HW219140   0.050   5.955   1.011
 6081SOL     OW19141   6.759   2.980   5.520
 6081SOL    HW119142   6.689   2.910   5.505
 6081SOL    HW219143   6.822   2.982   5.442
 6082SOL     OW19144   2.726   0.170   3.412
 6082SOL    HW119145   2.756   0.085   3.369
 6082SOL    HW219146   2.678   0.227   3.345
 6083SOL     OW19147   6.152   6.103   0.556
 6083SOL    HW119148   6.212   6.097   0.476
 6083SOL    HW219149   6.153   6.197   0.591
 6084SOL     OW19150   0.859   6.801   2.877
 6084SOL    HW119151   0.876   6.707   2.847
 6084SOL    HW219152   0.823   6.801   2.970
 6085SOL     OW19153   0.331   6.968   0.109
 6085SOL    HW119154   0.231   6.977   0.118
 6085SOL    HW219155   0.376   0.004   0.178
 6086SOL     OW19156   2.823   1.462   5.714
 6086SOL    HW119157   2.738   1.511   5.694
 6086SOL    HW219158   2.868   1.438   5.628
 6087SOL     OW19159   3.653   5.943   1.276
 6087SOL    HW119160   3.600   5.952   1.193
 6087SOL    HW219161   3.609   5.878   1.338
 6088SOL     OW19162   5.648   6.439   4.800
 6088SOL    HW119163   5.729   6.409   4.851
 6088SOL    HW219164   5.675   6.466   4.708
 6089SOL     OW19165   5.347   2.370   2.729
 6089SOL    HW119166   5.313   2.314   2.653
 6089SOL    HW219167   5.273   2.428   2.763
 6090SOL     OW19168   2.786   5.719   4.484
 6090SOL    HW119169   2.774   5.812   4.450
 6090SOL    HW219170   2.877   5.685   4.458
 6091SOL     OW19171   2.344   1.475   6.860
 6091SOL    HW119172   2.259   1.506   6.903
 6091SOL    HW219173   2.422   1.503   6.917
 6092SOL     OW19174   4.039   0.502   2.695
 6092SOL    HW119175   4.027   0.515   2.597
 6092SOL    HW219176   4.116   0.557   2.727
 6093SOL     OW19177   2.137   2.931   2.163
 6093SOL    HW119178   2.132   3.024   2.125
 6093SOL    HW219179   2.072   2.872   2.116
 6094SOL     OW19180   1.347   5.911   2.702
 6094SOL    HW119181   1.357   5.863   2.614
 6094SOL    HW219182   1.430   5.965   2.720
 6095SOL     OW19183   4.905   4.770   6.957
 6095SOL    HW119184   4.947   4.711   6.887
 6095SOL    HW219185   4.807   4.776   6.940
 6096SOL     OW19186   6.127   0.247   3.428
 6096SOL    HW119187   6.195   0.186   3.387
 6096SOL    HW219188   6.036   0.206   3.419
 6097SOL     OW19189   1.829   5.749   2.182
 6097SOL    HW119190   1.916   5.777   2.143
 6097SOL    HW219191   1.837   5.657   2.220
 6098SOL     OW19192   0.265   1.504   5.567
 6098SOL    HW119193   0.306   1.576   5.510
 6098SOL    HW219194   0.301   1.511   5.660
 6099SOL     OW19195   5.472   6.449   6.476
 6099SOL    HW119196   5.554   6.468   6.531
 6099SOL    HW219197   5.396   6.506   6.507
 6100SOL     OW19198   5.350   6.000   1.659
 6100SOL    HW119199   5.250   5.992   1.655
 6100SOL    HW219200   5.379   6.019   1.753
 6101SOL     OW19201   6.924   3.092   3.289
 6101SOL    HW119202   6.993   3.072   3.219
 6101SOL    HW219203   6.850   3.025   3.283
 6102SOL     OW19204   3.593   5.831   2.922
 6102SOL    HW119205   3.631   5.923   2.928
 6102SOL    HW219206   3.500   5.836   2.885
 6103SOL     OW19207   5.928   1.137   2.160
 6103SOL    HW119208   5.874   1.056   2.182
 6103SOL    HW219209   6.008   1.109   2.106
 6104SOL     OW19210   5.445   0.171   5.313
 6104SOL    HW119211   5.429   0.238   5.386
 6104SOL    HW219212   5.458   0.080   5.352
 6105SOL     OW19213   2.778   5.612   6.475
 6105SOL    HW119214   2.790   5.516   6.451
 6105SOL    HW219215   2.699   5.622   6.536
 6106SOL     OW19216   1.087   4.627   6.200
 6106SOL    HW119217   1.093   4.616   6.300
 6106SOL    HW219218   1.179   4.629   6.162
 6107SOL     OW19219   4.675   5.992   4.975
 6107SOL    HW119220   4.678   5.935   5.058
 6107SOL    HW219221   4.593   6.049   4.977
 6108SOL     OW19222   2.254   2.765   2.336
 6108SOL    HW119223   2.291   2.686   2.286
 6108SOL    HW219224   2.228   2.836   2.271
 6109SOL     OW19225   5.790   1.838   5.169
 6109SOL    HW119226   5.851   1.823   5.247
 6109SOL    HW219227   5.733   1.756   5.156
 6110SOL     OW19228   2.830   3.894   1.115
 6110SOL    HW119229   2.885   3.866   1.036
 6110SOL    HW219230   2.752   3.949   1.084
 6111SOL     OW19231   1.223   3.129   2.291
 6111SOL    HW119232   1.168   3.124   2.208
 6111SOL    HW219233   1.320   3.126   2.266
 6112SOL     OW19234   2.855   0.091   2.753
 6112SOL    HW119235   2.779   0.138   2.708
 6112SOL    HW219236   2.824   0.051   2.839
 6113SOL     OW19237   2.889   2.181   6.284
 6113SOL    HW119238   2.909   2.266   6.333
 6113SOL    HW219239   2.864   2.110   6.350
 6114SOL     OW19240   5.126   4.661   2.288
 6114SOL    HW119241   5.158   4.666   2.383
 6114SOL    HW219242   5.027   4.674   2.285
 6115SOL     OW19243   5.743   0.312   4.725
 6115SOL    HW119244   5.774   0.219   4.744
 6115SOL    HW219245   5.651   0.325   4.761
 6116SOL     OW19246   4.483   1.965   6.336
 6116SOL    HW119247   4.501   1.889   6.273
 6116SOL    HW219248   4.569   1.994   6.378
 6117SOL     OW19249   1.552   1.173   3.459
 6117SOL    HW119250   1.567   1.082   3.499
 6117SOL    HW219251   1.588   1.243   3.522
 6118SOL     OW19252   6.001   1.059   1.032
 6118SOL    HW119253   6.088   1.097   1.065
 6118SOL    HW219254   5.952   1.129   0.981
 6119SOL     OW19255   0.894   3.827   0.015
 6119SOL    HW119256   0.921   3.767   6.961
 6119SOL    HW219257   0.802   3.862   7.019
 6120SOL     OW19258   3.351   6.472   5.696
 6120SOL    HW119259   3.337   6.400   5.628
 6120SOL    HW219260   3.410   6.437   5.769
 6121SOL     OW19261   0.748   3.566   4.936
 6121SOL    HW119262   0.750   3.555   4.837
 6121SOL    HW219263   0.755   3.477   4.980
 6122SOL     OW19264   4.233   5.102   0.383
 6122SOL    HW119265   4.210   5.156   0.302
 6122SOL    HW219266   4.150   5.056   0.417
 6123SOL     OW19267   5.292   6.871   6.419
 6123SOL    HW119268   5.264   6.827   6.334
 6123SOL    HW219269   5.211   6.887   6.476
 6124SOL     OW19270   1.363   6.830   5.709
 6124SOL    HW119271   1.441   6.769   5.699
 6124SOL    HW219272   1.328   6.826   5.802
 6125SOL     OW19273   2.229   4.031   7.019
 6125SOL    HW119274   2.198   4.103   6.957
 6125SOL    HW219275   2.298   4.067   0.060
 6126SOL     OW19276   0.123   0.573   3.954
 6126SOL    HW119277   0.210   0.540   3.916
 6126SOL    HW219278   0.056   0.581   3.880
 6127SOL     OW19279   3.281   6.980   0.912
 6127SOL    HW119280   3.342   6.971   0.991
 6127SOL    HW219281   3.232   6.894   0.899
 6128SOL     OW19282   6.491   4.777   0.875
 6128SOL    HW119283   6.534   4.800   0.963
 6128SOL    HW219284   6.464   4.681   0.875
 6129SOL     OW19285   6.900   3.097   2.073
 6129SOL    HW119286   6.875   3.005   2.043
 6129SOL    HW219287   6.866   3.164   2.007
 6130SOL     OW19288   5.123   2.781   2.497
 6130SOL    HW119289   5.158   2.757   2.407
 6130SOL    HW219290   5.113   2.881   2.504
 6131SOL     OW19291   0.283   1.771   3.334
 6131SOL    HW119292   0.298   1.844   3.268
 6131SOL    HW219293   0.339   1.787   3.415
 6132SOL     OW19294   4.392   1.874   7.018
 6132SOL    HW119295   4.353   1.842   6.932
 6132SOL    HW219296   4.321   1.871   0.068
 6133SOL     OW19297   2.119   3.553   3.286
 6133SOL    HW119298   2.074   3.503   3.213
 6133SOL    HW219299   2.168   3.490   3.346
 6134SOL     OW19300   4.083   5.392   0.007
 6134SOL    HW119301   4.062   5.325   6.957
 6134SOL    HW219302   4.092   5.483   6.986
 6135SOL     OW19303   6.951   6.973   0.304
 6135SOL    HW119304   6.888   6.896   0.313
 6135SOL    HW219305   0.015   6.953   0.353
 6136SOL     OW19306   0.977   3.426   1.791
 6136SOL    HW119307   1.072   3.421   1.821
 6136SOL    HW219308   0.973   3.454   1.695
 6137SOL     OW19309   0.004   3.840   2.263
 6137SOL    HW119310   0.099   3.831   2.293
 6137SOL    HW219311   6.978   3.752   2.273
 6138SOL     OW19312   3.626   0.102   2.652
 6138SOL    HW119313   3.650   0.093   2.556
 6138SOL    HW219314   3.550   0.039   2.673
 6139SOL     OW19315   1.402   6.830   6.135
 6139SOL    HW119316   1.366   6.921   6.114
 6139SOL    HW219317   1.347   6.761   6.088
 6140SOL     OW19318   1.100   0.469   2.032
 6140SOL    HW119319   1.157   0.545   2.000
 6140SOL    HW219320   1.147   0.383   2.016
 6141SOL     OW19321   0.562   7.014   6.327
 6141SOL    HW119322   0.587   6.997   6.231
 6141SOL    HW219323   0.549   6.926   6.374
 6142SOL     OW19324   0.346   6.011   6.346
 6142SOL    HW119325   0.428   6.003   6.289
 6142SOL    HW219326   0.362   5.965   6.433
 6143SOL     OW19327   6.574   3.029   1.207
 6143SOL    HW119328   6.644   3.021   1.278
 6143SOL    HW219329   6.611   2.998   1.119
 6144SOL     OW19330   4.820   4.927   4.743
 6144SOL    HW119331   4.723   4.909   4.760
 6144SOL    HW219332   4.850   4.875   4.663
 6145SOL     OW19333   5.314   5.017   4.538
 6145SOL    HW119334   5.304   4.951   4.613
 6145SOL    HW219335   5.388   5.081   4.559
 6146SOL     OW19336   3.425   5.462   3.449
 6146SOL    HW119337   3.519   5.444   3.478
 6146SOL    HW219338   3.364   5.462   3.528
 6147SOL     OW19339   2.224   2.340   4.984
 6147SOL    HW119340   2.126   2.353   4.965
 6147SOL    HW219341   2.234   2.290   5.070
 6148SOL     OW19342   4.252   6.861   5.074
 6148SOL    HW119343   4.316   6.932   5.104
 6148SOL    HW219344   4.216   6.813   5.155
 6149SOL     OW19345   2.500   6.967   1.307
 6149SOL    HW119346   2.445   7.009   1.235
 6149SOL    HW219347   2.519   6.872   1.283
 6150SOL     OW19348   6.012   4.902   0.810
 6150SOL    HW119349   6.090   4.954   0.844
 6150SOL    HW219350   6.040   4.849   0.730
 6151SOL     OW19351   6.406   5.107   6.438
 6151SOL    HW119352   6.369   5.126   6.347
 6151SOL    HW219353   6.469   5.029   6.433
 6152SOL     OW19354   6.925   5.810   4.612
 6152SOL    HW119355   6.997   5.817   4.543
 6152SOL    HW219356   6.846   5.764   4.571
 6153SOL     OW19357   5.387   4.492   1.006
 6153SOL    HW119358   5.389   4.580   1.054
 6153SOL    HW219359   5.306   4.489   0.946
 6154SOL     OW19360   6.439   2.498   2.683
 6154SOL    HW119361   6.445   2.433   2.759
 6154SOL    HW219362   6.361   2.559   2.698
 6155SOL     OW19363   1.516   1.230   3.190
 6155SOL    HW119364   1.524   1.203   3.286
 6155SOL    HW219365   1.420   1.232   3.163
 6156SOL     OW19366   4.571   4.714   2.105
 6156SOL    HW119367   4.583   4.694   2.202
 6156SOL    HW219368   4.524   4.638   2.060
 6157SOL     OW19369   6.898   1.841   4.153
 6157SOL    HW119370   6.804   1.806   4.155
 6157SOL    HW219371   6.898   1.937   4.182
 6158SOL     OW19372   3.930   1.794   6.921
 6158SOL    HW119373   3.913   1.858   6.997
 6158SOL    HW219374   3.890   1.831   6.837
 6159SOL     OW19375   4.542   2.065   1.345
 6159SOL    HW119376   4.552   1.967   1.359
 6159SOL    HW219377   4.449   2.086   1.316
 6160SOL     OW19378   5.123   0.707   6.545
 6160SOL    HW119379   5.175   0.626   6.573
 6160SOL    HW219380   5.053   0.727   6.613
 6161SOL     OW19381   5.760   1.786   6.084
 6161SOL    HW119382   5.669   1.824   6.067
 6161SOL    HW219383   5.792   1.816   6.174
 6162SOL     OW19384   6.584   6.451   3.716
 6162SOL    HW119385   6.516   6.384   3.687
 6162SOL    HW219386   6.655   6.458   3.645
 6163SOL     OW19387   6.069   6.216   1.506
 6163SOL    HW119388   6.088   6.168   1.591
 6163SOL    HW219389   6.116   6.304   1.506
 6164SOL     OW19390   3.651   3.854   3.796
 6164SOL    HW119391   3.640   3.951   3.775
 6164SOL    HW219392   3.653   3.842   3.895
 6165SOL     OW19393   4.312   1.508   6.759
 6165SOL    HW119394   4.395   1.515   6.703
 6165SOL    HW219395   4.283   1.412   6.763
 6166SOL     OW19396   5.912   1.857   6.319
 6166SOL    HW119397   5.885   1.828   6.411
 6166SOL    HW219398   5.977   1.791   6.281
 6167SOL     OW19399   0.934   5.111   3.027
 6167SOL    HW119400   0.866   5.051   3.071
 6167SOL    HW219401   1.024   5.068   3.034
 6168SOL     OW19402   1.775   3.225   2.730
 6168SOL    HW119403   1.705   3.251   2.664
 6168SOL    HW219404   1.732   3.209   2.819
 6169SOL     OW19405   1.080   2.021   0.407
 6169SOL    HW119406   1.136   1.986   0.331
 6169SOL    HW219407   1.099   2.118   0.420
 6170SOL     OW19408   2.580   4.023   5.319
 6170SOL    HW119409   2.537   4.003   5.231
 6170SOL    HW219410   2.583   4.122   5.332
 6171SOL     OW19411   1.839   3.641   0.876
 6171SOL    HW119412   1.793   3.567   0.827
 6171SOL    HW219413   1.824   3.631   0.974
 6172SOL     OW19414   1.821   1.504   3.550
 6172SOL    HW119415   1.896   1.441   3.571
 6172SOL    HW219416   1.856   1.585   3.504
 6173SOL     OW19417   6.449   5.102   2.157
 6173SOL    HW119418   6.418   5.040   2.085
 6173SOL    HW219419   6.476   5.049   2.237
 6174SOL     OW19420   5.221   5.397   3.513
 6174SOL    HW119421   5.156   5.380   3.439
 6174SOL    HW219422   5.217   5.324   3.580
 6175SOL     OW19423   4.485   0.703   3.656
 6175SOL    HW119424   4.425   0.735   3.583
 6175SOL    HW219425   4.559   0.648   3.617
 6176SOL     OW19426   5.804   3.034   6.992
 6176SOL    HW119427   5.767   3.126   7.010
 6176SOL    HW219428   5.740   2.984   6.933
 6177SOL     OW19429   5.730   0.789   1.127
 6177SOL    HW119430   5.764   0.882   1.114
 6177SOL    HW219431   5.635   0.784   1.095
 6178SOL     OW19432   4.617   4.349   3.458
 6178SOL    HW119433   4.607   4.312   3.550
 6178SOL    HW219434   4.703   4.319   3.419
 6179SOL     OW19435   6.783   4.604   4.180
 6179SOL    HW119436   6.807   4.683   4.236
 6179SOL    HW219437   6.687   4.610   4.153
 6180SOL     OW19438   3.939   4.993   0.253
 6180SOL    HW119439   3.919   4.921   0.319
 6180SOL    HW219440   3.876   5.069   0.266
 6181SOL     OW19441   3.571   6.836   0.635
 6181SOL    HW119442   3.669   6.860   0.639
 6181SOL    HW219443   3.517   6.917   0.657
 6182SOL     OW19444   5.383   3.500   5.774
 6182SOL    HW119445   5.419   3.568   5.838
 6182SOL    HW219446   5.454   3.434   5.751
 6183SOL     OW19447   2.262   1.270   3.093
 6183SOL    HW119448   2.207   1.340   3.048
 6183SOL    HW219449   2.359   1.291   3.083
 6184SOL     OW19450   1.950   6.857   5.875
 6184SOL    HW119451   1.976   6.797   5.951
 6184SOL    HW219452   1.921   6.945   5.912
 6185SOL     OW19453   7.012   4.175   6.605
 6185SOL    HW119454   0.066   4.109   6.610
 6185SOL    HW219455   0.000   4.229   6.521
 6186SOL     OW19456   6.344   6.513   5.595
 6186SOL    HW119457   6.319   6.604   5.562
 6186SOL    HW219458   6.438   6.513   5.628
 6187SOL     OW19459   4.532   4.660   2.906
 6187SOL    HW119460   4.557   4.585   2.968
 6187SOL    HW219461   4.490   4.734   2.958
 6188SOL     OW19462   2.433   0.155   0.825
 6188SOL    HW119463   2.507   0.143   0.758
 6188SOL    HW219464   2.467   0.132   0.916
 6189SOL     OW19465   4.800   4.193   3.958
 6189SOL    HW119466   4.873   4.211   4.024
 6189SOL    HW219467   4.723   4.255   3.975
 6190SOL     OW19468   7.004   3.889   5.719
 6190SOL    HW119469   0.036   3.817   5.764
 6190SOL    HW219470   6.927   3.915   5.778
 6191SOL     OW19471   4.208   2.076   6.887
 6191SOL    HW119472   4.177   2.038   6.800
 6191SOL    HW219473   4.211   2.004   6.956
 6192SOL     OW19474   4.198   2.972   6.614
 6192SOL    HW119475   4.214   2.891   6.672
 6192SOL    HW219476   4.157   2.943   6.528
 6193SOL     OW19477   5.100   1.273   2.370
 6193SOL    HW119478   5.020   1.333   2.376
 6193SOL    HW219479   5.159   1.304   2.295
 6194SOL     OW19480   1.376   6.828   0.593
 6194SOL    HW119481   1.440   6.901   0.618
 6194SOL    HW219482   1.313   6.811   0.668
 6195SOL     OW19483   4.458   6.729   5.392
 6195SOL    HW119484   4.549   6.717   5.433
 6195SOL    HW219485   4.459   6.693   5.299
 6196SOL     OW19486   5.926   2.477   1.672
 6196SOL    HW119487   5.846   2.440   1.720
 6196SOL    HW219488   5.958   2.411   1.605
 6197SOL     OW19489   4.552   4.799   0.894
 6197SOL    HW119490   4.473   4.746   0.928
 6197SOL    HW219491   4.631   4.782   0.953
 6198SOL     OW19492   3.726   6.200   2.093
 6198SOL    HW119493   3.769   6.248   2.170
 6198SOL    HW219494   3.762   6.107   2.087
 6199SOL     OW19495   0.901   0.449   0.803
 6199SOL    HW119496   0.878   0.377   0.870
 6199SOL    HW219497   0.974   0.507   0.841
 6200SOL     OW19498   1.303   1.250   5.358
 6200SOL    HW119499   1.278   1.248   5.455
 6200SOL    HW219500   1.388   1.303   5.347
 6201SOL     OW19501   0.793   3.383   5.185
 6201SOL    HW119502   0.757   3.295   5.217
 6201SOL    HW219503   0.837   3.431   5.261
 6202SOL     OW19504   4.032   1.661   2.300
 6202SOL    HW119505   4.006   1.753   2.331
 6202SOL    HW219506   3.949   1.609   2.278
 6203SOL     OW19507   6.542   6.974   3.259
 6203SOL    HW119508   6.507   7.017   3.343
 6203SOL    HW219509   6.585   6.887   3.281
 6204SOL     OW19510   1.142   5.680   4.952
 6204SOL    HW119511   1.114   5.599   4.899
 6204SOL    HW219512   1.094   5.681   5.039
 6205SOL     OW19513   6.326   6.114   0.358
 6205SOL    HW119514   6.376   6.062   0.289
 6205SOL    HW219515   6.296   6.201   0.318
 6206SOL     OW19516   0.237   1.108   3.123
 6206SOL    HW119517   0.231   1.175   3.197
 6206SOL    HW219518   0.188   1.143   3.043
 6207SOL     OW19519   1.628   4.978   4.769
 6207SOL    HW119520   1.530   4.971   4.753
 6207SOL    HW219521   1.646   4.985   4.868
 6208SOL     OW19522   5.782   1.518   6.230
 6208SOL    HW119523   5.717   1.564   6.290
 6208SOL    HW219524   5.841   1.585   6.186
 6209SOL     OW19525   4.789   5.653   0.046
 6209SOL    HW119526   4.748   5.726   7.011
 6209SOL    HW219527   4.742   5.567   0.027
 6210SOL     OW19528   4.927   3.327   3.613
 6210SOL    HW119529   5.015   3.289   3.585
 6210SOL    HW219530   4.862   3.321   3.537
 6211SOL     OW19531   3.325   6.277   5.533
 6211SOL    HW119532   3.286   6.186   5.520
 6211SOL    HW219533   3.365   6.309   5.447
 6212SOL     OW19534   1.871   5.205   3.830
 6212SOL    HW119535   1.790   5.225   3.885
 6212SOL    HW219536   1.849   5.214   3.733
 6213SOL     OW19537   5.564   0.164   0.244
 6213SOL    HW119538   5.630   0.120   0.182
 6213SOL    HW219539   5.557   0.261   0.221
 6214SOL     OW19540   4.929   4.896   4.994
 6214SOL    HW119541   4.884   4.959   5.057
 6214SOL    HW219542   4.890   4.907   4.903
 6215SOL     OW19543   4.259   1.210   0.919
 6215SOL    HW119544   4.315   1.274   0.972
 6215SOL    HW219545   4.285   1.116   0.940
 6216SOL     OW19546   6.231   1.229   2.086
 6216SOL    HW119547   6.223   1.214   2.184
 6216SOL    HW219548   6.239   1.141   2.039
 6217SOL     OW19549   0.198   3.417   2.141
 6217SOL    HW119550   0.170   3.401   2.236
 6217SOL    HW219551   0.183   3.334   2.087
 6218SOL     OW19552   4.247   5.632   6.037
 6218SOL    HW119553   4.164   5.653   5.984
 6218SOL    HW219554   4.231   5.551   6.092
 6219SOL     OW19555   0.641   2.772   4.200
 6219SOL    HW119556   0.642   2.798   4.297
 6219SOL    HW219557   0.547   2.760   4.170
 6220SOL     OW19558   1.558   2.317   5.253
 6220SOL    HW119559   1.542   2.415   5.266
 6220SOL    HW219560   1.607   2.280   5.332
 6221SOL     OW19561   5.612   5.562   0.094
 6221SOL    HW119562   5.625   5.464   0.076
 6221SOL    HW219563   5.652   5.585   0.183
 6222SOL     OW19564   0.349   0.058   1.621
 6222SOL    HW119565   0.302   0.084   1.536
 6222SOL    HW219566   0.282   0.050   1.695
 6223SOL     OW19567   0.488   5.181   4.269
 6223SOL    HW119568   0.406   5.125   4.264
 6223SOL    HW219569   0.529   5.189   4.178
 6224SOL     OW19570   2.540   1.813   6.030
 6224SOL    HW119571   2.599   1.882   5.989
 6224SOL    HW219572   2.589   1.727   6.038
 6225SOL     OW19573   3.657   4.225   6.639
 6225SOL    HW119574   3.595   4.303   6.640
 6225SOL    HW219575   3.603   4.140   6.639
 6226SOL     OW19576   6.590   1.483   5.270
 6226SOL    HW119577   6.609   1.434   5.185
 6226SOL    HW219578   6.662   1.550   5.288
 6227SOL     OW19579   3.733   6.086   5.312
 6227SOL    HW119580   3.663   6.093   5.242
 6227SOL    HW219581   3.691   6.071   5.401
 6228SOL     OW19582   1.202   2.508   3.199
 6228SOL    HW119583   1.223   2.418   3.238
 6228SOL    HW219584   1.199   2.576   3.272
 6229SOL     OW19585   0.273   2.320   3.255
 6229SOL    HW119586   0.265   2.371   3.341
 6229SOL    HW219587   0.369   2.315   3.228
 6230SOL     OW19588   1.123   1.809   3.710
 6230SOL    HW119589   1.126   1.767   3.620
 6230SOL    HW219590   1.103   1.739   3.779
 6231SOL     OW19591   6.037   5.383   1.296
 6231SOL    HW119592   6.097   5.303   1.307
 6231SOL    HW219593   5.999   5.383   1.204
 6232SOL     OW19594   6.627   0.535   1.026
 6232SOL    HW119595   6.715   0.499   0.995
 6232SOL    HW219596   6.556   0.509   0.962
 6233SOL     OW19597   6.307   0.687   0.951
 6233SOL    HW119598   6.211   0.711   0.934
 6233SOL    HW219599   6.327   0.597   0.911
 6234SOL     OW19600   6.055   1.185   5.624
 6234SOL    HW119601   6.125   1.155   5.560
 6234SOL    HW219602   6.099   1.223   5.706
 6235SOL     OW19603   0.992   6.645   1.520
 6235SOL    HW119604   1.075   6.694   1.495
 6235SOL    HW219605   1.005   6.547   1.507
 6236SOL     OW19606   0.881   3.500   0.594
 6236SOL    HW119607   0.895   3.539   0.685
 6236SOL    HW219608   0.827   3.416   0.601
 6237SOL     OW19609   3.138   6.795   6.885
 6237SOL    HW119610   3.213   6.729   6.887
 6237SOL    HW219611   3.115   6.815   6.789
 6238SOL     OW19612   4.135   4.885   2.536
 6238SOL    HW119613   4.037   4.886   2.518
 6238SOL    HW219614   4.179   4.817   2.478
 6239SOL     OW19615   2.087   0.550   1.974
 6239SOL    HW119616   2.084   0.646   2.002
 6239SOL    HW219617   2.173   0.509   2.003
 6240SOL     OW19618   2.223   3.090   5.832
 6240SOL    HW119619   2.250   3.000   5.867
 6240SOL    HW219620   2.297   3.128   5.777
 6241SOL     OW19621   3.988   0.021   1.601
 6241SOL    HW119622   3.939   6.991   1.530
 6241SOL    HW219623   3.932   0.024   1.684
 6242SOL     OW19624   4.585   0.448   3.609
 6242SOL    HW119625   4.657   0.409   3.666
 6242SOL    HW219626   4.519   0.378   3.585
 6243SOL     OW19627   6.394   6.722   4.457
 6243SOL    HW119628   6.311   6.711   4.403
 6243SOL    HW219629   6.413   6.638   4.507
 6244SOL     OW19630   0.165   2.548   1.954
 6244SOL    HW119631   0.219   2.463   1.951
 6244SOL    HW219632   0.227   2.626   1.952
 6245SOL     OW19633   1.455   4.122   0.428
 6245SOL    HW119634   1.487   4.215   0.410
 6245SOL    HW219635   1.482   4.096   0.520
 6246SOL     OW19636   2.313   2.056   5.772
 6246SOL    HW119637   2.299   2.124   5.701
 6246SOL    HW219638   2.225   2.035   5.816
 6247SOL     OW19639   1.105   6.209   4.550
 6247SOL    HW119640   1.133   6.275   4.619
 6247SOL    HW219641   1.013   6.175   4.572
 6248SOL     OW19642   4.021   2.923   0.355
 6248SOL    HW119643   4.000   2.948   0.449
 6248SOL    HW219644   4.093   2.854   0.354
 6249SOL     OW19645   0.951   4.071   0.895
 6249SOL    HW119646   0.890   4.149   0.911
 6249SOL    HW219647   1.033   4.103   0.848
 6250SOL     OW19648   6.665   6.567   0.109
 6250SOL    HW119649   6.665   6.646   0.047
 6250SOL    HW219650   6.756   6.524   0.108
 6251SOL     OW19651   4.114   5.432   6.697
 6251SOL    HW119652   4.163   5.349   6.721
 6251SOL    HW219653   4.178   5.499   6.659
 6252SOL     OW19654   1.374   6.557   5.468
 6252SOL    HW119655   1.292   6.500   5.457
 6252SOL    HW219656   1.432   6.547   5.387
 6253SOL     OW19657   2.012   4.300   3.147
 6253SOL    HW119658   2.035   4.203   3.158
 6253SOL    HW219659   2.062   4.354   3.215
 6254SOL     OW19660   5.480   1.522   1.248
 6254SOL    HW119661   5.466   1.479   1.158
 6254SOL    HW219662   5.541   1.601   1.237
 6255SOL     OW19663   3.472   0.529   1.336
 6255SOL    HW119664   3.563   0.526   1.294
 6255SOL    HW219665   3.470   0.470   1.416
 6256SOL     OW19666   3.491   5.221   1.865
 6256SOL    HW119667   3.443   5.297   1.911
 6256SOL    HW219668   3.425   5.169   1.811
 6257SOL     OW19669   5.240   2.297   0.745
 6257SOL    HW119670   5.301   2.230   0.704
 6257SOL    HW219671   5.145   2.265   0.741
 6258SOL     OW19672   3.951   6.781   3.759
 6258SOL    HW119673   3.888   6.726   3.814
 6258SOL    HW219674   3.997   6.847   3.818
 6259SOL     OW19675   2.430   2.466   0.318
 6259SOL    HW119676   2.350   2.413   0.291
 6259SOL    HW219677   2.436   2.469   0.418
 6260SOL     OW19678   3.334   5.340   6.995
 6260SOL    HW119679   3.312   5.301   0.064
 6260SOL    HW219680   3.388   5.275   6.942
 6261SOL     OW19681   3.956   0.852   6.874
 6261SOL    HW119682   4.007   0.859   6.788
 6261SOL    HW219683   3.923   0.942   6.901
 6262SOL     OW19684   2.724   6.346   1.097
 6262SOL    HW119685   2.736   6.264   1.041
 6262SOL    HW219686   2.668   6.323   1.176
 6263SOL     OW19687   6.559   0.644   5.181
 6263SOL    HW119688   6.595   0.593   5.259
 6263SOL    HW219689   6.509   0.583   5.121
 6264SOL     OW19690   1.418   6.673   2.239
 6264SOL    HW119691   1.391   6.649   2.145
 6264SOL    HW219692   1.516   6.694   2.241
 6265SOL     OW19693   3.502   3.907   0.328
 6265SOL    HW119694   3.557   3.955   0.396
 6265SOL    HW219695   3.414   3.883   0.368
 6266SOL     OW19696   4.019   0.938   4.798
 6266SOL    HW119697   3.953   0.870   4.768
 6266SOL    HW219698   3.972   1.011   4.848
 6267SOL     OW19699   2.313   0.150   6.270
 6267SOL    HW119700   2.352   0.228   6.220
 6267SOL    HW219701   2.380   0.117   6.337
 6268SOL     OW19702   2.927   0.215   3.650
 6268SOL    HW119703   2.899   0.166   3.567
 6268SOL    HW219704   2.871   0.298   3.660
 6269SOL     OW19705   0.019   6.629   1.654
 6269SOL    HW119706   0.111   6.591   1.651
 6269SOL    HW219707   6.980   6.580   1.590
 6270SOL     OW19708   1.689   0.357   5.286
 6270SOL    HW119709   1.743   0.437   5.258
 6270SOL    HW219710   1.751   0.286   5.320
 6271SOL     OW19711   6.546   2.315   0.123
 6271SOL    HW119712   6.639   2.278   0.117
 6271SOL    HW219713   6.500   2.304   0.034
 6272SOL     OW19714   0.224   2.348   6.977
 6272SOL    HW119715   0.174   2.428   7.011
 6272SOL    HW219716   0.264   2.369   6.888
 6273SOL     OW19717   1.414   6.645   2.503
 6273SOL    HW119718   1.417   6.662   2.404
 6273SOL    HW219719   1.464   6.561   2.523
 6274SOL     OW19720   3.196   5.628   5.947
 6274SOL    HW119721   3.174   5.553   5.884
 6274SOL    HW219722   3.135   5.624   6.026
 6275SOL     OW19723   2.363   6.655   5.979
 6275SOL    HW119724   2.419   6.667   6.061
 6275SOL    HW219725   2.337   6.559   5.970
 6276SOL     OW19726   1.643   4.206   2.958
 6276SOL    HW119727   1.693   4.120   2.969
 6276SOL    HW219728   1.657   4.263   3.039
 6277SOL     OW19729   5.664   3.513   2.264
 6277SOL    HW119730   5.757   3.550   2.269
 6277SOL    HW219731   5.622   3.540   2.177
 6278SOL     OW19732   5.128   6.204   4.755
 6278SOL    HW119733   5.217   6.249   4.759
 6278SOL    HW219734   5.075   6.226   4.837
 6279SOL     OW19735   3.722   0.097   6.861
 6279SOL    HW119736   3.776   0.162   6.914
 6279SOL    HW219737   3.715   0.011   6.913
 6280SOL     OW19738   0.915   2.092   5.477
 6280SOL    HW119739   0.857   2.011   5.487
 6280SOL    HW219740   0.915   2.122   5.382
 6281SOL     OW19741   1.017   5.454   3.733
 6281SOL    HW119742   1.098   5.412   3.775
 6281SOL    HW219743   0.966   5.504   3.802
 6282SOL     OW19744   1.188   6.138   5.038
 6282SOL    HW119745   1.227   6.126   4.946
 6282SOL    HW219746   1.185   6.049   5.084
 6283SOL     OW19747   6.287   3.390   5.492
 6283SOL    HW119748   6.303   3.301   5.535
 6283SOL    HW219749   6.374   3.437   5.479
 6284SOL     OW19750   1.355   5.701   4.773
 6284SOL    HW119751   1.307   5.653   4.699
 6284SOL    HW219752   1.313   5.676   4.860
 6285SOL     OW19753   0.481   3.751   4.695
 6285SOL    HW119754   0.517   3.793   4.778
 6285SOL    HW219755   0.382   3.758   4.694
 6286SOL     OW19756   5.984   1.678   3.838
 6286SOL    HW119757   6.050   1.605   3.821
 6286SOL    HW219758   5.924   1.652   3.913
 6287SOL     OW19759   3.743   4.993   4.069
 6287SOL    HW119760   3.789   5.055   4.005
 6287SOL    HW219761   3.653   4.970   4.033
 6288SOL     OW19762   4.844   4.360   3.131
 6288SOL    HW119763   4.860   4.283   3.069
 6288SOL    HW219764   4.851   4.328   3.226
 6289SOL     OW19765   2.147   4.735   1.218
 6289SOL    HW119766   2.058   4.777   1.236
 6289SOL    HW219767   2.135   4.636   1.206
 6290SOL     OW19768   0.133   5.039   5.640
 6290SOL    HW119769   0.146   5.050   5.541
 6290SOL    HW219770   0.055   5.092   5.670
 6291SOL     OW19771   4.164   3.472   4.562
 6291SOL    HW119772   4.248   3.450   4.512
 6291SOL    HW219773   4.143   3.399   4.627
 6292SOL     OW19774   1.649   2.293   4.281
 6292SOL    HW119775   1.561   2.303   4.236
 6292SOL    HW219776   1.643   2.330   4.374
 6293SOL     OW19777   3.494   1.165   0.251
 6293SOL    HW119778   3.560   1.131   0.318
 6293SOL    HW219779   3.468   1.259   0.273
 6294SOL     OW19780   4.383   5.535   4.081
 6294SOL    HW119781   4.402   5.596   4.158
 6294SOL    HW219782   4.408   5.581   3.995
 6295SOL     OW19783   5.402   4.586   6.475
 6295SOL    HW119784   5.341   4.516   6.515
 6295SOL    HW219785   5.358   4.676   6.483
 6296SOL     OW19786   0.423   6.623   5.848
 6296SOL    HW119787   0.516   6.602   5.816
 6296SOL    HW219788   0.377   6.680   5.780
 6297SOL     OW19789   4.447   0.033   3.751
 6297SOL    HW119790   4.480   6.963   3.779
 6297SOL    HW219791   4.459   0.097   3.826
 6298SOL     OW19792   1.232   2.751   6.691
 6298SOL    HW119793   1.325   2.760   6.726
 6298SOL    HW219794   1.182   2.837   6.705
 6299SOL     OW19795   5.607   2.251   0.175
 6299SOL    HW119796   5.554   2.335   0.163
 6299SOL    HW219797   5.564   2.177   0.122
 6300SOL     OW19798   6.007   0.648   0.750
 6300SOL    HW119799   6.024   0.709   0.828
 6300SOL    HW219800   5.947   0.574   0.779
 6301SOL     OW19801   3.484   0.080   0.258
 6301SOL    HW119802   3.489   0.166   0.309
 6301SOL    HW219803   3.427   0.093   0.177
 6302SOL     OW19804   2.123   1.035   3.117
 6302SOL    HW119805   2.098   1.031   3.214
 6302SOL    HW219806   2.181   1.115   3.100
 6303SOL     OW19807   1.666   1.589   4.207
 6303SOL    HW119808   1.603   1.617   4.280
 6303SOL    HW219809   1.618   1.533   4.140
 6304SOL     OW19810   2.258   0.690   1.505
 6304SOL    HW119811   2.224   0.612   1.558
 6304SOL    HW219812   2.251   0.773   1.561
 6305SOL     OW19813   6.245   6.787   1.368
 6305SOL    HW119814   6.147   6.788   1.383
 6305SOL    HW219815   6.288   6.857   1.425
 6306SOL     OW19816   0.650   4.440   4.000
 6306SOL    HW119817   0.617   4.458   4.093
 6306SOL    HW219818   0.726   4.501   3.978
 6307SOL     OW19819   3.720   4.153   5.511
 6307SOL    HW119820   3.799   4.093   5.499
 6307SOL    HW219821   3.659   4.146   5.431
 6308SOL     OW19822   2.158   2.263   4.491
 6308SOL    HW119823   2.150   2.166   4.470
 6308SOL    HW219824   2.164   2.315   4.405
 6309SOL     OW19825   5.506   4.754   5.800
 6309SOL    HW119826   5.440   4.680   5.789
 6309SOL    HW219827   5.593   4.717   5.832
 6310SOL     OW19828   1.915   5.984   2.631
 6310SOL    HW119829   2.001   5.933   2.628
 6310SOL    HW219830   1.867   5.974   2.545
 6311SOL     OW19831   4.479   1.095   6.115
 6311SOL    HW119832   4.414   1.044   6.058
 6311SOL    HW219833   4.536   1.153   6.056
 6312SOL     OW19834   6.062   5.971   5.793
 6312SOL    HW119835   6.042   6.043   5.728
 6312SOL    HW219836   6.117   5.900   5.748
 6313SOL     OW19837   1.149   6.368   4.775
 6313SOL    HW119838   1.176   6.462   4.751
 6313SOL    HW219839   1.065   6.370   4.830
 6314SOL     OW19840   3.649   6.460   1.470
 6314SOL    HW119841   3.560   6.489   1.435
 6314SOL    HW219842   3.637   6.413   1.557
 6315SOL     OW19843   1.735   2.526   5.596
 6315SOL    HW119844   1.789   2.579   5.531
 6315SOL    HW219845   1.697   2.446   5.551
 6316SOL     OW19846   4.631   1.550   6.917
 6316SOL    HW119847   4.612   1.579   6.824
 6316SOL    HW219848   4.552   1.571   6.975
 6317SOL     OW19849   4.524   5.561   1.637
 6317SOL    HW119850   4.472   5.593   1.717
 6317SOL    HW219851   4.582   5.484   1.664
 6318SOL     OW19852   3.811   1.234   5.323
 6318SOL    HW119853   3.838   1.139   5.342
 6318SOL    HW219854   3.712   1.240   5.318
 6319SOL     OW19855   6.408   1.050   4.589
 6319SOL    HW119856   6.401   0.955   4.558
 6319SOL    HW219857   6.338   1.105   4.545
 6320SOL     OW19858   5.697   5.968   5.382
 6320SOL    HW119859   5.695   5.954   5.283
 6320SOL    HW219860   5.620   6.026   5.409
 6321SOL     OW19861   3.277   3.269   1.150
 6321SOL    HW119862   3.188   3.245   1.188
 6321SOL    HW219863   3.290   3.368   1.153
 6322SOL     OW19864   1.740   2.377   0.212
 6322SOL    HW119865   1.815   2.316   0.184
 6322SOL    HW219866   1.777   2.469   0.229
 6323SOL     OW19867   3.345   2.946   1.771
 6323SOL    HW119868   3.247   2.962   1.788
 6323SOL    HW219869   3.366   2.964   1.675
 6324SOL     OW19870   5.142   6.954   6.816
 6324SOL    HW119871   5.236   6.959   6.784
 6324SOL    HW219872   5.127   0.000   6.889
 6325SOL     OW19873   1.764   1.878   2.437
 6325SOL    HW119874   1.774   1.805   2.369
 6325SOL    HW219875   1.854   1.910   2.464
 6326SOL     OW19876   4.769   5.308   1.528
 6326SOL    HW119877   4.782   5.305   1.429
 6326SOL    HW219878   4.750   5.216   1.561
 6327SOL     OW19879   6.838   0.581   4.622
 6327SOL    HW119880   6.823   0.568   4.720
 6327SOL    HW219881   6.935   0.569   4.601
 6328SOL     OW19882   3.433   3.343   0.724
 6328SOL    HW119883   3.387   3.274   0.779
 6328SOL    HW219884   3.429   3.431   0.770
 6329SOL     OW19885   2.004   2.186   3.841
 6329SOL    HW119886   2.039   2.251   3.772
 6329SOL    HW219887   1.972   2.237   3.921
 6330SOL     OW19888   4.975   0.642   1.093
 6330SOL    HW119889   4.887   0.689   1.095
 6330SOL    HW219890   4.966   0.553   1.138
 6331SOL     OW19891   6.296   3.032   5.948
 6331SOL    HW119892   6.367   2.962   5.957
 6331SOL    HW219893   6.337   3.123   5.956
 6332SOL     OW19894   0.089   3.754   1.583
 6332SOL    HW119895   0.137   3.827   1.533
 6332SOL    HW219896   0.058   3.684   1.519
 6333SOL     OW19897   4.699   5.890   5.238
 6333SOL    HW119898   4.683   5.924   5.330
 6333SOL    HW219899   4.709   5.790   5.241
 6334SOL     OW19900   3.049   0.542   1.956
 6334SOL    HW119901   2.991   0.480   2.009
 6334SOL    HW219902   2.993   0.616   1.919
 6335SOL     OW19903   3.719   1.139   0.395
 6335SOL    HW119904   3.748   1.188   0.477
 6335SOL    HW219905   3.798   1.126   0.334
 6336SOL     OW19906   0.623   2.479   5.964
 6336SOL    HW119907   0.625   2.579   5.972
 6336SOL    HW219908   0.693   2.450   5.899
 6337SOL     OW19909   5.236   4.558   6.056
 6337SOL    HW119910   5.274   4.648   6.037
 6337SOL    HW219911   5.168   4.565   6.129
 6338SOL     OW19912   3.718   1.906   4.661
 6338SOL    HW119913   3.628   1.948   4.678
 6338SOL    HW219914   3.790   1.971   4.686
 6339SOL     OW19915   1.095   3.666   3.072
 6339SOL    HW119916   1.044   3.743   3.111
 6339SOL    HW219917   1.159   3.700   3.003
 6340SOL     OW19918   1.467   5.142   2.633
 6340SOL    HW119919   1.469   5.044   2.650
 6340SOL    HW219920   1.558   5.173   2.603
 6341SOL     OW19921   0.750   4.362   4.628
 6341SOL    HW119922   0.820   4.406   4.685
 6341SOL    HW219923   0.788   4.278   4.589
 6342SOL     OW19924   1.712   1.530   2.031
 6342SOL    HW119925   1.725   1.513   1.934
 6342SOL    HW219926   1.707   1.442   2.080
 6343SOL     OW19927   5.043   1.968   6.924
 6343SOL    HW119928   5.093   2.055   6.925
 6343SOL    HW219929   5.102   1.896   6.960
 6344SOL     OW19930   5.892   3.121   4.679
 6344SOL    HW119931   5.832   3.145   4.603
 6344SOL    HW219932   5.987   3.130   4.651
 6345SOL     OW19933   5.896   2.693   2.179
 6345SOL    HW119934   5.961   2.724   2.249
 6345SOL    HW219935   5.939   2.699   2.089
 6346SOL     OW19936   6.739   5.375   3.968
 6346SOL    HW119937   6.671   5.342   3.902
 6346SOL    HW219938   6.696   5.381   4.058
 6347SOL     OW19939   2.248   6.972   0.373
 6347SOL    HW119940   2.325   6.912   0.394
 6347SOL    HW219941   2.162   6.921   0.382
 6348SOL     OW19942   0.720   3.660   5.572
 6348SOL    HW119943   0.819   3.666   5.582
 6348SOL    HW219944   0.677   3.734   5.626
 6349SOL     OW19945   2.238   0.517   1.719
 6349SOL    HW119946   2.155   0.464   1.736
 6349SOL    HW219947   2.267   0.561   1.804
 6350SOL     OW19948   1.256   5.343   3.818
 6350SOL    HW119949   1.251   5.365   3.915
 6350SOL    HW219950   1.339   5.290   3.800
 6351SOL     OW19951   6.245   3.770   3.567
 6351SOL    HW119952   6.292   3.837   3.510
 6351SOL    HW219953   6.263   3.678   3.533
 6352SOL     OW19954   3.818   5.964   4.891
 6352SOL    HW119955   3.824   6.046   4.832
 6352SOL    HW219956   3.868   5.980   4.975
 6353SOL     OW19957   0.603   0.173   5.768
 6353SOL    HW119958   0.534   0.232   5.726
 6353SOL    HW219959   0.694   0.198   5.735
 6354SOL     OW19960   2.135   5.612   2.809
 6354SOL    HW119961   2.216   5.556   2.827
 6354SOL    HW219962   2.144   5.657   2.720
 6355SOL     OW19963   0.829   5.188   6.406
 6355SOL    HW119964   0.784   5.216   6.491
 6355SOL    HW219965   0.767   5.203   6.329
 6356SOL     OW19966   4.315   5.567   1.783
 6356SOL    HW119967   4.358   5.569   1.873
 6356SOL    HW219968   4.220   5.600   1.791
 6357SOL     OW19969   5.902   3.280   2.652
 6357SOL    HW119970   5.892   3.257   2.749
 6357SOL    HW219971   5.813   3.305   2.615
 6358SOL     OW19972   0.786   2.338   6.498
 6358SOL    HW119973   0.698   2.291   6.507
 6358SOL    HW219974   0.830   2.344   6.588
 6359SOL     OW19975   5.349   6.715   6.886
 6359SOL    HW119976   5.307   6.634   6.925
 6359SOL    HW219977   5.448   6.710   6.897
 6360SOL     OW19978   1.061   4.007   3.864
 6360SOL    HW119979   1.077   4.017   3.962
 6360SOL    HW219980   1.045   4.097   3.824
 6361SOL     OW19981   0.053   0.124   1.455
 6361SOL    HW119982   0.034   0.216   1.422
 6361SOL    HW219983   0.109   0.075   1.388
 6362SOL     OW19984   6.924   6.500   0.164
 6362SOL    HW119985   6.937   6.432   0.092
 6362SOL    HW219986   7.007   6.556   0.172
 6363SOL     OW19987   1.934   4.598   3.428
 6363SOL    HW119988   1.890   4.676   3.382
 6363SOL    HW219989   1.927   4.609   3.527
 6364SOL     OW19990   2.856   1.119   6.220
 6364SOL    HW119991   2.867   1.149   6.315
 6364SOL    HW219992   2.790   1.045   6.216
 6365SOL     OW19993   5.814   0.132   4.125
 6365SOL    HW119994   5.742   0.158   4.061
 6365SOL    HW219995   5.808   0.189   4.207
 6366SOL     OW19996   0.831   6.195   5.750
 6366SOL    HW119997   0.913   6.225   5.800
 6366SOL    HW219998   0.805   6.266   5.684
 6367SOL     OW19999   4.442   1.331   5.416
 6367SOL    HW120000   4.358   1.335   5.470
 6367SOL    HW220001   4.421   1.302   5.323
 6368SOL     OW20002   3.805   5.061   3.404
 6368SOL    HW120003   3.876   5.131   3.398
 6368SOL    HW220004   3.781   5.031   3.312
 6369SOL     OW20005   2.070   5.578   3.381
 6369SOL    HW120006   2.087   5.677   3.385
 6369SOL    HW220007   1.974   5.562   3.357
 6370SOL     OW20008   0.628   3.506   3.413
 6370SOL    HW120009   0.615   3.417   3.457
 6370SOL    HW220010   0.544   3.533   3.368
 6371SOL     OW20011   5.374   4.232   4.159
 6371SOL    HW120012   5.430   4.237   4.076
 6371SOL    HW220013   5.418   4.284   4.232
 6372SOL     OW20014   2.156   0.390   2.290
 6372SOL    HW120015   2.227   0.441   2.241
 6372SOL    HW220016   2.066   0.429   2.268
 6373SOL     OW20017   4.878   3.872   2.755
 6373SOL    HW120018   4.857   3.873   2.657
 6373SOL    HW220019   4.945   3.943   2.775
 6374SOL     OW20020   3.238   3.799   3.662
 6374SOL    HW120021   3.258   3.835   3.753
 6374SOL    HW220022   3.320   3.760   3.622
 6375SOL     OW20023   6.979   1.990   3.807
 6375SOL    HW120024   6.897   2.040   3.835
 6375SOL    HW220025   6.952   1.914   3.747
 6376SOL     OW20026   6.413   2.457   4.913
 6376SOL    HW120027   6.437   2.504   4.998
 6376SOL    HW220028   6.313   2.451   4.906
 6377SOL     OW20029   6.156   2.141   5.680
 6377SOL    HW120030   6.145   2.205   5.605
 6377SOL    HW220031   6.253   2.133   5.703
 6378SOL     OW20032   4.528   5.288   4.099
 6378SOL    HW120033   4.484   5.377   4.106
 6378SOL    HW220034   4.616   5.291   4.146
 6379SOL     OW20035   1.727   3.614   4.164
 6379SOL    HW120036   1.650   3.581   4.109
 6379SOL    HW220037   1.728   3.566   4.252
 6380SOL     OW20038   0.167   1.922   5.486
 6380SOL    HW120039   0.185   1.872   5.572
 6380SOL    HW220040   0.172   1.858   5.409
 6381SOL     OW20041   3.901   3.305   1.974
 6381SOL    HW120042   3.970   3.248   1.931
 6381SOL    HW220043   3.810   3.270   1.951
 6382SOL     OW20044   1.183   1.815   1.085
 6382SOL    HW120045   1.265   1.817   1.142
 6382SOL    HW220046   1.115   1.756   1.128
 6383SOL     OW20047   1.494   1.515   2.828
 6383SOL    HW120048   1.555   1.436   2.814
 6383SOL    HW220049   1.541   1.583   2.885
 6384SOL     OW20050   5.898   4.108   1.865
 6384SOL    HW120051   5.941   4.061   1.943
 6384SOL    HW220052   5.803   4.130   1.888
 6385SOL     OW20053   0.153   4.734   4.004
 6385SOL    HW120054   0.086   4.668   4.039
 6385SOL    HW220055   0.226   4.685   3.957
 6386SOL     OW20056   2.239   4.347   6.035
 6386SOL    HW120057   2.231   4.424   6.098
 6386SOL    HW220058   2.148   4.310   6.017
 6387SOL     OW20059   0.282   1.864   6.533
 6387SOL    HW120060   0.344   1.805   6.482
 6387SOL    HW220061   0.237   1.927   6.470
 6388SOL     OW20062   3.492   4.957   1.491
 6388SOL    HW120063   3.460   5.004   1.409
 6388SOL    HW220064   3.570   5.007   1.529
 6389SOL     OW20065   0.460   5.903   2.502
 6389SOL    HW120066   0.374   5.851   2.502
 6389SOL    HW220067   0.494   5.913   2.409
 6390SOL     OW20068   0.601   1.269   5.827
 6390SOL    HW120069   0.657   1.322   5.890
 6390SOL    HW220070   0.601   1.312   5.737
 6391SOL     OW20071   2.227   0.040   5.786
 6391SOL    HW120072   2.169   0.006   5.859
 6391SOL    HW220073   2.239   0.139   5.797
 6392SOL     OW20074   2.809   5.938   2.797
 6392SOL    HW120075   2.815   6.020   2.855
 6392SOL    HW220076   2.729   5.884   2.825
 6393SOL     OW20077   6.825   0.128   2.181
 6393SOL    HW120078   6.921   0.138   2.154
 6393SOL    HW220079   6.772   0.095   2.103
 6394SOL     OW20080   2.206   5.186   0.873
 6394SOL    HW120081   2.176   5.267   0.924
 6394SOL    HW220082   2.209   5.107   0.935
 6395SOL     OW20083   6.783   2.269   0.976
 6395SOL    HW120084   6.733   2.183   0.978
 6395SOL    HW220085   6.881   2.251   0.975
 6396SOL     OW20086   4.769   3.242   5.930
 6396SOL    HW120087   4.845   3.282   5.983
 6396SOL    HW220088   4.682   3.272   5.969
 6397SOL     OW20089   5.414   2.548   6.655
 6397SOL    HW120090   5.456   2.482   6.718
 6397SOL    HW220091   5.420   2.640   6.694
 6398SOL     OW20092   2.476   6.802   0.913
 6398SOL    HW120093   2.411   6.862   0.866
 6398SOL    HW220094   2.440   6.709   0.916
 6399SOL     OW20095   1.643   6.317   6.576
 6399SOL    HW120096   1.549   6.328   6.544
 6399SOL    HW220097   1.668   6.220   6.573
 6400SOL     OW20098   2.479   6.637   2.125
 6400SOL    HW120099   2.515   6.718   2.172
 6400SOL    HW220100   2.416   6.665   2.053
 6401SOL     OW20101   5.996   5.007   3.859
 6401SOL    HW120102   6.095   4.991   3.851
 6401SOL    HW220103   5.953   4.996   3.770
 6402SOL     OW20104   3.692   2.138   3.185
 6402SOL    HW120105   3.760   2.154   3.256
 6402SOL    HW220106   3.607   2.105   3.227
 6403SOL     OW20107   6.875   6.175   6.638
 6403SOL    HW120108   6.847   6.091   6.592
 6403SOL    HW220109   6.936   6.227   6.578
 6404SOL     OW20110   4.344   1.894   2.225
 6404SOL    HW120111   4.262   1.922   2.174
 6404SOL    HW220112   4.424   1.903   2.167
 6405SOL     OW20113   3.006   0.659   3.972
 6405SOL    HW120114   2.921   0.612   3.994
 6405SOL    HW220115   3.047   0.695   4.056
 6406SOL     OW20116   1.116   2.533   2.948
 6406SOL    HW120117   1.056   2.603   2.987
 6406SOL    HW220118   1.160   2.481   3.021
 6407SOL     OW20119   3.029   5.998   4.072
 6407SOL    HW120120   3.040   5.912   4.122
 6407SOL    HW220121   3.118   6.042   4.060
 6408SOL     OW20122   5.719   2.075   0.395
 6408SOL    HW120123   5.799   2.123   0.431
 6408SOL    HW220124   5.687   2.123   0.313
 6409SOL     OW20125   0.089   4.697   3.463
 6409SOL    HW120126   0.158   4.717   3.533
 6409SOL    HW220127   0.101   4.759   3.386
 6410SOL     OW20128   1.459   1.572   0.810
 6410SOL    HW120129   1.512   1.516   0.746
 6410SOL    HW220130   1.445   1.663   0.771
 6411SOL     OW20131   0.947   2.602   3.488
 6411SOL    HW120132   0.955   2.694   3.451
 6411SOL    HW220133   1.036   2.557   3.488
 6412SOL     OW20134   0.626   2.288   5.107
 6412SOL    HW120135   0.558   2.260   5.175
 6412SOL    HW220136   0.581   2.304   5.020
 6413SOL     OW20137   4.261   4.768   3.894
 6413SOL    HW120138   4.163   4.784   3.879
 6413SOL    HW220139   4.314   4.825   3.831
 6414SOL     OW20140   5.836   0.944   0.580
 6414SOL    HW120141   5.809   1.038   0.557
 6414SOL    HW220142   5.925   0.924   0.539
 6415SOL     OW20143   1.717   2.691   3.174
 6415SOL    HW120144   1.803   2.728   3.211
 6415SOL    HW220145   1.736   2.604   3.129
 6416SOL     OW20146   0.877   1.295   6.216
 6416SOL    HW120147   0.822   1.295   6.299
 6416SOL    HW220148   0.878   1.203   6.177
 6417SOL     OW20149   6.492   5.186   1.451
 6417SOL    HW120150   6.452   5.191   1.359
 6417SOL    HW220151   6.535   5.097   1.464
 6418SOL     OW20152   4.665   4.339   1.708
 6418SOL    HW120153   4.745   4.322   1.765
 6418SOL    HW220154   4.583   4.305   1.753
 6419SOL     OW20155   2.137   4.790   3.333
 6419SOL    HW120156   2.128   4.765   3.236
 6419SOL    HW220157   2.050   4.826   3.366
 6420SOL     OW20158   3.356   4.986   4.733
 6420SOL    HW120159   3.421   5.060   4.717
 6420SOL    HW220160   3.339   4.938   4.646
 6421SOL     OW20161   4.886   0.684   2.984
 6421SOL    HW120162   4.929   0.687   2.894
 6421SOL    HW220163   4.843   0.772   3.004
 6422SOL     OW20164   0.500   0.948   4.022
 6422SOL    HW120165   0.571   0.888   3.985
 6422SOL    HW220166   0.537   1.040   4.032
 6423SOL     OW20167   4.327   5.590   2.702
 6423SOL    HW120168   4.409   5.593   2.759
 6423SOL    HW220169   4.349   5.617   2.609
 6424SOL     OW20170   0.029   5.951   6.013
 6424SOL    HW120171   6.958   5.965   5.976
 6424SOL    HW220172   0.043   6.013   6.091
 6425SOL     OW20173   6.659   6.024   2.764
 6425SOL    HW120174   6.748   6.041   2.806
 6425SOL    HW220175   6.619   6.111   2.736
 6426SOL     OW20176   1.008   5.073   2.742
 6426SOL    HW120177   1.077   5.143   2.760
 6426SOL    HW220178   0.970   5.040   2.829
 6427SOL     OW20179   3.574   3.147   4.879
 6427SOL    HW120180   3.635   3.084   4.831
 6427SOL    HW220181   3.624   3.231   4.902
 6428SOL     OW20182   5.885   3.188   6.375
 6428SOL    HW120183   5.890   3.222   6.281
 6428SOL    HW220184   5.950   3.112   6.386
 6429SOL     OW20185   2.048   2.125   5.985
 6429SOL    HW120186   2.131   2.179   5.995
 6429SOL    HW220187   2.025   2.082   6.072
 6430SOL     OW20188   5.906   0.829   1.868
 6430SOL    HW120189   5.965   0.788   1.799
 6430SOL    HW220190   5.813   0.837   1.832
 6431SOL     OW20191   5.116   6.765   3.560
 6431SOL    HW120192   5.200   6.713   3.549
 6431SOL    HW220193   5.133   6.845   3.619
 6432SOL     OW20194   4.099   4.191   6.663
 6432SOL    HW120195   4.172   4.259   6.652
 6432SOL    HW220196   4.022   4.216   6.604
 6433SOL     OW20197   2.480   4.135   6.840
 6433SOL    HW120198   2.385   4.107   6.832
 6433SOL    HW220199   2.507   4.188   6.760
 6434SOL     OW20200   2.236   4.457   0.174
 6434SOL    HW120201   2.225   4.524   0.248
 6434SOL    HW220202   2.328   4.419   0.178
 6435SOL     OW20203   4.537   6.555   0.107
 6435SOL    HW120204   4.579   6.465   0.103
 6435SOL    HW220205   4.468   6.557   0.180
 6436SOL     OW20206   2.130   3.395   3.520
 6436SOL    HW120207   2.091   3.358   3.435
 6436SOL    HW220208   2.147   3.321   3.584
 6437SOL     OW20209   2.390   1.880   0.853
 6437SOL    HW120210   2.401   1.911   0.948
 6437SOL    HW220211   2.365   1.783   0.853
 6438SOL     OW20212   6.686   4.440   6.467
 6438SOL    HW120213   6.651   4.530   6.494
 6438SOL    HW220214   6.779   4.429   6.501
 6439SOL     OW20215   5.265   0.895   1.605
 6439SOL    HW120216   5.247   0.858   1.513
 6439SOL    HW220217   5.250   0.823   1.672
 6440SOL     OW20218   2.108   1.314   6.628
 6440SOL    HW120219   2.044   1.384   6.659
 6440SOL    HW220220   2.128   1.252   6.704
 6441SOL     OW20221   0.263   6.546   1.725
 6441SOL    HW120222   0.317   6.618   1.769
 6441SOL    HW220223   0.298   6.531   1.633
 6442SOL     OW20224   2.522   0.905   4.524
 6442SOL    HW120225   2.510   0.806   4.509
 6442SOL    HW220226   2.615   0.931   4.500
 6443SOL     OW20227   3.952   2.471   5.311
 6443SOL    HW120228   4.010   2.540   5.268
 6443SOL    HW220229   3.990   2.380   5.293
 6444SOL     OW20230   6.445   3.159   4.213
 6444SOL    HW120231   6.497   3.095   4.156
 6444SOL    HW220232   6.469   3.253   4.189
 6445SOL     OW20233   4.141   3.642   5.507
 6445SOL    HW120234   4.140   3.694   5.593
 6445SOL    HW220235   4.171   3.702   5.433
 6446SOL     OW20236   1.586   1.470   6.160
 6446SOL    HW120237   1.639   1.390   6.187
 6446SOL    HW220238   1.648   1.537   6.117
 6447SOL     OW20239   5.802   4.920   3.033
 6447SOL    HW120240   5.898   4.946   3.033
 6447SOL    HW220241   5.769   4.911   2.939
 6448SOL     OW20242   4.029   5.781   2.125
 6448SOL    HW120243   3.957   5.815   2.186
 6448SOL    HW220244   4.083   5.859   2.092
 6449SOL     OW20245   2.653   4.792   0.702
 6449SOL    HW120246   2.567   4.787   0.753
 6449SOL    HW220247   2.722   4.839   0.758
 6450SOL     OW20248   1.252   3.931   0.746
 6450SOL    HW120249   1.217   3.886   0.664
 6450SOL    HW220250   1.218   4.025   0.749
 6451SOL     OW20251   2.576   0.658   4.765
 6451SOL    HW120252   2.636   0.634   4.841
 6451SOL    HW220253   2.542   0.751   4.778
 6452SOL     OW20254   3.770   6.447   4.614
 6452SOL    HW120255   3.728   6.536   4.594
 6452SOL    HW220256   3.865   6.461   4.642
 6453SOL     OW20257   2.414   5.856   1.256
 6453SOL    HW120258   2.444   5.767   1.221
 6453SOL    HW220259   2.493   5.916   1.267
 6454SOL     OW20260   2.266   2.387   3.527
 6454SOL    HW120261   2.283   2.410   3.431
 6454SOL    HW220262   2.352   2.387   3.577
 6455SOL     OW20263   0.195   2.691   3.854
 6455SOL    HW120264   0.254   2.756   3.902
 6455SOL    HW220265   0.192   2.714   3.757
 6456SOL     OW20266   1.896   0.727   3.532
 6456SOL    HW120267   1.990   0.747   3.558
 6456SOL    HW220268   1.871   0.635   3.565
 6457SOL     OW20269   5.087   1.370   0.819
 6457SOL    HW120270   5.138   1.449   0.855
 6457SOL    HW220271   5.129   1.341   0.733
 6458SOL     OW20272   0.959   6.697   3.858
 6458SOL    HW120273   0.957   6.797   3.849
 6458SOL    HW220274   1.048   6.663   3.830
 6459SOL     OW20275   6.302   3.898   0.328
 6459SOL    HW120276   6.312   3.903   0.229
 6459SOL    HW220277   6.337   3.811   0.361
 6460SOL     OW20278   4.821   6.034   5.886
 6460SOL    HW120279   4.765   5.951   5.887
 6460SOL    HW220280   4.824   6.073   5.978
 6461SOL     OW20281   2.427   4.851   5.715
 6461SOL    HW120282   2.492   4.784   5.677
 6461SOL    HW220283   2.403   4.824   5.809
 6462SOL     OW20284   2.286   2.754   4.939
 6462SOL    HW120285   2.319   2.840   4.977
 6462SOL    HW220286   2.352   2.719   4.873
 6463SOL     OW20287   6.605   3.424   0.042
 6463SOL    HW120288   6.610   3.410   6.963
 6463SOL    HW220289   6.697   3.442   0.077
 6464SOL     OW20290   1.522   5.510   4.224
 6464SOL    HW120291   1.554   5.423   4.186
 6464SOL    HW220292   1.448   5.546   4.167
 6465SOL     OW20293   6.402   2.752   2.964
 6465SOL    HW120294   6.422   2.654   2.964
 6465SOL    HW220295   6.351   2.776   2.882
 6466SOL     OW20296   1.312   1.528   6.166
 6466SOL    HW120297   1.281   1.538   6.071
 6466SOL    HW220298   1.410   1.510   6.168
 6467SOL     OW20299   2.890   1.300   7.006
 6467SOL    HW120300   2.791   1.315   6.997
 6467SOL    HW220301   2.908   1.202   7.011
 6468SOL     OW20302   3.624   5.939   0.204
 6468SOL    HW120303   3.541   5.968   0.252
 6468SOL    HW220304   3.684   6.019   0.191
 6469SOL     OW20305   5.126   0.889   4.971
 6469SOL    HW120306   5.172   0.849   5.050
 6469SOL    HW220307   5.190   0.892   4.894
 6470SOL     OW20308   6.085   4.102   0.380
 6470SOL    HW120309   6.072   4.166   0.304
 6470SOL    HW220310   6.144   4.026   0.350
 6471SOL     OW20311   6.195   6.323   5.689
 6471SOL    HW120312   6.116   6.353   5.741
 6471SOL    HW220313   6.250   6.402   5.662
 6472SOL     OW20314   0.687   5.814   1.001
 6472SOL    HW120315   0.591   5.828   1.027
 6472SOL    HW220316   0.695   5.735   0.940
 6473SOL     OW20317   3.393   1.438   4.631
 6473SOL    HW120318   3.420   1.518   4.578
 6473SOL    HW220319   3.403   1.457   4.728
 6474SOL     OW20320   2.063   4.329   5.414
 6474SOL    HW120321   2.127   4.276   5.358
 6474SOL    HW220322   2.041   4.415   5.368
 6475SOL     OW20323   6.299   5.294   4.302
 6475SOL    HW120324   6.310   5.236   4.383
 6475SOL    HW220325   6.279   5.236   4.223
 6476SOL     OW20326   4.571   3.432   1.344
 6476SOL    HW120327   4.536   3.354   1.292
 6476SOL    HW220328   4.669   3.423   1.355
 6477SOL     OW20329   6.161   5.193   1.453
 6477SOL    HW120330   6.212   5.215   1.536
 6477SOL    HW220331   6.092   5.123   1.474
 6478SOL     OW20332   3.432   6.541   2.104
 6478SOL    HW120333   3.511   6.518   2.047
 6478SOL    HW220334   3.418   6.640   2.102
 6479SOL     OW20335   4.427   5.723   3.854
 6479SOL    HW120336   4.463   5.643   3.806
 6479SOL    HW220337   4.362   5.770   3.794
 6480SOL     OW20338   3.291   2.805   6.050
 6480SOL    HW120339   3.244   2.893   6.042
 6480SOL    HW220340   3.388   2.820   6.068
 6481SOL     OW20341   3.721   2.060   1.781
 6481SOL    HW120342   3.722   2.125   1.857
 6481SOL    HW220343   3.629   2.023   1.770
 6482SOL     OW20344   0.214   0.631   5.710
 6482SOL    HW120345   0.258   0.686   5.782
 6482SOL    HW220346   0.145   0.571   5.752
 6483SOL     OW20347   0.789   6.116   1.381
 6483SOL    HW120348   0.853   6.161   1.319
 6483SOL    HW220349   0.704   6.096   1.333
 6484SOL     OW20350   3.182   0.161   1.690
 6484SOL    HW120351   3.271   0.158   1.736
 6484SOL    HW220352   3.144   0.068   1.685
 6485SOL     OW20353   1.765   5.248   3.576
 6485SOL    HW120354   1.699   5.183   3.536
 6485SOL    HW220355   1.717   5.332   3.602
 6486SOL     OW20356   2.397   4.958   3.835
 6486SOL    HW120357   2.462   5.014   3.887
 6486SOL    HW220358   2.411   4.862   3.856
 6487SOL     OW20359   0.046   6.410   5.148
 6487SOL    HW120360   0.127   6.361   5.180
 6487SOL    HW220361   0.070   6.467   5.070
 6488SOL     OW20362   3.788   6.149   4.487
 6488SOL    HW120363   3.830   6.177   4.573
 6488SOL    HW220364   3.766   6.230   4.432
 6489SOL     OW20365   2.958   2.600   7.011
 6489SOL    HW120366   3.057   2.583   7.017
 6489SOL    HW220367   2.924   2.572   6.922
 6490SOL     OW20368   4.311   1.194   6.305
 6490SOL    HW120369   4.392   1.172   6.252
 6490SOL    HW220370   4.253   1.257   6.254
 6491SOL     OW20371   3.866   1.331   0.530
 6491SOL    HW120372   3.943   1.347   0.591
 6491SOL    HW220373   3.854   1.409   0.470
 6492SOL     OW20374   5.011   5.057   0.570
 6492SOL    HW120375   5.003   5.067   0.471
 6492SOL    HW220376   5.001   4.961   0.595
 6493SOL     OW20377   1.078   5.441   4.827
 6493SOL    HW120378   1.077   5.393   4.740
 6493SOL    HW220379   0.998   5.414   4.880
 6494SOL     OW20380   6.984   1.125   3.381
 6494SOL    HW120381   6.910   1.180   3.343
 6494SOL    HW220382   6.987   1.037   3.335
 6495SOL     OW20383   5.378   6.462   4.581
 6495SOL    HW120384   5.369   6.405   4.663
 6495SOL    HW220385   5.314   6.429   4.511
 6496SOL     OW20386   0.005   0.919   2.844
 6496SOL    HW120387   0.069   0.887   2.914
 6496SOL    HW220388   6.958   0.848   2.827
 6497SOL     OW20389   2.272   2.999   1.265
 6497SOL    HW120390   2.314   2.979   1.177
 6497SOL    HW220391   2.175   2.976   1.261
 6498SOL     OW20392   2.260   4.261   4.152
 6498SOL    HW120393   2.282   4.230   4.245
 6498SOL    HW220394   2.246   4.182   4.093
 6499SOL     OW20395   5.240   2.952   4.894
 6499SOL    HW120396   5.144   2.973   4.913
 6499SOL    HW220397   5.266   2.992   4.806
 6500SOL     OW20398   6.979   4.130   3.894
 6500SOL    HW120399   0.046   4.144   3.939
 6500SOL    HW220400   6.992   4.070   3.814
 6501SOL     OW20401   6.390   2.266   6.922
 6501SOL    HW120402   6.293   2.250   6.903
 6501SOL    HW220403   6.439   2.286   6.837
 6502SOL     OW20404   6.442   3.085   1.590
 6502SOL    HW120405   6.483   3.158   1.645
 6502SOL    HW220406   6.462   3.103   1.493
 6503SOL     OW20407   4.631   1.217   2.992
 6503SOL    HW120408   4.602   1.122   2.978
 6503SOL    HW220409   4.566   1.262   3.054
 6504SOL     OW20410   4.609   6.421   5.574
 6504SOL    HW120411   4.566   6.463   5.654
 6504SOL    HW220412   4.660   6.490   5.523
 6505SOL     OW20413   5.408   6.097   1.902
 6505SOL    HW120414   5.460   6.181   1.887
 6505SOL    HW220415   5.460   6.035   1.961
 6506SOL     OW20416   6.387   2.622   1.839
 6506SOL    HW120417   6.377   2.686   1.763
 6506SOL    HW220418   6.302   2.569   1.849
 6507SOL     OW20419   2.329   5.234   5.528
 6507SOL    HW120420   2.352   5.269   5.437
 6507SOL    HW220421   2.282   5.146   5.520
 6508SOL     OW20422   1.765   0.697   2.568
 6508SOL    HW120423   1.707   0.740   2.637
 6508SOL    HW220424   1.744   0.600   2.562
 6509SOL     OW20425   3.114   1.898   4.708
 6509SOL    HW120426   3.152   1.986   4.738
 6509SOL    HW220427   3.177   1.855   4.643
 6510SOL     OW20428   0.139   4.658   0.164
 6510SOL    HW120429   0.190   4.611   0.092
 6510SOL    HW220430   0.200   4.723   0.210
 6511SOL     OW20431   4.576   1.308   4.358
 6511SOL    HW120432   4.511   1.303   4.434
 6511SOL    HW220433   4.670   1.307   4.394
 6512SOL     OW20434   4.566   6.602   1.758
 6512SOL    HW120435   4.656   6.571   1.729
 6512SOL    HW220436   4.524   6.654   1.684
 6513SOL     OW20437   3.222   5.027   2.797
 6513SOL    HW120438   3.243   4.978   2.881
 6513SOL    HW220439   3.139   4.990   2.756
 6514SOL     OW20440   5.421   1.037   3.801
 6514SOL    HW120441   5.406   1.113   3.864
 6514SOL    HW220442   5.501   0.985   3.830
 6515SOL     OW20443   0.374   5.442   4.355
 6515SOL    HW120444   0.342   5.517   4.297
 6515SOL    HW220445   0.405   5.366   4.298
 6516SOL     OW20446   0.238   3.079   1.755
 6516SOL    HW120447   0.314   3.022   1.785
 6516SOL    HW220448   0.273   3.151   1.695
 6517SOL     OW20449   6.309   0.357   0.458
 6517SOL    HW120450   6.265   0.363   0.368
 6517SOL    HW220451   6.239   0.344   0.528
 6518SOL     OW20452   6.707   6.409   6.555
 6518SOL    HW120453   6.739   6.485   6.611
 6518SOL    HW220454   6.767   6.331   6.567
 6519SOL     OW20455   2.363   1.489   3.491
 6519SOL    HW120456   2.450   1.512   3.534
 6519SOL    HW220457   2.355   1.390   3.483
 6520SOL     OW20458   5.000   5.703   2.215
 6520SOL    HW120459   5.023   5.745   2.127
 6520SOL    HW220460   4.990   5.604   2.203
 6521SOL     OW20461   2.125   3.394   4.846
 6521SOL    HW120462   2.097   3.306   4.884
 6521SOL    HW220463   2.162   3.381   4.754
 6522SOL     OW20464   4.023   4.404   0.444
 6522SOL    HW120465   3.998   4.457   0.363
 6522SOL    HW220466   4.086   4.457   0.501
 6523SOL     OW20467   3.819   1.127   6.872
 6523SOL    HW120468   3.839   1.225   6.879
 6523SOL    HW220469   3.734   1.107   6.921
 6524SOL     OW20470   2.745   3.868   1.610
 6524SOL    HW120471   2.714   3.791   1.555
 6524SOL    HW220472   2.819   3.838   1.670
 6525SOL     OW20473   1.495   4.583   2.676
 6525SOL    HW120474   1.452   4.602   2.765
 6525SOL    HW220475   1.576   4.525   2.689
 6526SOL     OW20476   2.102   7.008   6.440
 6526SOL    HW120477   2.041   6.935   6.471
 6526SOL    HW220478   2.190   6.969   6.413
 6527SOL     OW20479   0.656   2.858   4.479
 6527SOL    HW120480   0.717   2.923   4.524
 6527SOL    HW220481   0.621   2.793   4.547
 6528SOL     OW20482   0.038   0.865   4.368
 6528SOL    HW120483   0.002   0.958   4.379
 6528SOL    HW220484   6.982   0.800   4.365
 6529SOL     OW20485   1.178   1.418   2.813
 6529SOL    HW120486   1.151   1.514   2.819
 6529SOL    HW220487   1.109   1.367   2.762
 6530SOL     OW20488   0.071   3.527   1.074
 6530SOL    HW120489   0.037   3.465   1.003
 6530SOL    HW220490   0.004   3.599   1.091
 6531SOL     OW20491   5.808   3.703   4.689
 6531SOL    HW120492   5.818   3.763   4.610
 6531SOL    HW220493   5.882   3.721   4.754
 6532SOL     OW20494   6.169   0.441   0.236
 6532SOL    HW120495   6.244   0.494   0.196
 6532SOL    HW220496   6.097   0.503   0.265
 6533SOL     OW20497   4.597   6.709   1.235
 6533SOL    HW120498   4.555   6.789   1.193
 6533SOL    HW220499   4.525   6.648   1.269
 6534SOL     OW20500   3.381   4.152   1.488
 6534SOL    HW120501   3.465   4.110   1.455
 6534SOL    HW220502   3.304   4.090   1.474
 6535SOL     OW20503   6.392   3.864   4.594
 6535SOL    HW120504   6.468   3.914   4.553
 6535SOL    HW220505   6.427   3.796   4.658
 6536SOL     OW20506   0.694   1.571   5.729
 6536SOL    HW120507   0.743   1.553   5.643
 6536SOL    HW220508   0.759   1.603   5.798
 6537SOL     OW20509   6.426   4.975   0.364
 6537SOL    HW120510   6.388   5.056   0.321
 6537SOL    HW220511   6.510   4.948   0.317
 6538SOL     OW20512   2.677   3.714   6.849
 6538SOL    HW120513   2.707   3.656   6.924
 6538SOL    HW220514   2.609   3.779   6.883
 6539SOL     OW20515   3.229   0.576   6.328
 6539SOL    HW120516   3.324   0.602   6.344
 6539SOL    HW220517   3.177   0.656   6.299
 6540SOL     OW20518   5.061   1.320   5.312
 6540SOL    HW120519   5.002   1.314   5.392
 6540SOL    HW220520   5.136   1.255   5.320
 6541SOL     OW20521   4.649   1.513   5.491
 6541SOL    HW120522   4.570   1.460   5.461
 6541SOL    HW220523   4.631   1.611   5.478
 6542SOL     OW20524   6.545   4.308   4.215
 6542SOL    HW120525   6.514   4.402   4.225
 6542SOL    HW220526   6.511   4.270   4.129
 6543SOL     OW20527   5.571   3.261   5.907
 6543SOL    HW120528   5.639   3.333   5.900
 6543SOL    HW220529   5.530   3.244   5.817
 6544SOL     OW20530   0.423   6.258   2.884
 6544SOL    HW120531   0.408   6.349   2.921
 6544SOL    HW220532   0.512   6.255   2.837
 6545SOL     OW20533   5.197   2.234   0.191
 6545SOL    HW120534   5.160   2.324   0.213
 6545SOL    HW220535   5.231   2.235   0.097
 6546SOL     OW20536   3.558   4.552   6.858
 6546SOL    HW120537   3.530   4.524   6.950
 6546SOL    HW220538   3.589   4.472   6.807
 6547SOL     OW20539   4.623   1.264   5.965
 6547SOL    HW120540   4.535   1.305   5.939
 6547SOL    HW220541   4.698   1.316   5.923
 6548SOL     OW20542   1.262   4.002   6.695
 6548SOL    HW120543   1.304   4.018   6.785
 6548SOL    HW220544   1.321   3.942   6.641
 6549SOL     OW20545   4.459   0.654   1.303
 6549SOL    HW120546   4.508   0.741   1.293
 6549SOL    HW220547   4.517   0.588   1.352
 6550SOL     OW20548   0.739   6.509   4.203
 6550SOL    HW120549   0.721   6.608   4.201
 6550SOL    HW220550   0.653   6.460   4.191
 6551SOL     OW20551   1.197   4.952   3.091
 6551SOL    HW120552   1.256   4.945   3.011
 6551SOL    HW220553   1.248   4.992   3.168
 6552SOL     OW20554   2.413   0.002   5.513
 6552SOL    HW120555   2.409   0.054   5.599
 6552SOL    HW220556   2.362   6.937   5.523
 6553SOL     OW20557   0.285   1.796   2.994
 6553SOL    HW120558   0.293   1.875   3.054
 6553SOL    HW220559   0.312   1.714   3.044
 6554SOL     OW20560   5.815   0.847   5.115
 6554SOL    HW120561   5.895   0.894   5.155
 6554SOL    HW220562   5.827   0.839   5.016
 6555SOL     OW20563   0.124   1.861   2.010
 6555SOL    HW120564   0.036   1.904   1.992
 6555SOL    HW220565   0.192   1.931   2.034
 6556SOL     OW20566   4.864   4.381   5.301
 6556SOL    HW120567   4.885   4.283   5.304
 6556SOL    HW220568   4.799   4.399   5.227
 6557SOL     OW20569   3.150   5.873   1.224
 6557SOL    HW120570   3.172   5.896   1.319
 6557SOL    HW220571   3.234   5.869   1.170
 6558SOL     OW20572   6.199   4.606   0.329
 6558SOL    HW120573   6.113   4.643   0.295
 6558SOL    HW220574   6.206   4.621   0.427
 6559SOL     OW20575   0.437   4.262   6.106
 6559SOL    HW120576   0.467   4.326   6.035
 6559SOL    HW220577   0.517   4.222   6.150
 6560SOL     OW20578   4.333   4.681   1.025
 6560SOL    HW120579   4.325   4.587   1.057
 6560SOL    HW220580   4.247   4.729   1.042
 6561SOL     OW20581   3.712   4.079   2.424
 6561SOL    HW120582   3.728   4.173   2.455
 6561SOL    HW220583   3.622   4.074   2.381
 6562SOL     OW20584   5.731   4.213   0.815
 6562SOL    HW120585   5.656   4.245   0.756
 6562SOL    HW220586   5.811   4.194   0.759
 6563SOL     OW20587   6.427   6.491   0.206
 6563SOL    HW120588   6.388   6.580   0.231
 6563SOL    HW220589   6.510   6.505   0.152
 6564SOL     OW20590   0.019   4.148   2.937
 6564SOL    HW120591   6.999   4.227   2.892
 6564SOL    HW220592   0.080   4.178   3.011
 6565SOL     OW20593   6.347   2.734   4.003
 6565SOL    HW120594   6.326   2.768   3.911
 6565SOL    HW220595   6.403   2.652   3.997
 6566SOL     OW20596   3.178   6.473   2.827
 6566SOL    HW120597   3.083   6.503   2.835
 6566SOL    HW220598   3.186   6.377   2.856
 6567SOL     OW20599   4.030   1.769   1.457
 6567SOL    HW120600   4.127   1.771   1.432
 6567SOL    HW220601   3.974   1.786   1.376
 6568SOL     OW20602   4.099   0.702   3.897
 6568SOL    HW120603   4.069   0.630   3.835
 6568SOL    HW220604   4.199   0.703   3.902
 6569SOL     OW20605   2.865   3.566   6.373
 6569SOL    HW120606   2.956   3.571   6.332
 6569SOL    HW220607   2.806   3.509   6.316
 6570SOL     OW20608   4.024   0.046   2.433
 6570SOL    HW120609   3.962   0.035   2.355
 6570SOL    HW220610   4.106   7.012   2.419
 6571SOL     OW20611   2.435   5.574   2.345
 6571SOL    HW120612   2.350   5.526   2.321
 6571SOL    HW220613   2.501   5.564   2.270
 6572SOL     OW20614   6.816   5.113   5.664
 6572SOL    HW120615   6.792   5.052   5.589
 6572SOL    HW220616   6.732   5.150   5.704
 6573SOL     OW20617   2.717   1.379   2.065
 6573SOL    HW120618   2.795   1.318   2.057
 6573SOL    HW220619   2.748   1.470   2.094
 6574SOL     OW20620   3.256   6.203   2.857
 6574SOL    HW120621   3.161   6.175   2.843
 6574SOL    HW220622   3.313   6.169   2.782
 6575SOL     OW20623   1.485   0.425   2.250
 6575SOL    HW120624   1.417   0.498   2.245
 6575SOL    HW220625   1.487   0.376   2.163
 6576SOL     OW20626   2.273   6.241   6.177
 6576SOL    HW120627   2.215   6.225   6.097
 6576SOL    HW220628   2.363   6.273   6.148
 6577SOL     OW20629   0.872   1.388   4.011
 6577SOL    HW120630   0.955   1.339   3.986
 6577SOL    HW220631   0.847   1.452   3.939
 6578SOL     OW20632   0.940   4.580   3.259
 6578SOL    HW120633   0.965   4.643   3.185
 6578SOL    HW220634   1.010   4.510   3.269
 6579SOL     OW20635   0.204   3.387   4.750
 6579SOL    HW120636   0.113   3.354   4.726
 6579SOL    HW220637   0.197   3.476   4.796
 6580SOL     OW20638   6.276   1.810   1.175
 6580SOL    HW120639   6.306   1.904   1.192
 6580SOL    HW220640   6.180   1.800   1.201
 6581SOL     OW20641   2.476   1.303   0.449
 6581SOL    HW120642   2.401   1.251   0.408
 6581SOL    HW220643   2.439   1.367   0.516
 6582SOL     OW20644   1.195   1.158   1.353
 6582SOL    HW120645   1.134   1.168   1.431
 6582SOL    HW220646   1.236   1.067   1.353
 6583SOL     OW20647   4.371   0.311   5.118
 6583SOL    HW120648   4.274   0.333   5.108
 6583SOL    HW220649   4.391   0.294   5.215
 6584SOL     OW20650   4.655   1.917   0.091
 6584SOL    HW120651   4.708   2.002   0.092
 6584SOL    HW220652   4.566   1.933   0.048
 6585SOL     OW20653   6.793   6.746   0.352
 6585SOL    HW120654   6.878   6.713   0.393
 6585SOL    HW220655   6.761   6.680   0.284
 6586SOL     OW20656   6.378   1.850   5.835
 6586SOL    HW120657   6.306   1.895   5.888
 6586SOL    HW220658   6.338   1.807   5.754
 6587SOL     OW20659   3.020   6.048   5.032
 6587SOL    HW120660   2.941   6.025   4.975
 6587SOL    HW220661   3.103   6.045   4.977
 6588SOL     OW20662   1.243   3.931   2.124
 6588SOL    HW120663   1.225   3.844   2.078
 6588SOL    HW220664   1.158   3.967   2.161
 6589SOL     OW20665   5.079   0.558   0.298
 6589SOL    HW120666   4.991   0.550   0.250
 6589SOL    HW220667   5.063   0.584   0.393
 6590SOL     OW20668   0.818   1.553   5.472
 6590SOL    HW120669   0.848   1.601   5.389
 6590SOL    HW220670   0.877   1.475   5.489
 6591SOL     OW20671   5.353   6.148   2.214
 6591SOL    HW120672   5.285   6.187   2.151
 6591SOL    HW220673   5.405   6.076   2.167
 6592SOL     OW20674   6.335   6.985   3.921
 6592SOL    HW120675   6.273   6.966   3.998
 6592SOL    HW220676   6.378   6.900   3.891
 6593SOL     OW20677   2.753   1.708   3.230
 6593SOL    HW120678   2.780   1.788   3.284
 6593SOL    HW220679   2.662   1.723   3.192
 6594SOL     OW20680   3.858   1.971   0.129
 6594SOL    HW120681   3.827   1.888   0.177
 6594SOL    HW220682   3.828   2.052   0.180
 6595SOL     OW20683   0.854   3.111   0.188
 6595SOL    HW120684   0.952   3.131   0.192
 6595SOL    HW220685   0.835   3.054   0.108
 6596SOL     OW20686   3.476   6.598   4.332
 6596SOL    HW120687   3.487   6.536   4.409
 6596SOL    HW220688   3.550   6.584   4.267
 6597SOL     OW20689   2.314   6.192   2.236
 6597SOL    HW120690   2.319   6.220   2.140
 6597SOL    HW220691   2.364   6.257   2.292
 6598SOL     OW20692   1.017   6.617   4.239
 6598SOL    HW120693   0.994   6.712   4.216
 6598SOL    HW220694   0.941   6.557   4.213
 6599SOL     OW20695   4.715   6.656   5.448
 6599SOL    HW120696   4.784   6.634   5.379
 6599SOL    HW220697   4.743   6.736   5.500
 6600SOL     OW20698   5.272   5.224   6.091
 6600SOL    HW120699   5.188   5.277   6.089
 6600SOL    HW220700   5.351   5.286   6.086
 6601SOL     OW20701   1.206   1.953   5.478
 6601SOL    HW120702   1.206   2.032   5.417
 6601SOL    HW220703   1.153   1.973   5.560
 6602SOL     OW20704   0.650   1.719   1.502
 6602SOL    HW120705   0.638   1.714   1.403
 6602SOL    HW220706   0.570   1.764   1.543
 6603SOL     OW20707   0.689   2.704   3.746
 6603SOL    HW120708   0.656   2.791   3.783
 6603SOL    HW220709   0.673   2.702   3.647
 6604SOL     OW20710   2.151   6.530   0.833
 6604SOL    HW120711   2.236   6.521   0.886
 6604SOL    HW220712   2.101   6.444   0.835
 6605SOL     OW20713   5.992   4.125   1.573
 6605SOL    HW120714   5.931   4.139   1.495
 6605SOL    HW220715   5.944   4.147   1.657
 6606SOL     OW20716   6.677   6.301   2.650
 6606SOL    HW120717   6.775   6.312   2.635
 6606SOL    HW220718   6.628   6.381   2.615
 6607SOL     OW20719   1.790   2.760   2.564
 6607SOL    HW120720   1.779   2.713   2.477
 6607SOL    HW220721   1.884   2.751   2.596
 6608SOL     OW20722   5.985   6.196   2.124
 6608SOL    HW120723   6.036   6.282   2.115
 6608SOL    HW220724   5.935   6.195   2.210
 6609SOL     OW20725   4.910   1.147   5.931
 6609SOL    HW120726   4.814   1.131   5.952
 6609SOL    HW220727   4.918   1.219   5.862
 6610SOL     OW20728   2.334   0.979   6.605
 6610SOL    HW120729   2.291   0.994   6.694
 6610SOL    HW220730   2.338   1.065   6.555
 6611SOL     OW20731   6.174   3.072   4.182
 6611SOL    HW120732   6.271   3.051   4.184
 6611SOL    HW220733   6.158   3.165   4.215
 6612SOL     OW20734   6.219   2.059   6.549
 6612SOL    HW120735   6.134   2.088   6.505
 6612SOL    HW220736   6.291   2.127   6.533
 6613SOL     OW20737   6.399   6.637   5.235
 6613SOL    HW120738   6.313   6.634   5.184
 6613SOL    HW220739   6.381   6.667   5.329
 6614SOL     OW20740   5.604   5.953   0.548
 6614SOL    HW120741   5.626   5.932   0.644
 6614SOL    HW220742   5.601   6.052   0.536
 6615SOL     OW20743   0.803   4.425   2.958
 6615SOL    HW120744   0.782   4.455   3.051
 6615SOL    HW220745   0.718   4.419   2.905
 6616SOL     OW20746   3.832   1.035   6.377
 6616SOL    HW120747   3.734   1.048   6.390
 6616SOL    HW220748   3.880   1.051   6.464
 6617SOL     OW20749   3.470   5.172   2.818
 6617SOL    HW120750   3.504   5.213   2.902
 6617SOL    HW220751   3.384   5.125   2.837
 6618SOL     OW20752   1.053   3.006   2.836
 6618SOL    HW120753   1.006   2.919   2.819
 6618SOL    HW220754   1.151   2.990   2.847
 6619SOL     OW20755   6.266   0.081   4.520
 6619SOL    HW120756   6.206   0.110   4.446
 6619SOL    HW220757   6.236   0.124   4.605
 6620SOL     OW20758   1.554   2.916   5.476
 6620SOL    HW120759   1.474   2.899   5.418
 6620SOL    HW220760   1.527   2.910   5.572
 6621SOL     OW20761   2.353   3.349   6.323
 6621SOL    HW120762   2.380   3.258   6.290
 6621SOL    HW220763   2.384   3.360   6.417
 6622SOL     OW20764   5.903   0.091   1.863
 6622SOL    HW120765   5.941   0.182   1.875
 6622SOL    HW220766   5.955   0.043   1.792
 6623SOL     OW20767   2.278   2.786   6.440
 6623SOL    HW120768   2.373   2.776   6.470
 6623SOL    HW220769   2.220   2.802   6.520
 6624SOL     OW20770   1.215   6.114   4.320
 6624SOL    HW120771   1.214   6.014   4.320
 6624SOL    HW220772   1.182   6.148   4.408
 6625SOL     OW20773   5.106   1.592   5.608
 6625SOL    HW120774   5.031   1.639   5.654
 6625SOL    HW220775   5.123   1.634   5.519
 6626SOL     OW20776   4.570   5.632   5.454
 6626SOL    HW120777   4.472   5.615   5.445
 6626SOL    HW220778   4.615   5.616   5.366
 6627SOL     OW20779   2.364   0.550   5.437
 6627SOL    HW120780   2.377   0.617   5.510
 6627SOL    HW220781   2.291   0.488   5.462
 6628SOL     OW20782   4.463   4.558   4.520
 6628SOL    HW120783   4.482   4.575   4.617
 6628SOL    HW220784   4.366   4.576   4.502
 6629SOL     OW20785   4.226   6.056   0.170
 6629SOL    HW120786   4.261   5.976   0.219
 6629SOL    HW220787   4.205   6.129   0.235
 6630SOL     OW20788   4.091   1.274   1.767
 6630SOL    HW120789   4.133   1.306   1.851
 6630SOL    HW220790   4.000   1.314   1.757
 6631SOL     OW20791   2.588   6.426   2.888
 6631SOL    HW120792   2.559   6.471   2.973
 6631SOL    HW220793   2.560   6.481   2.810
 6632SOL     OW20794   0.572   5.841   1.893
 6632SOL    HW120795   0.598   5.931   1.858
 6632SOL    HW220796   0.488   5.811   1.849
 6633SOL     OW20797   0.808   4.521   6.822
 6633SOL    HW120798   0.738   4.470   6.771
 6633SOL    HW220799   0.845   4.593   6.764
 6634SOL     OW20800   6.070   2.221   4.369
 6634SOL    HW120801   6.147   2.162   4.396
 6634SOL    HW220802   6.013   2.173   4.302
 6635SOL     OW20803   4.109   4.961   2.791
 6635SOL    HW120804   4.134   4.935   2.697
 6635SOL    HW220805   4.099   4.878   2.846
 6636SOL     OW20806   4.989   2.068   5.569
 6636SOL    HW120807   4.976   2.054   5.667
 6636SOL    HW220808   4.931   2.144   5.538
 6637SOL     OW20809   1.355   0.029   6.438
 6637SOL    HW120810   1.295   0.041   6.360
 6637SOL    HW220811   1.395   6.958   6.437
 6638SOL     OW20812   3.265   4.104   4.226
 6638SOL    HW120813   3.263   4.004   4.222
 6638SOL    HW220814   3.331   4.132   4.295
 6639SOL     OW20815   5.985   4.916   6.271
 6639SOL    HW120816   6.079   4.882   6.276
 6639SOL    HW220817   5.986   5.016   6.268
 6640SOL     OW20818   1.059   1.817   5.280
 6640SOL    HW120819   1.131   1.857   5.224
 6640SOL    HW220820   1.063   1.855   5.372
 6641SOL     OW20821   2.531   2.325   0.012
 6641SOL    HW120822   2.581   2.391   0.069
 6641SOL    HW220823   2.524   2.361   6.939
 6642SOL     OW20824   3.146   5.014   6.302
 6642SOL    HW120825   3.139   5.052   6.210
 6642SOL    HW220826   3.230   5.048   6.345
 6643SOL     OW20827   6.811   5.544   0.167
 6643SOL    HW120828   6.724   5.516   0.208
 6643SOL    HW220829   6.845   5.625   0.215
 6644SOL     OW20830   2.697   4.769   2.155
 6644SOL    HW120831   2.764   4.723   2.098
 6644SOL    HW220832   2.731   4.774   2.249
 6645SOL     OW20833   6.602   4.896   0.616
 6645SOL    HW120834   6.647   4.814   0.581
 6645SOL    HW220835   6.532   4.870   0.683
 6646SOL     OW20836   3.902   0.244   4.960
 6646SOL    HW120837   3.991   0.273   4.997
 6646SOL    HW220838   3.836   0.234   5.034
 6647SOL     OW20839   4.090   1.206   2.103
 6647SOL    HW120840   4.170   1.156   2.070
 6647SOL    HW220841   4.089   1.203   2.203
 6648SOL     OW20842   3.980   6.714   2.723
 6648SOL    HW120843   4.066   6.749   2.688
 6648SOL    HW220844   3.993   6.681   2.817
 6649SOL     OW20845   5.668   0.991   6.516
 6649SOL    HW120846   5.707   1.067   6.568
 6649SOL    HW220847   5.572   1.012   6.493
 6650SOL     OW20848   3.275   1.763   5.049
 6650SOL    HW120849   3.193   1.819   5.036
 6650SOL    HW220850   3.265   1.677   4.999
 6651SOL     OW20851   2.077   1.709   6.207
 6651SOL    HW120852   2.117   1.672   6.291
 6651SOL    HW220853   2.151   1.739   6.146
 6652SOL     OW20854   0.013   4.077   0.639
 6652SOL    HW120855   0.047   4.038   0.725
 6652SOL    HW220856   6.951   4.028   0.611
 6653SOL     OW20857   3.706   2.863   2.289
 6653SOL    HW120858   3.715   2.783   2.230
 6653SOL    HW220859   3.610   2.881   2.307
 6654SOL     OW20860   1.473   3.508   1.663
 6654SOL    HW120861   1.503   3.501   1.758
 6654SOL    HW220862   1.552   3.532   1.605
 6655SOL     OW20863   1.801   6.857   2.033
 6655SOL    HW120864   1.881   6.797   2.026
 6655SOL    HW220865   1.817   6.925   2.104
 6656SOL     OW20866   5.770   1.554   2.125
 6656SOL    HW120867   5.765   1.455   2.143
 6656SOL    HW220868   5.680   1.595   2.138
 6657SOL     OW20869   5.929   6.052   6.431
 6657SOL    HW120870   6.003   6.109   6.393
 6657SOL    HW220871   5.963   6.004   6.512
 6658SOL     OW20872   6.065   1.205   4.952
 6658SOL    HW120873   6.140   1.181   5.014
 6658SOL    HW220874   5.978   1.182   4.995
 6659SOL     OW20875   1.966   2.606   0.948
 6659SOL    HW120876   2.056   2.646   0.965
 6659SOL    HW220877   1.967   2.510   0.975
 6660SOL     OW20878   0.872   5.331   0.433
 6660SOL    HW120879   0.811   5.331   0.353
 6660SOL    HW220880   0.828   5.379   0.508
 6661SOL     OW20881   1.434   6.233   4.595
 6661SOL    HW120882   1.473   6.315   4.552
 6661SOL    HW220883   1.334   6.237   4.591
 6662SOL     OW20884   0.882   1.293   0.286
 6662SOL    HW120885   0.893   1.238   0.203
 6662SOL    HW220886   0.875   1.233   0.365
 6663SOL     OW20887   0.125   5.266   3.683
 6663SOL    HW120888   0.070   5.189   3.650
 6663SOL    HW220889   0.160   5.245   3.775
 6664SOL     OW20890   2.598   6.147   0.194
 6664SOL    HW120891   2.650   6.216   0.245
 6664SOL    HW220892   2.602   6.168   0.096
 6665SOL     OW20893   1.298   0.141   3.087
 6665SOL    HW120894   1.228   0.074   3.062
 6665SOL    HW220895   1.385   0.095   3.103
 6666SOL     OW20896   5.601   6.949   5.980
 6666SOL    HW120897   5.502   6.958   5.989
 6666SOL    HW220898   5.634   6.878   6.042
 6667SOL     OW20899   6.746   5.963   6.543
 6667SOL    HW120900   6.712   5.913   6.463
 6667SOL    HW220901   6.693   5.936   6.623
 6668SOL     OW20902   6.848   5.732   2.013
 6668SOL    HW120903   6.803   5.649   2.047
 6668SOL    HW220904   6.888   5.782   2.089
 6669SOL     OW20905   1.787   2.850   4.144
 6669SOL    HW120906   1.755   2.760   4.173
 6669SOL    HW220907   1.771   2.862   4.046
 6670SOL     OW20908   3.878   2.421   5.558
 6670SOL    HW120909   3.786   2.382   5.566
 6670SOL    HW220910   3.897   2.440   5.462
 6671SOL     OW20911   5.856   5.659   1.308
 6671SOL    HW120912   5.945   5.691   1.277
 6671SOL    HW220913   5.847   5.561   1.290
 6672SOL     OW20914   7.016   1.837   5.902
 6672SOL    HW120915   6.977   1.752   5.938
 6672SOL    HW220916   6.948   1.883   5.846
 6673SOL     OW20917   5.293   5.879   3.789
 6673SOL    HW120918   5.225   5.940   3.828
 6673SOL    HW220919   5.258   5.842   3.702
 6674SOL     OW20920   1.351   4.541   5.498
 6674SOL    HW120921   1.252   4.538   5.485
 6674SOL    HW220922   1.397   4.515   5.413
 6675SOL     OW20923   4.481   3.416   1.635
 6675SOL    HW120924   4.532   3.479   1.577
 6675SOL    HW220925   4.531   3.329   1.642
 6676SOL     OW20926   6.551   4.604   5.510
 6676SOL    HW120927   6.481   4.540   5.479
 6676SOL    HW220928   6.509   4.676   5.565
 6677SOL     OW20929   0.752   1.928   6.083
 6677SOL    HW120930   0.781   2.021   6.058
 6677SOL    HW220931   0.688   1.894   6.015
 6678SOL     OW20932   2.766   3.182   6.796
 6678SOL    HW120933   2.854   3.137   6.781
 6678SOL    HW220934   2.765   3.269   6.748
 6679SOL     OW20935   2.212   1.872   3.764
 6679SOL    HW120936   2.199   1.780   3.727
 6679SOL    HW220937   2.124   1.910   3.794
 6680SOL     OW20938   4.255   0.380   6.234
 6680SOL    HW120939   4.248   0.351   6.330
 6680SOL    HW220940   4.335   0.438   6.222
 6681SOL     OW20941   4.429   5.209   0.777
 6681SOL    HW120942   4.433   5.139   0.706
 6681SOL    HW220943   4.518   5.217   0.822
 6682SOL     OW20944   1.761   4.379   3.160
 6682SOL    HW120945   1.733   4.433   3.081
 6682SOL    HW220946   1.851   4.339   3.143
 6683SOL     OW20947   5.662   3.214   5.322
 6683SOL    HW120948   5.713   3.179   5.244
 6683SOL    HW220949   5.708   3.188   5.407
 6684SOL     OW20950   2.540   6.707   1.334
 6684SOL    HW120951   2.454   6.659   1.319
 6684SOL    HW220952   2.603   6.687   1.259
 6685SOL     OW20953   5.707   3.003   5.909
 6685SOL    HW120954   5.646   3.081   5.902
 6685SOL    HW220955   5.751   3.003   5.999
 6686SOL     OW20956   5.296   5.846   4.946
 6686SOL    HW120957   5.315   5.881   5.038
 6686SOL    HW220958   5.382   5.836   4.896
 6687SOL     OW20959   1.173   2.751   0.285
 6687SOL    HW120960   1.134   2.705   0.364
 6687SOL    HW220961   1.107   2.752   0.210
 6688SOL     OW20962   0.067   4.249   1.823
 6688SOL    HW120963   0.163   4.244   1.794
 6688SOL    HW220964   0.016   4.308   1.760
 6689SOL     OW20965   4.503   3.301   7.010
 6689SOL    HW120966   4.465   3.220   6.965
 6689SOL    HW220967   4.493   3.381   6.950
 6690SOL     OW20968   2.395   0.784   1.286
 6690SOL    HW120969   2.380   0.730   1.203
 6690SOL    HW220970   2.348   0.741   1.363
 6691SOL     OW20971   3.005   6.445   1.218
 6691SOL    HW120972   2.920   6.491   1.194
 6691SOL    HW220973   2.989   6.383   1.295
 6692SOL     OW20974   3.997   4.032   5.484
 6692SOL    HW120975   3.999   4.114   5.426
 6692SOL    HW220976   4.005   3.950   5.426
 6693SOL     OW20977   4.362   3.754   5.917
 6693SOL    HW120978   4.437   3.720   5.861
 6693SOL    HW220979   4.379   3.849   5.941
 6694SOL     OW20980   5.245   5.088   0.960
 6694SOL    HW120981   5.314   5.027   1.000
 6694SOL    HW220982   5.209   5.047   0.876
 6695SOL     OW20983   2.303   1.557   6.613
 6695SOL    HW120984   2.233   1.495   6.579
 6695SOL    HW220985   2.329   1.531   6.706
 6696SOL     OW20986   1.020   2.988   6.017
 6696SOL    HW120987   0.934   3.039   6.014
 6696SOL    HW220988   1.059   2.985   5.925
 6697SOL     OW20989   4.829   2.936   2.977
 6697SOL    HW120990   4.860   2.888   3.060
 6697SOL    HW220991   4.744   2.894   2.945
 6698SOL     OW20992   3.063   2.693   0.861
 6698SOL    HW120993   2.995   2.630   0.896
 6698SOL    HW220994   3.153   2.668   0.895
 6699SOL     OW20995   3.147   5.150   6.075
 6699SOL    HW120996   3.052   5.175   6.056
 6699SOL    HW220997   3.184   5.099   5.997
 6700SOL     OW20998   0.007   6.730   0.737
 6700SOL    HW120999   0.006   6.830   0.746
 6700SOL    HW221000   6.937   6.694   0.756
 6701SOL     OW21001   5.390   2.433   1.541
 6701SOL    HW121002   5.377   2.507   1.608
 6701SOL    HW221003   5.329   2.357   1.563
 6702SOL     OW21004   2.837   2.445   1.531
 6702SOL    HW121005   2.894   2.367   1.559
 6702SOL    HW221006   2.831   2.510   1.607
 6703SOL     OW21007   6.129   2.030   0.147
 6703SOL    HW121008   6.156   2.035   0.051
 6703SOL    HW221009   6.109   1.935   0.172
 6704SOL     OW21010   3.967   2.150   3.050
 6704SOL    HW121011   4.032   2.222   3.074
 6704SOL    HW221012   3.920   2.118   3.132
 6705SOL     OW21013   6.624   2.075   1.220
 6705SOL    HW121014   6.616   2.170   1.250
 6705SOL    HW221015   6.648   2.073   1.123
 6706SOL     OW21016   1.129   3.846   1.839
 6706SOL    HW121017   1.101   3.866   1.745
 6706SOL    HW221018   1.056   3.796   1.886
 6707SOL     OW21019   0.120   6.319   3.734
 6707SOL    HW121020   0.140   6.359   3.824
 6707SOL    HW221021   0.060   6.240   3.745
 6708SOL     OW21022   0.294   5.649   2.136
 6708SOL    HW121023   0.386   5.613   2.151
 6708SOL    HW221024   0.230   5.601   2.197
 6709SOL     OW21025   2.563   6.921   1.926
 6709SOL    HW121026   2.508   6.996   1.889
 6709SOL    HW221027   2.575   6.851   1.856
 6710SOL     OW21028   2.986   1.077   5.646
 6710SOL    HW121029   2.991   0.988   5.692
 6710SOL    HW221030   2.909   1.077   5.582
 6711SOL     OW21031   4.978   5.032   0.280
 6711SOL    HW121032   4.908   4.974   0.239
 6711SOL    HW221033   4.981   5.120   0.233
 6712SOL     OW21034   4.634   5.175   0.439
 6712SOL    HW121035   4.653   5.197   0.344
 6712SOL    HW221036   4.688   5.236   0.499
 6713SOL     OW21037   2.546   1.443   1.814
 6713SOL    HW121038   2.582   1.414   1.902
 6713SOL    HW221039   2.611   1.420   1.741
 6714SOL     OW21040   6.036   1.113   6.682
 6714SOL    HW121041   5.938   1.131   6.672
 6714SOL    HW221042   6.060   1.114   6.780
 6715SOL     OW21043   0.104   0.030   6.403
 6715SOL    HW121044   0.187   0.063   6.447
 6715SOL    HW221045   0.103   0.058   6.307
 6716SOL     OW21046   0.711   5.740   2.104
 6716SOL    HW121047   0.658   5.762   2.021
 6716SOL    HW221048   0.807   5.725   2.079
 6717SOL     OW21049   4.565   2.626   0.347
 6717SOL    HW121050   4.581   2.723   0.362
 6717SOL    HW221051   4.484   2.597   0.398
 6718SOL     OW21052   4.736   0.152   5.987
 6718SOL    HW121053   4.797   0.162   5.908
 6718SOL    HW221054   4.644   0.182   5.962
 6719SOL     OW21055   1.472   0.135   6.149
 6719SOL    HW121056   1.415   0.211   6.183
 6719SOL    HW221057   1.549   0.121   6.211
 6720SOL     OW21058   0.749   5.368   3.645
 6720SOL    HW121059   0.834   5.385   3.693
 6720SOL    HW221060   0.739   5.433   3.569
 6721SOL     OW21061   6.608   0.574   5.447
 6721SOL    HW121062   6.704   0.599   5.441
 6721SOL    HW221063   6.574   0.592   5.540
 6722SOL     OW21064   6.862   3.733   1.715
 6722SOL    HW121065   6.895   3.668   1.784
 6722SOL    HW221066   6.939   3.764   1.659
 6723SOL     OW21067   1.736   6.908   3.024
 6723SOL    HW121068   1.814   6.905   3.087
 6723SOL    HW221069   1.736   6.827   2.966
 6724SOL     OW21070   1.212   3.611   6.067
 6724SOL    HW121071   1.245   3.554   6.142
 6724SOL    HW221072   1.135   3.564   6.021
 6725SOL     OW21073   1.064   3.795   0.920
 6725SOL    HW121074   1.132   3.849   0.870
 6725SOL    HW221075   0.979   3.848   0.929
 6726SOL     OW21076   0.708   2.262   4.816
 6726SOL    HW121077   0.761   2.344   4.836
 6726SOL    HW221078   0.762   2.201   4.758
 6727SOL     OW21079   6.521   3.927   5.802
 6727SOL    HW121080   6.530   3.872   5.719
 6727SOL    HW221081   6.539   3.870   5.882
 6728SOL     OW21082   4.674   1.252   4.048
 6728SOL    HW121083   4.629   1.255   4.138
 6728SOL    HW221084   4.773   1.258   4.060
 6729SOL     OW21085   0.072   1.519   2.093
 6729SOL    HW121086   0.002   1.541   2.160
 6729SOL    HW221087   0.073   1.421   2.076
 6730SOL     OW21088   2.616   6.273   6.970
 6730SOL    HW121089   2.685   6.345   6.967
 6730SOL    HW221090   2.525   6.313   6.977
 6731SOL     OW21091   1.361   5.346   1.179
 6731SOL    HW121092   1.366   5.415   1.251
 6731SOL    HW221093   1.446   5.294   1.176
 6732SOL     OW21094   4.197   5.101   5.959
 6732SOL    HW121095   4.268   5.093   6.030
 6732SOL    HW221096   4.209   5.187   5.911
 6733SOL     OW21097   4.077   5.240   0.901
 6733SOL    HW121098   4.115   5.317   0.849
 6733SOL    HW221099   4.150   5.175   0.922
 6734SOL     OW21100   0.074   2.546   4.818
 6734SOL    HW121101   0.126   2.475   4.771
 6734SOL    HW221102   0.057   2.623   4.756
 6735SOL     OW21103   6.889   4.636   4.704
 6735SOL    HW121104   6.965   4.664   4.646
 6735SOL    HW221105   6.831   4.715   4.724
 6736SOL     OW21106   2.917   3.513   0.291
 6736SOL    HW121107   2.844   3.565   0.247
 6736SOL    HW221108   2.891   3.417   0.296
 6737SOL     OW21109   2.443   2.813   0.884
 6737SOL    HW121110   2.395   2.803   0.797
 6737SOL    HW221111   2.541   2.803   0.869
 6738SOL     OW21112   1.930   3.935   2.720
 6738SOL    HW121113   1.849   3.991   2.705
 6738SOL    HW221114   1.943   3.921   2.818
 6739SOL     OW21115   3.628   4.885   5.819
 6739SOL    HW121116   3.628   4.785   5.823
 6739SOL    HW221117   3.722   4.918   5.829
 6740SOL     OW21118   1.693   1.430   4.669
 6740SOL    HW121119   1.653   1.515   4.702
 6740SOL    HW221120   1.788   1.423   4.699
 6741SOL     OW21121   4.411   1.381   5.847
 6741SOL    HW121122   4.398   1.411   5.752
 6741SOL    HW221123   4.376   1.450   5.909
 6742SOL     OW21124   6.225   5.492   2.717
 6742SOL    HW121125   6.167   5.430   2.772
 6742SOL    HW221126   6.199   5.586   2.735
 6743SOL     OW21127   4.398   4.257   0.841
 6743SOL    HW121128   4.334   4.285   0.913
 6743SOL    HW221129   4.491   4.281   0.868
 6744SOL     OW21130   4.906   5.529   6.005
 6744SOL    HW121131   4.810   5.502   6.002
 6744SOL    HW221132   4.932   5.565   5.915
 6745SOL     OW21133   0.734   6.618   1.930
 6745SOL    HW121134   0.754   6.528   1.890
 6745SOL    HW221135   0.774   6.623   2.021
 6746SOL     OW21136   1.204   0.899   3.375
 6746SOL    HW121137   1.189   0.976   3.437
 6746SOL    HW221138   1.257   0.929   3.297
 6747SOL     OW21139   5.513   0.313   4.878
 6747SOL    HW121140   5.570   0.310   4.960
 6747SOL    HW221141   5.488   0.220   4.851
 6748SOL     OW21142   1.224   0.368   2.902
 6748SOL    HW121143   1.307   0.405   2.859
 6748SOL    HW221144   1.248   0.324   2.988
 6749SOL     OW21145   3.022   5.863   0.142
 6749SOL    HW121146   2.939   5.916   0.124
 6749SOL    HW221147   3.006   5.767   0.121
 6750SOL     OW21148   4.617   1.071   5.094
 6750SOL    HW121149   4.614   1.050   4.996
 6750SOL    HW221150   4.712   1.071   5.125
 6751SOL     OW21151   3.956   1.347   3.608
 6751SOL    HW121152   3.975   1.276   3.540
 6751SOL    HW221153   3.861   1.337   3.639
 6752SOL     OW21154   6.958   3.168   2.832
 6752SOL    HW121155   6.909   3.238   2.885
 6752SOL    HW221156   6.930   3.173   2.736
 6753SOL     OW21157   4.517   0.854   6.320
 6753SOL    HW121158   4.464   0.863   6.404
 6753SOL    HW221159   4.487   0.924   6.255
 6754SOL     OW21160   6.781   1.320   6.712
 6754SOL    HW121161   6.683   1.317   6.730
 6754SOL    HW221162   6.806   1.248   6.647
 6755SOL     OW21163   4.668   1.737   3.224
 6755SOL    HW121164   4.728   1.700   3.295
 6755SOL    HW221165   4.629   1.662   3.171
 6756SOL     OW21166   4.581   4.706   4.292
 6756SOL    HW121167   4.515   4.752   4.234
 6756SOL    HW221168   4.533   4.649   4.359
 6757SOL     OW21169   4.893   6.869   1.457
 6757SOL    HW121170   4.918   6.781   1.418
 6757SOL    HW221171   4.808   6.901   1.415
 6758SOL     OW21172   6.540   3.757   1.338
 6758SOL    HW121173   6.616   3.698   1.367
 6758SOL    HW221174   6.464   3.746   1.403
 6759SOL     OW21175   0.884   3.777   4.804
 6759SOL    HW121176   0.880   3.712   4.879
 6759SOL    HW221177   0.794   3.820   4.792
 6760SOL     OW21178   6.806   4.872   4.272
 6760SOL    HW121179   6.806   4.966   4.237
 6760SOL    HW221180   6.721   4.856   4.323
 6761SOL     OW21181   6.173   2.736   6.612
 6761SOL    HW121182   6.139   2.732   6.706
 6761SOL    HW221183   6.143   2.821   6.569
 6762SOL     OW21184   6.826   5.475   3.535
 6762SOL    HW121185   6.828   5.505   3.630
 6762SOL    HW221186   6.919   5.461   3.502
 6763SOL     OW21187   6.624   6.064   3.813
 6763SOL    HW121188   6.620   6.120   3.896
 6763SOL    HW221189   6.617   5.967   3.838
 6764SOL     OW21190   2.982   4.913   6.476
 6764SOL    HW121191   2.997   4.948   6.569
 6764SOL    HW221192   3.042   4.960   6.412
 6765SOL     OW21193   4.954   5.077   3.588
 6765SOL    HW121194   4.918   5.012   3.521
 6765SOL    HW221195   4.895   5.158   3.592
 6766SOL     OW21196   4.007   6.786   6.499
 6766SOL    HW121197   3.983   6.852   6.428
 6766SOL    HW221198   4.098   6.806   6.534
 6767SOL     OW21199   0.732   2.537   0.848
 6767SOL    HW121200   0.758   2.444   0.874
 6767SOL    HW221201   0.637   2.538   0.820
 6768SOL     OW21202   0.788   6.259   3.923
 6768SOL    HW121203   0.806   6.330   3.854
 6768SOL    HW221204   0.870   6.247   3.979
 6769SOL     OW21205   3.215   0.739   5.216
 6769SOL    HW121206   3.245   0.764   5.308
 6769SOL    HW221207   3.252   0.805   5.150
 6770SOL     OW21208   6.761   2.459   3.811
 6770SOL    HW121209   6.731   2.423   3.723
 6770SOL    HW221210   6.825   2.534   3.796
 6771SOL     OW21211   3.406   1.875   2.997
 6771SOL    HW121212   3.486   1.933   2.980
 6771SOL    HW221213   3.381   1.827   2.913
 6772SOL     OW21214   5.530   1.817   2.550
 6772SOL    HW121215   5.472   1.850   2.475
 6772SOL    HW221216   5.597   1.888   2.574
 6773SOL     OW21217   6.822   6.993   1.158
 6773SOL    HW121218   6.918   6.989   1.186
 6773SOL    HW221219   6.810   6.942   1.073
 6774SOL     OW21220   1.887   2.321   4.560
 6774SOL    HW121221   1.959   2.269   4.515
 6774SOL    HW221222   1.871   2.282   4.651
 6775SOL     OW21223   0.371   2.184   3.540
 6775SOL    HW121224   0.329   2.121   3.605
 6775SOL    HW221225   0.335   2.168   3.448
 6776SOL     OW21226   3.776   3.563   1.543
 6776SOL    HW121227   3.842   3.489   1.528
 6776SOL    HW221228   3.751   3.604   1.455
 6777SOL     OW21229   4.196   5.532   1.018
 6777SOL    HW121230   4.233   5.457   1.074
 6777SOL    HW221231   4.220   5.517   0.922
 6778SOL     OW21232   5.853   3.059   2.497
 6778SOL    HW121233   5.755   3.068   2.483
 6778SOL    HW221234   5.890   3.142   2.537
 6779SOL     OW21235   5.411   4.854   6.621
 6779SOL    HW121236   5.509   4.843   6.639
 6779SOL    HW221237   5.396   4.863   6.523
 6780SOL     OW21238   1.990   3.588   2.824
 6780SOL    HW121239   2.016   3.493   2.810
 6780SOL    HW221240   1.890   3.595   2.829
 6781SOL     OW21241   6.580   1.129   3.265
 6781SOL    HW121242   6.581   1.047   3.208
 6781SOL    HW221243   6.495   1.132   3.317
 6782SOL     OW21244   1.045   0.798   3.700
 6782SOL    HW121245   0.997   0.711   3.697
 6782SOL    HW221246   1.094   0.806   3.787
 6783SOL     OW21247   0.798   4.084   4.827
 6783SOL    HW121248   0.820   4.091   4.730
 6783SOL    HW221249   0.795   4.176   4.867
 6784SOL     OW21250   2.291   3.963   1.971
 6784SOL    HW121251   2.331   4.053   1.955
 6784SOL    HW221252   2.357   3.893   1.946
 6785SOL     OW21253   5.663   5.458   5.716
 6785SOL    HW121254   5.751   5.504   5.699
 6785SOL    HW221255   5.606   5.517   5.773
 6786SOL     OW21256   6.633   3.200   6.804
 6786SOL    HW121257   6.640   3.122   6.741
 6786SOL    HW221258   6.657   3.170   6.896
 6787SOL     OW21259   2.869   2.319   1.123
 6787SOL    HW121260   2.826   2.240   1.168
 6787SOL    HW221261   2.820   2.402   1.148
 6788SOL     OW21262   0.287   4.044   2.663
 6788SOL    HW121263   0.288   4.136   2.701
 6788SOL    HW221264   0.197   4.025   2.623
 6789SOL     OW21265   0.067   4.862   4.324
 6789SOL    HW121266   0.093   4.777   4.371
 6789SOL    HW221267   6.990   4.878   4.335
 6790SOL     OW21268   0.347   4.341   6.889
 6790SOL    HW121269   0.385   4.430   6.913
 6790SOL    HW221270   0.292   4.350   6.806
 6791SOL     OW21271   4.401   1.745   2.943
 6791SOL    HW121272   4.361   1.811   2.880
 6791SOL    HW221273   4.412   1.786   3.033
 6792SOL     OW21274   4.306   6.963   5.348
 6792SOL    HW121275   4.324   0.002   5.426
 6792SOL    HW221276   4.338   6.870   5.368
 6793SOL     OW21277   3.107   1.742   6.935
 6793SOL    HW121278   3.081   1.831   6.897
 6793SOL    HW221279   3.055   1.670   6.890
 6794SOL     OW21280   4.815   1.388   5.824
 6794SOL    HW121281   4.826   1.485   5.848
 6794SOL    HW221282   4.777   1.381   5.731
 6795SOL     OW21283   0.762   6.737   0.288
 6795SOL    HW121284   0.844   6.781   0.252
 6795SOL    HW221285   0.689   6.744   0.220
 6796SOL     OW21286   5.508   0.867   2.254
 6796SOL    HW121287   5.440   0.867   2.180
 6796SOL    HW221288   5.527   0.960   2.282
 6797SOL     OW21289   6.875   1.813   0.804
 6797SOL    HW121290   6.896   1.743   0.736
 6797SOL    HW221291   6.954   1.825   0.864
 6798SOL     OW21292   6.064   6.951   1.663
 6798SOL    HW121293   6.005   6.916   1.590
 6798SOL    HW221294   6.153   6.974   1.625
 6799SOL     OW21295   5.228   0.544   2.542
 6799SOL    HW121296   5.321   0.506   2.547
 6799SOL    HW221297   5.227   0.634   2.585
 6800SOL     OW21298   2.269   2.584   1.665
 6800SOL    HW121299   2.229   2.494   1.649
 6800SOL    HW221300   2.196   2.651   1.678
 6801SOL     OW21301   0.701   6.699   3.908
 6801SOL    HW121302   0.665   6.688   3.815
 6801SOL    HW221303   0.801   6.689   3.905
 6802SOL     OW21304   3.552   5.633   0.169
 6802SOL    HW121305   3.461   5.671   0.154
 6802SOL    HW221306   3.606   5.696   0.224
 6803SOL     OW21307   4.813   3.810   6.859
 6803SOL    HW121308   4.885   3.752   6.898
 6803SOL    HW221309   4.729   3.756   6.848
 6804SOL     OW21310   3.059   4.802   2.638
 6804SOL    HW121311   3.059   4.815   2.539
 6804SOL    HW221312   3.132   4.739   2.664
 6805SOL     OW21313   0.486   5.315   6.825
 6805SOL    HW121314   0.417   5.381   6.797
 6805SOL    HW221315   0.577   5.346   6.797
 6806SOL     OW21316   6.839   0.827   3.938
 6806SOL    HW121317   6.835   0.766   4.017
 6806SOL    HW221318   6.749   0.835   3.897
 6807SOL     OW21319   3.531   3.537   3.070
 6807SOL    HW121320   3.559   3.447   3.036
 6807SOL    HW221321   3.432   3.548   3.058
 6808SOL     OW21322   5.558   0.961   5.227
 6808SOL    HW121323   5.596   1.012   5.304
 6808SOL    HW221324   5.617   0.883   5.206
 6809SOL     OW21325   6.444   3.934   1.145
 6809SOL    HW121326   6.479   3.869   1.212
 6809SOL    HW221327   6.460   4.027   1.177
 6810SOL     OW21328   3.702   1.237   3.237
 6810SOL    HW121329   3.763   1.284   3.173
 6810SOL    HW221330   3.653   1.164   3.189
 6811SOL     OW21331   6.699   2.863   2.379
 6811SOL    HW121332   6.676   2.797   2.307
 6811SOL    HW221333   6.615   2.898   2.421
 6812SOL     OW21334   3.573   3.614   4.534
 6812SOL    HW121335   3.652   3.643   4.589
 6812SOL    HW221336   3.563   3.515   4.539
 6813SOL     OW21337   5.708   3.344   2.483
 6813SOL    HW121338   5.666   3.403   2.415
 6813SOL    HW221339   5.643   3.272   2.509
 6814SOL     OW21340   4.538   1.592   6.628
 6814SOL    HW121341   4.534   1.692   6.624
 6814SOL    HW221342   4.548   1.555   6.535
 6815SOL     OW21343   1.702   5.456   6.638
 6815SOL    HW121344   1.619   5.497   6.677
 6815SOL    HW221345   1.748   5.401   6.708
 6816SOL     OW21346   6.772   1.543   4.132
 6816SOL    HW121347   6.796   1.567   4.226
 6816SOL    HW221348   6.846   1.570   4.070
 6817SOL     OW21349   2.577   2.467   4.289
 6817SOL    HW121350   2.649   2.417   4.241
 6817SOL    HW221351   2.602   2.477   4.386
 6818SOL     OW21352   1.974   6.382   6.481
 6818SOL    HW121353   1.882   6.342   6.478
 6818SOL    HW221354   1.976   6.464   6.423
 6819SOL     OW21355   4.528   6.931   2.116
 6819SOL    HW121356   4.498   7.013   2.165
 6819SOL    HW221357   4.531   6.853   2.180
 6820SOL     OW21358   1.624   5.688   1.244
 6820SOL    HW121359   1.564   5.673   1.322
 6820SOL    HW221360   1.617   5.782   1.212
 6821SOL     OW21361   4.649   2.758   5.944
 6821SOL    HW121362   4.717   2.720   5.881
 6821SOL    HW221363   4.593   2.825   5.896
 6822SOL     OW21364   6.755   2.469   6.774
 6822SOL    HW121365   6.705   2.551   6.804
 6822SOL    HW221366   6.806   2.432   6.851
 6823SOL     OW21367   5.338   4.077   6.538
 6823SOL    HW121368   5.412   4.042   6.595
 6823SOL    HW221369   5.375   4.145   6.474
 6824SOL     OW21370   1.431   1.517   6.790
 6824SOL    HW121371   1.441   1.468   6.876
 6824SOL    HW221372   1.358   1.585   6.798
 6825SOL     OW21373   6.397   6.066   0.737
 6825SOL    HW121374   6.322   6.097   0.678
 6825SOL    HW221375   6.484   6.080   0.690
 6826SOL     OW21376   0.813   3.466   3.711
 6826SOL    HW121377   0.822   3.450   3.809
 6826SOL    HW221378   0.755   3.395   3.671
 6827SOL     OW21379   4.562   5.245   5.816
 6827SOL    HW121380   4.534   5.309   5.745
 6827SOL    HW221381   4.620   5.293   5.883
 6828SOL     OW21382   3.703   1.746   2.330
 6828SOL    HW121383   3.660   1.781   2.246
 6828SOL    HW221384   3.775   1.808   2.360
 6829SOL     OW21385   5.641   0.291   5.123
 6829SOL    HW121386   5.579   0.228   5.170
 6829SOL    HW221387   5.683   0.352   5.189
 6830SOL     OW21388   6.075   1.284   3.307
 6830SOL    HW121389   6.099   1.379   3.326
 6830SOL    HW221390   6.132   1.249   3.233
 6831SOL     OW21391   1.185   1.534   5.933
 6831SOL    HW121392   1.186   1.584   5.847
 6831SOL    HW221393   1.103   1.477   5.937
 6832SOL     OW21394   2.523   3.398   0.388
 6832SOL    HW121395   2.526   3.495   0.364
 6832SOL    HW221396   2.607   3.374   0.436
 6833SOL     OW21397   3.398   5.328   5.877
 6833SOL    HW121398   3.453   5.367   5.803
 6833SOL    HW221399   3.410   5.384   5.959
 6834SOL     OW21400   4.964   6.933   1.051
 6834SOL    HW121401   4.934   6.856   0.994
 6834SOL    HW221402   5.015   6.898   1.130
 6835SOL     OW21403   4.092   1.599   4.777
 6835SOL    HW121404   4.168   1.639   4.829
 6835SOL    HW221405   4.126   1.568   4.688
 6836SOL     OW21406   1.665   4.029   6.417
 6836SOL    HW121407   1.622   4.114   6.385
 6836SOL    HW221408   1.698   4.042   6.511
 6837SOL     OW21409   1.162   0.847   2.577
 6837SOL    HW121410   1.225   0.901   2.522
 6837SOL    HW221411   1.139   0.897   2.660
 6838SOL     OW21412   2.439   4.402   5.289
 6838SOL    HW121413   2.530   4.362   5.281
 6838SOL    HW221414   2.426   4.438   5.381
 6839SOL     OW21415   5.787   2.311   3.797
 6839SOL    HW121416   5.704   2.361   3.775
 6839SOL    HW221417   5.764   2.231   3.852
 6840SOL     OW21418   2.736   6.427   5.352
 6840SOL    HW121419   2.683   6.372   5.416
 6840SOL    HW221420   2.675   6.492   5.306
 6841SOL     OW21421   3.848   4.903   1.336
 6841SOL    HW121422   3.821   4.829   1.398
 6841SOL    HW221423   3.770   4.927   1.277
 6842SOL     OW21424   1.419   2.249   6.522
 6842SOL    HW121425   1.467   2.274   6.606
 6842SOL    HW221426   1.413   2.150   6.514
 6843SOL     OW21427   4.832   0.974   1.605
 6843SOL    HW121428   4.857   0.956   1.510
 6843SOL    HW221429   4.865   0.901   1.664
 6844SOL     OW21430   5.472   5.870   4.038
 6844SOL    HW121431   5.423   5.859   3.951
 6844SOL    HW221432   5.543   5.800   4.046
 6845SOL     OW21433   4.970   4.052   2.185
 6845SOL    HW121434   5.053   4.089   2.143
 6845SOL    HW221435   4.945   3.967   2.140
 6846SOL     OW21436   4.056   3.204   1.474
 6846SOL    HW121437   4.102   3.196   1.385
 6846SOL    HW221438   4.118   3.249   1.539
 6847SOL     OW21439   5.588   3.893   2.248
 6847SOL    HW121440   5.611   3.842   2.331
 6847SOL    HW221441   5.489   3.895   2.236
 6848SOL     OW21442   1.756   5.771   3.207
 6848SOL    HW121443   1.851   5.786   3.177
 6848SOL    HW221444   1.697   5.840   3.165
 6849SOL     OW21445   3.710   5.456   3.838
 6849SOL    HW121446   3.613   5.443   3.859
 6849SOL    HW221447   3.764   5.447   3.921
 6850SOL     OW21448   5.629   2.671   2.965
 6850SOL    HW121449   5.590   2.763   2.959
 6850SOL    HW221450   5.599   2.617   2.887
 6851SOL     OW21451   1.727   4.228   4.797
 6851SOL    HW121452   1.776   4.150   4.835
 6851SOL    HW221453   1.666   4.266   4.866
 6852SOL     OW21454   1.071   4.819   0.985
 6852SOL    HW121455   1.037   4.871   1.063
 6852SOL    HW221456   1.145   4.870   0.941
 6853SOL     OW21457   6.422   3.834   6.939
 6853SOL    HW121458   6.517   3.814   6.915
 6853SOL    HW221459   6.362   3.804   6.864
 6854SOL     OW21460   5.816   0.989   5.959
 6854SOL    HW121461   5.771   1.054   6.020
 6854SOL    HW221462   5.880   0.933   6.011
 6855SOL     OW21463   3.568   6.282   2.746
 6855SOL    HW121464   3.517   6.204   2.711
 6855SOL    HW221465   3.601   6.338   2.670
 6856SOL     OW21466   4.661   4.370   5.487
 6856SOL    HW121467   4.701   4.293   5.538
 6856SOL    HW221468   4.728   4.405   5.422
 6857SOL     OW21469   3.197   1.523   6.641
 6857SOL    HW121470   3.139   1.506   6.720
 6857SOL    HW221471   3.201   1.621   6.623
 6858SOL     OW21472   4.009   3.287   5.002
 6858SOL    HW121473   4.006   3.239   5.090
 6858SOL    HW221474   3.949   3.241   4.937
 6859SOL     OW21475   1.299   6.335   0.732
 6859SOL    HW121476   1.234   6.290   0.792
 6859SOL    HW221477   1.364   6.388   0.786
 6860SOL     OW21478   5.850   4.949   2.027
 6860SOL    HW121479   5.814   4.966   2.119
 6860SOL    HW221480   5.830   5.028   1.969
 6861SOL     OW21481   5.782   4.519   1.684
 6861SOL    HW121482   5.722   4.596   1.662
 6861SOL    HW221483   5.851   4.508   1.613
 6862SOL     OW21484   2.090   4.299   4.644
 6862SOL    HW121485   2.001   4.296   4.689
 6862SOL    HW221486   2.154   4.353   4.699
 6863SOL     OW21487   5.681   1.567   4.447
 6863SOL    HW121488   5.640   1.567   4.356
 6863SOL    HW221489   5.749   1.495   4.454
 6864SOL     OW21490   3.708   5.787   3.728
 6864SOL    HW121491   3.635   5.813   3.665
 6864SOL    HW221492   3.682   5.706   3.779
 6865SOL     OW21493   6.012   5.251   3.191
 6865SOL    HW121494   5.929   5.281   3.238
 6865SOL    HW221495   6.092   5.296   3.231
 6866SOL     OW21496   5.817   4.046   2.140
 6866SOL    HW121497   5.724   4.071   2.167
 6866SOL    HW221498   5.855   3.981   2.206
 6867SOL     OW21499   1.332   4.768   1.290
 6867SOL    HW121500   1.259   4.701   1.282
 6867SOL    HW221501   1.343   4.816   1.203
 6868SOL     OW21502   1.903   5.395   5.063
 6868SOL    HW121503   1.850   5.372   5.144
 6868SOL    HW221504   1.950   5.482   5.077
 6869SOL     OW21505   5.863   2.652   5.359
 6869SOL    HW121506   5.909   2.708   5.290
 6869SOL    HW221507   5.862   2.556   5.329
 6870SOL     OW21508   6.533   3.523   2.549
 6870SOL    HW121509   6.509   3.447   2.488
 6870SOL    HW221510   6.580   3.487   2.629
 6871SOL     OW21511   5.803   4.837   2.470
 6871SOL    HW121512   5.796   4.774   2.393
 6871SOL    HW221513   5.713   4.849   2.512
 6872SOL     OW21514   1.660   3.178   0.907
 6872SOL    HW121515   1.751   3.215   0.923
 6872SOL    HW221516   1.661   3.119   0.826
 6873SOL     OW21517   5.690   3.536   5.581
 6873SOL    HW121518   5.750   3.568   5.654
 6873SOL    HW221519   5.715   3.580   5.495
 6874SOL     OW21520   0.341   4.595   3.295
 6874SOL    HW121521   0.279   4.640   3.231
 6874SOL    HW221522   0.363   4.658   3.370
 6875SOL     OW21523   1.592   2.476   3.574
 6875SOL    HW121524   1.592   2.539   3.497
 6875SOL    HW221525   1.676   2.487   3.627
 6876SOL     OW21526   3.929   4.999   6.039
 6876SOL    HW121527   4.017   5.035   6.009
 6876SOL    HW221528   3.897   4.929   5.974
 6877SOL     OW21529   2.167   4.030   6.495
 6877SOL    HW121530   2.265   4.013   6.501
 6877SOL    HW221531   2.140   4.038   6.398
 6878SOL     OW21532   2.188   2.439   5.289
 6878SOL    HW121533   2.175   2.526   5.242
 6878SOL    HW221534   2.123   2.431   5.365
 6879SOL     OW21535   0.930   1.774   0.428
 6879SOL    HW121536   0.991   1.853   0.431
 6879SOL    HW221537   0.837   1.803   0.449
 6880SOL     OW21538   2.251   3.359   5.170
 6880SOL    HW121539   2.203   3.430   5.221
 6880SOL    HW221540   2.191   3.324   5.097
 6881SOL     OW21541   6.783   4.028   2.450
 6881SOL    HW121542   6.751   3.934   2.459
 6881SOL    HW221543   6.789   4.051   2.352
 6882SOL     OW21544   2.459   0.206   5.713
 6882SOL    HW121545   2.555   0.224   5.689
 6882SOL    HW221546   2.453   0.179   5.809
 6883SOL     OW21547   3.585   1.323   1.402
 6883SOL    HW121548   3.569   1.250   1.468
 6883SOL    HW221549   3.673   1.367   1.421
 6884SOL     OW21550   1.737   3.464   4.447
 6884SOL    HW121551   1.775   3.537   4.503
 6884SOL    HW221552   1.647   3.438   4.483
 6885SOL     OW21553   3.670   5.413   4.227
 6885SOL    HW121554   3.724   5.329   4.215
 6885SOL    HW221555   3.726   5.483   4.271
 6886SOL     OW21556   0.213   1.119   2.834
 6886SOL    HW121557   0.261   1.134   2.747
 6886SOL    HW221558   0.145   1.046   2.822
 6887SOL     OW21559   4.892   6.833   5.548
 6887SOL    HW121560   4.904   6.894   5.469
 6887SOL    HW221561   4.962   6.853   5.616
 6888SOL     OW21562   5.672   6.758   6.695
 6888SOL    HW121563   5.633   6.805   6.616
 6888SOL    HW221564   5.647   6.806   6.778
 6889SOL     OW21565   0.612   2.748   6.007
 6889SOL    HW121566   0.640   2.786   6.095
 6889SOL    HW221567   0.518   2.716   6.012
 6890SOL     OW21568   2.977   6.050   1.034
 6890SOL    HW121569   3.022   6.137   1.011
 6890SOL    HW221570   2.985   6.033   1.132
 6891SOL     OW21571   2.148   3.883   4.812
 6891SOL    HW121572   2.196   3.796   4.803
 6891SOL    HW221573   2.209   3.952   4.850
 6892SOL     OW21574   3.600   0.847   3.703
 6892SOL    HW121575   3.679   0.849   3.765
 6892SOL    HW221576   3.546   0.930   3.715
 6893SOL     OW21577   5.696   6.021   0.806
 6893SOL    HW121578   5.792   5.992   0.804
 6893SOL    HW221579   5.666   6.028   0.901
 6894SOL     OW21580   6.441   5.453   6.761
 6894SOL    HW121581   6.469   5.358   6.751
 6894SOL    HW221582   6.488   5.494   6.839
 6895SOL     OW21583   2.791   4.972   6.793
 6895SOL    HW121584   2.694   4.978   6.817
 6895SOL    HW221585   2.833   5.063   6.798
 6896SOL     OW21586   3.086   6.915   4.522
 6896SOL    HW121587   3.000   6.943   4.479
 6896SOL    HW221588   3.160   6.925   4.457
 6897SOL     OW21589   2.257   3.633   6.945
 6897SOL    HW121590   2.197   3.619   6.866
 6897SOL    HW221591   2.203   3.633   0.008
 6898SOL     OW21592   3.376   1.697   1.828
 6898SOL    HW121593   3.406   1.708   1.733
 6898SOL    HW221594   3.278   1.712   1.834
 6899SOL     OW21595   4.722   0.055   0.725
 6899SOL    HW121596   4.648   0.060   0.658
 6899SOL    HW221597   4.709   6.995   0.782
 6900SOL     OW21598   6.001   0.633   6.151
 6900SOL    HW121599   5.990   0.604   6.246
 6900SOL    HW221600   5.980   0.730   6.142
 6901SOL     OW21601   0.975   0.251   5.999
 6901SOL    HW121602   0.919   0.176   6.034
 6901SOL    HW221603   0.916   0.320   5.958
 6902SOL     OW21604   0.575   5.978   0.485
 6902SOL    HW121605   0.488   5.953   0.442
 6902SOL    HW221606   0.560   6.049   0.554
 6903SOL     OW21607   4.157   4.720   5.916
 6903SOL    HW121608   4.237   4.773   5.945
 6903SOL    HW221609   4.187   4.636   5.871
 6904SOL     OW21610   6.299   1.481   3.981
 6904SOL    HW121611   6.288   1.565   4.035
 6904SOL    HW221612   6.285   1.502   3.884
 6905SOL     OW21613   6.196   6.681   0.106
 6905SOL    HW121614   6.218   6.768   0.150
 6905SOL    HW221615   6.213   6.689   0.007
 6906SOL     OW21616   3.984   0.937   3.985
 6906SOL    HW121617   4.003   0.846   3.948
 6906SOL    HW221618   3.931   0.929   4.069
 6907SOL     OW21619   4.685   0.710   1.089
 6907SOL    HW121620   4.666   0.753   1.001
 6907SOL    HW221621   4.663   0.773   1.163
 6908SOL     OW21622   1.162   6.673   5.267
 6908SOL    HW121623   1.114   6.761   5.260
 6908SOL    HW221624   1.096   6.599   5.269
 6909SOL     OW21625   5.409   4.716   1.133
 6909SOL    HW121626   5.401   4.708   1.233
 6909SOL    HW221627   5.482   4.780   1.110
 6910SOL     OW21628   6.547   2.470   3.334
 6910SOL    HW121629   6.494   2.415   3.270
 6910SOL    HW221630   6.485   2.515   3.398
 6911SOL     OW21631   3.548   6.863   3.114
 6911SOL    HW121632   3.569   6.894   3.207
 6911SOL    HW221633   3.532   6.764   3.114
 6912SOL     OW21634   4.642   4.588   1.536
 6912SOL    HW121635   4.601   4.501   1.562
 6912SOL    HW221636   4.667   4.586   1.439
 6913SOL     OW21637   4.791   5.055   5.595
 6913SOL    HW121638   4.836   5.055   5.684
 6913SOL    HW221639   4.740   5.141   5.584
 6914SOL     OW21640   6.222   4.690   6.968
 6914SOL    HW121641   6.228   4.676   6.869
 6914SOL    HW221642   6.269   4.616   7.015
 6915SOL     OW21643   6.651   4.461   1.909
 6915SOL    HW121644   6.590   4.438   1.834
 6915SOL    HW221645   6.730   4.512   1.874
 6916SOL     OW21646   6.063   4.049   0.029
 6916SOL    HW121647   6.155   4.055   7.013
 6916SOL    HW221648   6.045   4.127   0.089
 6917SOL     OW21649   3.398   5.030   0.328
 6917SOL    HW121650   3.340   4.990   0.258
 6917SOL    HW221651   3.470   4.965   0.354
 6918SOL     OW21652   0.875   4.132   4.543
 6918SOL    HW121653   0.808   4.122   4.470
 6918SOL    HW221654   0.967   4.134   4.503
 6919SOL     OW21655   0.574   5.592   3.451
 6919SOL    HW121656   0.563   5.518   3.385
 6919SOL    HW221657   0.581   5.679   3.403
 6920SOL     OW21658   4.002   5.642   5.893
 6920SOL    HW121659   3.969   5.721   5.944
 6920SOL    HW221660   3.968   5.646   5.799
 6921SOL     OW21661   4.895   5.658   3.354
 6921SOL    HW121662   4.979   5.710   3.370
 6921SOL    HW221663   4.842   5.654   3.439
 6922SOL     OW21664   1.997   5.721   0.089
 6922SOL    HW121665   1.962   5.764   0.173
 6922SOL    HW221666   1.951   5.761   0.010
 6923SOL     OW21667   5.396   6.704   3.144
 6923SOL    HW121668   5.458   6.715   3.222
 6923SOL    HW221669   5.316   6.763   3.157
 6924SOL     OW21670   0.599   4.224   6.925
 6924SOL    HW121671   0.633   4.205   6.833
 6924SOL    HW221672   0.505   4.255   6.920
 6925SOL     OW21673   3.634   5.956   4.604
 6925SOL    HW121674   3.694   6.016   4.552
 6925SOL    HW221675   3.609   5.876   4.549
 6926SOL     OW21676   3.179   2.972   2.169
 6926SOL    HW121677   3.116   3.039   2.209
 6926SOL    HW221678   3.154   2.956   2.073
 6927SOL     OW21679   5.849   3.671   5.739
 6927SOL    HW121680   5.830   3.768   5.724
 6927SOL    HW221681   5.947   3.659   5.757
 6928SOL     OW21682   6.253   6.395   0.601
 6928SOL    HW121683   6.239   6.362   0.695
 6928SOL    HW221684   6.247   6.495   0.601
 6929SOL     OW21685   4.846   5.510   0.794
 6929SOL    HW121686   4.779   5.461   0.849
 6929SOL    HW221687   4.919   5.545   0.853
 6930SOL     OW21688   6.751   6.792   1.363
 6930SOL    HW121689   6.813   6.801   1.441
 6930SOL    HW221690   6.768   6.867   1.299
 6931SOL     OW21691   1.237   0.695   1.929
 6931SOL    HW121692   1.276   0.786   1.918
 6931SOL    HW221693   1.286   0.630   1.870
 6932SOL     OW21694   3.931   1.066   0.702
 6932SOL    HW121695   3.938   1.164   0.723
 6932SOL    HW221696   3.839   1.034   0.724
 6933SOL     OW21697   3.852   6.228   4.802
 6933SOL    HW121698   3.818   6.299   4.740
 6933SOL    HW221699   3.891   6.271   4.883
 6934SOL     OW21700   4.586   4.295   5.859
 6934SOL    HW121701   4.547   4.230   5.793
 6934SOL    HW221702   4.628   4.244   5.934
 6935SOL     OW21703   4.334   6.024   3.040
 6935SOL    HW121704   4.286   6.099   2.996
 6935SOL    HW221705   4.278   5.941   3.034
 6936SOL     OW21706   6.765   2.699   2.607
 6936SOL    HW121707   6.777   2.602   2.624
 6936SOL    HW221708   6.748   2.714   2.509
 6937SOL     OW21709   6.039   6.021   6.813
 6937SOL    HW121710   5.951   5.987   6.845
 6937SOL    HW221711   6.103   6.023   6.890
 6938SOL     OW21712   5.303   3.935   5.351
 6938SOL    HW121713   5.233   3.967   5.287
 6938SOL    HW221714   5.348   3.853   5.313
 6939SOL     OW21715   6.960   4.860   1.715
 6939SOL    HW121716   6.946   4.903   1.626
 6939SOL    HW221717   0.035   4.870   1.743
 6940SOL     OW21718   4.817   1.259   0.331
 6940SOL    HW121719   4.778   1.214   0.411
 6940SOL    HW221720   4.786   1.354   0.327
 6941SOL     OW21721   3.837   2.966   2.769
 6941SOL    HW121722   3.862   2.917   2.853
 6941SOL    HW221723   3.903   3.039   2.753
 6942SOL     OW21724   6.550   2.912   0.735
 6942SOL    HW121725   6.604   2.954   0.662
 6942SOL    HW221726   6.496   2.983   0.780
 6943SOL     OW21727   4.630   6.288   0.153
 6943SOL    HW121728   4.729   6.278   0.160
 6943SOL    HW221729   4.588   6.197   0.143
 6944SOL     OW21730   1.019   4.446   5.675
 6944SOL    HW121731   0.933   4.420   5.720
 6944SOL    HW221732   1.091   4.455   5.744
 6945SOL     OW21733   6.175   2.888   6.344
 6945SOL    HW121734   6.259   2.934   6.373
 6945SOL    HW221735   6.177   2.873   6.245
 6946SOL     OW21736   6.652   5.875   2.293
 6946SOL    HW121737   6.590   5.951   2.313
 6946SOL    HW221738   6.747   5.905   2.305
 6947SOL     OW21739   3.148   6.891   4.966
 6947SOL    HW121740   3.115   6.924   5.054
 6947SOL    HW221741   3.070   6.862   4.910
 6948SOL     OW21742   6.127   0.779   0.539
 6948SOL    HW121743   6.098   0.738   0.452
 6948SOL    HW221744   6.101   0.718   0.614
 6949SOL     OW21745   5.559   0.161   3.978
 6949SOL    HW121746   5.532   0.250   3.942
 6949SOL    HW221747   5.523   0.150   4.071
 6950SOL     OW21748   2.557   0.119   3.632
 6950SOL    HW121749   2.610   0.055   3.688
 6950SOL    HW221750   2.619   0.174   3.576
 6951SOL     OW21751   6.007   6.381   6.074
 6951SOL    HW121752   5.997   6.409   5.979
 6951SOL    HW221753   5.952   6.299   6.091
 6952SOL     OW21754   6.921   5.932   3.753
 6952SOL    HW121755   6.867   6.011   3.723
 6952SOL    HW221756   6.906   5.856   3.691
 6953SOL     OW21757   4.896   0.359   6.710
 6953SOL    HW121758   4.895   0.265   6.744
 6953SOL    HW221759   4.976   0.372   6.651
 6954SOL     OW21760   0.613   3.404   4.093
 6954SOL    HW121761   0.563   3.442   4.170
 6954SOL    HW221762   0.560   3.417   4.009
 6955SOL     OW21763   6.990   0.496   2.670
 6955SOL    HW121764   0.022   0.557   2.729
 6955SOL    HW221765   6.895   0.492   2.701
 6956SOL     OW21766   4.801   6.763   2.253
 6956SOL    HW121767   4.703   6.770   2.274
 6956SOL    HW221768   4.812   6.743   2.155
 6957SOL     OW21769   5.614   4.987   1.677
 6957SOL    HW121770   5.653   5.043   1.604
 6957SOL    HW221771   5.627   5.033   1.765
 6958SOL     OW21772   3.013   4.142   5.351
 6958SOL    HW121773   2.968   4.144   5.441
 6958SOL    HW221774   2.971   4.072   5.294
 6959SOL     OW21775   2.898   1.112   4.682
 6959SOL    HW121776   2.908   1.022   4.724
 6959SOL    HW221777   2.930   1.182   4.746
 6960SOL     OW21778   1.090   5.415   1.136
 6960SOL    HW121779   1.183   5.379   1.135
 6960SOL    HW221780   1.031   5.358   1.079
 6961SOL     OW21781   6.734   2.762   4.216
 6961SOL    HW121782   6.755   2.776   4.119
 6961SOL    HW221783   6.811   2.794   4.271
 6962SOL     OW21784   4.914   5.462   2.398
 6962SOL    HW121785   4.965   5.430   2.478
 6962SOL    HW221786   4.816   5.457   2.416
 6963SOL     OW21787   6.975   5.283   0.757
 6963SOL    HW121788   6.910   5.213   0.788
 6963SOL    HW221789   0.026   5.239   0.703
 6964SOL     OW21790   4.799   4.891   4.229
 6964SOL    HW121791   4.763   4.847   4.311
 6964SOL    HW221792   4.892   4.925   4.247
 6965SOL     OW21793   0.851   3.588   5.819
 6965SOL    HW121794   0.770   3.534   5.797
 6965SOL    HW221795   0.933   3.535   5.794
 6966SOL     OW21796   6.383   2.278   3.204
 6966SOL    HW121797   6.366   2.209   3.133
 6966SOL    HW221798   6.367   2.238   3.294
 6967SOL     OW21799   1.792   0.883   5.479
 6967SOL    HW121800   1.763   0.823   5.554
 6967SOL    HW221801   1.737   0.865   5.398
 6968SOL     OW21802   3.477   6.786   2.327
 6968SOL    HW121803   3.414   6.717   2.365
 6968SOL    HW221804   3.434   6.877   2.334
 6969SOL     OW21805   3.464   2.003   1.728
 6969SOL    HW121806   3.395   2.039   1.791
 6969SOL    HW221807   3.439   1.910   1.701
 6970SOL     OW21808   4.609   3.887   0.617
 6970SOL    HW121809   4.568   3.802   0.649
 6970SOL    HW221810   4.646   3.873   0.524
 6971SOL     OW21811   6.889   4.066   2.176
 6971SOL    HW121812   6.956   4.123   2.128
 6971SOL    HW221813   6.933   3.981   2.205
 6972SOL     OW21814   5.273   5.304   4.264
 6972SOL    HW121815   5.192   5.246   4.279
 6972SOL    HW221816   5.353   5.246   4.248
 6973SOL     OW21817   0.856   3.697   5.167
 6973SOL    HW121818   0.830   3.650   5.082
 6973SOL    HW221819   0.913   3.776   5.144
 6974SOL     OW21820   3.480   3.145   2.917
 6974SOL    HW121821   3.526   3.065   2.880
 6974SOL    HW221822   3.541   3.223   2.914
 6975SOL     OW21823   2.889   6.371   6.070
 6975SOL    HW121824   2.864   6.318   5.989
 6975SOL    HW221825   2.974   6.335   6.109
 6976SOL     OW21826   4.249   4.798   5.619
 6976SOL    HW121827   4.244   4.711   5.569
 6976SOL    HW221828   4.278   4.780   5.713
 6977SOL     OW21829   4.596   2.617   1.928
 6977SOL    HW121830   4.523   2.548   1.930
 6977SOL    HW221831   4.583   2.676   1.848
 6978SOL     OW21832   6.095   2.297   1.502
 6978SOL    HW121833   6.104   2.392   1.470
 6978SOL    HW221834   6.153   2.284   1.582
 6979SOL     OW21835   1.536   5.228   0.823
 6979SOL    HW121836   1.518   5.152   0.885
 6979SOL    HW221837   1.590   5.298   0.870
 6980SOL     OW21838   2.177   0.722   3.613
 6980SOL    HW121839   2.202   0.658   3.540
 6980SOL    HW221840   2.220   0.810   3.596
 6981SOL     OW21841   2.473   3.110   6.849
 6981SOL    HW121842   2.447   3.206   6.858
 6981SOL    HW221843   2.565   3.105   6.810
 6982SOL     OW21844   1.106   1.204   3.917
 6982SOL    HW121845   1.178   1.141   3.947
 6982SOL    HW221846   1.059   1.165   3.838
 6983SOL     OW21847   5.308   1.799   3.274
 6983SOL    HW121848   5.364   1.852   3.338
 6983SOL    HW221849   5.224   1.769   3.320
 6984SOL     OW21850   2.277   2.424   4.294
 6984SOL    HW121851   2.368   2.384   4.285
 6984SOL    HW221852   2.283   2.524   4.292
 6985SOL     OW21853   3.613   5.535   1.937
 6985SOL    HW121854   3.620   5.589   2.021
 6985SOL    HW221855   3.539   5.571   1.880
 6986SOL     OW21856   2.072   6.089   6.392
 6986SOL    HW121857   2.148   6.137   6.349
 6986SOL    HW221858   2.086   5.991   6.384
 6987SOL     OW21859   0.234   1.772   5.999
 6987SOL    HW121860   0.141   1.769   5.962
 6987SOL    HW221861   0.236   1.722   6.085
 6988SOL     OW21862   6.749   0.839   5.646
 6988SOL    HW121863   6.703   0.851   5.558
 6988SOL    HW221864   6.687   0.863   5.720
 6989SOL     OW21865   0.418   3.620   3.317
 6989SOL    HW121866   0.333   3.569   3.329
 6989SOL    HW221867   0.402   3.699   3.257
 6990SOL     OW21868   5.260   2.197   0.997
 6990SOL    HW121869   5.213   2.111   1.013
 6990SOL    HW221870   5.226   2.240   0.914
 6991SOL     OW21871   2.657   4.557   3.845
 6991SOL    HW121872   2.715   4.621   3.794
 6991SOL    HW221873   2.583   4.525   3.786
 6992SOL     OW21874   5.606   6.334   5.133
 6992SOL    HW121875   5.616   6.433   5.139
 6992SOL    HW221876   5.695   6.290   5.139
 6993SOL     OW21877   0.329   0.774   2.576
 6993SOL    HW121878   0.266   0.822   2.515
 6993SOL    HW221879   0.312   0.676   2.573
 6994SOL     OW21880   1.039   3.432   4.806
 6994SOL    HW121881   1.119   3.491   4.817
 6994SOL    HW221882   0.994   3.454   4.719
 6995SOL     OW21883   6.563   5.296   6.166
 6995SOL    HW121884   6.495   5.227   6.141
 6995SOL    HW221885   6.524   5.387   6.153
 6996SOL     OW21886   2.197   0.989   5.433
 6996SOL    HW121887   2.220   1.072   5.382
 6996SOL    HW221888   2.112   1.003   5.484
 6997SOL     OW21889   5.723   5.687   5.322
 6997SOL    HW121890   5.659   5.625   5.278
 6997SOL    HW221891   5.672   5.754   5.376
 6998SOL     OW21892   2.427   2.595   1.457
 6998SOL    HW121893   2.347   2.590   1.516
 6998SOL    HW221894   2.448   2.691   1.437
 6999SOL     OW21895   2.392   2.429   6.398
 6999SOL    HW121896   2.484   2.457   6.425
 6999SOL    HW221897   2.382   2.331   6.409
 7000SOL     OW21898   6.150   5.347   2.370
 7000SOL    HW121899   6.090   5.288   2.424
 7000SOL    HW221900   6.150   5.439   2.408
 7001SOL     OW21901   2.755   3.031   5.321
 7001SOL    HW121902   2.662   3.043   5.288
 7001SOL    HW221903   2.763   2.945   5.370
 7002SOL     OW21904   2.093   4.811   3.059
 7002SOL    HW121905   2.164   4.824   2.989
 7002SOL    HW221906   2.038   4.894   3.066
 7003SOL     OW21907   3.710   5.392   6.885
 7003SOL    HW121908   3.628   5.448   6.899
 7003SOL    HW221909   3.789   5.451   6.868
 7004SOL     OW21910   2.130   4.924   1.608
 7004SOL    HW121911   2.094   4.994   1.671
 7004SOL    HW221912   2.192   4.967   1.543
 7005SOL     OW21913   1.419   6.786   6.493
 7005SOL    HW121914   1.480   6.767   6.416
 7005SOL    HW221915   1.431   6.715   6.563
 7006SOL     OW21916   4.837   4.731   5.264
 7006SOL    HW121917   4.796   4.666   5.200
 7006SOL    HW221918   4.774   4.745   5.341
 7007SOL     OW21919   4.721   6.911   3.558
 7007SOL    HW121920   4.772   6.907   3.472
 7007SOL    HW221921   4.681   6.822   3.577
 7008SOL     OW21922   1.458   5.400   4.682
 7008SOL    HW121923   1.505   5.457   4.749
 7008SOL    HW221924   1.488   5.425   4.590
 7009SOL     OW21925   5.965   5.537   2.524
 7009SOL    HW121926   5.994   5.451   2.564
 7009SOL    HW221927   5.958   5.607   2.595
 7010SOL     OW21928   4.119   4.008   5.988
 7010SOL    HW121929   4.068   3.990   6.072
 7010SOL    HW221930   4.055   4.031   5.914
 7011SOL     OW21931   2.340   0.515   6.399
 7011SOL    HW121932   2.412   0.541   6.464
 7011SOL    HW221933   2.377   0.454   6.330
 7012SOL     OW21934   1.805   1.067   2.223
 7012SOL    HW121935   1.769   1.121   2.299
 7012SOL    HW221936   1.905   1.075   2.219
 7013SOL     OW21937   0.398   6.789   0.448
 7013SOL    HW121938   0.392   6.693   0.474
 7013SOL    HW221939   0.494   6.817   0.447
 7014SOL     OW21940   5.140   3.121   1.605
 7014SOL    HW121941   5.076   3.168   1.545
 7014SOL    HW221942   5.161   3.031   1.568
 7015SOL     OW21943   5.560   5.043   2.641
 7015SOL    HW121944   5.607   5.115   2.592
 7015SOL    HW221945   5.478   5.016   2.590
 7016SOL     OW21946   3.840   4.700   1.697
 7016SOL    HW121947   3.795   4.742   1.619
 7016SOL    HW221948   3.773   4.681   1.768
 7017SOL     OW21949   2.056   6.709   2.122
 7017SOL    HW121950   2.116   6.787   2.137
 7017SOL    HW221951   2.028   6.670   2.210
 7018SOL     OW21952   6.181   4.567   5.032
 7018SOL    HW121953   6.231   4.498   5.085
 7018SOL    HW221954   6.093   4.585   5.075
 7019SOL     OW21955   2.706   3.847   6.576
 7019SOL    HW121956   2.763   3.840   6.494
 7019SOL    HW221957   2.735   3.779   6.643
 7020SOL     OW21958   6.316   0.060   6.725
 7020SOL    HW121959   6.233   0.072   6.780
 7020SOL    HW221960   6.304   0.107   6.637
 7021SOL     OW21961   1.947   1.425   5.552
 7021SOL    HW121962   1.865   1.454   5.601
 7021SOL    HW221963   1.953   1.325   5.554
 7022SOL     OW21964   4.693   5.338   0.960
 7022SOL    HW121965   4.725   5.248   0.931
 7022SOL    HW221966   4.676   5.337   1.059
 7023SOL     OW21967   0.088   2.029   3.352
 7023SOL    HW121968   0.062   1.950   3.407
 7023SOL    HW221969   0.061   2.114   3.398
 7024SOL     OW21970   1.303   4.945   5.535
 7024SOL    HW121971   1.358   4.976   5.458
 7024SOL    HW221972   1.344   4.863   5.575
 7025SOL     OW21973   2.556   1.075   6.941
 7025SOL    HW121974   2.482   1.015   6.974
 7025SOL    HW221975   2.632   1.072   7.006
 7026SOL     OW21976   2.655   1.855   2.247
 7026SOL    HW121977   2.567   1.807   2.247
 7026SOL    HW221978   2.729   1.789   2.236
 7027SOL     OW21979   2.539   4.745   3.555
 7027SOL    HW121980   2.588   4.794   3.628
 7027SOL    HW221981   2.502   4.659   3.592
 7028SOL     OW21982   5.578   6.417   4.326
 7028SOL    HW121983   5.495   6.375   4.364
 7028SOL    HW221984   5.606   6.493   4.385
 7029SOL     OW21985   4.051   6.174   6.240
 7029SOL    HW121986   3.991   6.212   6.311
 7029SOL    HW221987   4.057   6.238   6.163
 7030SOL     OW21988   6.503   2.557   5.737
 7030SOL    HW121989   6.546   2.471   5.765
 7030SOL    HW221990   6.484   2.613   5.818
 7031SOL     OW21991   2.524   6.612   4.770
 7031SOL    HW121992   2.471   6.601   4.854
 7031SOL    HW221993   2.565   6.524   4.745
 7032SOL     OW21994   3.571   6.563   3.703
 7032SOL    HW121995   3.549   6.655   3.671
 7032SOL    HW221996   3.571   6.500   3.626
 7033SOL     OW21997   0.249   2.012   3.766
 7033SOL    HW121998   0.277   2.084   3.830
 7033SOL    HW221999   0.150   2.000   3.771
 7034SOL     OW22000   6.092   0.387   3.120
 7034SOL    HW122001   6.121   0.360   3.212
 7034SOL    HW222002   6.153   0.459   3.086
 7035SOL     OW22003   1.095   6.541   1.836
 7035SOL    HW122004   1.151   6.500   1.764
 7035SOL    HW222005   0.999   6.517   1.821
 7036SOL     OW22006   0.160   0.806   1.984
 7036SOL    HW122007   0.248   0.768   2.014
 7036SOL    HW222008   0.136   0.884   2.041
 7037SOL     OW22009   1.490   0.802   6.137
 7037SOL    HW122010   1.492   0.850   6.224
 7037SOL    HW222011   1.398   0.768   6.120
 7038SOL     OW22012   1.522   3.206   4.129
 7038SOL    HW122013   1.468   3.291   4.135
 7038SOL    HW222014   1.491   3.153   4.050
 7039SOL     OW22015   2.941   5.277   1.702
 7039SOL    HW122016   2.844   5.300   1.689
 7039SOL    HW222017   2.989   5.283   1.615
 7040SOL     OW22018   6.132   2.049   4.729
 7040SOL    HW122019   6.182   2.135   4.744
 7040SOL    HW222020   6.042   2.070   4.691
 7041SOL     OW22021   0.521   2.321   2.571
 7041SOL    HW122022   0.527   2.318   2.471
 7041SOL    HW222023   0.553   2.410   2.604
 7042SOL     OW22024   5.776   5.241   6.943
 7042SOL    HW122025   5.873   5.232   6.919
 7042SOL    HW222026   5.722   5.180   6.886
 7043SOL     OW22027   2.215   3.032   3.269
 7043SOL    HW122028   2.276   2.955   3.248
 7043SOL    HW222029   2.165   3.012   3.353
 7044SOL     OW22030   4.730   5.156   2.473
 7044SOL    HW122031   4.671   5.215   2.526
 7044SOL    HW222032   4.714   5.171   2.375
 7045SOL     OW22033   4.722   5.771   2.287
 7045SOL    HW122034   4.817   5.743   2.269
 7045SOL    HW222035   4.721   5.835   2.364
 7046SOL     OW22036   3.659   1.820   3.305
 7046SOL    HW122037   3.703   1.875   3.376
 7046SOL    HW222038   3.571   1.861   3.281
 7047SOL     OW22039   0.958   2.569   2.288
 7047SOL    HW122040   0.915   2.659   2.289
 7047SOL    HW222041   1.047   2.574   2.334
 7048SOL     OW22042   0.349   5.929   2.132
 7048SOL    HW122043   0.296   5.990   2.073
 7048SOL    HW222044   0.338   5.835   2.101
 7049SOL     OW22045   2.092   1.871   1.140
 7049SOL    HW122046   2.122   1.808   1.212
 7049SOL    HW222047   2.016   1.927   1.174
 7050SOL     OW22048   4.047   3.633   2.838
 7050SOL    HW122049   3.985   3.711   2.847
 7050SOL    HW222050   4.092   3.635   2.749
 7051SOL     OW22051   0.146   0.785   0.953
 7051SOL    HW122052   0.180   0.771   0.860
 7051SOL    HW222053   0.197   0.728   1.017
 7052SOL     OW22054   6.260   2.828   3.754
 7052SOL    HW122055   6.356   2.848   3.734
 7052SOL    HW222056   6.210   2.914   3.764
 7053SOL     OW22057   0.713   3.502   4.672
 7053SOL    HW122058   0.793   3.465   4.626
 7053SOL    HW222059   0.697   3.596   4.641
 7054SOL     OW22060   0.669   6.279   0.879
 7054SOL    HW122061   0.655   6.299   0.976
 7054SOL    HW222062   0.680   6.365   0.829
 7055SOL     OW22063   3.639   5.715   5.197
 7055SOL    HW122064   3.643   5.756   5.106
 7055SOL    HW222065   3.605   5.621   5.189
 7056SOL     OW22066   5.528   5.971   2.494
 7056SOL    HW122067   5.565   5.902   2.432
 7056SOL    HW222068   5.441   5.939   2.533
 7057SOL     OW22069   1.174   6.213   3.385
 7057SOL    HW122070   1.195   6.255   3.297
 7057SOL    HW222071   1.115   6.133   3.370
 7058SOL     OW22072   6.734   5.634   6.283
 7058SOL    HW122073   6.675   5.649   6.362
 7058SOL    HW222074   6.826   5.666   6.304
 7059SOL     OW22075   0.000   0.916   3.205
 7059SOL    HW122076   0.078   0.897   3.144
 7059SOL    HW222077   6.969   0.832   3.219
 7060SOL     OW22078   4.109   0.228   1.847
 7060SOL    HW122079   4.175   0.290   1.805
 7060SOL    HW222080   4.043   0.198   1.779
 7061SOL     OW22081   0.206   3.103   3.960
 7061SOL    HW122082   0.280   3.038   3.976
 7061SOL    HW222083   0.245   3.191   3.931
 7062SOL     OW22084   5.535   1.394   5.740
 7062SOL    HW122085   5.554   1.418   5.835
 7062SOL    HW222086   5.587   1.454   5.679
 7063SOL     OW22087   0.493   0.193   1.295
 7063SOL    HW122088   0.554   0.243   1.356
 7063SOL    HW222089   0.491   0.238   1.205
 7064SOL     OW22090   4.267   1.916   2.482
 7064SOL    HW122091   4.311   1.907   2.393
 7064SOL    HW222092   4.223   1.830   2.507
 7065SOL     OW22093   4.051   2.886   5.978
 7065SOL    HW122094   4.038   2.946   6.057
 7065SOL    HW222095   3.965   2.880   5.927
 7066SOL     OW22096   4.151   0.518   0.658
 7066SOL    HW122097   4.225   0.454   0.643
 7066SOL    HW222098   4.140   0.576   0.577
 7067SOL     OW22099   1.667   1.509   5.621
 7067SOL    HW122100   1.675   1.429   5.682
 7067SOL    HW222101   1.578   1.551   5.634
 7068SOL     OW22102   0.516   4.326   4.417
 7068SOL    HW122103   0.495   4.415   4.376
 7068SOL    HW222104   0.582   4.339   4.491
 7069SOL     OW22105   6.263   2.059   3.946
 7069SOL    HW122106   6.249   2.023   4.038
 7069SOL    HW222107   6.181   2.045   3.891
 7070SOL     OW22108   0.113   6.607   4.935
 7070SOL    HW122109   0.199   6.650   4.906
 7070SOL    HW222110   0.036   6.653   4.890
 7071SOL     OW22111   1.602   6.753   5.887
 7071SOL    HW122112   1.607   6.718   5.793
 7071SOL    HW222113   1.670   6.825   5.899
 7072SOL     OW22114   0.656   6.066   6.289
 7072SOL    HW122115   0.678   6.155   6.330
 7072SOL    HW222116   0.730   6.001   6.307
 7073SOL     OW22117   5.617   6.821   4.802
 7073SOL    HW122118   5.707   6.854   4.830
 7073SOL    HW222119   5.546   6.871   4.853
 7074SOL     OW22120   4.272   2.306   1.362
 7074SOL    HW122121   4.292   2.208   1.367
 7074SOL    HW222122   4.330   2.355   1.428
 7075SOL     OW22123   1.714   5.500   5.459
 7075SOL    HW122124   1.795   5.554   5.435
 7075SOL    HW222125   1.713   5.416   5.405
 7076SOL     OW22126   5.318   2.269   6.224
 7076SOL    HW122127   5.371   2.298   6.145
 7076SOL    HW222128   5.379   2.255   6.302
 7077SOL     OW22129   2.512   4.521   4.730
 7077SOL    HW122130   2.519   4.498   4.827
 7077SOL    HW222131   2.541   4.616   4.717
 7078SOL     OW22132   6.363   0.819   1.691
 7078SOL    HW122133   6.289   0.761   1.726
 7078SOL    HW222134   6.374   0.804   1.593
 7079SOL     OW22135   6.463   6.364   5.169
 7079SOL    HW122136   6.487   6.461   5.171
 7079SOL    HW222137   6.505   6.318   5.247
 7080SOL     OW22138   3.466   2.099   4.490
 7080SOL    HW122139   3.552   2.095   4.439
 7080SOL    HW222140   3.389   2.108   4.426
 7081SOL     OW22141   2.614   1.613   6.925
 7081SOL    HW122142   2.678   1.611   6.847
 7081SOL    HW222143   2.618   1.525   6.973
 7082SOL     OW22144   6.122   4.236   6.787
 7082SOL    HW122145   6.039   4.223   6.841
 7082SOL    HW222146   6.113   4.318   6.731
 7083SOL     OW22147   2.774   0.663   0.353
 7083SOL    HW122148   2.740   0.736   0.414
 7083SOL    HW222149   2.867   0.638   0.380
 7084SOL     OW22150   0.380   6.371   5.729
 7084SOL    HW122151   0.431   6.298   5.775
 7084SOL    HW222152   0.374   6.451   5.789
 7085SOL     OW22153   1.311   1.642   1.829
 7085SOL    HW122154   1.352   1.581   1.761
 7085SOL    HW222155   1.383   1.689   1.879
 7086SOL     OW22156   5.231   1.127   5.404
 7086SOL    HW122157   5.311   1.134   5.464
 7086SOL    HW222158   5.160   1.075   5.452
 7087SOL     OW22159   5.911   4.439   3.808
 7087SOL    HW122160   5.859   4.482   3.883
 7087SOL    HW222161   5.925   4.505   3.735
 7088SOL     OW22162   5.745   2.632   3.631
 7088SOL    HW122163   5.832   2.585   3.615
 7088SOL    HW222164   5.723   2.689   3.552
 7089SOL     OW22165   3.397   1.983   5.244
 7089SOL    HW122166   3.358   1.913   5.305
 7089SOL    HW222167   3.497   1.973   5.243
 7090SOL     OW22168   2.348   1.498   6.242
 7090SOL    HW122169   2.356   1.502   6.143
 7090SOL    HW222170   2.293   1.419   6.268
 7091SOL     OW22171   0.061   1.802   0.123
 7091SOL    HW122172   0.062   1.884   0.064
 7091SOL    HW222173   0.093   1.723   0.070
 7092SOL     OW22174   4.233   2.657   6.415
 7092SOL    HW122175   4.199   2.746   6.383
 7092SOL    HW222176   4.304   2.624   6.352
 7093SOL     OW22177   2.860   3.507   3.111
 7093SOL    HW122178   2.855   3.442   3.035
 7093SOL    HW222179   2.858   3.600   3.074
 7094SOL     OW22180   0.973   5.441   5.706
 7094SOL    HW122181   0.976   5.493   5.792
 7094SOL    HW222182   1.032   5.486   5.638
 7095SOL     OW22183   2.967   4.242   6.088
 7095SOL    HW122184   2.983   4.193   6.173
 7095SOL    HW222185   2.929   4.179   6.020
 7096SOL     OW22186   6.190   0.700   4.057
 7096SOL    HW122187   6.272   0.722   4.004
 7096SOL    HW222188   6.154   0.612   4.028
 7097SOL     OW22189   5.791   1.518   1.260
 7097SOL    HW122190   5.817   1.494   1.354
 7097SOL    HW222191   5.752   1.610   1.259
 7098SOL     OW22192   0.799   0.456   4.686
 7098SOL    HW122193   0.871   0.514   4.725
 7098SOL    HW222194   0.769   0.494   4.599
 7099SOL     OW22195   2.476   1.003   4.759
 7099SOL    HW122196   2.512   0.957   4.678
 7099SOL    HW222197   2.459   0.935   4.831
 7100SOL     OW22198   5.733   3.056   0.900
 7100SOL    HW122199   5.825   3.080   0.870
 7100SOL    HW222200   5.740   2.991   0.977
 7101SOL     OW22201   2.190   0.920   4.704
 7101SOL    HW122202   2.126   0.882   4.771
 7101SOL    HW222203   2.284   0.911   4.739
 7102SOL     OW22204   4.382   0.618   1.031
 7102SOL    HW122205   4.470   0.596   0.988
 7102SOL    HW222206   4.395   0.625   1.130
 7103SOL     OW22207   4.361   4.826   1.679
 7103SOL    HW122208   4.459   4.818   1.660
 7103SOL    HW222209   4.320   4.887   1.611
 7104SOL     OW22210   1.275   3.306   4.678
 7104SOL    HW122211   1.304   3.327   4.772
 7104SOL    HW222212   1.176   3.310   4.673
 7105SOL     OW22213   3.102   2.788   5.323
 7105SOL    HW122214   3.160   2.708   5.340
 7105SOL    HW222215   3.157   2.871   5.331
 7106SOL     OW22216   2.966   3.719   2.976
 7106SOL    HW122217   2.988   3.816   2.979
 7106SOL    HW222218   2.956   3.690   2.881
 7107SOL     OW22219   2.648   1.871   0.498
 7107SOL    HW122220   2.670   1.877   0.595
 7107SOL    HW222221   2.580   1.799   0.483
 7108SOL     OW22222   3.738   6.680   2.577
 7108SOL    HW122223   3.812   6.723   2.629
 7108SOL    HW222224   3.720   6.734   2.495
 7109SOL     OW22225   3.157   0.323   6.440
 7109SOL    HW122226   3.171   0.412   6.396
 7109SOL    HW222227   3.244   0.289   6.475
 7110SOL     OW22228   3.691   6.042   3.827
 7110SOL    HW122229   3.687   5.950   3.789
 7110SOL    HW222230   3.787   6.068   3.842
 7111SOL     OW22231   2.408   1.931   4.266
 7111SOL    HW122232   2.334   1.979   4.314
 7111SOL    HW222233   2.369   1.858   4.210
 7112SOL     OW22234   1.719   5.595   4.015
 7112SOL    HW122235   1.816   5.589   4.040
 7112SOL    HW222236   1.665   5.619   4.096
 7113SOL     OW22237   3.416   4.117   4.819
 7113SOL    HW122238   3.498   4.169   4.793
 7113SOL    HW222239   3.384   4.065   4.740
 7114SOL     OW22240   3.943   6.444   1.498
 7114SOL    HW122241   3.997   6.451   1.581
 7114SOL    HW222242   3.848   6.419   1.521
 7115SOL     OW22243   5.305   3.344   2.121
 7115SOL    HW122244   5.320   3.403   2.042
 7115SOL    HW222245   5.329   3.394   2.205
 7116SOL     OW22246   5.638   3.942   3.304
 7116SOL    HW122247   5.584   3.997   3.240
 7116SOL    HW222248   5.607   3.959   3.397
 7117SOL     OW22249   6.814   6.444   4.822
 7117SOL    HW122250   6.829   6.364   4.881
 7117SOL    HW222251   6.897   6.465   4.771
 7118SOL     OW22252   2.679   3.676   1.182
 7118SOL    HW122253   2.662   3.658   1.278
 7118SOL    HW222254   2.738   3.756   1.173
 7119SOL     OW22255   4.848   1.526   3.007
 7119SOL    HW122256   4.782   1.493   3.076
 7119SOL    HW222257   4.842   1.469   2.925
 7120SOL     OW22258   3.954   2.142   2.589
 7120SOL    HW122259   4.039   2.189   2.565
 7120SOL    HW222260   3.956   2.117   2.685
 7121SOL     OW22261   1.604   6.919   2.630
 7121SOL    HW122262   1.667   6.855   2.672
 7121SOL    HW222263   1.510   6.886   2.641
 7122SOL     OW22264   0.964   0.604   5.828
 7122SOL    HW122265   0.938   0.583   5.734
 7122SOL    HW222266   0.957   0.703   5.843
 7123SOL     OW22267   2.246   4.619   2.735
 7123SOL    HW122268   2.216   4.710   2.707
 7123SOL    HW222269   2.230   4.608   2.834
 7124SOL     OW22270   0.188   2.355   0.730
 7124SOL    HW122271   0.113   2.367   0.665
 7124SOL    HW222272   0.189   2.431   0.795
 7125SOL     OW22273   6.225   6.663   0.577
 7125SOL    HW122274   6.141   6.708   0.545
 7125SOL    HW222275   6.303   6.701   0.528
 7126SOL     OW22276   3.363   4.094   0.169
 7126SOL    HW122277   3.441   4.130   0.117
 7126SOL    HW222278   3.394   4.021   0.230
 7127SOL     OW22279   1.840   6.155   4.680
 7127SOL    HW122280   1.832   6.147   4.779
 7127SOL    HW222281   1.821   6.249   4.652
 7128SOL     OW22282   3.228   4.458   0.586
 7128SOL    HW122283   3.270   4.367   0.586
 7128SOL    HW222284   3.129   4.449   0.574
 7129SOL     OW22285   2.145   1.314   0.538
 7129SOL    HW122286   2.171   1.398   0.491
 7129SOL    HW222287   2.096   1.254   0.475
 7130SOL     OW22288   3.848   5.079   5.236
 7130SOL    HW122289   3.841   5.178   5.225
 7130SOL    HW222290   3.922   5.044   5.179
 7131SOL     OW22291   2.310   1.167   0.687
 7131SOL    HW122292   2.334   1.235   0.756
 7131SOL    HW222293   2.243   1.207   0.624
 7132SOL     OW22294   3.614   3.741   6.823
 7132SOL    HW122295   3.538   3.786   6.870
 7132SOL    HW222296   3.633   3.788   6.737
 7133SOL     OW22297   5.254   5.641   4.612
 7133SOL    HW122298   5.187   5.659   4.539
 7133SOL    HW222299   5.231   5.555   4.658
 7134SOL     OW22300   5.869   6.647   2.040
 7134SOL    HW122301   5.870   6.588   2.121
 7134SOL    HW222302   5.793   6.712   2.046
 7135SOL     OW22303   1.148   3.232   2.541
 7135SOL    HW122304   1.194   3.169   2.603
 7135SOL    HW222305   1.156   3.199   2.447
 7136SOL     OW22306   1.390   2.606   1.083
 7136SOL    HW122307   1.402   2.604   1.182
 7136SOL    HW222308   1.460   2.664   1.041
 7137SOL     OW22309   4.341   0.290   6.905
 7137SOL    HW122310   4.252   0.245   6.911
 7137SOL    HW222311   4.353   0.327   6.813
 7138SOL     OW22312   1.716   2.858   0.193
 7138SOL    HW122313   1.718   2.826   0.287
 7138SOL    HW222314   1.648   2.930   0.184
 7139SOL     OW22315   5.248   3.728   2.194
 7139SOL    HW122316   5.264   3.657   2.262
 7139SOL    HW222317   5.197   3.690   2.117
 7140SOL     OW22318   5.558   4.398   4.313
 7140SOL    HW122319   5.562   4.498   4.312
 7140SOL    HW222320   5.650   4.361   4.303
 7141SOL     OW22321   3.380   6.195   1.330
 7141SOL    HW122322   3.385   6.255   1.250
 7141SOL    HW222323   3.443   6.119   1.318
 7142SOL     OW22324   4.091   0.006   3.426
 7142SOL    HW122325   4.130   6.991   3.511
 7142SOL    HW222326   4.092   6.955   3.357
 7143SOL     OW22327   1.632   3.342   6.319
 7143SOL    HW122328   1.580   3.311   6.239
 7143SOL    HW222329   1.720   3.379   6.289
 7144SOL     OW22330   1.622   1.596   3.060
 7144SOL    HW122331   1.712   1.635   3.039
 7144SOL    HW222332   1.629   1.537   3.140
 7145SOL     OW22333   4.123   6.955   6.841
 7145SOL    HW122334   4.037   6.925   6.801
 7145SOL    HW222335   4.150   6.892   6.914
 7146SOL     OW22336   2.274   0.780   0.544
 7146SOL    HW122337   2.245   0.793   0.449
 7146SOL    HW222338   2.230   0.849   0.602
 7147SOL     OW22339   6.728   6.545   3.197
 7147SOL    HW122340   6.802   6.599   3.155
 7147SOL    HW222341   6.750   6.448   3.189
 7148SOL     OW22342   0.329   6.898   6.880
 7148SOL    HW122343   0.237   6.904   6.842
 7148SOL    HW222344   0.331   6.942   6.970
 7149SOL     OW22345   6.242   6.681   2.882
 7149SOL    HW122346   6.155   6.729   2.871
 7149SOL    HW222347   6.229   6.584   2.864
 7150SOL     OW22348   3.127   1.878   2.090
 7150SOL    HW122349   3.115   1.783   2.059
 7150SOL    HW222350   3.119   1.939   2.011
 7151SOL     OW22351   1.693   6.120   0.517
 7151SOL    HW122352   1.628   6.180   0.472
 7151SOL    HW222353   1.782   6.125   0.470
 7152SOL     OW22354   1.043   1.575   5.010
 7152SOL    HW122355   0.994   1.543   4.929
 7152SOL    HW222356   0.992   1.550   5.092
 7153SOL     OW22357   3.302   5.916   2.314
 7153SOL    HW122358   3.371   5.970   2.266
 7153SOL    HW222359   3.348   5.859   2.383
 7154SOL     OW22360   3.327   0.904   4.329
 7154SOL    HW122361   3.240   0.855   4.324
 7154SOL    HW222362   3.401   0.842   4.304
 7155SOL     OW22363   2.101   3.808   1.827
 7155SOL    HW122364   2.120   3.715   1.796
 7155SOL    HW222365   2.187   3.858   1.838
 7156SOL     OW22366   0.450   4.111   4.549
 7156SOL    HW122367   0.458   4.193   4.493
 7156SOL    HW222368   0.385   4.048   4.507
 7157SOL     OW22369   5.907   4.525   2.018
 7157SOL    HW122370   5.928   4.441   2.068
 7157SOL    HW222371   5.841   4.504   1.945
 7158SOL     OW22372   1.187   0.124   2.440
 7158SOL    HW122373   1.133   0.208   2.445
 7158SOL    HW222374   1.230   0.107   2.529
 7159SOL     OW22375   0.585   4.473   2.545
 7159SOL    HW122376   0.495   4.465   2.503
 7159SOL    HW222377   0.587   4.424   2.632
 7160SOL     OW22378   5.237   0.675   2.915
 7160SOL    HW122379   5.178   0.596   2.931
 7160SOL    HW222380   5.324   0.662   2.961
 7161SOL     OW22381   2.935   3.531   5.054
 7161SOL    HW122382   2.919   3.565   5.146
 7161SOL    HW222383   2.918   3.432   5.051
 7162SOL     OW22384   2.336   5.598   5.709
 7162SOL    HW122385   2.387   5.642   5.635
 7162SOL    HW222386   2.368   5.504   5.721
 7163SOL     OW22387   2.904   6.434   2.988
 7163SOL    HW122388   2.941   6.412   3.077
 7163SOL    HW222389   2.859   6.354   2.949
 7164SOL     OW22390   1.748   0.865   4.208
 7164SOL    HW122391   1.777   0.769   4.206
 7164SOL    HW222392   1.756   0.905   4.117
 7165SOL     OW22393   6.701   1.551   1.721
 7165SOL    HW122394   6.688   1.458   1.687
 7165SOL    HW222395   6.797   1.564   1.745
 7166SOL     OW22396   5.640   3.116   0.211
 7166SOL    HW122397   5.642   3.216   0.215
 7166SOL    HW222398   5.568   3.087   0.149
 7167SOL     OW22399   4.907   3.648   4.196
 7167SOL    HW122400   4.950   3.575   4.143
 7167SOL    HW222401   4.900   3.620   4.292
 7168SOL     OW22402   1.817   2.635   3.914
 7168SOL    HW122403   1.814   2.540   3.886
 7168SOL    HW222404   1.731   2.681   3.888
 7169SOL     OW22405   6.971   3.387   4.983
 7169SOL    HW122406   6.971   3.356   4.888
 7169SOL    HW222407   6.918   3.322   5.039
 7170SOL     OW22408   5.146   5.834   3.210
 7170SOL    HW122409   5.194   5.810   3.295
 7170SOL    HW222410   5.141   5.754   3.151
 7171SOL     OW22411   5.125   3.932   6.604
 7171SOL    HW122412   5.033   3.969   6.616
 7171SOL    HW222413   5.188   4.005   6.578
 7172SOL     OW22414   1.522   0.842   5.012
 7172SOL    HW122415   1.492   0.922   5.065
 7172SOL    HW222416   1.492   0.758   5.059
 7173SOL     OW22417   0.019   4.509   5.925
 7173SOL    HW122418   0.017   4.609   5.935
 7173SOL    HW222419   0.113   4.479   5.910
 7174SOL     OW22420   0.949   4.441   0.879
 7174SOL    HW122421   0.877   4.395   0.932
 7174SOL    HW222422   0.917   4.533   0.854
 7175SOL     OW22423   5.183   2.670   6.438
 7175SOL    HW122424   5.130   2.616   6.374
 7175SOL    HW222425   5.234   2.740   6.388
 7176SOL     OW22426   1.090   6.000   2.790
 7176SOL    HW122427   1.009   5.948   2.762
 7176SOL    HW222428   1.171   5.961   2.746
 7177SOL     OW22429   2.111   6.413   4.276
 7177SOL    HW122430   2.150   6.463   4.354
 7177SOL    HW222431   2.185   6.379   4.218
 7178SOL     OW22432   1.872   2.927   5.537
 7178SOL    HW122433   1.894   2.992   5.610
 7178SOL    HW222434   1.784   2.950   5.496
 7179SOL     OW22435   1.837   3.946   4.435
 7179SOL    HW122436   1.930   3.963   4.466
 7179SOL    HW222437   1.799   4.029   4.394
 7180SOL     OW22438   1.585   4.538   6.805
 7180SOL    HW122439   1.593   4.551   6.903
 7180SOL    HW222440   1.637   4.608   6.757
 7181SOL     OW22441   2.348   6.235   0.701
 7181SOL    HW122442   2.305   6.305   0.644
 7181SOL    HW222443   2.279   6.170   0.731
 7182SOL     OW22444   1.458   2.610   5.238
 7182SOL    HW122445   1.466   2.701   5.199
 7182SOL    HW222446   1.375   2.566   5.203
 7183SOL     OW22447   2.388   6.032   0.366
 7183SOL    HW122448   2.355   5.985   0.284
 7183SOL    HW222449   2.478   6.071   0.348
 7184SOL     OW22450   0.533   1.107   2.844
 7184SOL    HW122451   0.476   1.065   2.915
 7184SOL    HW222452   0.512   1.204   2.837
 7185SOL     OW22453   5.671   0.419   5.460
 7185SOL    HW122454   5.765   0.392   5.480
 7185SOL    HW222455   5.670   0.511   5.421
 7186SOL     OW22456   6.118   0.149   6.919
 7186SOL    HW122457   6.184   0.201   6.972
 7186SOL    HW222458   6.025   0.174   6.945
 7187SOL     OW22459   3.352   3.826   6.871
 7187SOL    HW122460   3.279   3.859   6.932
 7187SOL    HW222461   3.349   3.726   6.868
 7188SOL     OW22462   6.134   6.937   0.973
 7188SOL    HW122463   6.101   0.006   0.943
 7188SOL    HW222464   6.057   6.882   1.004
 7189SOL     OW22465   0.114   0.935   5.838
 7189SOL    HW122466   0.060   0.892   5.765
 7189SOL    HW222467   0.058   1.004   5.884
 7190SOL     OW22468   6.856   3.738   3.018
 7190SOL    HW122469   6.894   3.655   3.058
 7190SOL    HW222470   6.756   3.734   3.021
 7191SOL     OW22471   0.208   4.386   3.201
 7191SOL    HW122472   0.141   4.364   3.273
 7191SOL    HW222473   0.265   4.462   3.230
 7192SOL     OW22474   3.379   4.742   5.679
 7192SOL    HW122475   3.465   4.701   5.712
 7192SOL    HW222476   3.312   4.742   5.753
 7193SOL     OW22477   2.103   2.251   2.462
 7193SOL    HW122478   2.116   2.312   2.384
 7193SOL    HW222479   2.191   2.221   2.497
 7194SOL     OW22480   2.888   2.108   0.624
 7194SOL    HW122481   2.912   2.054   0.704
 7194SOL    HW222482   2.806   2.163   0.644
 7195SOL     OW22483   0.031   4.900   0.057
 7195SOL    HW122484   0.043   4.806   0.088
 7195SOL    HW222485   6.966   4.937   0.094
 7196SOL     OW22486   3.046   4.251   1.456
 7196SOL    HW122487   3.016   4.190   1.382
 7196SOL    HW222488   2.989   4.237   1.536
 7197SOL     OW22489   6.793   1.947   5.792
 7197SOL    HW122490   6.784   2.040   5.755
 7197SOL    HW222491   6.726   1.934   5.865
 7198SOL     OW22492   0.834   0.758   6.260
 7198SOL    HW122493   0.789   0.684   6.309
 7198SOL    HW222494   0.797   0.765   6.168
 7199SOL     OW22495   2.162   0.797   2.416
 7199SOL    HW122496   2.187   0.739   2.493
 7199SOL    HW222497   2.158   0.893   2.446
 7200SOL     OW22498   2.712   2.305   0.514
 7200SOL    HW122499   2.724   2.403   0.527
 7200SOL    HW222500   2.758   2.277   0.429
 7201SOL     OW22501   1.263   5.843   4.279
 7201SOL    HW122502   1.308   5.825   4.192
 7201SOL    HW222503   1.300   5.781   4.349
 7202SOL     OW22504   4.206   0.711   6.277
 7202SOL    HW122505   4.181   0.807   6.283
 7202SOL    HW222506   4.278   0.699   6.208
 7203SOL     OW22507   0.095   1.883   1.003
 7203SOL    HW122508   0.150   1.951   0.954
 7203SOL    HW222509   0.088   1.909   1.099
 7204SOL     OW22510   0.063   6.813   5.548
 7204SOL    HW122511   0.086   6.851   5.459
 7204SOL    HW222512   0.061   6.713   5.542
 7205SOL     OW22513   0.780   5.598   3.105
 7205SOL    HW122514   0.833   5.536   3.047
 7205SOL    HW222515   0.698   5.552   3.138
 7206SOL     OW22516   2.002   0.200   0.761
 7206SOL    HW122517   2.070   0.269   0.787
 7206SOL    HW222518   2.027   0.112   0.801
 7207SOL     OW22519   3.565   0.382   2.223
 7207SOL    HW122520   3.665   0.378   2.221
 7207SOL    HW222521   3.530   0.387   2.130
 7208SOL     OW22522   4.112   6.554   3.666
 7208SOL    HW122523   4.045   6.623   3.692
 7208SOL    HW222524   4.155   6.518   3.749
 7209SOL     OW22525   2.981   3.831   2.411
 7209SOL    HW122526   2.896   3.838   2.464
 7209SOL    HW222527   2.959   3.839   2.314
 7210SOL     OW22528   4.236   0.558   4.154
 7210SOL    HW122529   4.265   0.549   4.250
 7210SOL    HW222530   4.245   0.653   4.125
 7211SOL     OW22531   2.402   5.500   4.139
 7211SOL    HW122532   2.366   5.501   4.046
 7211SOL    HW222533   2.450   5.414   4.155
 7212SOL     OW22534   0.616   6.375   4.784
 7212SOL    HW122535   0.678   6.421   4.848
 7212SOL    HW222536   0.668   6.317   4.723
 7213SOL     OW22537   5.589   0.336   6.627
 7213SOL    HW122538   5.669   0.285   6.657
 7213SOL    HW222539   5.514   0.321   6.690
 7214SOL     OW22540   0.723   5.545   5.180
 7214SOL    HW122541   0.735   5.620   5.115
 7214SOL    HW222542   0.632   5.505   5.168
 7215SOL     OW22543   0.512   3.024   5.186
 7215SOL    HW122544   0.424   3.064   5.160
 7215SOL    HW222545   0.566   3.007   5.104
 7216SOL     OW22546   2.786   5.979   0.045
 7216SOL    HW122547   2.724   6.010   0.117
 7216SOL    HW222548   2.786   6.045   6.991
 7217SOL     OW22549   2.107   4.307   2.623
 7217SOL    HW122550   2.051   4.266   2.550
 7217SOL    HW222551   2.168   4.376   2.584
 7218SOL     OW22552   5.456   2.695   5.268
 7218SOL    HW122553   5.442   2.792   5.283
 7218SOL    HW222554   5.439   2.645   5.354
 7219SOL     OW22555   4.589   6.701   4.657
 7219SOL    HW122556   4.647   6.754   4.719
 7219SOL    HW222557   4.625   6.608   4.648
 7220SOL     OW22558   0.853   5.957   4.639
 7220SOL    HW122559   0.920   5.919   4.703
 7220SOL    HW222560   0.886   5.946   4.545
 7221SOL     OW22561   4.298   4.941   4.564
 7221SOL    HW122562   4.278   4.847   4.536
 7221SOL    HW222563   4.319   4.996   4.483
 7222SOL     OW22564   6.375   0.587   2.540
 7222SOL    HW122565   6.308   0.660   2.555
 7222SOL    HW222566   6.416   0.598   2.449
 7223SOL     OW22567   2.568   2.153   1.313
 7223SOL    HW122568   2.480   2.166   1.267
 7223SOL    HW222569   2.580   2.222   1.384
 7224SOL     OW22570   5.687   2.119   4.474
 7224SOL    HW122571   5.722   2.135   4.382
 7224SOL    HW222572   5.612   2.182   4.493
 7225SOL     OW22573   1.125   5.982   6.301
 7225SOL    HW122574   1.167   5.934   6.377
 7225SOL    HW222575   1.170   5.955   6.215
 7226SOL     OW22576   0.174   0.608   0.432
 7226SOL    HW122577   0.203   0.648   0.345
 7226SOL    HW222578   0.251   0.559   0.473
 7227SOL     OW22579   0.576   2.599   1.130
 7227SOL    HW122580   0.538   2.611   1.221
 7227SOL    HW222581   0.504   2.568   1.067
 7228SOL     OW22582   0.532   0.691   2.310
 7228SOL    HW122583   0.553   0.770   2.367
 7228SOL    HW222584   0.593   0.616   2.334
 7229SOL     OW22585   1.086   6.942   5.038
 7229SOL    HW122586   1.168   6.997   5.024
 7229SOL    HW222587   1.047   6.962   5.128
 7230SOL     OW22588   5.066   5.128   4.492
 7230SOL    HW122589   5.163   5.113   4.513
 7230SOL    HW222590   5.014   5.133   4.577
 7231SOL     OW22591   4.831   7.015   0.133
 7231SOL    HW122592   4.855   6.931   0.182
 7231SOL    HW222593   4.744   0.029   0.168
 7232SOL     OW22594   5.068   5.350   2.983
 7232SOL    HW122595   5.045   5.417   2.913
 7232SOL    HW222596   4.989   5.293   3.003
 7233SOL     OW22597   0.210   2.398   4.185
 7233SOL    HW122598   0.126   2.358   4.222
 7233SOL    HW222599   0.231   2.482   4.235
 7234SOL     OW22600   5.331   3.261   3.754
 7234SOL    HW122601   5.424   3.281   3.783
 7234SOL    HW222602   5.327   3.171   3.711
 7235SOL     OW22603   6.576   4.083   2.820
 7235SOL    HW122604   6.497   4.022   2.812
 7235SOL    HW222605   6.624   4.063   2.906
 7236SOL     OW22606   2.846   1.418   2.695
 7236SOL    HW122607   2.862   1.389   2.600
 7236SOL    HW222608   2.748   1.420   2.713
 7237SOL     OW22609   6.009   6.235   5.209
 7237SOL    HW122610   6.064   6.314   5.238
 7237SOL    HW222611   5.978   6.185   5.290
 7238SOL     OW22612   2.721   2.043   1.066
 7238SOL    HW122613   2.745   1.949   1.090
 7238SOL    HW222614   2.685   2.089   1.147
 7239SOL     OW22615   2.459   1.666   3.035
 7239SOL    HW122616   2.533   1.649   2.971
 7239SOL    HW222617   2.378   1.697   2.985
 7240SOL     OW22618   2.142   4.477   6.306
 7240SOL    HW122619   2.176   4.569   6.290
 7240SOL    HW222620   2.184   4.440   6.390
 7241SOL     OW22621   2.915   0.778   0.117
 7241SOL    HW122622   2.993   0.717   0.107
 7241SOL    HW222623   2.866   0.755   0.202
 7242SOL     OW22624   6.513   5.976   0.108
 7242SOL    HW122625   6.597   5.974   0.163
 7242SOL    HW222626   6.475   5.883   0.103
 7243SOL     OW22627   0.083   4.591   6.372
 7243SOL    HW122628   0.160   4.612   6.312
 7243SOL    HW222629   0.116   4.541   6.452
 7244SOL     OW22630   5.786   0.287   1.092
 7244SOL    HW122631   5.703   0.231   1.094
 7244SOL    HW222632   5.786   0.349   1.171
 7245SOL     OW22633   0.421   2.119   5.261
 7245SOL    HW122634   0.454   2.102   5.354
 7245SOL    HW222635   0.440   2.039   5.204
 7246SOL     OW22636   6.010   7.014   4.752
 7246SOL    HW122637   6.062   6.936   4.716
 7246SOL    HW222638   5.962   6.986   4.835
 7247SOL     OW22639   3.299   6.797   3.492
 7247SOL    HW122640   3.373   6.826   3.553
 7247SOL    HW222641   3.272   6.874   3.434
 7248SOL     OW22642   3.662   1.002   3.100
 7248SOL    HW122643   3.607   0.922   3.121
 7248SOL    HW222644   3.759   0.978   3.102
 7249SOL     OW22645   5.294   4.996   1.808
 7249SOL    HW122646   5.251   5.070   1.756
 7249SOL    HW222647   5.263   4.908   1.773
 7250SOL     OW22648   4.051   5.731   6.330
 7250SOL    HW122649   4.059   5.827   6.359
 7250SOL    HW222650   4.142   5.695   6.308
 7251SOL     OW22651   0.322   6.389   5.461
 7251SOL    HW122652   0.349   6.480   5.430
 7251SOL    HW222653   0.329   6.385   5.561
 7252SOL     OW22654   3.717   2.867   3.672
 7252SOL    HW122655   3.660   2.912   3.741
 7252SOL    HW222656   3.760   2.786   3.712
 7253SOL     OW22657   2.006   6.330   0.010
 7253SOL    HW122658   1.978   6.333   6.935
 7253SOL    HW222659   1.977   6.244   0.051
 7254SOL     OW22660   4.592   5.105   4.849
 7254SOL    HW122661   4.570   5.180   4.787
 7254SOL    HW222662   4.563   5.019   4.809
 7255SOL     OW22663   3.968   3.713   1.057
 7255SOL    HW122664   3.942   3.765   0.976
 7255SOL    HW222665   3.895   3.649   1.081
 7256SOL     OW22666   4.915   4.750   4.556
 7256SOL    HW122667   4.965   4.726   4.473
 7256SOL    HW222668   4.870   4.669   4.592
 7257SOL     OW22669   4.722   2.649   3.709
 7257SOL    HW122670   4.715   2.677   3.805
 7257SOL    HW222671   4.632   2.622   3.675
 7258SOL     OW22672   4.130   1.216   3.370
 7258SOL    HW122673   4.104   1.293   3.311
 7258SOL    HW222674   4.050   1.159   3.388
 7259SOL     OW22675   3.540   3.616   1.689
 7259SOL    HW122676   3.622   3.581   1.643
 7259SOL    HW222677   3.475   3.541   1.702
 7260SOL     OW22678   3.021   2.206   2.680
 7260SOL    HW122679   3.005   2.231   2.775
 7260SOL    HW222680   3.109   2.160   2.672
 7261SOL     OW22681   2.259   3.012   0.977
 7261SOL    HW122682   2.170   3.013   0.933
 7261SOL    HW222683   2.322   2.955   0.925
 7262SOL     OW22684   5.356   2.011   4.070
 7262SOL    HW122685   5.257   2.002   4.052
 7262SOL    HW222686   5.387   2.101   4.039
 7263SOL     OW22687   0.088   5.999   2.578
 7263SOL    HW122688   0.101   6.062   2.501
 7263SOL    HW222689   0.062   6.051   2.659
 7264SOL     OW22690   6.199   1.354   6.732
 7264SOL    HW122691   6.274   1.346   6.798
 7264SOL    HW222692   6.212   1.288   6.658
 7265SOL     OW22693   5.723   5.784   5.860
 7265SOL    HW122694   5.773   5.707   5.821
 7265SOL    HW222695   5.780   5.828   5.929
 7266SOL     OW22696   3.910   0.698   0.811
 7266SOL    HW122697   3.885   0.670   0.903
 7266SOL    HW222698   4.008   0.719   0.808
 7267SOL     OW22699   7.011   5.365   5.669
 7267SOL    HW122700   6.955   5.282   5.677
 7267SOL    HW222701   7.018   5.408   5.759
 7268SOL     OW22702   4.195   4.711   2.875
 7268SOL    HW122703   4.276   4.740   2.926
 7268SOL    HW222704   4.221   4.644   2.806
 7269SOL     OW22705   6.775   6.205   0.824
 7269SOL    HW122706   6.869   6.240   0.813
 7269SOL    HW222707   6.749   6.209   0.920
 7270SOL     OW22708   1.235   2.679   4.295
 7270SOL    HW122709   1.157   2.617   4.302
 7270SOL    HW222710   1.252   2.721   4.384
 7271SOL     OW22711   0.381   4.849   4.208
 7271SOL    HW122712   0.348   4.916   4.273
 7271SOL    HW222713   0.309   4.827   4.142
 7272SOL     OW22714   5.766   4.655   2.233
 7272SOL    HW122715   5.669   4.651   2.211
 7272SOL    HW222716   5.820   4.634   2.151
 7273SOL     OW22717   5.332   4.960   2.538
 7273SOL    HW122718   5.310   4.868   2.505
 7273SOL    HW222719   5.256   5.022   2.515
 7274SOL     OW22720   0.833   6.586   5.994
 7274SOL    HW122721   0.898   6.601   6.068
 7274SOL    HW222722   0.770   6.513   6.019
 7275SOL     OW22723   6.878   1.086   2.311
 7275SOL    HW122724   6.823   1.008   2.282
 7275SOL    HW222725   6.846   1.169   2.264
 7276SOL     OW22726   3.336   1.552   3.938
 7276SOL    HW122727   3.278   1.494   3.994
 7276SOL    HW222728   3.421   1.572   3.987
 7277SOL     OW22729   5.592   1.139   4.719
 7277SOL    HW122730   5.610   1.119   4.623
 7277SOL    HW222731   5.594   1.055   4.773
 7278SOL     OW22732   3.219   2.107   2.913
 7278SOL    HW122733   3.275   2.078   2.835
 7278SOL    HW222734   3.222   2.037   2.984
 7279SOL     OW22735   4.292   3.266   6.449
 7279SOL    HW122736   4.316   3.289   6.354
 7279SOL    HW222737   4.262   3.171   6.453
 7280SOL     OW22738   6.629   2.373   4.794
 7280SOL    HW122739   6.559   2.429   4.838
 7280SOL    HW222740   6.612   2.277   4.814
 7281SOL     OW22741   2.534   0.093   0.125
 7281SOL    HW122742   2.625   0.056   0.143
 7281SOL    HW222743   2.539   0.160   0.051
 7282SOL     OW22744   6.582   6.484   0.774
 7282SOL    HW122745   6.539   6.551   0.835
 7282SOL    HW222746   6.535   6.486   0.685
 7283SOL     OW22747   2.273   6.791   1.884
 7283SOL    HW122748   2.287   6.888   1.862
 7283SOL    HW222749   2.189   6.759   1.840
 7284SOL     OW22750   0.248   2.930   4.344
 7284SOL    HW122751   0.200   3.016   4.332
 7284SOL    HW222752   0.347   2.947   4.345
 7285SOL     OW22753   5.304   3.699   1.658
 7285SOL    HW122754   5.388   3.750   1.675
 7285SOL    HW222755   5.225   3.755   1.682
 7286SOL     OW22756   1.078   1.000   0.466
 7286SOL    HW122757   1.142   0.925   0.477
 7286SOL    HW222758   1.127   1.082   0.434
 7287SOL     OW22759   6.837   3.342   4.451
 7287SOL    HW122760   6.891   3.379   4.376
 7287SOL    HW222761   6.815   3.247   4.433
 7288SOL     OW22762   1.602   2.902   2.178
 7288SOL    HW122763   1.681   2.942   2.225
 7288SOL    HW222764   1.577   2.816   2.223
 7289SOL     OW22765   6.525   2.562   2.438
 7289SOL    HW122766   6.456   2.523   2.377
 7289SOL    HW222767   6.490   2.562   2.532
 7290SOL     OW22768   3.208   1.027   5.495
 7290SOL    HW122769   3.123   1.035   5.547
 7290SOL    HW222770   3.226   0.931   5.475
 7291SOL     OW22771   3.015   6.765   0.630
 7291SOL    HW122772   3.102   6.725   0.659
 7291SOL    HW222773   2.942   6.734   0.690
 7292SOL     OW22774   2.263   6.876   3.177
 7292SOL    HW122775   2.280   6.927   3.261
 7292SOL    HW222776   2.175   6.904   3.139
 7293SOL     OW22777   1.577   1.191   5.927
 7293SOL    HW122778   1.529   1.276   5.906
 7293SOL    HW222779   1.516   1.113   5.907
 7294SOL     OW22780   2.800   4.526   0.812
 7294SOL    HW122781   2.899   4.524   0.831
 7294SOL    HW222782   2.783   4.583   0.732
 7295SOL     OW22783   6.880   4.417   1.466
 7295SOL    HW122784   6.949   4.462   1.522
 7295SOL    HW222785   6.907   4.322   1.450
 7296SOL     OW22786   4.387   5.315   2.749
 7296SOL    HW122787   4.331   5.398   2.753
 7296SOL    HW222788   4.459   5.326   2.680
 7297SOL     OW22789   2.262   6.758   2.657
 7297SOL    HW122790   2.197   6.752   2.733
 7297SOL    HW222791   2.295   6.851   2.649
 7298SOL     OW22792   5.213   5.371   0.128
 7298SOL    HW122793   5.289   5.436   0.134
 7298SOL    HW222794   5.140   5.411   0.073
 7299SOL     OW22795   0.675   2.025   1.121
 7299SOL    HW122796   0.711   2.003   1.030
 7299SOL    HW222797   0.597   1.967   1.142
 7300SOL     OW22798   1.054   5.419   1.755
 7300SOL    HW122799   1.121   5.435   1.827
 7300SOL    HW222800   1.098   5.432   1.666
 7301SOL     OW22801   6.899   1.095   5.675
 7301SOL    HW122802   6.856   1.020   5.623
 7301SOL    HW222803   6.940   1.160   5.611
 7302SOL     OW22804   6.811   1.804   4.968
 7302SOL    HW122805   6.793   1.896   5.002
 7302SOL    HW222806   6.731   1.746   4.985
 7303SOL     OW22807   3.488   1.017   6.713
 7303SOL    HW122808   3.412   1.002   6.775
 7303SOL    HW222809   3.573   0.987   6.756
 7304SOL     OW22810   2.049   5.483   1.964
 7304SOL    HW122811   2.044   5.569   1.913
 7304SOL    HW222812   1.962   5.468   2.011
 7305SOL     OW22813   5.599   2.241   1.370
 7305SOL    HW122814   5.647   2.323   1.339
 7305SOL    HW222815   5.603   2.235   1.469
 7306SOL     OW22816   3.504   1.726   1.594
 7306SOL    HW122817   3.598   1.759   1.603
 7306SOL    HW222818   3.481   1.716   1.498
 7307SOL     OW22819   4.215   6.771   2.252
 7307SOL    HW122820   4.208   6.817   2.164
 7307SOL    HW222821   4.244   6.837   2.322
 7308SOL     OW22822   0.283   1.473   3.076
 7308SOL    HW122823   0.274   1.440   3.170
 7308SOL    HW222824   0.377   1.503   3.060
 7309SOL     OW22825   2.275   6.302   1.980
 7309SOL    HW122826   2.234   6.238   1.915
 7309SOL    HW222827   2.228   6.390   1.975
 7310SOL     OW22828   1.608   3.525   5.914
 7310SOL    HW122829   1.701   3.550   5.886
 7310SOL    HW222830   1.557   3.608   5.937
 7311SOL     OW22831   0.794   0.421   0.164
 7311SOL    HW122832   0.740   0.387   0.087
 7311SOL    HW222833   0.861   0.488   0.130
 7312SOL     OW22834   0.769   1.489   5.043
 7312SOL    HW122835   0.677   1.502   5.005
 7312SOL    HW222836   0.791   1.565   5.103
 7313SOL     OW22837   2.674   1.596   0.669
 7313SOL    HW122838   2.765   1.571   0.637
 7313SOL    HW222839   2.676   1.686   0.711
 7314SOL     OW22840   6.752   3.668   6.527
 7314SOL    HW122841   6.771   3.758   6.566
 7314SOL    HW222842   6.790   3.597   6.587
 7315SOL     OW22843   5.873   5.280   2.162
 7315SOL    HW122844   5.954   5.316   2.116
 7315SOL    HW222845   5.900   5.228   2.243
 7316SOL     OW22846   3.456   2.074   6.724
 7316SOL    HW122847   3.395   2.009   6.679
 7316SOL    HW222848   3.486   2.036   6.811
 7317SOL     OW22849   3.777   1.476   2.358
 7317SOL    HW122850   3.712   1.411   2.397
 7317SOL    HW222851   3.737   1.567   2.357
 7318SOL     OW22852   3.211   6.694   2.465
 7318SOL    HW122853   3.122   6.730   2.493
 7318SOL    HW222854   3.222   6.601   2.501
 7319SOL     OW22855   6.028   3.690   6.278
 7319SOL    HW122856   6.002   3.729   6.189
 7319SOL    HW222857   5.946   3.667   6.329
 7320SOL     OW22858   0.349   3.463   0.294
 7320SOL    HW122859   0.441   3.425   0.304
 7320SOL    HW222860   0.347   3.525   0.217
 7321SOL     OW22861   1.958   6.596   6.296
 7321SOL    HW122862   1.993   6.650   6.219
 7321SOL    HW222863   1.874   6.549   6.268
 7322SOL     OW22864   0.094   3.122   3.091
 7322SOL    HW122865   0.077   3.126   2.992
 7322SOL    HW222866   0.192   3.111   3.108
 7323SOL     OW22867   2.365   1.958   1.109
 7323SOL    HW122868   2.279   1.907   1.103
 7323SOL    HW222869   2.354   2.034   1.173
 7324SOL     OW22870   5.964   4.116   2.606
 7324SOL    HW122871   5.872   4.083   2.626
 7324SOL    HW222872   5.988   4.187   2.672
 7325SOL     OW22873   2.651   0.407   5.433
 7325SOL    HW122874   2.566   0.446   5.469
 7325SOL    HW222875   2.691   0.470   5.367
 7326SOL     OW22876   4.077   0.910   6.627
 7326SOL    HW122877   4.134   0.902   6.546
 7326SOL    HW222878   4.026   0.995   6.624
 7327SOL     OW22879   5.727   3.618   4.160
 7327SOL    HW122880   5.663   3.634   4.084
 7327SOL    HW222881   5.680   3.569   4.233
 7328SOL     OW22882   4.402   6.340   6.140
 7328SOL    HW122883   4.437   6.299   6.056
 7328SOL    HW222884   4.383   6.268   6.207
 7329SOL     OW22885   0.747   2.714   6.919
 7329SOL    HW122886   0.827   2.718   6.859
 7329SOL    HW222887   0.702   2.626   6.908
 7330SOL     OW22888   3.080   2.823   1.392
 7330SOL    HW122889   3.172   2.786   1.403
 7330SOL    HW222890   3.036   2.781   1.313
 7331SOL     OW22891   4.755   6.665   1.983
 7331SOL    HW122892   4.666   6.622   1.969
 7331SOL    HW222893   4.771   6.732   1.910
 7332SOL     OW22894   4.045   4.216   6.932
 7332SOL    HW122895   4.076   4.218   6.837
 7332SOL    HW222896   3.996   4.130   6.949
 7333SOL     OW22897   5.859   3.197   2.941
 7333SOL    HW122898   5.898   3.276   2.987
 7333SOL    HW222899   5.904   3.114   2.973
 7334SOL     OW22900   2.939   5.386   5.583
 7334SOL    HW122901   2.850   5.348   5.606
 7334SOL    HW222902   3.007   5.360   5.652
 7335SOL     OW22903   0.385   3.113   3.112
 7335SOL    HW122904   0.352   3.139   3.203
 7335SOL    HW222905   0.429   3.191   3.069
 7336SOL     OW22906   2.313   6.226   1.135
 7336SOL    HW122907   2.355   6.163   1.200
 7336SOL    HW222908   2.371   6.235   1.054
 7337SOL     OW22909   2.682   2.914   1.270
 7337SOL    HW122910   2.598   2.875   1.233
 7337SOL    HW222911   2.661   2.968   1.352
 7338SOL     OW22912   6.245   2.228   1.736
 7338SOL    HW122913   6.287   2.318   1.723
 7338SOL    HW222914   6.315   2.162   1.761
 7339SOL     OW22915   0.016   6.633   6.009
 7339SOL    HW122916   7.018   6.639   5.911
 7339SOL    HW222917   7.018   6.721   6.052
 7340SOL     OW22918   4.377   1.551   0.023
 7340SOL    HW122919   4.306   1.514   0.082
 7340SOL    HW222920   4.369   1.511   6.952
 7341SOL     OW22921   1.113   5.090   4.826
 7341SOL    HW122922   1.116   5.139   4.913
 7341SOL    HW222923   1.131   5.153   4.751
 7342SOL     OW22924   6.357   0.095   0.641
 7342SOL    HW122925   6.361   0.001   0.674
 7342SOL    HW222926   6.322   0.155   0.712
 7343SOL     OW22927   5.511   2.889   2.355
 7343SOL    HW122928   5.572   2.904   2.433
 7343SOL    HW222929   5.564   2.865   2.274
 7344SOL     OW22930   1.739   0.177   6.755
 7344SOL    HW122931   1.790   0.218   6.831
 7344SOL    HW222932   1.685   0.247   6.709
 7345SOL     OW22933   4.414   5.405   5.638
 7345SOL    HW122934   4.425   5.498   5.671
 7345SOL    HW222935   4.490   5.382   5.577
 7346SOL     OW22936   3.907   3.824   0.821
 7346SOL    HW122937   3.872   3.731   0.806
 7346SOL    HW222938   3.962   3.852   0.742
 7347SOL     OW22939   6.828   2.278   1.457
 7347SOL    HW122940   6.742   2.249   1.500
 7347SOL    HW222941   6.832   2.378   1.455
 7348SOL     OW22942   1.359   3.607   3.739
 7348SOL    HW122943   1.413   3.663   3.803
 7348SOL    HW222944   1.306   3.540   3.790
 7349SOL     OW22945   3.408   1.705   1.362
 7349SOL    HW122946   3.413   1.781   1.297
 7349SOL    HW222947   3.351   1.632   1.324
 7350SOL     OW22948   0.853   3.399   3.967
 7350SOL    HW122949   0.907   3.316   3.956
 7350SOL    HW222950   0.768   3.377   4.017
 7351SOL     OW22951   4.530   5.013   6.393
 7351SOL    HW122952   4.626   4.988   6.408
 7351SOL    HW222953   4.476   4.931   6.379
 7352SOL     OW22954   1.725   2.357   3.930
 7352SOL    HW122955   1.772   2.309   4.005
 7352SOL    HW222956   1.677   2.290   3.874
 7353SOL     OW22957   0.744   0.709   5.305
 7353SOL    HW122958   0.828   0.654   5.306
 7353SOL    HW222959   0.690   0.687   5.224
 7354SOL     OW22960   0.363   0.990   6.215
 7354SOL    HW122961   0.422   0.957   6.288
 7354SOL    HW222962   0.417   1.002   6.132
 7355SOL     OW22963   1.881   6.616   7.006
 7355SOL    HW122964   1.894   6.549   0.059
 7355SOL    HW222965   1.816   6.686   0.015
 7356SOL     OW22966   5.271   2.594   5.958
 7356SOL    HW122967   5.308   2.686   5.965
 7356SOL    HW222968   5.290   2.544   6.042
 7357SOL     OW22969   4.367   0.980   1.027
 7357SOL    HW122970   4.374   0.883   1.003
 7357SOL    HW222971   4.436   1.003   1.095
 7358SOL     OW22972   1.878   2.137   2.362
 7358SOL    HW122973   1.968   2.156   2.403
 7358SOL    HW222974   1.807   2.178   2.419
 7359SOL     OW22975   3.348   1.958   1.285
 7359SOL    HW122976   3.391   1.970   1.196
 7359SOL    HW222977   3.381   2.030   1.348
 7360SOL     OW22978   2.747   1.935   5.525
 7360SOL    HW122979   2.788   1.987   5.450
 7360SOL    HW222980   2.816   1.876   5.566
 7361SOL     OW22981   4.504   6.528   2.030
 7361SOL    HW122982   4.425   6.527   2.092
 7361SOL    HW222983   4.476   6.563   1.941
 7362SOL     OW22984   0.556   6.638   5.006
 7362SOL    HW122985   0.568   6.664   4.910
 7362SOL    HW222986   0.544   6.721   5.061
 7363SOL     OW22987   4.154   1.584   1.112
 7363SOL    HW122988   4.136   1.491   1.145
 7363SOL    HW222989   4.153   1.585   1.012
 7364SOL     OW22990   3.974   0.153   1.244
 7364SOL    HW122991   4.053   0.096   1.267
 7364SOL    HW222992   3.891   0.113   1.283
 7365SOL     OW22993   1.481   5.933   1.923
 7365SOL    HW122994   1.394   5.975   1.894
 7365SOL    HW222995   1.554   6.001   1.916
 7366SOL     OW22996   1.831   5.749   0.373
 7366SOL    HW122997   1.836   5.653   0.402
 7366SOL    HW222998   1.743   5.766   0.329
 7367SOL     OW22999   4.039   3.559   1.385
 7367SOL    HW123000   4.036   3.583   1.482
 7367SOL    HW223001   3.998   3.631   1.331
 7368SOL     OW23002   3.675   2.894   4.120
 7368SOL    HW123003   3.586   2.926   4.153
 7368SOL    HW223004   3.745   2.915   4.188
 7369SOL     OW23005   5.198   3.460   0.838
 7369SOL    HW123006   5.140   3.391   0.883
 7369SOL    HW223007   5.278   3.415   0.799
 7370SOL     OW23008   1.986   0.915   5.679
 7370SOL    HW123009   2.008   0.823   5.712
 7370SOL    HW223010   1.917   0.909   5.607
 7371SOL     OW23011   2.756   5.409   3.745
 7371SOL    HW123012   2.792   5.482   3.687
 7371SOL    HW223013   2.667   5.437   3.782
 7372SOL     OW23014   2.676   0.818   5.507
 7372SOL    HW123015   2.747   0.798   5.575
 7372SOL    HW223016   2.685   0.913   5.476
 7373SOL     OW23017   4.929   1.382   3.540
 7373SOL    HW123018   4.906   1.350   3.449
 7373SOL    HW223019   4.889   1.321   3.608
 7374SOL     OW23020   2.904   2.634   5.389
 7374SOL    HW123021   2.976   2.691   5.350
 7374SOL    HW223022   2.912   2.632   5.488
 7375SOL     OW23023   1.919   1.981   3.506
 7375SOL    HW123024   1.996   2.035   3.541
 7375SOL    HW223025   1.843   1.986   3.571
 7376SOL     OW23026   3.895   1.622   0.463
 7376SOL    HW123027   3.848   1.631   0.375
 7376SOL    HW223028   3.873   1.701   0.520
 7377SOL     OW23029   4.839   6.025   1.839
 7377SOL    HW123030   4.771   5.992   1.905
 7377SOL    HW223031   4.844   6.124   1.843
 7378SOL     OW23032   0.559   2.204   4.519
 7378SOL    HW123033   0.655   2.233   4.521
 7378SOL    HW223034   0.522   2.223   4.428
 7379SOL     OW23035   4.301   2.083   3.418
 7379SOL    HW123036   4.255   2.010   3.367
 7379SOL    HW223037   4.365   2.131   3.358
 7380SOL     OW23038   6.764   3.389   5.311
 7380SOL    HW123039   6.840   3.448   5.338
 7380SOL    HW223040   6.697   3.442   5.259
 7381SOL     OW23041   4.886   3.655   2.259
 7381SOL    HW123042   4.839   3.705   2.186
 7381SOL    HW223043   4.919   3.568   2.223
 7382SOL     OW23044   0.252   5.571   5.717
 7382SOL    HW123045   0.291   5.534   5.632
 7382SOL    HW223046   0.311   5.550   5.794
 7383SOL     OW23047   0.148   6.917   2.362
 7383SOL    HW123048   0.234   6.869   2.351
 7383SOL    HW223049   0.077   6.873   2.307
 7384SOL     OW23050   4.575   0.556   2.013
 7384SOL    HW123051   4.535   0.598   2.094
 7384SOL    HW223052   4.573   0.456   2.022
 7385SOL     OW23053   4.010   6.492   1.978
 7385SOL    HW123054   4.103   6.456   1.988
 7385SOL    HW223055   3.954   6.462   2.055
 7386SOL     OW23056   0.408   2.688   5.281
 7386SOL    HW123057   0.422   2.783   5.308
 7386SOL    HW223058   0.496   2.647   5.257
 7387SOL     OW23059   4.206   0.285   4.609
 7387SOL    HW123060   4.112   0.261   4.584
 7387SOL    HW223061   4.217   0.275   4.708
 7388SOL     OW23062   6.629   5.799   3.779
 7388SOL    HW123063   6.689   5.719   3.767
 7388SOL    HW223064   6.543   5.769   3.819
 7389SOL     OW23065   1.234   5.194   6.689
 7389SOL    HW123066   1.235   5.126   6.762
 7389SOL    HW223067   1.261   5.283   6.726
 7390SOL     OW23068   1.495   1.430   6.537
 7390SOL    HW123069   1.490   1.457   6.633
 7390SOL    HW223070   1.407   1.446   6.493
 7391SOL     OW23071   4.796   4.533   4.672
 7391SOL    HW123072   4.879   4.525   4.727
 7391SOL    HW223073   4.716   4.524   4.731
 7392SOL     OW23074   3.071   5.852   6.249
 7392SOL    HW123075   3.052   5.755   6.235
 7392SOL    HW223076   3.100   5.893   6.162
 7393SOL     OW23077   6.053   5.545   1.539
 7393SOL    HW123078   6.056   5.506   1.447
 7393SOL    HW223079   6.028   5.642   1.534
 7394SOL     OW23080   3.201   2.935   6.510
 7394SOL    HW123081   3.274   3.003   6.519
 7394SOL    HW223082   3.191   2.909   6.413
 7395SOL     OW23083   1.642   1.161   0.047
 7395SOL    HW123084   1.648   1.182   0.144
 7395SOL    HW223085   1.636   1.062   0.034
 7396SOL     OW23086   1.092   0.551   0.367
 7396SOL    HW123087   1.013   0.520   0.420
 7396SOL    HW223088   1.060   0.596   0.283
 7397SOL     OW23089   5.192   5.320   4.713
 7397SOL    HW123090   5.104   5.356   4.682
 7397SOL    HW223091   5.177   5.240   4.771
 7398SOL     OW23092   3.242   4.936   4.151
 7398SOL    HW123093   3.248   5.034   4.171
 7398SOL    HW223094   3.157   4.900   4.188
 7399SOL     OW23095   0.462   3.299   5.585
 7399SOL    HW123096   0.454   3.291   5.485
 7399SOL    HW223097   0.443   3.210   5.627
 7400SOL     OW23098   3.000   3.647   6.797
 7400SOL    HW123099   3.098   3.650   6.814
 7400SOL    HW223100   2.955   3.600   6.873
 7401SOL     OW23101   0.751   1.077   3.751
 7401SOL    HW123102   0.732   1.085   3.849
 7401SOL    HW223103   0.846   1.101   3.733
 7402SOL     OW23104   2.053   5.695   4.739
 7402SOL    HW123105   2.097   5.724   4.824
 7402SOL    HW223106   2.067   5.765   4.669
 7403SOL     OW23107   1.719   3.395   3.183
 7403SOL    HW123108   1.756   3.446   3.261
 7403SOL    HW223109   1.740   3.298   3.194
 7404SOL     OW23110   2.367   6.325   1.424
 7404SOL    HW123111   2.369   6.231   1.456
 7404SOL    HW223112   2.305   6.378   1.482
 7405SOL     OW23113   1.611   5.167   4.586
 7405SOL    HW123114   1.574   5.239   4.645
 7405SOL    HW223115   1.607   5.079   4.634
 7406SOL     OW23116   1.447   3.601   2.843
 7406SOL    HW123117   1.401   3.689   2.855
 7406SOL    HW223118   1.405   3.551   2.768
 7407SOL     OW23119   6.879   5.942   5.068
 7407SOL    HW123120   6.971   5.963   5.101
 7407SOL    HW223121   6.861   5.992   4.984
 7408SOL     OW23122   0.948   3.969   5.479
 7408SOL    HW123123   1.035   4.015   5.493
 7408SOL    HW223124   0.905   4.003   5.395
 7409SOL     OW23125   0.058   0.846   4.695
 7409SOL    HW123126   6.986   0.834   4.731
 7409SOL    HW223127   0.083   0.766   4.640
 7410SOL     OW23128   7.016   4.499   1.017
 7410SOL    HW123129   6.942   4.547   0.971
 7410SOL    HW223130   0.071   4.562   1.034
 7411SOL     OW23131   3.167   6.325   4.303
 7411SOL    HW123132   3.093   6.347   4.239
 7411SOL    HW223133   3.255   6.336   4.258
 7412SOL     OW23134   4.275   1.037   1.962
 7412SOL    HW123135   4.328   0.953   1.973
 7412SOL    HW223136   4.266   1.058   1.865
 7413SOL     OW23137   6.239   5.511   4.439
 7413SOL    HW123138   6.158   5.524   4.496
 7413SOL    HW223139   6.233   5.423   4.392
 7414SOL     OW23140   0.438   0.127   3.352
 7414SOL    HW123141   0.346   0.125   3.314
 7414SOL    HW223142   0.481   0.215   3.331
 7415SOL     OW23143   0.893   4.165   3.348
 7415SOL    HW123144   0.906   4.172   3.447
 7415SOL    HW223145   0.799   4.193   3.326
 7416SOL     OW23146   2.737   0.404   4.289
 7416SOL    HW123147   2.682   0.338   4.340
 7416SOL    HW223148   2.832   0.374   4.288
 7417SOL     OW23149   2.061   0.390   6.412
 7417SOL    HW123150   2.136   0.429   6.466
 7417SOL    HW223151   2.007   0.330   6.470
 7418SOL     OW23152   3.765   5.234   1.264
 7418SOL    HW123153   3.723   5.152   1.225
 7418SOL    HW223154   3.848   5.257   1.214
 7419SOL     OW23155   6.337   2.378   4.289
 7419SOL    HW123156   6.321   2.474   4.313
 7419SOL    HW223157   6.292   2.356   4.203
 7420SOL     OW23158   6.635   6.379   2.242
 7420SOL    HW123159   6.623   6.401   2.145
 7420SOL    HW223160   6.578   6.439   2.298
 7421SOL     OW23161   3.150   3.412   1.799
 7421SOL    HW123162   3.192   3.477   1.736
 7421SOL    HW223163   3.110   3.461   1.876
 7422SOL     OW23164   0.457   3.987   2.114
 7422SOL    HW123165   0.429   4.000   2.209
 7422SOL    HW223166   0.470   3.890   2.096
 7423SOL     OW23167   6.581   3.920   6.343
 7423SOL    HW123168   6.674   3.922   6.381
 7423SOL    HW223169   6.546   3.827   6.345
 7424SOL     OW23170   6.301   0.837   4.346
 7424SOL    HW123171   6.341   0.755   4.305
 7424SOL    HW223172   6.273   0.900   4.273
 7425SOL     OW23173   4.412   5.815   6.438
 7425SOL    HW123174   4.478   5.831   6.511
 7425SOL    HW223175   4.342   5.887   6.440
 7426SOL     OW23176   0.876   2.050   6.411
 7426SOL    HW123177   0.967   2.058   6.371
 7426SOL    HW223178   0.852   2.136   6.457
 7427SOL     OW23179   3.417   6.030   4.731
 7427SOL    HW123180   3.510   6.019   4.695
 7427SOL    HW223181   3.360   5.957   4.694
 7428SOL     OW23182   3.655   1.731   5.278
 7428SOL    HW123183   3.727   1.668   5.308
 7428SOL    HW223184   3.677   1.767   5.188
 7429SOL     OW23185   5.678   0.693   3.468
 7429SOL    HW123186   5.656   0.789   3.485
 7429SOL    HW223187   5.683   0.676   3.370
 7430SOL     OW23188   0.139   4.468   6.609
 7430SOL    HW123189   0.158   4.521   6.691
 7430SOL    HW223190   0.064   4.404   6.626
 7431SOL     OW23191   0.655   3.982   1.876
 7431SOL    HW123192   0.609   4.016   1.958
 7431SOL    HW223193   0.591   3.985   1.799
 7432SOL     OW23194   0.320   6.824   3.111
 7432SOL    HW123195   0.258   6.807   3.034
 7432SOL    HW223196   0.393   6.886   3.081
 7433SOL     OW23197   6.745   5.425   0.730
 7433SOL    HW123198   6.731   5.505   0.788
 7433SOL    HW223199   6.831   5.379   0.756
 7434SOL     OW23200   4.297   1.238   6.592
 7434SOL    HW123201   4.293   1.209   6.496
 7434SOL    HW223202   4.392   1.255   6.618
 7435SOL     OW23203   3.476   5.789   6.738
 7435SOL    HW123204   3.567   5.749   6.730
 7435SOL    HW223205   3.424   5.770   6.654
 7436SOL     OW23206   5.518   3.193   6.205
 7436SOL    HW123207   5.531   3.163   6.111
 7436SOL    HW223208   5.569   3.133   6.267
 7437SOL     OW23209   0.159   5.726   6.817
 7437SOL    HW123210   0.167   5.821   6.848
 7437SOL    HW223211   0.108   5.673   6.884
 7438SOL     OW23212   1.041   5.164   0.681
 7438SOL    HW123213   1.008   5.244   0.631
 7438SOL    HW223214   1.124   5.187   0.732
 7439SOL     OW23215   1.694   6.452   4.680
 7439SOL    HW123216   1.595   6.460   4.664
 7439SOL    HW223217   1.743   6.520   4.626
 7440SOL     OW23218   0.968   3.277   4.276
 7440SOL    HW123219   1.019   3.221   4.210
 7440SOL    HW223220   0.983   3.374   4.255
 7441SOL     OW23221   5.402   6.033   4.610
 7441SOL    HW123222   5.306   6.015   4.632
 7441SOL    HW223223   5.442   6.092   4.680
 7442SOL     OW23224   1.260   1.263   6.210
 7442SOL    HW123225   1.264   1.362   6.205
 7442SOL    HW223226   1.189   1.229   6.148
 7443SOL     OW23227   0.030   1.315   1.477
 7443SOL    HW123228   0.122   1.339   1.507
 7443SOL    HW223229   7.011   1.392   1.427
 7444SOL     OW23230   6.636   3.655   5.099
 7444SOL    HW123231   6.612   3.708   5.017
 7444SOL    HW223232   6.553   3.624   5.144
 7445SOL     OW23233   3.335   0.714   1.679
 7445SOL    HW123234   3.433   0.726   1.666
 7445SOL    HW223235   3.286   0.749   1.600
 7446SOL     OW23236   5.789   4.304   0.347
 7446SOL    HW123237   5.785   4.399   0.378
 7446SOL    HW223238   5.699   4.262   0.357
 7447SOL     OW23239   1.648   3.321   5.554
 7447SOL    HW123240   1.713   3.397   5.547
 7447SOL    HW223241   1.642   3.291   5.650
 7448SOL     OW23242   5.730   6.577   5.240
 7448SOL    HW123243   5.815   6.579   5.292
 7448SOL    HW223244   5.729   6.651   5.173
 7449SOL     OW23245   6.042   2.353   2.053
 7449SOL    HW123246   6.057   2.414   2.131
 7449SOL    HW223247   5.964   2.293   2.072
 7450SOL     OW23248   5.390   1.938   4.536
 7450SOL    HW123249   5.488   1.917   4.537
 7450SOL    HW223250   5.373   2.018   4.478
 7451SOL     OW23251   1.938   0.563   2.852
 7451SOL    HW123252   1.871   0.570   2.778
 7451SOL    HW223253   1.891   0.566   2.940
 7452SOL     OW23254   0.952   6.315   5.037
 7452SOL    HW123255   0.861   6.275   5.049
 7452SOL    HW223256   1.021   6.244   5.047
 7453SOL     OW23257   4.931   5.731   6.267
 7453SOL    HW123258   5.016   5.784   6.267
 7453SOL    HW223259   4.941   5.651   6.326
 7454SOL     OW23260   0.923   2.623   2.009
 7454SOL    HW123261   0.950   2.546   1.952
 7454SOL    HW223262   0.934   2.599   2.106
 7455SOL     OW23263   0.061   1.339   1.835
 7455SOL    HW123264   0.149   1.311   1.797
 7455SOL    HW223265   0.040   1.433   1.808
 7456SOL     OW23266   0.701   2.055   4.204
 7456SOL    HW123267   0.719   2.017   4.112
 7456SOL    HW223268   0.729   2.151   4.206
 7457SOL     OW23269   3.806   0.569   5.588
 7457SOL    HW123270   3.793   0.513   5.506
 7457SOL    HW223271   3.734   0.549   5.654
 7458SOL     OW23272   2.023   0.388   6.152
 7458SOL    HW123273   2.096   0.427   6.096
 7458SOL    HW223274   2.038   0.411   6.248
 7459SOL     OW23275   4.814   0.340   0.461
 7459SOL    HW123276   4.763   0.352   0.375
 7459SOL    HW223277   4.822   0.428   0.507
 7460SOL     OW23278   1.838   4.641   1.332
 7460SOL    HW123279   1.764   4.630   1.266
 7460SOL    HW223280   1.884   4.553   1.345
 7461SOL     OW23281   6.223   1.476   6.376
 7461SOL    HW123282   6.161   1.405   6.407
 7461SOL    HW223283   6.300   1.435   6.328
 7462SOL     OW23284   2.167   3.093   2.566
 7462SOL    HW123285   2.241   3.026   2.562
 7462SOL    HW223286   2.120   3.086   2.654
 7463SOL     OW23287   3.271   4.418   1.376
 7463SOL    HW123288   3.208   4.364   1.432
 7463SOL    HW223289   3.363   4.413   1.414
 7464SOL     OW23290   3.181   6.707   6.567
 7464SOL    HW123291   3.272   6.676   6.594
 7464SOL    HW223292   3.129   6.630   6.529
 7465SOL     OW23293   1.667   6.713   0.399
 7465SOL    HW123294   1.617   6.796   0.376
 7465SOL    HW223295   1.613   6.657   0.461
 7466SOL     OW23296   0.490   0.250   6.449
 7466SOL    HW123297   0.584   0.265   6.480
 7466SOL    HW223298   0.486   0.167   6.394
 7467SOL     OW23299   6.965   1.350   0.694
 7467SOL    HW123300   6.894   1.313   0.634
 7467SOL    HW223301   6.925   1.374   0.782
 7468SOL     OW23302   6.088   2.903   2.628
 7468SOL    HW123303   6.012   2.949   2.581
 7468SOL    HW223304   6.168   2.963   2.627
 7469SOL     OW23305   0.204   6.955   0.392
 7469SOL    HW123306   0.258   6.871   0.389
 7469SOL    HW223307   0.258   0.006   0.437
 7470SOL     OW23308   0.486   3.044   4.400
 7470SOL    HW123309   0.533   2.963   4.434
 7470SOL    HW223310   0.552   3.105   4.355
 7471SOL     OW23311   5.771   6.384   5.773
 7471SOL    HW123312   5.785   6.381   5.674
 7471SOL    HW223313   5.755   6.292   5.807
 7472SOL     OW23314   5.957   6.526   4.260
 7472SOL    HW123315   5.873   6.489   4.221
 7472SOL    HW223316   5.940   6.562   4.351
 7473SOL     OW23317   0.551   4.353   2.811
 7473SOL    HW123318   0.460   4.340   2.851
 7473SOL    HW223319   0.582   4.267   2.772
 7474SOL     OW23320   2.194   1.648   5.212
 7474SOL    HW123321   2.265   1.615   5.274
 7474SOL    HW223322   2.160   1.572   5.156
 7475SOL     OW23323   3.351   1.703   2.324
 7475SOL    HW123324   3.269   1.753   2.352
 7475SOL    HW223325   3.394   1.749   2.247
 7476SOL     OW23326   3.475   6.177   4.311
 7476SOL    HW123327   3.496   6.091   4.357
 7476SOL    HW223328   3.474   6.252   4.377
 7477SOL     OW23329   6.147   1.156   4.539
 7477SOL    HW123330   6.198   1.242   4.547
 7477SOL    HW223331   6.049   1.175   4.549
 7478SOL     OW23332   4.295   4.892   6.894
 7478SOL    HW123333   4.253   4.923   6.980
 7478SOL    HW223334   4.235   4.914   6.818
 7479SOL     OW23335   4.491   2.613   0.785
 7479SOL    HW123336   4.409   2.638   0.837
 7479SOL    HW223337   4.479   2.643   0.690
 7480SOL     OW23338   6.681   4.180   1.832
 7480SOL    HW123339   6.753   4.111   1.831
 7480SOL    HW223340   6.715   4.263   1.877
 7481SOL     OW23341   5.871   5.100   2.400
 7481SOL    HW123342   5.804   5.030   2.373
 7481SOL    HW223343   5.958   5.055   2.421
 7482SOL     OW23344   5.498   1.888   2.932
 7482SOL    HW123345   5.493   1.803   2.879
 7482SOL    HW223346   5.585   1.890   2.982
 7483SOL     OW23347   4.554   2.539   5.325
 7483SOL    HW123348   4.577   2.569   5.418
 7483SOL    HW223349   4.638   2.517   5.276
 7484SOL     OW23350   0.490   0.010   3.062
 7484SOL    HW123351   0.496   0.104   3.029
 7484SOL    HW223352   0.501   0.010   3.162
 7485SOL     OW23353   3.094   6.602   4.668
 7485SOL    HW123354   3.079   6.512   4.709
 7485SOL    HW223355   3.063   6.673   4.731
 7486SOL     OW23356   2.963   0.494   6.019
 7486SOL    HW123357   2.924   0.584   6.035
 7486SOL    HW223358   2.900   0.424   6.053
 7487SOL     OW23359   2.512   6.404   2.278
 7487SOL    HW123360   2.558   6.343   2.213
 7487SOL    HW223361   2.475   6.483   2.229
 7488SOL     OW23362   1.742   0.127   4.679
 7488SOL    HW123363   1.750   0.035   4.641
 7488SOL    HW223364   1.765   0.194   4.608
 7489SOL     OW23365   5.550   2.311   4.776
 7489SOL    HW123366   5.506   2.366   4.848
 7489SOL    HW223367   5.608   2.241   4.819
 7490SOL     OW23368   0.948   1.706   1.199
 7490SOL    HW123369   0.893   1.690   1.117
 7490SOL    HW223370   0.921   1.793   1.240
 7491SOL     OW23371   6.797   3.689   0.108
 7491SOL    HW123372   6.735   3.703   0.031
 7491SOL    HW223373   6.872   3.629   0.079
 7492SOL     OW23374   2.735   1.367   4.484
 7492SOL    HW123375   2.690   1.311   4.553
 7492SOL    HW223376   2.720   1.464   4.505
 7493SOL     OW23377   6.958   4.335   0.056
 7493SOL    HW123378   6.993   4.412   0.001
 7493SOL    HW223379   6.882   4.367   0.112
 7494SOL     OW23380   6.045   0.731   2.309
 7494SOL    HW123381   6.081   0.738   2.402
 7494SOL    HW223382   5.970   0.796   2.297
 7495SOL     OW23383   2.471   1.104   1.160
 7495SOL    HW123384   2.484   1.016   1.114
 7495SOL    HW223385   2.460   1.089   1.258
 7496SOL     OW23386   0.724   3.494   6.606
 7496SOL    HW123387   0.701   3.461   6.698
 7496SOL    HW223388   0.640   3.511   6.555
 7497SOL     OW23389   2.970   4.376   0.531
 7497SOL    HW123390   2.928   4.305   0.474
 7497SOL    HW223391   2.922   4.463   0.517
 7498SOL     OW23392   2.102   1.449   5.080
 7498SOL    HW123393   2.140   1.442   4.987
 7498SOL    HW223394   2.035   1.376   5.093
 7499SOL     OW23395   5.315   0.690   3.254
 7499SOL    HW123396   5.380   0.621   3.224
 7499SOL    HW223397   5.233   0.686   3.196
 7500SOL     OW23398   4.033   5.913   4.150
 7500SOL    HW123399   4.103   5.982   4.137
 7500SOL    HW223400   3.942   5.956   4.146
 7501SOL     OW23401   6.807   4.377   4.309
 7501SOL    HW123402   6.748   4.303   4.277
 7501SOL    HW223403   6.798   4.456   4.248
 7502SOL     OW23404   1.189   0.301   5.086
 7502SOL    HW123405   1.140   0.267   5.166
 7502SOL    HW223406   1.282   0.327   5.113
 7503SOL     OW23407   2.094   0.969   0.725
 7503SOL    HW123408   2.171   1.028   0.699
 7503SOL    HW223409   2.052   1.005   0.808
 7504SOL     OW23410   2.314   0.052   3.785
 7504SOL    HW123411   2.407   0.049   3.747
 7504SOL    HW223412   2.273   6.981   3.779
 7505SOL     OW23413   2.196   1.529   5.659
 7505SOL    HW123414   2.264   1.469   5.701
 7505SOL    HW223415   2.130   1.474   5.607
 7506SOL     OW23416   4.429   6.215   2.808
 7506SOL    HW123417   4.434   6.122   2.843
 7506SOL    HW223418   4.339   6.254   2.829
 7507SOL     OW23419   0.904   0.485   1.436
 7507SOL    HW123420   0.844   0.408   1.459
 7507SOL    HW223421   0.886   0.560   1.499
 7508SOL     OW23422   6.990   6.772   2.254
 7508SOL    HW123423   0.022   6.687   2.250
 7508SOL    HW223424   6.899   6.753   2.291
 7509SOL     OW23425   5.814   4.168   1.312
 7509SOL    HW123426   5.817   4.117   1.226
 7509SOL    HW223427   5.723   4.161   1.353
 7510SOL     OW23428   2.813   4.573   5.446
 7510SOL    HW123429   2.827   4.518   5.363
 7510SOL    HW223430   2.782   4.664   5.421
 7511SOL     OW23431   1.638   7.002   3.515
 7511SOL    HW123432   1.719   6.988   3.572
 7511SOL    HW223433   1.558   7.013   3.574
 7512SOL     OW23434   3.631   4.410   0.054
 7512SOL    HW123435   3.692   4.400   0.133
 7512SOL    HW223436   3.679   4.380   6.992
 7513SOL     OW23437   2.136   2.156   1.379
 7513SOL    HW123438   2.175   2.078   1.428
 7513SOL    HW223439   2.191   2.174   1.297
 7514SOL     OW23440   2.386   5.203   2.134
 7514SOL    HW123441   2.381   5.270   2.061
 7514SOL    HW223442   2.399   5.111   2.096
 7515SOL     OW23443   0.583   5.920   2.251
 7515SOL    HW123444   0.518   5.924   2.175
 7515SOL    HW223445   0.656   5.856   2.230
 7516SOL     OW23446   6.546   6.156   4.317
 7516SOL    HW123447   6.564   6.247   4.354
 7516SOL    HW223448   6.466   6.117   4.363
 7517SOL     OW23449   6.993   3.528   1.519
 7517SOL    HW123450   6.906   3.547   1.474
 7517SOL    HW223451   6.994   3.433   1.551
 7518SOL     OW23452   4.008   5.359   3.253
 7518SOL    HW123453   4.036   5.326   3.163
 7518SOL    HW223454   4.043   5.297   3.324
 7519SOL     OW23455   0.512   6.824   4.021
 7519SOL    HW123456   0.591   6.779   3.979
 7519SOL    HW223457   0.449   6.855   3.950
 7520SOL     OW23458   3.107   6.997   2.014
 7520SOL    HW123459   3.143   6.941   2.088
 7520SOL    HW223460   3.007   6.996   2.017
 7521SOL     OW23461   4.987   4.618   6.430
 7521SOL    HW123462   5.054   4.547   6.452
 7521SOL    HW223463   5.000   4.647   6.335
 7522SOL     OW23464   2.156   6.640   6.558
 7522SOL    HW123465   2.063   6.674   6.540
 7522SOL    HW223466   2.179   6.570   6.490
 7523SOL     OW23467   5.719   0.411   6.400
 7523SOL    HW123468   5.767   0.342   6.346
 7523SOL    HW223469   5.659   0.365   6.466
 7524SOL     OW23470   1.553   2.248   6.773
 7524SOL    HW123471   1.587   2.165   6.818
 7524SOL    HW223472   1.529   2.316   6.843
 7525SOL     OW23473   2.501   6.889   6.728
 7525SOL    HW123474   2.572   6.957   6.748
 7525SOL    HW223475   2.427   6.899   6.794
 7526SOL     OW23476   3.450   2.920   2.199
 7526SOL    HW123477   3.477   2.879   2.112
 7526SOL    HW223478   3.350   2.926   2.203
 7527SOL     OW23479   4.044   5.611   3.260
 7527SOL    HW123480   3.977   5.646   3.326
 7527SOL    HW223481   4.028   5.514   3.244
 7528SOL     OW23482   4.285   1.772   6.798
 7528SOL    HW123483   4.295   1.673   6.814
 7528SOL    HW223484   4.342   1.798   6.720
 7529SOL     OW23485   5.755   0.603   4.677
 7529SOL    HW123486   5.731   0.596   4.774
 7529SOL    HW223487   5.767   0.512   4.638
 7530SOL     OW23488   6.866   4.320   2.497
 7530SOL    HW123489   6.854   4.223   2.477
 7530SOL    HW223490   6.903   4.330   2.589
 7531SOL     OW23491   4.990   2.167   3.871
 7531SOL    HW123492   5.000   2.242   3.806
 7531SOL    HW223493   4.902   2.176   3.919
 7532SOL     OW23494   5.363   5.360   1.406
 7532SOL    HW123495   5.323   5.338   1.495
 7532SOL    HW223496   5.308   5.430   1.361
 7533SOL     OW23497   2.569   1.400   2.703
 7533SOL    HW123498   2.513   1.482   2.707
 7533SOL    HW223499   2.514   1.321   2.729
 7534SOL     OW23500   4.091   6.695   6.161
 7534SOL    HW123501   4.168   6.681   6.223
 7534SOL    HW223502   4.113   6.769   6.097
 7535SOL     OW23503   2.834   0.775   5.731
 7535SOL    HW123504   2.756   0.749   5.787
 7535SOL    HW223505   2.912   0.717   5.754
 7536SOL     OW23506   5.307   5.463   5.079
 7536SOL    HW123507   5.338   5.413   4.998
 7536SOL    HW223508   5.363   5.436   5.158
 7537SOL     OW23509   2.478   5.463   3.636
 7537SOL    HW123510   2.550   5.438   3.571
 7537SOL    HW223511   2.425   5.381   3.660
 7538SOL     OW23512   3.341   3.208   2.022
 7538SOL    HW123513   3.428   3.247   2.052
 7538SOL    HW223514   3.329   3.117   2.062
 7539SOL     OW23515   2.463   2.459   3.960
 7539SOL    HW123516   2.449   2.393   3.886
 7539SOL    HW223517   2.434   2.418   4.046
 7540SOL     OW23518   3.042   6.821   5.760
 7540SOL    HW123519   2.996   6.839   5.847
 7540SOL    HW223520   3.103   6.897   5.738
 7541SOL     OW23521   0.351   3.875   4.403
 7541SOL    HW123522   0.380   3.846   4.312
 7541SOL    HW223523   0.261   3.838   4.423
 7542SOL     OW23524   0.745   5.329   6.672
 7542SOL    HW123525   0.816   5.310   6.740
 7542SOL    HW223526   0.767   5.414   6.624
 7543SOL     OW23527   4.248   2.021   1.369
 7543SOL    HW123528   4.246   2.015   1.469
 7543SOL    HW223529   4.234   1.930   1.330
 7544SOL     OW23530   0.150   2.703   3.296
 7544SOL    HW123531   0.220   2.651   3.346
 7544SOL    HW223532   0.194   2.753   3.221
 7545SOL     OW23533   6.139   6.447   2.235
 7545SOL    HW123534   6.168   6.453   2.330
 7545SOL    HW223535   6.158   6.534   2.189
 7546SOL     OW23536   3.517   0.419   1.942
 7546SOL    HW123537   3.559   0.506   1.968
 7546SOL    HW223538   3.432   0.436   1.894
 7547SOL     OW23539   4.276   0.308   0.323
 7547SOL    HW123540   4.194   0.364   0.318
 7547SOL    HW223541   4.254   0.222   0.369
 7548SOL     OW23542   3.707   2.193   0.234
 7548SOL    HW123543   3.674   2.189   0.328
 7548SOL    HW223544   3.792   2.246   0.231
 7549SOL     OW23545   5.563   1.456   0.753
 7549SOL    HW123546   5.512   1.462   0.838
 7549SOL    HW223547   5.522   1.516   0.685
 7550SOL     OW23548   2.492   4.504   2.043
 7550SOL    HW123549   2.499   4.507   2.143
 7550SOL    HW223550   2.397   4.488   2.017
 7551SOL     OW23551   4.997   3.558   6.287
 7551SOL    HW123552   5.093   3.532   6.278
 7551SOL    HW223553   4.991   3.656   6.308
 7552SOL     OW23554   1.564   5.861   3.011
 7552SOL    HW123555   1.500   5.933   3.038
 7552SOL    HW223556   1.569   5.856   2.912
 7553SOL     OW23557   4.584   5.267   5.471
 7553SOL    HW123558   4.631   5.263   5.383
 7553SOL    HW223559   4.544   5.178   5.491
 7554SOL     OW23560   4.877   0.418   1.374
 7554SOL    HW123561   4.937   0.364   1.316
 7554SOL    HW223562   4.911   0.512   1.381
 7555SOL     OW23563   1.666   4.985   5.071
 7555SOL    HW123564   1.589   5.048   5.083
 7555SOL    HW223565   1.651   4.903   5.127
 7556SOL     OW23566   0.483   2.901   5.417
 7556SOL    HW123567   0.506   2.952   5.335
 7556SOL    HW223568   0.458   2.964   5.490
 7557SOL     OW23569   5.006   2.447   6.009
 7557SOL    HW123570   5.070   2.486   5.943
 7557SOL    HW223571   4.915   2.442   5.968
 7558SOL     OW23572   2.090   2.902   3.796
 7558SOL    HW123573   2.130   2.979   3.844
 7558SOL    HW223574   2.128   2.816   3.832
 7559SOL     OW23575   6.152   4.936   6.990
 7559SOL    HW123576   6.236   4.989   6.994
 7559SOL    HW223577   6.172   4.839   7.003
 7560SOL     OW23578   4.684   6.583   0.402
 7560SOL    HW123579   4.698   6.625   0.312
 7560SOL    HW223580   4.771   6.552   0.439
 7561SOL     OW23581   0.874   3.001   6.953
 7561SOL    HW123582   0.847   2.923   6.897
 7561SOL    HW223583   0.907   3.075   6.895
 7562SOL     OW23584   5.306   5.959   5.196
 7562SOL    HW123585   5.284   5.884   5.259
 7562SOL    HW223586   5.246   6.037   5.214
 7563SOL     OW23587   2.728   6.133   0.913
 7563SOL    HW123588   2.811   6.078   0.928
 7563SOL    HW223589   2.676   6.094   0.837
 7564SOL     OW23590   5.273   1.249   2.764
 7564SOL    HW123591   5.307   1.258   2.858
 7564SOL    HW223592   5.225   1.333   2.738
 7565SOL     OW23593   4.921   4.160   6.837
 7565SOL    HW123594   4.882   4.105   6.910
 7565SOL    HW223595   4.898   4.257   6.852
 7566SOL     OW23596   6.814   5.583   3.797
 7566SOL    HW123597   6.874   5.628   3.862
 7566SOL    HW223598   6.785   5.495   3.833
 7567SOL     OW23599   1.773   2.697   5.141
 7567SOL    HW123600   1.715   2.625   5.103
 7567SOL    HW223601   1.771   2.777   5.081
 7568SOL     OW23602   5.521   5.806   2.924
 7568SOL    HW123603   5.435   5.850   2.897
 7568SOL    HW223604   5.590   5.822   2.854
 7569SOL     OW23605   4.351   4.786   6.439
 7569SOL    HW123606   4.252   4.785   6.429
 7569SOL    HW223607   4.376   4.740   6.524
 7570SOL     OW23608   5.527   4.859   5.368
 7570SOL    HW123609   5.522   4.908   5.281
 7570SOL    HW223610   5.472   4.776   5.363
 7571SOL     OW23611   4.548   5.626   2.902
 7571SOL    HW123612   4.586   5.707   2.857
 7571SOL    HW223613   4.597   5.608   2.987
 7572SOL     OW23614   4.444   1.304   3.208
 7572SOL    HW123615   4.352   1.343   3.221
 7572SOL    HW223616   4.480   1.275   3.297
 7573SOL     OW23617   6.441   6.593   4.845
 7573SOL    HW123618   6.351   6.566   4.879
 7573SOL    HW223619   6.486   6.514   4.803
 7574SOL     OW23620   6.536   0.781   4.679
 7574SOL    HW123621   6.601   0.741   4.614
 7574SOL    HW223622   6.477   0.709   4.715
 7575SOL     OW23623   4.049   0.623   5.738
 7575SOL    HW123624   3.982   0.583   5.675
 7575SOL    HW223625   4.017   0.713   5.768
 7576SOL     OW23626   6.337   5.236   0.282
 7576SOL    HW123627   6.415   5.247   0.220
 7576SOL    HW223628   6.303   5.325   0.309
 7577SOL     OW23629   0.293   6.369   6.255
 7577SOL    HW123630   0.302   6.443   6.188
 7577SOL    HW223631   0.379   6.318   6.259
 7578SOL     OW23632   2.956   6.042   2.523
 7578SOL    HW123633   2.895   6.064   2.447
 7578SOL    HW223634   3.051   6.054   2.494
 7579SOL     OW23635   5.498   2.355   1.975
 7579SOL    HW123636   5.584   2.377   2.021
 7579SOL    HW223637   5.427   2.418   2.004
 7580SOL     OW23638   1.054   4.295   4.205
 7580SOL    HW123639   1.077   4.347   4.123
 7580SOL    HW223640   1.057   4.355   4.285
 7581SOL     OW23641   6.342   6.985   1.532
 7581SOL    HW123642   6.378   0.054   1.508
 7581SOL    HW223643   6.386   6.953   1.616
 7582SOL     OW23644   2.625   1.075   0.450
 7582SOL    HW123645   2.607   1.173   0.459
 7582SOL    HW223646   2.559   1.035   0.387
 7583SOL     OW23647   6.312   3.135   1.235
 7583SOL    HW123648   6.411   3.130   1.231
 7583SOL    HW223649   6.273   3.052   1.195
 7584SOL     OW23650   2.395   6.502   0.973
 7584SOL    HW123651   2.422   6.406   0.972
 7584SOL    HW223652   2.372   6.529   1.066
 7585SOL     OW23653   1.831   3.129   6.007
 7585SOL    HW123654   1.878   3.040   6.004
 7585SOL    HW223655   1.766   3.129   6.083
 7586SOL     OW23656   3.607   0.729   3.331
 7586SOL    HW123657   3.647   0.652   3.280
 7586SOL    HW223658   3.681   0.780   3.375
 7587SOL     OW23659   3.059   1.960   6.597
 7587SOL    HW123660   3.070   2.055   6.568
 7587SOL    HW223661   3.030   1.957   6.692
 7588SOL     OW23662   1.532   2.978   2.660
 7588SOL    HW123663   1.597   2.918   2.613
 7588SOL    HW223664   1.526   3.065   2.612
 7589SOL     OW23665   6.733   6.810   1.733
 7589SOL    HW123666   6.794   6.759   1.793
 7589SOL    HW223667   6.785   6.850   1.658
 7590SOL     OW23668   4.167   2.296   6.578
 7590SOL    HW123669   4.159   2.388   6.542
 7590SOL    HW223670   4.233   2.295   6.653
 7591SOL     OW23671   0.050   4.340   0.442
 7591SOL    HW123672   6.990   4.299   0.397
 7591SOL    HW223673   0.021   4.421   0.494
 7592SOL     OW23674   6.342   4.033   6.399
 7592SOL    HW123675   6.350   4.117   6.452
 7592SOL    HW223676   6.433   3.998   6.376
 7593SOL     OW23677   5.794   2.453   1.310
 7593SOL    HW123678   5.889   2.477   1.331
 7593SOL    HW223679   5.788   2.419   1.216
 7594SOL     OW23680   0.185   4.607   1.839
 7594SOL    HW123681   0.091   4.581   1.857
 7594SOL    HW223682   0.192   4.706   1.830
 7595SOL     OW23683   6.789   2.678   6.022
 7595SOL    HW123684   6.814   2.763   5.974
 7595SOL    HW223685   6.691   2.664   6.015
 7596SOL     OW23686   4.743   5.920   3.412
 7596SOL    HW123687   4.747   5.832   3.460
 7596SOL    HW223688   4.649   5.955   3.416
 7597SOL     OW23689   2.675   6.421   2.552
 7597SOL    HW123690   2.639   6.507   2.586
 7597SOL    HW223691   2.654   6.412   2.455
 7598SOL     OW23692   0.056   1.650   3.419
 7598SOL    HW123693   0.103   1.572   3.461
 7598SOL    HW223694   0.123   1.712   3.378
 7599SOL     OW23695   6.043   1.627   3.074
 7599SOL    HW123696   6.090   1.629   3.163
 7599SOL    HW223697   5.946   1.645   3.088
 7600SOL     OW23698   1.343   1.466   2.450
 7600SOL    HW123699   1.319   1.370   2.435
 7600SOL    HW223700   1.264   1.523   2.427
 7601SOL     OW23701   1.971   5.240   2.433
 7601SOL    HW123702   2.036   5.241   2.509
 7601SOL    HW223703   2.013   5.283   2.353
 7602SOL     OW23704   1.075   4.411   6.857
 7602SOL    HW123705   1.087   4.325   6.807
 7602SOL    HW223706   1.000   4.463   6.817
 7603SOL     OW23707   1.753   5.070   5.641
 7603SOL    HW123708   1.803   5.006   5.699
 7603SOL    HW223709   1.749   5.035   5.548
 7604SOL     OW23710   1.848   4.820   4.443
 7604SOL    HW123711   1.923   4.804   4.379
 7604SOL    HW223712   1.792   4.897   4.411
 7605SOL     OW23713   0.676   6.782   0.758
 7605SOL    HW123714   0.654   6.803   0.662
 7605SOL    HW223715   0.714   6.690   0.764
 7606SOL     OW23716   6.769   3.232   3.462
 7606SOL    HW123717   6.695   3.164   3.460
 7606SOL    HW223718   6.844   3.200   3.404
 7607SOL     OW23719   4.725   4.923   0.548
 7607SOL    HW123720   4.712   5.013   0.506
 7607SOL    HW223721   4.680   4.854   0.491
 7608SOL     OW23722   3.110   4.029   3.270
 7608SOL    HW123723   3.139   4.053   3.362
 7608SOL    HW223724   3.179   4.060   3.204
 7609SOL     OW23725   0.306   4.072   3.514
 7609SOL    HW123726   0.388   4.090   3.569
 7609SOL    HW223727   0.295   3.973   3.503
 7610SOL     OW23728   5.694   6.224   0.342
 7610SOL    HW123729   5.664   6.147   0.287
 7610SOL    HW223730   5.794   6.228   0.342
 7611SOL     OW23731   0.407   1.645   7.015
 7611SOL    HW123732   0.312   1.618   6.999
 7611SOL    HW223733   0.450   1.580   0.056
 7612SOL     OW23734   5.260   3.641   5.111
 7612SOL    HW123735   5.290   3.547   5.098
 7612SOL    HW223736   5.177   3.642   5.167
 7613SOL     OW23737   6.159   3.372   1.226
 7613SOL    HW123738   6.212   3.292   1.199
 7613SOL    HW223739   6.156   3.378   1.326
 7614SOL     OW23740   5.496   3.707   0.708
 7614SOL    HW123741   5.580   3.745   0.746
 7614SOL    HW223742   5.512   3.615   0.674
 7615SOL     OW23743   4.595   3.642   6.191
 7615SOL    HW123744   4.520   3.672   6.250
 7615SOL    HW223745   4.653   3.578   6.241
 7616SOL     OW23746   6.410   4.962   5.330
 7616SOL    HW123747   6.467   4.883   5.309
 7616SOL    HW223748   6.379   5.005   5.245
 7617SOL     OW23749   3.230   5.572   2.607
 7617SOL    HW123750   3.184   5.494   2.564
 7617SOL    HW223751   3.312   5.595   2.554
 7618SOL     OW23752   0.411   2.054   6.237
 7618SOL    HW123753   0.463   1.990   6.180
 7618SOL    HW223754   0.334   2.090   6.185
 7619SOL     OW23755   5.789   3.129   5.596
 7619SOL    HW123756   5.860   3.198   5.605
 7619SOL    HW223757   5.789   3.070   5.677
 7620SOL     OW23758   4.001   5.138   0.583
 7620SOL    HW123759   3.902   5.152   0.591
 7620SOL    HW223760   4.032   5.077   0.656
 7621SOL     OW23761   0.017   1.725   0.478
 7621SOL    HW123762   0.041   1.639   0.523
 7621SOL    HW223763   0.041   1.720   0.381
 7622SOL     OW23764   5.434   5.486   1.673
 7622SOL    HW123765   5.445   5.533   1.586
 7622SOL    HW223766   5.428   5.553   1.747
 7623SOL     OW23767   4.426   3.947   6.693
 7623SOL    HW123768   4.327   3.954   6.679
 7623SOL    HW223769   4.447   3.863   6.744
 7624SOL     OW23770   0.153   2.445   4.548
 7624SOL    HW123771   0.132   2.537   4.580
 7624SOL    HW223772   0.252   2.428   4.556
 7625SOL     OW23773   5.035   0.329   1.162
 7625SOL    HW123774   4.966   0.260   1.140
 7625SOL    HW223775   5.126   0.287   1.159
 7626SOL     OW23776   6.282   6.633   4.059
 7626SOL    HW123777   6.359   6.591   4.010
 7626SOL    HW223778   6.205   6.569   4.059
 7627SOL     OW23779   5.603   2.917   6.684
 7627SOL    HW123780   5.525   2.868   6.645
 7627SOL    HW223781   5.683   2.857   6.685
 7628SOL     OW23782   3.924   0.072   2.700
 7628SOL    HW123783   3.828   0.098   2.712
 7628SOL    HW223784   3.939   0.042   2.606
 7629SOL     OW23785   6.976   0.486   3.140
 7629SOL    HW123786   6.964   0.577   3.103
 7629SOL    HW223787   6.889   0.451   3.174
 7630SOL     OW23788   6.451   0.566   2.048
 7630SOL    HW123789   6.360   0.603   2.031
 7630SOL    HW223790   6.448   0.504   2.126
 7631SOL     OW23791   0.592   0.608   5.770
 7631SOL    HW123792   0.556   0.673   5.837
 7631SOL    HW223793   0.605   0.654   5.682
 7632SOL     OW23794   3.772   2.640   1.740
 7632SOL    HW123795   3.699   2.689   1.692
 7632SOL    HW223796   3.736   2.556   1.779
 7633SOL     OW23797   4.892   1.632   1.232
 7633SOL    HW123798   4.898   1.539   1.269
 7633SOL    HW223799   4.963   1.689   1.273
 7634SOL     OW23800   0.403   1.776   2.741
 7634SOL    HW123801   0.342   1.774   2.821
 7634SOL    HW223802   0.428   1.871   2.721
 7635SOL     OW23803   3.114   5.679   5.069
 7635SOL    HW123804   3.194   5.621   5.051
 7635SOL    HW223805   3.101   5.740   4.991
 7636SOL     OW23806   1.338   2.719   4.046
 7636SOL    HW123807   1.335   2.689   4.141
 7636SOL    HW223808   1.289   2.653   3.988
 7637SOL     OW23809   2.849   5.766   2.550
 7637SOL    HW123810   2.859   5.834   2.622
 7637SOL    HW223811   2.910   5.788   2.474
 7638SOL     OW23812   3.653   6.343   0.760
 7638SOL    HW123813   3.609   6.423   0.719
 7638SOL    HW223814   3.744   6.368   0.794
 7639SOL     OW23815   1.493   1.814   0.481
 7639SOL    HW123816   1.577   1.804   0.428
 7639SOL    HW223817   1.498   1.898   0.535
 7640SOL     OW23818   3.404   1.695   6.978
 7640SOL    HW123819   3.306   1.712   6.967
 7640SOL    HW223820   3.451   1.717   6.893
 7641SOL     OW23821   1.049   4.329   1.590
 7641SOL    HW123822   0.977   4.314   1.658
 7641SOL    HW223823   1.017   4.397   1.523
 7642SOL     OW23824   3.451   0.657   2.517
 7642SOL    HW123825   3.405   0.680   2.431
 7642SOL    HW223826   3.521   0.726   2.537
 7643SOL     OW23827   5.069   3.394   4.501
 7643SOL    HW123828   5.030   3.326   4.439
 7643SOL    HW223829   5.148   3.438   4.457
 7644SOL     OW23830   5.698   2.305   2.372
 7644SOL    HW123831   5.645   2.346   2.447
 7644SOL    HW223832   5.795   2.305   2.396
 7645SOL     OW23833   4.376   4.037   5.308
 7645SOL    HW123834   4.294   3.981   5.324
 7645SOL    HW223835   4.367   4.124   5.356
 7646SOL     OW23836   2.043   2.758   2.612
 7646SOL    HW123837   2.030   2.853   2.641
 7646SOL    HW223838   2.137   2.730   2.632
 7647SOL     OW23839   6.764   3.318   2.273
 7647SOL    HW123840   6.792   3.224   2.289
 7647SOL    HW223841   6.690   3.342   2.337
 7648SOL     OW23842   3.117   1.589   3.777
 7648SOL    HW123843   3.074   1.680   3.776
 7648SOL    HW223844   3.206   1.595   3.821
 7649SOL     OW23845   0.898   0.970   3.129
 7649SOL    HW123846   0.942   1.036   3.190
 7649SOL    HW223847   0.862   1.018   3.049
 7650SOL     OW23848   4.933   2.755   1.664
 7650SOL    HW123849   4.939   2.829   1.731
 7650SOL    HW223850   4.842   2.755   1.622
 7651SOL     OW23851   2.264   0.240   4.485
 7651SOL    HW123852   2.234   0.179   4.411
 7651SOL    HW223853   2.188   0.296   4.516
 7652SOL     OW23854   6.556   3.895   4.358
 7652SOL    HW123855   6.492   3.951   4.305
 7652SOL    HW223856   6.536   3.798   4.343
 7653SOL     OW23857   2.797   1.687   0.307
 7653SOL    HW123858   2.794   1.740   0.392
 7653SOL    HW223859   2.870   1.722   0.248
 7654SOL     OW23860   5.067   2.605   3.880
 7654SOL    HW123861   5.049   2.608   3.978
 7654SOL    HW223862   5.000   2.546   3.835
 7655SOL     OW23863   3.488   0.232   3.636
 7655SOL    HW123864   3.522   0.144   3.668
 7655SOL    HW223865   3.391   0.225   3.613
 7656SOL     OW23866   2.234   5.193   6.232
 7656SOL    HW123867   2.190   5.281   6.250
 7656SOL    HW223868   2.173   5.136   6.176
 7657SOL     OW23869   2.415   2.739   3.942
 7657SOL    HW123870   2.463   2.653   3.960
 7657SOL    HW223871   2.331   2.742   3.997
 7658SOL     OW23872   3.150   0.048   5.944
 7658SOL    HW123873   3.138   0.065   6.042
 7658SOL    HW223874   3.127   0.131   5.893
 7659SOL     OW23875   6.075   5.223   0.183
 7659SOL    HW123876   6.172   5.231   0.159
 7659SOL    HW223877   6.037   5.314   0.198
 7660SOL     OW23878   0.365   6.247   3.626
 7660SOL    HW123879   0.428   6.234   3.702
 7660SOL    HW223880   0.277   6.280   3.661
 7661SOL     OW23881   5.664   2.438   4.565
 7661SOL    HW123882   5.720   2.518   4.583
 7661SOL    HW223883   5.646   2.390   4.652
 7662SOL     OW23884   0.898   2.781   2.773
 7662SOL    HW123885   0.871   2.716   2.702
 7662SOL    HW223886   0.862   2.751   2.862
 7663SOL     OW23887   1.320   6.361   5.747
 7663SOL    HW123888   1.271   6.396   5.667
 7663SOL    HW223889   1.254   6.325   5.813
 7664SOL     OW23890   3.567   0.127   2.355
 7664SOL    HW123891   3.546   0.224   2.348
 7664SOL    HW223892   3.483   0.075   2.368
 7665SOL     OW23893   4.296   0.223   4.858
 7665SOL    HW123894   4.213   0.195   4.906
 7665SOL    HW223895   4.358   0.269   4.923
 7666SOL     OW23896   0.715   6.475   1.390
 7666SOL    HW123897   0.708   6.572   1.414
 7666SOL    HW223898   0.808   6.456   1.357
 7667SOL     OW23899   4.862   5.742   1.792
 7667SOL    HW123900   4.840   5.835   1.762
 7667SOL    HW223901   4.839   5.677   1.720
 7668SOL     OW23902   3.163   4.315   1.145
 7668SOL    HW123903   3.202   4.324   1.236
 7668SOL    HW223904   3.200   4.233   1.100
 7669SOL     OW23905   5.704   1.848   5.603
 7669SOL    HW123906   5.607   1.865   5.586
 7669SOL    HW223907   5.741   1.921   5.660
 7670SOL     OW23908   1.101   5.107   6.403
 7670SOL    HW123909   1.007   5.135   6.423
 7670SOL    HW223910   1.157   5.114   6.486
 7671SOL     OW23911   4.125   0.762   3.573
 7671SOL    HW123912   4.148   0.816   3.654
 7671SOL    HW223913   4.199   0.770   3.506
 7672SOL     OW23914   6.346   6.573   3.435
 7672SOL    HW123915   6.303   6.621   3.512
 7672SOL    HW223916   6.430   6.619   3.409
 7673SOL     OW23917   1.861   5.455   0.013
 7673SOL    HW123918   1.763   5.475   0.015
 7673SOL    HW223919   1.912   5.537   0.035
 7674SOL     OW23920   5.818   1.635   4.068
 7674SOL    HW123921   5.730   1.588   4.055
 7674SOL    HW223922   5.862   1.601   4.151
 7675SOL     OW23923   5.684   6.884   2.533
 7675SOL    HW123924   5.691   6.968   2.587
 7675SOL    HW223925   5.638   6.814   2.587
 7676SOL     OW23926   1.927   2.436   0.621
 7676SOL    HW123927   1.980   2.358   0.653
 7676SOL    HW223928   1.834   2.431   0.658
 7677SOL     OW23929   0.384   4.890   2.371
 7677SOL    HW123930   0.397   4.952   2.294
 7677SOL    HW223931   0.371   4.797   2.336
 7678SOL     OW23932   2.628   2.031   4.775
 7678SOL    HW123933   2.551   2.055   4.835
 7678SOL    HW223934   2.593   1.990   4.691
 7679SOL     OW23935   2.856   5.347   6.414
 7679SOL    HW123936   2.861   5.262   6.466
 7679SOL    HW223937   2.946   5.390   6.412
 7680SOL     OW23938   1.825   1.926   0.652
 7680SOL    HW123939   1.790   1.902   0.742
 7680SOL    HW223940   1.889   2.003   0.661
 7681SOL     OW23941   2.677   6.743   0.320
 7681SOL    HW123942   2.713   6.836   0.318
 7681SOL    HW223943   2.675   6.705   0.228
 7682SOL     OW23944   2.628   0.420   1.831
 7682SOL    HW123945   2.691   0.498   1.823
 7682SOL    HW223946   2.665   0.355   1.897
 7683SOL     OW23947   6.349   1.595   3.528
 7683SOL    HW123948   6.380   1.508   3.566
 7683SOL    HW223949   6.429   1.651   3.506
 7684SOL     OW23950   3.909   1.903   1.906
 7684SOL    HW123951   3.836   1.955   1.863
 7684SOL    HW223952   3.940   1.831   1.844
 7685SOL     OW23953   3.703   2.600   0.123
 7685SOL    HW123954   3.603   2.597   0.121
 7685SOL    HW223955   3.732   2.695   0.134
 7686SOL     OW23956   6.511   0.090   3.033
 7686SOL    HW123957   6.505   0.035   3.116
 7686SOL    HW223958   6.499   0.032   2.953
 7687SOL     OW23959   5.723   4.843   4.559
 7687SOL    HW123960   5.764   4.913   4.500
 7687SOL    HW223961   5.768   4.844   4.649
 7688SOL     OW23962   0.718   6.043   5.260
 7688SOL    HW123963   0.756   6.097   5.335
 7688SOL    HW223964   0.644   5.985   5.294
 7689SOL     OW23965   5.383   6.466   3.004
 7689SOL    HW123966   5.370   6.557   3.043
 7689SOL    HW223967   5.450   6.470   2.930
 7690SOL     OW23968   6.410   4.885   1.225
 7690SOL    HW123969   6.421   4.902   1.323
 7690SOL    HW223970   6.319   4.914   1.196
 7691SOL     OW23971   4.969   2.738   4.455
 7691SOL    HW123972   4.993   2.834   4.463
 7691SOL    HW223973   5.043   2.681   4.492
 7692SOL     OW23974   0.417   6.309   2.015
 7692SOL    HW123975   0.398   6.316   1.917
 7692SOL    HW223976   0.469   6.226   2.033
 7693SOL     OW23977   3.710   0.030   1.338
 7693SOL    HW123978   3.659   7.012   1.261
 7693SOL    HW223979   3.664   0.112   1.371
 7694SOL     OW23980   0.229   4.463   4.545
 7694SOL    HW123981   0.309   4.509   4.583
 7694SOL    HW223982   0.235   4.465   4.445
 7695SOL     OW23983   4.258   6.195   0.650
 7695SOL    HW123984   4.173   6.171   0.697
 7695SOL    HW223985   4.310   6.259   0.707
 7696SOL     OW23986   6.819   1.626   4.394
 7696SOL    HW123987   6.899   1.571   4.417
 7696SOL    HW223988   6.817   1.708   4.451
 7697SOL     OW23989   3.492   6.847   1.952
 7697SOL    HW123990   3.464   6.929   2.002
 7697SOL    HW223991   3.410   6.802   1.915
 7698SOL     OW23992   6.657   2.390   3.582
 7698SOL    HW123993   6.565   2.358   3.601
 7698SOL    HW223994   6.654   2.467   3.519
 7699SOL     OW23995   3.413   6.006   6.947
 7699SOL    HW123996   3.391   5.940   7.019
 7699SOL    HW223997   3.460   5.960   6.872
 7700SOL     OW23998   4.824   6.488   4.363
 7700SOL    HW123999   4.841   6.394   4.331
 7700SOL    HW224000   4.777   6.485   4.451
 7701SOL     OW24001   6.741   1.317   0.126
 7701SOL    HW124002   6.830   1.320   0.082
 7701SOL    HW224003   6.752   1.323   0.225
 7702SOL     OW24004   3.154   6.250   6.256
 7702SOL    HW124005   3.229   6.306   6.291
 7702SOL    HW224006   3.178   6.214   6.166
 7703SOL     OW24007   6.256   0.505   5.261
 7703SOL    HW124008   6.323   0.479   5.191
 7703SOL    HW224009   6.231   0.601   5.250
 7704SOL     OW24010   5.721   5.013   5.555
 7704SOL    HW124011   5.806   4.962   5.568
 7704SOL    HW224012   5.657   4.960   5.500
 7705SOL     OW24013   3.608   5.409   5.707
 7705SOL    HW124014   3.664   5.405   5.790
 7705SOL    HW224015   3.667   5.402   5.627
 7706SOL     OW24016   4.754   2.845   5.037
 7706SOL    HW124017   4.775   2.849   4.939
 7706SOL    HW224018   4.742   2.938   5.072
 7707SOL     OW24019   0.885   5.836   6.062
 7707SOL    HW124020   0.898   5.737   6.058
 7707SOL    HW224021   0.840   5.860   6.147
 7708SOL     OW24022   6.013   7.000   5.701
 7708SOL    HW124023   5.925   0.003   5.661
 7708SOL    HW224024   6.004   6.994   5.800
 7709SOL     OW24025   5.516   4.083   1.343
 7709SOL    HW124026   5.466   4.030   1.412
 7709SOL    HW224027   5.537   4.025   1.265
 7710SOL     OW24028   3.400   0.440   0.629
 7710SOL    HW124029   3.309   0.413   0.598
 7710SOL    HW224030   3.399   0.538   0.652
 7711SOL     OW24031   6.287   6.234   5.435
 7711SOL    HW124032   6.267   6.323   5.393
 7711SOL    HW224033   6.236   6.226   5.520
 7712SOL     OW24034   5.164   6.164   2.503
 7712SOL    HW124035   5.259   6.197   2.503
 7712SOL    HW224036   5.104   6.235   2.540
 7713SOL     OW24037   1.644   4.935   0.531
 7713SOL    HW124038   1.692   5.019   0.560
 7713SOL    HW224039   1.683   4.904   0.444
 7714SOL     OW24040   6.385   4.207   5.497
 7714SOL    HW124041   6.452   4.260   5.549
 7714SOL    HW224042   6.432   4.146   5.434
 7715SOL     OW24043   4.516   2.095   6.846
 7715SOL    HW124044   4.615   2.096   6.862
 7715SOL    HW224045   4.469   2.068   6.930
 7716SOL     OW24046   6.743   3.989   4.013
 7716SOL    HW124047   6.811   4.054   3.979
 7716SOL    HW224048   6.653   4.032   4.012
 7717SOL     OW24049   1.608   0.892   4.628
 7717SOL    HW124050   1.620   0.975   4.682
 7717SOL    HW224051   1.573   0.916   4.537
 7718SOL     OW24052   1.531   1.997   3.397
 7718SOL    HW124053   1.571   2.050   3.322
 7718SOL    HW224054   1.566   1.904   3.395
 7719SOL     OW24055   0.135   3.604   4.264
 7719SOL    HW124056   0.117   3.693   4.306
 7719SOL    HW224057   0.179   3.543   4.330
 7720SOL     OW24058   0.556   0.639   6.907
 7720SOL    HW124059   0.566   0.686   6.820
 7720SOL    HW224060   0.465   0.599   6.913
 7721SOL     OW24061   0.110   5.159   2.719
 7721SOL    HW124062   0.194   5.177   2.667
 7721SOL    HW224063   0.069   5.246   2.746
 7722SOL     OW24064   0.571   6.283   3.164
 7722SOL    HW124065   0.546   6.246   3.074
 7722SOL    HW224066   0.490   6.323   3.207
 7723SOL     OW24067   6.200   3.465   6.816
 7723SOL    HW124068   6.196   3.565   6.820
 7723SOL    HW224069   6.120   3.426   6.862
 7724SOL     OW24070   2.680   4.398   1.664
 7724SOL    HW124071   2.644   4.482   1.623
 7724SOL    HW224072   2.727   4.420   1.749
 7725SOL     OW24073   5.584   2.949   3.183
 7725SOL    HW124074   5.603   2.887   3.259
 7725SOL    HW224075   5.559   2.896   3.102
 7726SOL     OW24076   2.063   6.035   5.073
 7726SOL    HW124077   1.967   6.053   5.050
 7726SOL    HW224078   2.077   6.049   5.171
 7727SOL     OW24079   0.289   0.372   2.337
 7727SOL    HW124080   0.224   0.447   2.348
 7727SOL    HW224081   0.239   0.285   2.332
 7728SOL     OW24082   1.103   4.822   3.569
 7728SOL    HW124083   1.070   4.879   3.494
 7728SOL    HW224084   1.043   4.743   3.580
 7729SOL     OW24085   5.661   2.720   0.990
 7729SOL    HW124086   5.669   2.730   0.891
 7729SOL    HW224087   5.718   2.789   1.035
 7730SOL     OW24088   5.988   6.152   1.029
 7730SOL    HW124089   5.963   6.228   0.969
 7730SOL    HW224090   5.959   6.173   1.122
 7731SOL     OW24091   6.893   0.214   0.818
 7731SOL    HW124092   6.837   0.160   0.756
 7731SOL    HW224093   6.872   0.311   0.807
 7732SOL     OW24094   3.909   6.600   0.374
 7732SOL    HW124095   3.828   6.559   0.331
 7732SOL    HW224096   3.888   6.693   0.402
 7733SOL     OW24097   4.768   0.096   2.072
 7733SOL    HW124098   4.721   0.183   2.060
 7733SOL    HW224099   4.701   0.021   2.077
 7734SOL     OW24100   2.551   5.705   3.439
 7734SOL    HW124101   2.499   5.766   3.380
 7734SOL    HW224102   2.510   5.613   3.436
 7735SOL     OW24103   4.671   6.094   6.395
 7735SOL    HW124104   4.771   6.094   6.392
 7735SOL    HW224105   4.638   6.186   6.418
 7736SOL     OW24106   3.440   4.098   6.815
 7736SOL    HW124107   3.506   4.084   6.889
 7736SOL    HW224108   3.386   4.014   6.803
 7737SOL     OW24109   3.820   1.005   2.205
 7737SOL    HW124110   3.723   0.984   2.215
 7737SOL    HW224111   3.831   1.092   2.157
 7738SOL     OW24112   2.950   5.272   6.821
 7738SOL    HW124113   2.932   5.371   6.819
 7738SOL    HW224114   3.043   5.254   6.789
 7739SOL     OW24115   0.834   2.194   1.772
 7739SOL    HW124116   0.877   2.155   1.690
 7739SOL    HW224117   0.792   2.121   1.825
 7740SOL     OW24118   1.972   1.274   3.271
 7740SOL    HW124119   1.988   1.294   3.174
 7740SOL    HW224120   1.901   1.203   3.279
 7741SOL     OW24121   0.711   4.966   5.272
 7741SOL    HW124122   0.746   4.978   5.365
 7741SOL    HW224123   0.753   5.033   5.211
 7742SOL     OW24124   5.884   1.710   3.396
 7742SOL    HW124125   5.889   1.803   3.434
 7742SOL    HW224126   5.796   1.669   3.419
 7743SOL     OW24127   5.217   1.781   7.018
 7743SOL    HW124128   5.164   1.697   7.008
 7743SOL    HW224129   5.292   1.766   0.062
 7744SOL     OW24130   1.012   6.557   3.263
 7744SOL    HW124131   0.921   6.532   3.230
 7744SOL    HW224132   1.019   6.534   3.360
 7745SOL     OW24133   2.723   1.297   5.921
 7745SOL    HW124134   2.798   1.235   5.944
 7745SOL    HW224135   2.752   1.357   5.846
 7746SOL     OW24136   2.915   6.188   0.319
 7746SOL    HW124137   2.852   6.242   0.264
 7746SOL    HW224138   2.989   6.153   0.261
 7747SOL     OW24139   4.920   5.993   1.398
 7747SOL    HW124140   4.841   6.050   1.419
 7747SOL    HW224141   4.909   5.904   1.442
 7748SOL     OW24142   3.436   3.509   5.172
 7748SOL    HW124143   3.486   3.547   5.250
 7748SOL    HW224144   3.371   3.576   5.138
 7749SOL     OW24145   2.784   2.829   5.583
 7749SOL    HW124146   2.702   2.775   5.566
 7749SOL    HW224147   2.856   2.770   5.621
 7750SOL     OW24148   0.117   6.374   1.069
 7750SOL    HW124149   0.120   6.471   1.092
 7750SOL    HW224150   0.168   6.322   1.137
 7751SOL     OW24151   1.343   2.311   2.476
 7751SOL    HW124152   1.424   2.320   2.418
 7751SOL    HW224153   1.324   2.214   2.491
 7752SOL     OW24154   5.321   0.601   5.892
 7752SOL    HW124155   5.244   0.665   5.884
 7752SOL    HW224156   5.321   0.560   5.983
 7753SOL     OW24157   2.608   1.444   4.238
 7753SOL    HW124158   2.624   1.376   4.310
 7753SOL    HW224159   2.511   1.444   4.213
 7754SOL     OW24160   3.474   5.955   1.063
 7754SOL    HW124161   3.504   5.883   1.001
 7754SOL    HW224162   3.408   6.014   1.017
 7755SOL     OW24163   1.868   2.628   5.976
 7755SOL    HW124164   1.875   2.593   6.069
 7755SOL    HW224165   1.778   2.605   5.938
 7756SOL     OW24166   2.806   6.895   2.284
 7756SOL    HW124167   2.815   6.896   2.383
 7756SOL    HW224168   2.849   6.813   2.247
 7757SOL     OW24169   5.584   5.158   1.416
 7757SOL    HW124170   5.496   5.205   1.423
 7757SOL    HW224171   5.656   5.215   1.454
 7758SOL     OW24172   1.971   0.137   6.228
 7758SOL    HW124173   1.976   0.233   6.201
 7758SOL    HW224174   2.042   0.118   6.295
 7759SOL     OW24175   1.737   1.720   5.403
 7759SOL    HW124176   1.721   1.812   5.439
 7759SOL    HW224177   1.734   1.654   5.478
 7760SOL     OW24178   5.553   3.128   2.563
 7760SOL    HW124179   5.469   3.183   2.563
 7760SOL    HW224180   5.582   3.112   2.657
 7761SOL     OW24181   6.560   6.356   4.731
 7761SOL    HW124182   6.655   6.381   4.751
 7761SOL    HW224183   6.549   6.343   4.633
 7762SOL     OW24184   2.151   6.977   4.099
 7762SOL    HW124185   2.123   6.969   4.003
 7762SOL    HW224186   2.077   6.944   4.158
 7763SOL     OW24187   2.585   0.247   6.889
 7763SOL    HW124188   2.571   0.344   6.869
 7763SOL    HW224189   2.498   0.198   6.879
 7764SOL     OW24190   3.186   3.935   5.541
 7764SOL    HW124191   3.087   3.946   5.547
 7764SOL    HW224192   3.218   3.968   5.452
 7765SOL     OW24193   5.866   2.855   4.769
 7765SOL    HW124194   5.873   2.949   4.735
 7765SOL    HW224195   5.809   2.853   4.851
 7766SOL     OW24196   0.106   3.702   0.738
 7766SOL    HW124197   0.068   3.619   0.695
 7766SOL    HW224198   0.184   3.677   0.795
 7767SOL     OW24199   4.513   6.347   2.348
 7767SOL    HW124200   4.450   6.420   2.321
 7767SOL    HW224201   4.545   6.363   2.441
 7768SOL     OW24202   5.139   4.636   3.609
 7768SOL    HW124203   5.139   4.537   3.596
 7768SOL    HW224204   5.135   4.682   3.520
 7769SOL     OW24205   4.827   1.565   4.819
 7769SOL    HW124206   4.873   1.478   4.838
 7769SOL    HW224207   4.830   1.584   4.721
 7770SOL     OW24208   0.744   3.226   4.841
 7770SOL    HW124209   0.653   3.263   4.857
 7770SOL    HW224210   0.810   3.300   4.834
 7771SOL     OW24211   3.053   1.482   5.551
 7771SOL    HW124212   3.084   1.454   5.642
 7771SOL    HW224213   3.055   1.581   5.545
 7772SOL     OW24214   5.237   6.952   1.298
 7772SOL    HW124215   5.190   6.999   1.372
 7772SOL    HW224216   5.208   6.857   1.295
 7773SOL     OW24217   1.963   5.367   5.746
 7773SOL    HW124218   1.868   5.342   5.728
 7773SOL    HW224219   2.017   5.284   5.762
 7774SOL     OW24220   4.705   2.742   3.960
 7774SOL    HW124221   4.742   2.685   4.033
 7774SOL    HW224222   4.732   2.837   3.973
 7775SOL     OW24223   4.099   0.184   6.911
 7775SOL    HW124224   4.047   0.188   6.997
 7775SOL    HW224225   4.105   0.089   6.880
 7776SOL     OW24226   1.225   5.705   6.686
 7776SOL    HW124227   1.155   5.642   6.653
 7776SOL    HW224228   1.197   5.743   6.774
 7777SOL     OW24229   5.773   5.652   4.410
 7777SOL    HW124230   5.712   5.729   4.391
 7777SOL    HW224231   5.724   5.566   4.396
 7778SOL     OW24232   5.957   3.902   2.324
 7778SOL    HW124233   6.011   3.936   2.401
 7778SOL    HW224234   5.973   3.804   2.313
 7779SOL     OW24235   2.733   1.061   1.821
 7779SOL    HW124236   2.689   0.974   1.796
 7779SOL    HW224237   2.802   1.084   1.754
 7780SOL     OW24238   0.987   5.079   5.399
 7780SOL    HW124239   1.044   5.002   5.371
 7780SOL    HW224240   0.933   5.053   5.479
 7781SOL     OW24241   0.839   3.867   1.334
 7781SOL    HW124242   0.809   3.913   1.250
 7781SOL    HW224243   0.813   3.770   1.330
 7782SOL     OW24244   5.014   5.193   4.240
 7782SOL    HW124245   4.996   5.116   4.178
 7782SOL    HW224246   5.026   5.159   4.333
 7783SOL     OW24247   0.779   0.430   5.904
 7783SOL    HW124248   0.840   0.509   5.892
 7783SOL    HW224249   0.694   0.446   5.854
 7784SOL     OW24250   3.298   2.347   1.365
 7784SOL    HW124251   3.317   2.249   1.374
 7784SOL    HW224252   3.246   2.379   1.444
 7785SOL     OW24253   2.490   6.390   4.081
 7785SOL    HW124254   2.407   6.348   4.044
 7785SOL    HW224255   2.497   6.485   4.048
 7786SOL     OW24256   3.808   0.614   6.824
 7786SOL    HW124257   3.856   0.532   6.792
 7786SOL    HW224258   3.856   0.695   6.792
 7787SOL     OW24259   2.185   3.074   0.296
 7787SOL    HW124260   2.090   3.083   0.265
 7787SOL    HW224261   2.246   3.114   0.228
 7788SOL     OW24262   1.496   4.955   1.444
 7788SOL    HW124263   1.563   4.910   1.503
 7788SOL    HW224264   1.479   4.897   1.364
 7789SOL     OW24265   3.058   0.102   6.248
 7789SOL    HW124266   3.122   0.151   6.307
 7789SOL    HW224267   2.980   0.161   6.227
 7790SOL     OW24268   5.246   5.643   2.609
 7790SOL    HW124269   5.235   5.742   2.608
 7790SOL    HW224270   5.344   5.620   2.605
 7791SOL     OW24271   1.782   4.770   2.358
 7791SOL    HW124272   1.863   4.778   2.300
 7791SOL    HW224273   1.799   4.703   2.430
 7792SOL     OW24274   1.235   6.371   3.176
 7792SOL    HW124275   1.203   6.455   3.221
 7792SOL    HW224276   1.335   6.368   3.178
 7793SOL     OW24277   4.119   0.513   0.260
 7793SOL    HW124278   4.054   0.517   0.184
 7793SOL    HW224279   4.100   0.589   0.323
 7794SOL     OW24280   0.346   4.596   2.310
 7794SOL    HW124281   0.255   4.567   2.279
 7794SOL    HW224282   0.412   4.584   2.236
 7795SOL     OW24283   2.909   5.126   5.095
 7795SOL    HW124284   3.003   5.116   5.062
 7795SOL    HW224285   2.871   5.036   5.114
 7796SOL     OW24286   3.785   2.679   5.451
 7796SOL    HW124287   3.794   2.580   5.443
 7796SOL    HW224288   3.875   2.722   5.451
 7797SOL     OW24289   0.835   6.037   0.933
 7797SOL    HW124290   0.769   5.972   0.972
 7797SOL    HW224291   0.788   6.123   0.912
 7798SOL     OW24292   1.096   2.065   2.698
 7798SOL    HW124293   1.014   2.024   2.738
 7798SOL    HW224294   1.088   2.165   2.702
 7799SOL     OW24295   1.767   5.232   2.773
 7799SOL    HW124296   1.742   5.328   2.782
 7799SOL    HW224297   1.830   5.206   2.847
 7800SOL     OW24298   0.763   5.935   3.042
 7800SOL    HW124299   0.839   5.981   3.088
 7800SOL    HW224300   0.700   5.899   3.110
 7801SOL     OW24301   1.366   1.222   2.707
 7801SOL    HW124302   1.433   1.230   2.780
 7801SOL    HW224303   1.291   1.286   2.723
 7802SOL     OW24304   6.632   2.962   0.322
 7802SOL    HW124305   6.663   3.017   0.399
 7802SOL    HW224306   6.575   2.887   0.356
 7803SOL     OW24307   4.603   1.947   0.402
 7803SOL    HW124308   4.616   1.914   0.308
 7803SOL    HW224309   4.633   1.876   0.466
 7804SOL     OW24310   4.682   2.160   4.732
 7804SOL    HW124311   4.702   2.257   4.721
 7804SOL    HW224312   4.669   2.140   4.829
 7805SOL     OW24313   5.114   3.498   2.591
 7805SOL    HW124314   5.082   3.564   2.659
 7805SOL    HW224315   5.037   3.442   2.561
 7806SOL     OW24316   5.983   1.324   6.414
 7806SOL    HW124317   5.924   1.377   6.353
 7806SOL    HW224318   5.936   1.240   6.440
 7807SOL     OW24319   0.727   4.466   5.238
 7807SOL    HW124320   0.814   4.510   5.214
 7807SOL    HW224321   0.678   4.442   5.155
 7808SOL     OW24322   5.590   3.173   3.341
 7808SOL    HW124323   5.584   3.103   3.270
 7808SOL    HW224324   5.602   3.263   3.300
 7809SOL     OW24325   4.817   5.175   4.632
 7809SOL    HW124326   4.761   5.243   4.680
 7809SOL    HW224327   4.804   5.086   4.676
 7810SOL     OW24328   2.849   6.587   5.772
 7810SOL    HW124329   2.856   6.676   5.726
 7810SOL    HW224330   2.940   6.552   5.791
 7811SOL     OW24331   1.259   5.419   1.933
 7811SOL    HW124332   1.340   5.461   1.973
 7811SOL    HW224333   1.205   5.374   2.004
 7812SOL     OW24334   2.203   2.549   4.562
 7812SOL    HW124335   2.112   2.582   4.586
 7812SOL    HW224336   2.202   2.450   4.555
 7813SOL     OW24337   4.639   2.583   1.222
 7813SOL    HW124338   4.682   2.531   1.296
 7813SOL    HW224339   4.554   2.623   1.254
 7814SOL     OW24340   0.109   3.752   3.005
 7814SOL    HW124341   0.015   3.783   2.991
 7814SOL    HW224342   0.112   3.653   3.009
 7815SOL     OW24343   5.922   1.876   4.434
 7815SOL    HW124344   5.887   1.918   4.518
 7815SOL    HW224345   5.971   1.792   4.456
 7816SOL     OW24346   0.572   2.605   6.609
 7816SOL    HW124347   0.549   2.702   6.609
 7816SOL    HW224348   0.523   2.559   6.534
 7817SOL     OW24349   4.638   4.449   5.134
 7817SOL    HW124350   4.551   4.497   5.151
 7817SOL    HW224351   4.665   4.464   5.039
 7818SOL     OW24352   4.279   0.446   2.838
 7818SOL    HW124353   4.253   0.409   2.927
 7818SOL    HW224354   4.332   0.530   2.852
 7819SOL     OW24355   0.451   3.876   3.771
 7819SOL    HW124356   0.484   3.840   3.684
 7819SOL    HW224357   0.505   3.838   3.846
 7820SOL     OW24358   1.867   1.174   5.560
 7820SOL    HW124359   1.838   1.155   5.654
 7820SOL    HW224360   1.851   1.093   5.504
 7821SOL     OW24361   5.755   6.270   0.775
 7821SOL    HW124362   5.733   6.173   0.784
 7821SOL    HW224363   5.682   6.325   0.816
 7822SOL     OW24364   1.215   1.598   6.512
 7822SOL    HW124365   1.196   1.564   6.604
 7822SOL    HW224366   1.175   1.535   6.445
 7823SOL     OW24367   2.183   3.786   6.136
 7823SOL    HW124368   2.130   3.748   6.212
 7823SOL    HW224369   2.277   3.753   6.141
 7824SOL     OW24370   5.386   0.537   4.782
 7824SOL    HW124371   5.424   0.447   4.805
 7824SOL    HW224372   5.402   0.600   4.858
 7825SOL     OW24373   1.445   3.044   1.042
 7825SOL    HW124374   1.456   3.019   1.138
 7825SOL    HW224375   1.521   3.103   1.014
 7826SOL     OW24376   5.167   1.952   6.572
 7826SOL    HW124377   5.230   1.930   6.497
 7826SOL    HW224378   5.142   2.049   6.568
 7827SOL     OW24379   3.115   4.460   0.882
 7827SOL    HW124380   3.179   4.533   0.907
 7827SOL    HW224381   3.080   4.417   0.965
 7828SOL     OW24382   0.328   5.008   1.022
 7828SOL    HW124383   0.305   4.971   0.932
 7828SOL    HW224384   0.402   4.953   1.062
 7829SOL     OW24385   2.197   2.805   0.377
 7829SOL    HW124386   2.191   2.901   0.351
 7829SOL    HW224387   2.108   2.774   0.411
 7830SOL     OW24388   5.201   3.761   5.807
 7830SOL    HW124389   5.262   3.681   5.803
 7830SOL    HW224390   5.236   3.826   5.874
 7831SOL     OW24391   1.524   5.401   0.611
 7831SOL    HW124392   1.541   5.348   0.694
 7831SOL    HW224393   1.543   5.498   0.629
 7832SOL     OW24394   3.412   1.238   4.439
 7832SOL    HW124395   3.316   1.237   4.408
 7832SOL    HW224396   3.418   1.284   4.527
 7833SOL     OW24397   0.275   0.539   6.920
 7833SOL    HW124398   0.266   0.629   6.877
 7833SOL    HW224399   0.198   0.523   6.981
 7834SOL     OW24400   0.673   1.832   3.245
 7834SOL    HW124401   0.764   1.805   3.216
 7834SOL    HW224402   0.637   1.765   3.311
 7835SOL     OW24403   1.862   2.287   4.818
 7835SOL    HW124404   1.895   2.199   4.854
 7835SOL    HW224405   1.887   2.360   4.882
 7836SOL     OW24406   3.779   2.055   6.519
 7836SOL    HW124407   3.771   2.001   6.603
 7836SOL    HW224408   3.694   2.105   6.503
 7837SOL     OW24409   6.281   6.368   1.803
 7837SOL    HW124410   6.327   6.339   1.887
 7837SOL    HW224411   6.347   6.372   1.728
 7838SOL     OW24412   4.234   5.962   6.902
 7838SOL    HW124413   4.276   5.872   6.908
 7838SOL    HW224414   4.226   6.002   6.993
 7839SOL     OW24415   6.555   4.892   5.833
 7839SOL    HW124416   6.500   4.856   5.758
 7839SOL    HW224417   6.623   4.823   5.860
 7840SOL     OW24418   5.306   3.512   4.407
 7840SOL    HW124419   5.311   3.442   4.335
 7840SOL    HW224420   5.378   3.496   4.474
 7841SOL     OW24421   5.807   0.954   0.216
 7841SOL    HW124422   5.758   0.915   0.294
 7841SOL    HW224423   5.810   1.053   0.225
 7842SOL     OW24424   2.094   1.690   3.187
 7842SOL    HW124425   2.125   1.782   3.165
 7842SOL    HW224426   2.163   1.643   3.241
 7843SOL     OW24427   5.279   4.330   1.573
 7843SOL    HW124428   5.250   4.412   1.523
 7843SOL    HW224429   5.367   4.348   1.618
 7844SOL     OW24430   3.918   0.182   3.676
 7844SOL    HW124431   3.958   0.244   3.744
 7844SOL    HW224432   3.986   0.160   3.606
 7845SOL     OW24433   6.773   1.155   3.957
 7845SOL    HW124434   6.852   1.115   3.909
 7845SOL    HW224435   6.783   1.254   3.961
 7846SOL     OW24436   1.478   0.708   1.676
 7846SOL    HW124437   1.422   0.782   1.639
 7846SOL    HW224438   1.556   0.692   1.616
 7847SOL     OW24439   6.538   1.723   1.576
 7847SOL    HW124440   6.584   1.652   1.628
 7847SOL    HW224441   6.482   1.779   1.638
 7848SOL     OW24442   3.244   3.945   1.059
 7848SOL    HW124443   3.239   3.947   1.159
 7848SOL    HW224444   3.156   3.917   1.022
 7849SOL     OW24445   5.347   3.769   3.977
 7849SOL    HW124446   5.308   3.727   4.060
 7849SOL    HW224447   5.278   3.825   3.933
 7850SOL     OW24448   0.331   1.379   3.824
 7850SOL    HW124449   0.399   1.370   3.897
 7850SOL    HW224450   0.240   1.366   3.863
 7851SOL     OW24451   6.737   0.089   0.635
 7851SOL    HW124452   6.662   0.149   0.610
 7851SOL    HW224453   6.709   0.030   0.711
 7852SOL     OW24454   3.071   0.289   5.819
 7852SOL    HW124455   3.031   0.358   5.879
 7852SOL    HW224456   3.061   0.318   5.724
 7853SOL     OW24457   4.037   1.682   1.822
 7853SOL    HW124458   4.059   1.635   1.736
 7853SOL    HW224459   4.099   1.650   1.894
 7854SOL     OW24460   3.437   4.273   1.154
 7854SOL    HW124461   3.391   4.231   1.076
 7854SOL    HW224462   3.388   4.357   1.180
 7855SOL     OW24463   3.577   6.097   5.536
 7855SOL    HW124464   3.478   6.092   5.531
 7855SOL    HW224465   3.604   6.125   5.629
 7856SOL     OW24466   5.680   4.939   3.611
 7856SOL    HW124467   5.584   4.964   3.596
 7856SOL    HW224468   5.685   4.847   3.650
 7857SOL     OW24469   6.870   3.188   5.175
 7857SOL    HW124470   6.847   3.265   5.235
 7857SOL    HW224471   6.892   3.108   5.231
 7858SOL     OW24472   4.571   5.101   3.773
 7858SOL    HW124473   4.487   5.137   3.813
 7858SOL    HW224474   4.627   5.059   3.845
 7859SOL     OW24475   6.589   4.281   5.704
 7859SOL    HW124476   6.498   4.317   5.729
 7859SOL    HW224477   6.634   4.247   5.786
 7860SOL     OW24478   4.011   7.019   2.950
 7860SOL    HW124479   4.002   0.013   2.851
 7860SOL    HW224480   3.923   6.989   2.987
 7861SOL     OW24481   3.840   5.438   1.830
 7861SOL    HW124482   3.759   5.468   1.879
 7861SOL    HW224483   3.814   5.389   1.748
 7862SOL     OW24484   3.139   4.494   1.688
 7862SOL    HW124485   3.047   4.479   1.723
 7862SOL    HW224486   3.193   4.411   1.698
 7863SOL     OW24487   6.659   6.518   4.115
 7863SOL    HW124488   6.625   6.580   4.045
 7863SOL    HW224489   6.675   6.569   4.200
 7864SOL     OW24490   6.874   6.387   5.866
 7864SOL    HW124491   6.961   6.419   5.829
 7864SOL    HW224492   6.867   6.413   5.962
 7865SOL     OW24493   4.789   6.795   3.966
 7865SOL    HW124494   4.816   6.889   3.983
 7865SOL    HW224495   4.835   6.761   3.884
 7866SOL     OW24496   2.532   2.661   0.187
 7866SOL    HW124497   2.508   2.743   0.237
 7866SOL    HW224498   2.486   2.582   0.227
 7867SOL     OW24499   4.770   5.925   2.484
 7867SOL    HW124500   4.849   5.869   2.511
 7867SOL    HW224501   4.783   6.019   2.515
 7868SOL     OW24502   5.903   6.861   2.315
 7868SOL    HW124503   5.846   6.889   2.392
 7868SOL    HW224504   5.881   6.766   2.290
 7869SOL     OW24505   5.532   4.058   0.414
 7869SOL    HW124506   5.489   4.129   0.358
 7869SOL    HW224507   5.586   3.998   0.355
 7870SOL     OW24508   4.998   5.954   4.207
 7870SOL    HW124509   4.995   6.015   4.286
 7870SOL    HW224510   5.085   5.905   4.206
 7871SOL     OW24511   6.146   3.809   2.534
 7871SOL    HW124512   6.090   3.787   2.614
 7871SOL    HW224513   6.235   3.764   2.541
 7872SOL     OW24514   1.770   4.486   2.775
 7872SOL    HW124515   1.763   4.547   2.855
 7872SOL    HW224516   1.831   4.410   2.797
 7873SOL     OW24517   5.206   0.146   5.174
 7873SOL    HW124518   5.279   0.182   5.232
 7873SOL    HW224519   5.135   0.215   5.163
 7874SOL     OW24520   4.997   0.969   0.529
 7874SOL    HW124521   5.011   0.920   0.443
 7874SOL    HW224522   5.039   1.060   0.523
 7875SOL     OW24523   4.468   2.921   6.524
 7875SOL    HW124524   4.378   2.937   6.563
 7875SOL    HW224525   4.459   2.888   6.430
 7876SOL     OW24526   0.233   0.147   5.213
 7876SOL    HW124527   0.181   0.138   5.128
 7876SOL    HW224528   0.186   0.098   5.286
 7877SOL     OW24529   0.332   3.028   2.525
 7877SOL    HW124530   0.263   2.955   2.523
 7877SOL    HW224531   0.363   3.046   2.432
 7878SOL     OW24532   5.060   4.923   4.296
 7878SOL    HW124533   5.061   4.975   4.381
 7878SOL    HW224534   5.155   4.905   4.267
 7879SOL     OW24535   4.577   5.481   3.810
 7879SOL    HW124536   4.658   5.515   3.858
 7879SOL    HW224537   4.537   5.405   3.861
 7880SOL     OW24538   0.662   5.153   0.850
 7880SOL    HW124539   0.569   5.124   0.826
 7880SOL    HW224540   0.727   5.083   0.821
 7881SOL     OW24541   6.201   3.450   4.668
 7881SOL    HW124542   6.115   3.433   4.619
 7881SOL    HW224543   6.206   3.390   4.748
 7882SOL     OW24544   1.652   2.847   2.956
 7882SOL    HW124545   1.596   2.799   2.889
 7882SOL    HW224546   1.665   2.788   3.037
 7883SOL     OW24547   1.592   6.682   1.128
 7883SOL    HW124548   1.678   6.632   1.126
 7883SOL    HW224549   1.589   6.746   1.051
 7884SOL     OW24550   1.781   4.483   3.928
 7884SOL    HW124551   1.864   4.473   3.874
 7884SOL    HW224552   1.799   4.458   4.023
 7885SOL     OW24553   6.428   6.022   2.578
 7885SOL    HW124554   6.402   5.991   2.670
 7885SOL    HW224555   6.391   5.958   2.510
 7886SOL     OW24556   4.792   3.904   1.291
 7886SOL    HW124557   4.858   3.971   1.327
 7886SOL    HW224558   4.818   3.879   1.198
 7887SOL     OW24559   3.349   2.358   5.581
 7887SOL    HW124560   3.410   2.330   5.655
 7887SOL    HW224561   3.341   2.283   5.515
 7888SOL     OW24562   0.114   0.416   5.007
 7888SOL    HW124563   0.210   0.445   5.011
 7888SOL    HW224564   0.110   0.319   4.981
 7889SOL     OW24565   0.699   4.688   0.288
 7889SOL    HW124566   0.684   4.667   0.191
 7889SOL    HW224567   0.747   4.612   0.331
 7890SOL     OW24568   0.228   3.367   3.790
 7890SOL    HW124569   0.155   3.354   3.723
 7890SOL    HW224570   0.205   3.444   3.850
 7891SOL     OW24571   1.271   3.806   4.348
 7891SOL    HW124572   1.363   3.832   4.379
 7891SOL    HW224573   1.243   3.722   4.394
 7892SOL     OW24574   0.974   2.229   3.831
 7892SOL    HW124575   0.961   2.147   3.774
 7892SOL    HW224576   1.044   2.211   3.900
 7893SOL     OW24577   6.412   6.946   2.512
 7893SOL    HW124578   6.459   6.915   2.429
 7893SOL    HW224579   6.316   6.920   2.508
 7894SOL     OW24580   2.841   1.121   1.110
 7894SOL    HW124581   2.793   1.040   1.075
 7894SOL    HW224582   2.779   1.174   1.168
 7895SOL     OW24583   4.818   6.773   5.153
 7895SOL    HW124584   4.836   6.870   5.135
 7895SOL    HW224585   4.729   6.748   5.115
 7896SOL     OW24586   5.674   3.238   1.156
 7896SOL    HW124587   5.595   3.256   1.096
 7896SOL    HW224588   5.755   3.282   1.118
 7897SOL     OW24589   3.506   3.081   1.266
 7897SOL    HW124590   3.459   3.169   1.260
 7897SOL    HW224591   3.593   3.085   1.218
 7898SOL     OW24592   3.511   0.083   4.116
 7898SOL    HW124593   3.560   7.017   4.103
 7898SOL    HW224594   3.571   0.159   4.092
 7899SOL     OW24595   6.092   6.860   1.910
 7899SOL    HW124596   6.070   6.891   1.817
 7899SOL    HW224597   6.128   6.767   1.907
 7900SOL     OW24598   0.928   4.837   1.559
 7900SOL    HW124599   0.875   4.915   1.524
 7900SOL    HW224600   0.968   4.861   1.647
 7901SOL     OW24601   4.478   0.587   6.159
 7901SOL    HW124602   4.499   0.664   6.219
 7901SOL    HW224603   4.546   0.515   6.171
 7902SOL     OW24604   6.121   5.784   3.195
 7902SOL    HW124605   6.108   5.877   3.231
 7902SOL    HW224606   6.195   5.739   3.245
 7903SOL     OW24607   4.830   2.198   3.127
 7903SOL    HW124608   4.790   2.196   3.219
 7903SOL    HW224609   4.853   2.105   3.099
 7904SOL     OW24610   5.620   0.511   2.826
 7904SOL    HW124611   5.576   0.537   2.739
 7904SOL    HW224612   5.658   0.419   2.818
 7905SOL     OW24613   5.752   1.987   0.685
 7905SOL    HW124614   5.725   1.930   0.607
 7905SOL    HW224615   5.700   1.960   0.765
 7906SOL     OW24616   1.199   5.919   0.547
 7906SOL    HW124617   1.140   5.964   0.614
 7906SOL    HW224618   1.143   5.873   0.478
 7907SOL     OW24619   6.589   0.902   3.093
 7907SOL    HW124620   6.603   0.812   3.133
 7907SOL    HW224621   6.518   0.898   3.023
 7908SOL     OW24622   0.768   1.428   5.983
 7908SOL    HW124623   0.800   1.366   6.055
 7908SOL    HW224624   0.844   1.449   5.922
 7909SOL     OW24625   4.944   4.192   3.718
 7909SOL    HW124626   4.874   4.167   3.785
 7909SOL    HW224627   4.964   4.290   3.725
 7910SOL     OW24628   1.787   3.214   0.469
 7910SOL    HW124629   1.800   3.191   0.373
 7910SOL    HW224630   1.866   3.266   0.502
 7911SOL     OW24631   1.141   4.574   1.268
 7911SOL    HW124632   1.085   4.514   1.325
 7911SOL    HW224633   1.168   4.525   1.185
 7912SOL     OW24634   6.235   4.517   1.192
 7912SOL    HW124635   6.192   4.433   1.224
 7912SOL    HW224636   6.325   4.496   1.155
 7913SOL     OW24637   1.403   4.237   1.755
 7913SOL    HW124638   1.366   4.312   1.809
 7913SOL    HW224639   1.333   4.203   1.692
 7914SOL     OW24640   0.342   4.395   0.988
 7914SOL    HW124641   0.288   4.479   0.994
 7914SOL    HW224642   0.405   4.400   0.911
 7915SOL     OW24643   4.886   1.869   2.697
 7915SOL    HW124644   4.852   1.831   2.783
 7915SOL    HW224645   4.909   1.965   2.710
 7916SOL     OW24646   0.561   6.131   5.479
 7916SOL    HW124647   0.466   6.126   5.512
 7916SOL    HW224648   0.611   6.051   5.512
 7917SOL     OW24649   4.384   3.217   5.568
 7917SOL    HW124650   4.456   3.272   5.609
 7917SOL    HW224651   4.297   3.267   5.570
 7918SOL     OW24652   6.594   0.899   4.357
 7918SOL    HW124653   6.516   0.837   4.370
 7918SOL    HW224654   6.571   0.968   4.289
 7919SOL     OW24655   1.360   4.894   2.866
 7919SOL    HW124656   1.359   4.801   2.902
 7919SOL    HW224657   1.388   4.893   2.770
 7920SOL     OW24658   6.092   6.482   1.591
 7920SOL    HW124659   6.149   6.455   1.669
 7920SOL    HW224660   6.015   6.536   1.624
 7921SOL     OW24661   5.766   6.088   2.581
 7921SOL    HW124662   5.814   6.075   2.668
 7921SOL    HW224663   5.699   6.016   2.568
 7922SOL     OW24664   0.417   5.930   6.859
 7922SOL    HW124665   0.487   6.000   6.872
 7922SOL    HW224666   0.369   5.915   6.945
 7923SOL     OW24667   4.114   1.352   6.127
 7923SOL    HW124668   4.088   1.445   6.102
 7923SOL    HW224669   4.040   1.309   6.178
 7924SOL     OW24670   4.591   0.225   1.034
 7924SOL    HW124671   4.576   0.320   1.062
 7924SOL    HW224672   4.504   0.183   1.009
 7925SOL     OW24673   0.976   6.894   0.195
 7925SOL    HW124674   1.076   6.903   0.193
 7925SOL    HW224675   0.937   6.972   0.244
 7926SOL     OW24676   5.099   1.509   6.971
 7926SOL    HW124677   5.013   1.557   6.959
 7926SOL    HW224678   5.087   1.435   0.016
 7927SOL     OW24679   4.771   0.050   2.351
 7927SOL    HW124680   4.807   0.082   2.264
 7927SOL    HW224681   4.823   6.991   2.382
 7928SOL     OW24682   0.361   1.780   3.917
 7928SOL    HW124683   0.338   1.802   4.012
 7928SOL    HW224684   0.355   1.863   3.862
 7929SOL     OW24685   3.734   3.503   5.526
 7929SOL    HW124686   3.722   3.601   5.510
 7929SOL    HW224687   3.821   3.473   5.488
 7930SOL     OW24688   4.418   5.009   5.787
 7930SOL    HW124689   4.482   5.085   5.796
 7930SOL    HW224690   4.337   5.028   5.843
 7931SOL     OW24691   4.156   2.853   0.876
 7931SOL    HW124692   4.058   2.855   0.895
 7931SOL    HW224693   4.194   2.765   0.907
 7932SOL     OW24694   1.344   5.525   6.469
 7932SOL    HW124695   1.371   5.599   6.407
 7932SOL    HW224696   1.408   5.449   6.460
 7933SOL     OW24697   6.598   0.353   5.829
 7933SOL    HW124698   6.593   0.300   5.913
 7933SOL    HW224699   6.540   0.310   5.759
 7934SOL     OW24700   1.636   5.100   6.778
 7934SOL    HW124701   1.569   5.072   6.710
 7934SOL    HW224702   1.711   5.149   6.733
 7935SOL     OW24703   5.305   6.158   1.449
 7935SOL    HW124704   5.396   6.180   1.413
 7935SOL    HW224705   5.314   6.093   1.524
 7936SOL     OW24706   2.958   5.891   3.136
 7936SOL    HW124707   2.904   5.975   3.146
 7936SOL    HW224708   2.921   5.822   3.198
 7937SOL     OW24709   0.868   5.954   4.071
 7937SOL    HW124710   0.856   5.975   3.974
 7937SOL    HW224711   0.887   6.039   4.121
 7938SOL     OW24712   5.923   6.097   5.474
 7938SOL    HW124713   5.992   6.026   5.482
 7938SOL    HW224714   5.835   6.056   5.448
 7939SOL     OW24715   1.600   2.235   5.901
 7939SOL    HW124716   1.685   2.279   5.929
 7939SOL    HW224717   1.569   2.173   5.973
 7940SOL     OW24718   2.600   2.382   2.799
 7940SOL    HW124719   2.608   2.295   2.848
 7940SOL    HW224720   2.677   2.392   2.735
 7941SOL     OW24721   5.427   6.227   2.457
 7941SOL    HW124722   5.482   6.148   2.486
 7941SOL    HW224723   5.387   6.208   2.367
 7942SOL     OW24724   0.510   3.992   2.961
 7942SOL    HW124725   0.592   3.970   3.014
 7942SOL    HW224726   0.537   4.021   2.869
 7943SOL     OW24727   0.648   4.521   5.741
 7943SOL    HW124728   0.721   4.454   5.752
 7943SOL    HW224729   0.666   4.577   5.661
 7944SOL     OW24730   0.538   3.086   0.903
 7944SOL    HW124731   0.567   3.018   0.836
 7944SOL    HW224732   0.618   3.135   0.937
 7945SOL     OW24733   6.426   6.053   1.536
 7945SOL    HW124734   6.348   6.015   1.488
 7945SOL    HW224735   6.499   6.074   1.471
 7946SOL     OW24736   3.624   0.501   5.810
 7946SOL    HW124737   3.594   0.483   5.903
 7946SOL    HW224738   3.561   0.565   5.766
 7947SOL     OW24739   2.406   1.558   5.367
 7947SOL    HW124740   2.476   1.520   5.307
 7947SOL    HW224741   2.437   1.645   5.404
 7948SOL     OW24742   0.994   6.020   0.705
 7948SOL    HW124743   0.920   5.979   0.652
 7948SOL    HW224744   0.977   6.007   0.803
 7949SOL     OW24745   4.505   3.958   6.078
 7949SOL    HW124746   4.582   3.905   6.113
 7949SOL    HW224747   4.456   4.001   6.154
 7950SOL     OW24748   5.001   5.942   4.503
 7950SOL    HW124749   5.051   5.952   4.589
 7950SOL    HW224750   4.992   5.845   4.480
 7951SOL     OW24751   1.811   4.942   1.961
 7951SOL    HW124752   1.795   4.991   1.876
 7951SOL    HW224753   1.739   4.966   2.027
 7952SOL     OW24754   0.379   3.322   0.011
 7952SOL    HW124755   0.358   3.225   0.009
 7952SOL    HW224756   0.472   3.336   0.046
 7953SOL     OW24757   4.275   2.371   2.180
 7953SOL    HW124758   4.279   2.464   2.217
 7953SOL    HW224759   4.248   2.308   2.253
 7954SOL     OW24760   3.641   4.383   6.163
 7954SOL    HW124761   3.674   4.432   6.244
 7954SOL    HW224762   3.583   4.444   6.108
 7955SOL     OW24763   1.909   1.089   6.595
 7955SOL    HW124764   1.967   1.154   6.547
 7955SOL    HW224765   1.863   1.030   6.528
 7956SOL     OW24766   5.136   0.398   2.117
 7956SOL    HW124767   5.063   0.452   2.077
 7956SOL    HW224768   5.217   0.403   2.059
 7957SOL     OW24769   1.394   0.809   0.335
 7957SOL    HW124770   1.341   0.783   0.255
 7957SOL    HW224771   1.337   0.804   0.417
 7958SOL     OW24772   4.851   5.064   6.314
 7958SOL    HW124773   4.820   4.985   6.367
 7958SOL    HW224774   4.829   5.049   6.217
 7959SOL     OW24775   4.965   6.583   0.746
 7959SOL    HW124776   5.057   6.578   0.707
 7959SOL    HW224777   4.954   6.512   0.816
 7960SOL     OW24778   2.217   0.509   5.979
 7960SOL    HW124779   2.234   0.489   5.883
 7960SOL    HW224780   2.241   0.604   5.998
 7961SOL     OW24781   6.529   0.461   0.583
 7961SOL    HW124782   6.536   0.545   0.528
 7961SOL    HW224783   6.459   0.402   0.544
 7962SOL     OW24784   0.763   1.184   5.464
 7962SOL    HW124785   0.755   1.110   5.397
 7962SOL    HW224786   0.767   1.147   5.556
 7963SOL     OW24787   6.002   5.520   4.542
 7963SOL    HW124788   5.981   5.423   4.537
 7963SOL    HW224789   5.918   5.574   4.535
 7964SOL     OW24790   6.765   3.569   2.722
 7964SOL    HW124791   6.807   3.538   2.637
 7964SOL    HW224792   6.732   3.663   2.710
 7965SOL     OW24793   3.940   2.313   5.962
 7965SOL    HW124794   3.998   2.379   6.009
 7965SOL    HW224795   3.987   2.278   5.882
 7966SOL     OW24796   2.960   3.192   6.153
 7966SOL    HW124797   2.932   3.120   6.217
 7966SOL    HW224798   2.895   3.268   6.159
 7967SOL     OW24799   2.983   5.782   1.747
 7967SOL    HW124800   3.036   5.698   1.745
 7967SOL    HW224801   2.982   5.818   1.841
 7968SOL     OW24802   6.517   2.173   4.438
 7968SOL    HW124803   6.428   2.129   4.453
 7968SOL    HW224804   6.505   2.272   4.433
 7969SOL     OW24805   6.065   5.671   1.102
 7969SOL    HW124806   6.073   5.742   1.032
 7969SOL    HW224807   6.148   5.672   1.158
 7970SOL     OW24808   6.018   3.342   2.077
 7970SOL    HW124809   6.094   3.343   2.012
 7970SOL    HW224810   6.015   3.253   2.123
 7971SOL     OW24811   3.054   1.661   1.138
 7971SOL    HW124812   3.140   1.620   1.169
 7971SOL    HW224813   3.052   1.660   1.038
 7972SOL     OW24814   3.052   3.154   1.270
 7972SOL    HW124815   3.031   3.130   1.365
 7972SOL    HW224816   3.000   3.094   1.209
 7973SOL     OW24817   4.760   4.536   4.171
 7973SOL    HW124818   4.700   4.576   4.241
 7973SOL    HW224819   4.854   4.569   4.185
 7974SOL     OW24820   6.017   0.990   5.284
 7974SOL    HW124821   5.960   1.067   5.315
 7974SOL    HW224822   6.023   0.922   5.357
 7975SOL     OW24823   6.094   1.067   1.362
 7975SOL    HW124824   6.023   1.056   1.293
 7975SOL    HW224825   6.056   1.051   1.453
 7976SOL     OW24826   1.298   0.353   6.277
 7976SOL    HW124827   1.249   0.439   6.264
 7976SOL    HW224828   1.232   0.278   6.279
 7977SOL     OW24829   4.328   5.636   3.097
 7977SOL    HW124830   4.274   5.714   3.128
 7977SOL    HW224831   4.396   5.667   3.030
 7978SOL     OW24832   6.820   2.857   6.306
 7978SOL    HW124833   6.775   2.805   6.233
 7978SOL    HW224834   6.825   2.953   6.280
 7979SOL     OW24835   3.517   5.195   5.420
 7979SOL    HW124836   3.508   5.133   5.342
 7979SOL    HW224837   3.614   5.203   5.445
 7980SOL     OW24838   3.385   5.070   6.465
 7980SOL    HW124839   3.382   4.970   6.461
 7980SOL    HW224840   3.377   5.099   6.561
 7981SOL     OW24841   0.889   4.540   1.974
 7981SOL    HW124842   0.952   4.516   2.048
 7981SOL    HW224843   0.871   4.638   1.976
 7982SOL     OW24844   1.573   1.554   0.092
 7982SOL    HW124845   1.546   1.545   0.188
 7982SOL    HW224846   1.524   1.486   0.037
 7983SOL     OW24847   5.730   2.248   0.718
 7983SOL    HW124848   5.757   2.152   0.708
 7983SOL    HW224849   5.804   2.300   0.760
 7984SOL     OW24850   0.750   1.346   0.587
 7984SOL    HW124851   0.829   1.405   0.572
 7984SOL    HW224852   0.778   1.251   0.580
 7985SOL     OW24853   2.869   2.237   4.697
 7985SOL    HW124854   2.847   2.254   4.793
 7985SOL    HW224855   2.829   2.150   4.668
 7986SOL     OW24856   2.798   0.665   6.362
 7986SOL    HW124857   2.839   0.574   6.370
 7986SOL    HW224858   2.827   0.721   6.440
 7987SOL     OW24859   1.973   2.438   6.874
 7987SOL    HW124860   2.071   2.450   6.864
 7987SOL    HW224861   1.947   2.346   6.842
 7988SOL     OW24862   1.564   0.885   2.490
 7988SOL    HW124863   1.490   0.918   2.432
 7988SOL    HW224864   1.605   0.803   2.449
 7989SOL     OW24865   2.894   3.006   0.386
 7989SOL    HW124866   2.943   2.925   0.417
 7989SOL    HW224867   2.835   2.982   0.309
 7990SOL     OW24868   2.152   5.426   4.678
 7990SOL    HW124869   2.118   5.394   4.766
 7990SOL    HW224870   2.165   5.525   4.682
 7991SOL     OW24871   6.147   1.274   3.690
 7991SOL    HW124872   6.211   1.215   3.739
 7991SOL    HW224873   6.076   1.218   3.647
 7992SOL     OW24874   0.979   0.603   0.103
 7992SOL    HW124875   1.063   0.655   0.090
 7992SOL    HW224876   0.902   0.650   0.060
 7993SOL     OW24877   0.269   0.001   0.768
 7993SOL    HW124878   0.296   6.925   0.765
 7993SOL    HW224879   0.350   0.058   0.779
 7994SOL     OW24880   3.707   6.997   3.644
 7994SOL    HW124881   3.755   0.009   3.563
 7994SOL    HW224882   3.774   6.963   3.710
 7995SOL     OW24883   5.834   5.377   3.395
 7995SOL    HW124884   5.763   5.315   3.363
 7995SOL    HW224885   5.864   5.351   3.486
 7996SOL     OW24886   3.603   6.299   4.004
 7996SOL    HW124887   3.679   6.234   4.000
 7996SOL    HW224888   3.614   6.359   4.082
 7997SOL     OW24889   6.769   1.110   0.391
 7997SOL    HW124890   6.671   1.104   0.412
 7997SOL    HW224891   6.797   1.206   0.384
 7998SOL     OW24892   3.143   0.347   0.554
 7998SOL    HW124893   3.071   0.353   0.623
 7998SOL    HW224894   3.145   0.254   0.516
 7999SOL     OW24895   0.462   0.985   5.682
 7999SOL    HW124896   0.537   1.051   5.689
 7999SOL    HW224897   0.375   1.034   5.679
 8000SOL     OW24898   5.049   6.928   6.555
 8000SOL    HW124899   4.957   6.962   6.533
 8000SOL    HW224900   5.068   6.943   6.652
 8001SOL     OW24901   4.154   5.992   1.972
 8001SOL    HW124902   4.236   5.959   1.925
 8001SOL    HW224903   4.180   6.061   2.040
 8002SOL     OW24904   1.517   0.699   6.568
 8002SOL    HW124905   1.501   0.622   6.506
 8002SOL    HW224906   1.573   0.768   6.522
 8003SOL     OW24907   2.447   5.543   1.578
 8003SOL    HW124908   2.415   5.458   1.537
 8003SOL    HW224909   2.546   5.540   1.590
 8004SOL     OW24910   2.074   3.261   3.304
 8004SOL    HW124911   2.055   3.312   3.220
 8004SOL    HW224912   2.142   3.191   3.286
 8005SOL     OW24913   3.154   1.171   3.323
 8005SOL    HW124914   3.148   1.158   3.422
 8005SOL    HW224915   3.162   1.082   3.278
 8006SOL     OW24916   2.339   5.879   5.199
 8006SOL    HW124917   2.313   5.876   5.103
 8006SOL    HW224918   2.304   5.963   5.240
 8007SOL     OW24919   5.622   1.407   5.996
 8007SOL    HW124920   5.662   1.406   6.087
 8007SOL    HW224921   5.578   1.318   5.978
 8008SOL     OW24922   3.864   6.294   6.420
 8008SOL    HW124923   3.867   6.391   6.394
 8008SOL    HW224924   3.771   6.259   6.405
 8009SOL     OW24925   5.402   0.819   1.175
 8009SOL    HW124926   5.382   0.780   1.265
 8009SOL    HW224927   5.365   0.758   1.104
 8010SOL     OW24928   2.002   1.798   5.326
 8010SOL    HW124929   1.915   1.749   5.335
 8010SOL    HW224930   2.072   1.736   5.290
 8011SOL     OW24931   3.086   1.950   1.202
 8011SOL    HW124932   3.184   1.951   1.217
 8011SOL    HW224933   3.058   1.858   1.171
 8012SOL     OW24934   2.644   3.662   0.265
 8012SOL    HW124935   2.630   3.753   0.225
 8012SOL    HW224936   2.683   3.672   0.357
 8013SOL     OW24937   1.295   5.475   3.353
 8013SOL    HW124938   1.394   5.462   3.347
 8013SOL    HW224939   1.268   5.550   3.292
 8014SOL     OW24940   1.405   6.675   4.697
 8014SOL    HW124941   1.485   6.662   4.638
 8014SOL    HW224942   1.322   6.650   4.647
 8015SOL     OW24943   2.250   0.636   6.691
 8015SOL    HW124944   2.326   0.677   6.743
 8015SOL    HW224945   2.262   0.655   6.594
 8016SOL     OW24946   3.706   0.829   5.609
 8016SOL    HW124947   3.716   0.732   5.589
 8016SOL    HW224948   3.794   0.867   5.635
 8017SOL     OW24949   5.416   6.922   0.326
 8017SOL    HW124950   5.358   6.901   0.247
 8017SOL    HW224951   5.479   6.996   0.302
 8018SOL     OW24952   3.265   2.392   0.324
 8018SOL    HW124953   3.309   2.401   0.413
 8018SOL    HW224954   3.310   2.321   0.271
 8019SOL     OW24955   2.628   4.995   1.425
 8019SOL    HW124956   2.674   4.926   1.481
 8019SOL    HW224957   2.692   5.030   1.356
 8020SOL     OW24958   6.236   0.250   6.520
 8020SOL    HW124959   6.158   0.287   6.571
 8020SOL    HW224960   6.315   0.311   6.530
 8021SOL     OW24961   1.089   3.104   0.729
 8021SOL    HW124962   1.141   3.034   0.777
 8021SOL    HW224963   1.109   3.099   0.631
 8022SOL     OW24964   5.938   0.501   2.169
 8022SOL    HW124965   5.919   0.447   2.251
 8022SOL    HW224966   5.992   0.581   2.194
 8023SOL     OW24967   6.029   4.767   2.671
 8023SOL    HW124968   5.971   4.798   2.596
 8023SOL    HW224969   6.000   4.676   2.701
 8024SOL     OW24970   1.515   5.340   5.939
 8024SOL    HW124971   1.486   5.325   6.033
 8024SOL    HW224972   1.469   5.274   5.879
 8025SOL     OW24973   2.463   5.601   1.130
 8025SOL    HW124974   2.400   5.589   1.054
 8025SOL    HW224975   2.498   5.512   1.159
 8026SOL     OW24976   7.020   4.282   1.165
 8026SOL    HW124977   7.020   4.340   1.083
 8026SOL    HW224978   6.927   4.249   1.181
 8027SOL     OW24979   3.779   0.373   5.388
 8027SOL    HW124980   3.729   0.292   5.418
 8027SOL    HW224981   3.750   0.398   5.296
 8028SOL     OW24982   4.103   5.252   5.009
 8028SOL    HW124983   4.136   5.158   4.997
 8028SOL    HW224984   4.013   5.260   4.966
 8029SOL     OW24985   5.162   2.990   1.892
 8029SOL    HW124986   5.179   2.906   1.841
 8029SOL    HW224987   5.066   3.017   1.884
 8030SOL     OW24988   5.328   4.829   0.358
 8030SOL    HW124989   5.381   4.883   0.292
 8030SOL    HW224990   5.244   4.796   0.315
 8031SOL     OW24991   6.543   6.137   2.369
 8031SOL    HW124992   6.527   6.117   2.465
 8031SOL    HW224993   6.593   6.223   2.361
 8032SOL     OW24994   5.998   4.258   2.152
 8032SOL    HW124995   5.939   4.177   2.149
 8032SOL    HW224996   6.078   4.244   2.093
 8033SOL     OW24997   4.393   2.334   6.731
 8033SOL    HW124998   4.443   2.255   6.766
 8033SOL    HW224999   4.449   2.416   6.741
 8034SOL     OW25000   4.608   0.282   4.957
 8034SOL    HW125001   4.569   0.320   5.041
 8034SOL    HW225002   4.684   0.340   4.926
 8035SOL     OW25003   5.264   1.713   2.209
 8035SOL    HW125004   5.227   1.797   2.168
 8035SOL    HW225005   5.190   1.659   2.248
 8036SOL     OW25006   6.637   3.606   4.030
 8036SOL    HW125007   6.718   3.612   3.971
 8036SOL    HW225008   6.652   3.662   4.112
 8037SOL     OW25009   2.393   3.353   6.959
 8037SOL    HW125010   2.298   3.336   6.984
 8037SOL    HW225011   2.401   3.442   6.916
 8038SOL     OW25012   4.391   0.177   2.181
 8038SOL    HW125013   4.359   0.201   2.272
 8038SOL    HW225014   4.313   0.153   2.123
 8039SOL     OW25015   0.012   1.738   4.873
 8039SOL    HW125016   6.950   1.769   4.921
 8039SOL    HW225017   7.007   1.668   4.806
 8040SOL     OW25018   1.612   5.682   0.170
 8040SOL    HW125019   1.569   5.637   0.248
 8040SOL    HW225020   1.615   5.619   0.093
 8041SOL     OW25021   3.219   0.944   2.853
 8041SOL    HW125022   3.304   0.902   2.820
 8041SOL    HW225023   3.241   1.029   2.902
 8042SOL     OW25024   3.830   2.956   5.306
 8042SOL    HW125025   3.851   2.867   5.346
 8042SOL    HW225026   3.746   2.992   5.346
 8043SOL     OW25027   3.788   5.527   0.460
 8043SOL    HW125028   3.859   5.464   0.428
 8043SOL    HW225029   3.791   5.611   0.406
 8044SOL     OW25030   4.464   3.300   0.944
 8044SOL    HW125031   4.468   3.385   0.996
 8044SOL    HW225032   4.521   3.307   0.862
 8045SOL     OW25033   6.079   2.246   2.924
 8045SOL    HW125034   6.015   2.172   2.903
 8045SOL    HW225035   6.166   2.229   2.878
 8046SOL     OW25036   1.044   4.463   2.170
 8046SOL    HW125037   1.133   4.509   2.167
 8046SOL    HW225038   1.038   4.409   2.254
 8047SOL     OW25039   3.765   5.749   6.314
 8047SOL    HW125040   3.710   5.686   6.260
 8047SOL    HW225041   3.861   5.721   6.311
 8048SOL     OW25042   4.056   1.615   0.068
 8048SOL    HW125043   4.056   1.516   0.059
 8048SOL    HW225044   4.013   1.656   7.009
 8049SOL     OW25045   0.743   6.923   6.995
 8049SOL    HW125046   0.734   0.002   6.984
 8049SOL    HW225047   0.826   6.902   0.024
 8050SOL     OW25048   1.843   3.301   3.752
 8050SOL    HW125049   1.761   3.298   3.695
 8050SOL    HW225050   1.905   3.372   3.717
 8051SOL     OW25051   4.730   6.465   4.637
 8051SOL    HW125052   4.808   6.497   4.692
 8051SOL    HW225053   4.732   6.365   4.632
 8052SOL     OW25054   2.630   1.789   1.212
 8052SOL    HW125055   2.686   1.809   1.293
 8052SOL    HW225056   2.563   1.861   1.198
 8053SOL     OW25057   3.688   2.915   4.727
 8053SOL    HW125058   3.674   2.921   4.628
 8053SOL    HW225059   3.640   2.834   4.762
 8054SOL     OW25060   6.939   3.842   4.896
 8054SOL    HW125061   6.987   3.874   4.814
 8054SOL    HW225062   6.965   3.900   4.974
 8055SOL     OW25063   0.016   0.802   5.633
 8055SOL    HW125064   6.940   0.808   5.656
 8055SOL    HW225065   0.053   0.715   5.664
 8056SOL     OW25066   3.185   0.918   4.789
 8056SOL    HW125067   3.093   0.887   4.767
 8056SOL    HW225068   3.244   0.840   4.808
 8057SOL     OW25069   3.056   2.210   3.217
 8057SOL    HW125070   3.043   2.128   3.161
 8057SOL    HW225071   3.147   2.207   3.259
 8058SOL     OW25072   3.425   0.014   3.380
 8058SOL    HW125073   3.478   6.950   3.387
 8058SOL    HW225074   3.485   0.088   3.352
 8059SOL     OW25075   2.599   1.594   4.543
 8059SOL    HW125076   2.526   1.574   4.608
 8059SOL    HW225077   2.604   1.693   4.528
 8060SOL     OW25078   6.862   2.533   6.545
 8060SOL    HW125079   6.948   2.582   6.561
 8060SOL    HW225080   6.827   2.498   6.632
 8061SOL     OW25081   0.233   0.462   2.825
 8061SOL    HW125082   0.276   0.441   2.736
 8061SOL    HW225083   0.258   0.554   2.853
 8062SOL     OW25084   3.980   4.805   3.402
 8062SOL    HW125085   3.986   4.813   3.302
 8062SOL    HW225086   3.942   4.889   3.440
 8063SOL     OW25087   2.280   1.807   2.882
 8063SOL    HW125088   2.198   1.800   2.825
 8063SOL    HW225089   2.264   1.874   2.955
 8064SOL     OW25090   6.273   2.315   1.087
 8064SOL    HW125091   6.186   2.345   1.048
 8064SOL    HW225092   6.299   2.226   1.049
 8065SOL     OW25093   2.901   5.678   3.876
 8065SOL    HW125094   2.802   5.678   3.863
 8065SOL    HW225095   2.946   5.677   3.786
 8066SOL     OW25096   0.323   0.746   5.467
 8066SOL    HW125097   0.309   0.668   5.405
 8066SOL    HW225098   0.301   0.719   5.560
 8067SOL     OW25099   5.153   2.531   2.772
 8067SOL    HW125100   5.133   2.579   2.686
 8067SOL    HW225101   5.151   2.597   2.847
 8068SOL     OW25102   0.077   4.488   1.626
 8068SOL    HW125103   0.143   4.458   1.558
 8068SOL    HW225104   0.124   4.535   1.701
 8069SOL     OW25105   2.069   5.294   1.305
 8069SOL    HW125106   2.109   5.221   1.361
 8069SOL    HW225107   2.084   5.382   1.349
 8070SOL     OW25108   4.270   3.405   0.580
 8070SOL    HW125109   4.230   3.395   0.489
 8070SOL    HW225110   4.212   3.465   0.636
 8071SOL     OW25111   3.383   6.529   5.350
 8071SOL    HW125112   3.461   6.470   5.329
 8071SOL    HW225113   3.318   6.527   5.274
 8072SOL     OW25114   3.515   1.712   0.466
 8072SOL    HW125115   3.485   1.798   0.508
 8072SOL    HW225116   3.561   1.655   0.535
 8073SOL     OW25117   3.946   5.968   5.136
 8073SOL    HW125118   3.992   5.897   5.189
 8073SOL    HW225119   3.889   6.023   5.197
 8074SOL     OW25120   3.094   2.965   0.929
 8074SOL    HW125121   3.039   2.965   1.013
 8074SOL    HW225122   3.094   2.873   0.890
 8075SOL     OW25123   6.568   6.962   0.796
 8075SOL    HW125124   6.577   6.999   0.888
 8075SOL    HW225125   6.476   6.924   0.784
 8076SOL     OW25126   5.934   0.293   5.608
 8076SOL    HW125127   5.970   0.261   5.695
 8076SOL    HW225128   5.935   0.393   5.606
 8077SOL     OW25129   3.700   6.421   2.488
 8077SOL    HW125130   3.702   6.520   2.503
 8077SOL    HW225131   3.618   6.396   2.437
 8078SOL     OW25132   0.567   1.933   0.723
 8078SOL    HW125133   0.485   1.877   0.711
 8078SOL    HW225134   0.540   2.027   0.745
 8079SOL     OW25135   6.423   1.358   3.602
 8079SOL    HW125136   6.477   1.274   3.598
 8079SOL    HW225137   6.331   1.337   3.633
 8080SOL     OW25138   0.798   2.570   2.532
 8080SOL    HW125139   0.854   2.497   2.494
 8080SOL    HW225140   0.741   2.533   2.606
 8081SOL     OW25141   6.192   5.565   6.140
 8081SOL    HW125142   6.182   5.646   6.198
 8081SOL    HW225143   6.265   5.507   6.176
 8082SOL     OW25144   3.851   1.191   1.976
 8082SOL    HW125145   3.847   1.276   1.924
 8082SOL    HW225146   3.946   1.173   2.002
 8083SOL     OW25147   4.756   2.756   3.452
 8083SOL    HW125148   4.785   2.852   3.444
 8083SOL    HW225149   4.749   2.731   3.548
 8084SOL     OW25150   3.428   7.019   6.708
 8084SOL    HW125151   3.522   0.001   6.676
 8084SOL    HW225152   3.423   6.968   6.794
 8085SOL     OW25153   5.890   6.529   2.287
 8085SOL    HW125154   5.833   6.470   2.345
 8085SOL    HW225155   5.967   6.476   2.252
 8086SOL     OW25156   6.693   0.681   2.549
 8086SOL    HW125157   6.614   0.658   2.491
 8086SOL    HW225158   6.730   0.597   2.588
 8087SOL     OW25159   2.032   0.175   0.123
 8087SOL    HW125160   1.970   0.098   0.115
 8087SOL    HW225161   2.124   0.142   0.146
 8088SOL     OW25162   5.980   1.070   1.641
 8088SOL    HW125163   6.045   1.041   1.711
 8088SOL    HW225164   5.992   1.168   1.624
 8089SOL     OW25165   5.445   2.996   0.652
 8089SOL    HW125166   5.385   3.055   0.706
 8089SOL    HW225167   5.398   2.971   0.567
 8090SOL     OW25168   3.389   1.265   6.685
 8090SOL    HW125169   3.348   1.300   6.769
 8090SOL    HW225170   3.419   1.170   6.700
 8091SOL     OW25171   1.898   3.990   4.871
 8091SOL    HW125172   1.970   3.931   4.835
 8091SOL    HW225173   1.939   4.066   4.921
 8092SOL     OW25174   5.429   1.862   5.578
 8092SOL    HW125175   5.352   1.914   5.540
 8092SOL    HW225176   5.413   1.764   5.563
 8093SOL     OW25177   2.619   5.097   3.364
 8093SOL    HW125178   2.521   5.077   3.362
 8093SOL    HW225179   2.665   5.030   3.422
 8094SOL     OW25180   0.211   2.924   4.640
 8094SOL    HW125181   0.216   2.912   4.541
 8094SOL    HW225182   0.261   3.006   4.667
 8095SOL     OW25183   0.475   4.572   4.628
 8095SOL    HW125184   0.510   4.656   4.587
 8095SOL    HW225185   0.549   4.525   4.677
 8096SOL     OW25186   2.298   0.005   2.691
 8096SOL    HW125187   2.355   0.051   2.623
 8096SOL    HW225188   2.231   0.069   2.728
 8097SOL     OW25189   3.905   0.021   4.781
 8097SOL    HW125190   3.873   0.074   4.860
 8097SOL    HW225191   3.921   0.082   4.704
 8098SOL     OW25192   1.977   6.638   3.418
 8098SOL    HW125193   1.923   6.554   3.422
 8098SOL    HW225194   1.983   6.678   3.510
 8099SOL     OW25195   4.236   6.299   4.601
 8099SOL    HW125196   4.261   6.256   4.688
 8099SOL    HW225197   4.310   6.358   4.570
 8100SOL     OW25198   6.999   0.420   6.949
 8100SOL    HW125199   6.904   0.391   6.940
 8100SOL    HW225200   7.002   0.517   6.976
 8101SOL     OW25201   1.513   5.773   1.498
 8101SOL    HW125202   1.429   5.826   1.486
 8101SOL    HW225203   1.509   5.723   1.584
 8102SOL     OW25204   0.547   4.203   3.621
 8102SOL    HW125205   0.537   4.293   3.580
 8102SOL    HW225206   0.616   4.151   3.572
 8103SOL     OW25207   2.744   7.002   1.612
 8103SOL    HW125208   2.794   0.068   1.613
 8103SOL    HW225209   2.674   7.005   1.541
 8104SOL     OW25210   1.973   0.701   6.291
 8104SOL    HW125211   1.881   0.666   6.276
 8104SOL    HW225212   2.038   0.625   6.296
 8105SOL     OW25213   0.275   3.210   3.340
 8105SOL    HW125214   0.262   3.302   3.305
 8105SOL    HW225215   0.292   3.214   3.439
 8106SOL     OW25216   3.453   5.865   3.315
 8106SOL    HW125217   3.359   5.876   3.284
 8106SOL    HW225218   3.496   5.790   3.265
 8107SOL     OW25219   0.608   4.882   4.052
 8107SOL    HW125220   0.598   4.982   4.046
 8107SOL    HW225221   0.517   4.841   4.065
 8108SOL     OW25222   6.293   3.273   6.259
 8108SOL    HW125223   6.334   3.220   6.333
 8108SOL    HW225224   6.241   3.349   6.298
 8109SOL     OW25225   6.838   3.908   5.923
 8109SOL    HW125226   6.896   3.857   5.987
 8109SOL    HW225227   6.743   3.878   5.933
 8110SOL     OW25228   3.790   5.995   2.310
 8110SOL    HW125229   3.783   6.085   2.353
 8110SOL    HW225230   3.773   5.924   2.379
 8111SOL     OW25231   5.089   1.058   4.519
 8111SOL    HW125232   5.022   1.056   4.593
 8111SOL    HW225233   5.106   0.966   4.486
 8112SOL     OW25234   2.402   2.691   4.677
 8112SOL    HW125235   2.493   2.658   4.655
 8112SOL    HW225236   2.334   2.627   4.643
 8113SOL     OW25237   1.509   3.059   0.153
 8113SOL    HW125238   1.514   3.140   0.212
 8113SOL    HW225239   1.415   3.027   0.148
 8114SOL     OW25240   1.259   3.824   2.859
 8114SOL    HW125241   1.320   3.903   2.858
 8114SOL    HW225242   1.183   3.840   2.795
 8115SOL     OW25243   3.824   0.339   6.505
 8115SOL    HW125244   3.849   0.414   6.444
 8115SOL    HW225245   3.850   0.252   6.464
 8116SOL     OW25246   4.190   4.550   0.636
 8116SOL    HW125247   4.179   4.646   0.610
 8116SOL    HW225248   4.145   4.535   0.724
 8117SOL     OW25249   2.092   6.995   3.475
 8117SOL    HW125250   2.005   0.022   3.461
 8117SOL    HW225251   2.099   6.966   3.570
 8118SOL     OW25252   5.119   4.259   6.261
 8118SOL    HW125253   5.033   4.211   6.281
 8118SOL    HW225254   5.164   4.215   6.183
 8119SOL     OW25255   5.448   5.674   6.794
 8119SOL    HW125256   5.478   5.579   6.801
 8119SOL    HW225257   5.378   5.683   6.723
 8120SOL     OW25258   2.881   4.773   1.153
 8120SOL    HW125259   2.948   4.826   1.100
 8120SOL    HW225260   2.928   4.699   1.201
 8121SOL     OW25261   6.863   5.129   2.021
 8121SOL    HW125262   6.944   5.188   2.021
 8121SOL    HW225263   6.787   5.176   1.977
 8122SOL     OW25264   6.704   4.862   3.681
 8122SOL    HW125265   6.763   4.792   3.642
 8122SOL    HW225266   6.735   4.953   3.652
 8123SOL     OW25267   6.798   1.693   6.462
 8123SOL    HW125268   6.712   1.723   6.504
 8123SOL    HW225269   6.873   1.706   6.527
 8124SOL     OW25270   5.042   6.253   1.859
 8124SOL    HW125271   5.115   6.292   1.802
 8124SOL    HW225272   4.998   6.327   1.911
 8125SOL     OW25273   1.460   1.839   3.096
 8125SOL    HW125274   1.494   1.752   3.132
 8125SOL    HW225275   1.388   1.874   3.156
 8126SOL     OW25276   4.832   3.834   2.472
 8126SOL    HW125277   4.817   3.929   2.444
 8126SOL    HW225278   4.855   3.779   2.392
 8127SOL     OW25279   2.290   3.741   6.638
 8127SOL    HW125280   2.305   3.813   6.570
 8127SOL    HW225281   2.200   3.700   6.624
 8128SOL     OW25282   2.792   2.285   2.294
 8128SOL    HW125283   2.811   2.353   2.223
 8128SOL    HW225284   2.877   2.239   2.319
 8129SOL     OW25285   4.001   1.393   6.509
 8129SOL    HW125286   3.982   1.440   6.595
 8129SOL    HW225287   3.947   1.433   6.436
 8130SOL     OW25288   0.342   3.845   6.929
 8130SOL    HW125289   0.268   3.809   6.985
 8130SOL    HW225290   0.361   3.939   6.956
 8131SOL     OW25291   2.328   2.213   1.194
 8131SOL    HW125292   2.313   2.207   1.095
 8131SOL    HW225293   2.335   2.310   1.220
 8132SOL     OW25294   5.902   6.895   5.933
 8132SOL    HW125295   5.827   6.837   5.899
 8132SOL    HW225296   5.904   6.891   6.033
 8133SOL     OW25297   3.286   5.715   2.062
 8133SOL    HW125298   3.370   5.720   2.117
 8133SOL    HW225299   3.282   5.627   2.016
 8134SOL     OW25300   6.529   2.593   6.035
 8134SOL    HW125301   6.438   2.571   5.999
 8134SOL    HW225302   6.571   2.509   6.070
 8135SOL     OW25303   3.187   6.900   1.638
 8135SOL    HW125304   3.274   6.851   1.638
 8135SOL    HW225305   3.147   6.897   1.546
 8136SOL     OW25306   4.189   6.246   2.958
 8136SOL    HW125307   4.090   6.244   2.948
 8136SOL    HW225308   4.219   6.338   2.984
 8137SOL     OW25309   3.398   1.548   5.213
 8137SOL    HW125310   3.474   1.589   5.164
 8137SOL    HW225311   3.358   1.616   5.275
 8138SOL     OW25312   4.991   0.837   0.772
 8138SOL    HW125313   4.973   0.898   0.695
 8138SOL    HW225314   4.923   0.853   0.844
 8139SOL     OW25315   0.602   0.449   1.931
 8139SOL    HW125316   0.585   0.425   2.027
 8139SOL    HW225317   0.699   0.468   1.918
 8140SOL     OW25318   5.712   0.538   6.805
 8140SOL    HW125319   5.630   0.574   6.851
 8140SOL    HW225320   5.686   0.499   6.717
 8141SOL     OW25321   4.707   6.058   4.304
 8141SOL    HW125322   4.647   6.134   4.332
 8141SOL    HW225323   4.663   5.971   4.329
 8142SOL     OW25324   0.064   5.572   0.016
 8142SOL    HW125325   7.006   5.511   0.012
 8142SOL    HW225326   0.091   5.588   0.111
 8143SOL     OW25327   5.994   4.255   0.967
 8143SOL    HW125328   5.894   4.248   0.969
 8143SOL    HW225329   6.034   4.177   1.016
 8144SOL     OW25330   6.381   5.978   6.369
 8144SOL    HW125331   6.381   5.955   6.466
 8144SOL    HW225332   6.396   6.077   6.359
 8145SOL     OW25333   5.697   5.770   1.825
 8145SOL    HW125334   5.602   5.747   1.847
 8145SOL    HW225335   5.756   5.746   1.902
 8146SOL     OW25336   3.898   1.188   4.504
 8146SOL    HW125337   3.868   1.222   4.415
 8146SOL    HW225338   3.861   1.248   4.576
 8147SOL     OW25339   5.979   1.847   1.843
 8147SOL    HW125340   5.914   1.771   1.835
 8147SOL    HW225341   5.995   1.886   1.752
 8148SOL     OW25342   4.778   4.579   0.674
 8148SOL    HW125343   4.680   4.571   0.689
 8148SOL    HW225344   4.824   4.496   0.704
 8149SOL     OW25345   2.627   6.333   1.836
 8149SOL    HW125346   2.701   6.328   1.769
 8149SOL    HW225347   2.563   6.405   1.808
 8150SOL     OW25348   1.278   4.427   0.739
 8150SOL    HW125349   1.376   4.409   0.728
 8150SOL    HW225350   1.265   4.502   0.803
 8151SOL     OW25351   6.518   2.337   1.229
 8151SOL    HW125352   6.437   2.324   1.171
 8151SOL    HW225353   6.557   2.427   1.212
 8152SOL     OW25354   0.626   1.308   2.514
 8152SOL    HW125355   0.584   1.368   2.582
 8152SOL    HW225356   0.692   1.360   2.459
 8153SOL     OW25357   3.171   0.303   3.561
 8153SOL    HW125358   3.095   0.263   3.611
 8153SOL    HW225359   3.165   0.403   3.565
 8154SOL     OW25360   2.491   5.399   3.147
 8154SOL    HW125361   2.448   5.383   3.235
 8154SOL    HW225362   2.589   5.412   3.159
 8155SOL     OW25363   1.848   3.701   1.861
 8155SOL    HW125364   1.930   3.747   1.826
 8155SOL    HW225365   1.830   3.731   1.954
 8156SOL     OW25366   5.112   6.815   0.282
 8156SOL    HW125367   5.128   6.874   0.361
 8156SOL    HW225368   5.147   6.859   0.200
 8157SOL     OW25369   6.773   5.033   6.501
 8157SOL    HW125370   6.822   4.975   6.436
 8157SOL    HW225371   6.784   5.129   6.475
 8158SOL     OW25372   5.611   5.487   1.063
 8158SOL    HW125373   5.562   5.419   1.008
 8158SOL    HW225374   5.608   5.575   1.017
 8159SOL     OW25375   2.914   6.396   2.456
 8159SOL    HW125376   2.878   6.474   2.507
 8159SOL    HW225377   2.843   6.327   2.445
 8160SOL     OW25378   4.836   1.296   2.828
 8160SOL    HW125379   4.811   1.267   2.736
 8160SOL    HW225380   4.766   1.268   2.893
 8161SOL     OW25381   5.443   1.239   6.739
 8161SOL    HW125382   5.393   1.324   6.756
 8161SOL    HW225383   5.380   1.162   6.744
 8162SOL     OW25384   5.898   6.570   6.273
 8162SOL    HW125385   5.941   6.517   6.200
 8162SOL    HW225386   5.950   6.655   6.287
 8163SOL     OW25387   2.636   3.852   5.520
 8163SOL    HW125388   2.611   3.930   5.462
 8163SOL    HW225389   2.571   3.845   5.596
 8164SOL     OW25390   5.768   3.511   0.423
 8164SOL    HW125391   5.755   3.483   0.328
 8164SOL    HW225392   5.738   3.437   0.483
 8165SOL     OW25393   0.819   5.055   0.094
 8165SOL    HW125394   0.842   5.124   0.025
 8165SOL    HW225395   0.851   4.965   0.063
 8166SOL     OW25396   2.052   0.135   2.119
 8166SOL    HW125397   2.107   0.200   2.172
 8166SOL    HW225398   1.966   0.117   2.167
 8167SOL     OW25399   6.233   6.883   4.926
 8167SOL    HW125400   6.268   6.915   5.014
 8167SOL    HW225401   6.226   6.960   4.863
 8168SOL     OW25402   2.700   1.636   3.503
 8168SOL    HW125403   2.790   1.602   3.531
 8168SOL    HW225404   2.692   1.633   3.403
 8169SOL     OW25405   4.975   2.485   1.534
 8169SOL    HW125406   4.962   2.574   1.578
 8169SOL    HW225407   5.028   2.426   1.594
 8170SOL     OW25408   1.715   5.513   2.806
 8170SOL    HW125409   1.637   5.542   2.863
 8170SOL    HW225410   1.790   5.578   2.818
 8171SOL     OW25411   1.393   1.709   0.241
 8171SOL    HW125412   1.406   1.760   0.326
 8171SOL    HW225413   1.483   1.688   0.202
 8172SOL     OW25414   0.844   1.353   2.276
 8172SOL    HW125415   0.941   1.372   2.293
 8172SOL    HW225416   0.802   1.432   2.231
 8173SOL     OW25417   3.781   1.543   1.366
 8173SOL    HW125418   3.869   1.505   1.395
 8173SOL    HW225419   3.756   1.618   1.428
 8174SOL     OW25420   5.835   2.325   1.050
 8174SOL    HW125421   5.757   2.358   0.997
 8174SOL    HW225422   5.918   2.371   1.020
 8175SOL     OW25423   6.999   3.422   6.203
 8175SOL    HW125424   6.988   3.396   6.299
 8175SOL    HW225425   6.909   3.428   6.160
 8176SOL     OW25426   2.536   5.119   2.364
 8176SOL    HW125427   2.500   5.161   2.281
 8176SOL    HW225428   2.633   5.098   2.353
 8177SOL     OW25429   2.546   5.734   4.122
 8177SOL    HW125430   2.580   5.717   4.029
 8177SOL    HW225431   2.487   5.658   4.150
 8178SOL     OW25432   2.728   6.097   6.452
 8178SOL    HW125433   2.748   6.012   6.402
 8178SOL    HW225434   2.629   6.104   6.468
 8179SOL     OW25435   3.871   2.306   6.497
 8179SOL    HW125436   3.969   2.316   6.512
 8179SOL    HW225437   3.849   2.208   6.488
 8180SOL     OW25438   0.024   0.306   4.706
 8180SOL    HW125439   0.050   0.401   4.722
 8180SOL    HW225440   0.050   0.280   4.613
 8181SOL     OW25441   2.326   2.065   1.863
 8181SOL    HW125442   2.398   2.079   1.794
 8181SOL    HW225443   2.242   2.109   1.832
 8182SOL     OW25444   3.522   1.991   6.970
 8182SOL    HW125445   3.467   1.958   0.026
 8182SOL    HW225446   3.572   2.073   6.998
 8183SOL     OW25447   0.808   2.344   4.478
 8183SOL    HW125448   0.774   2.412   4.414
 8183SOL    HW225449   0.908   2.352   4.487
 8184SOL     OW25450   4.862   1.672   5.691
 8184SOL    HW125451   4.806   1.678   5.608
 8184SOL    HW225452   4.832   1.742   5.756
 8185SOL     OW25453   2.788   6.604   0.536
 8185SOL    HW125454   2.770   6.670   0.463
 8185SOL    HW225455   2.702   6.583   0.584
 8186SOL     OW25456   3.590   5.214   6.375
 8186SOL    HW125457   3.590   5.263   6.463
 8186SOL    HW225458   3.538   5.129   6.385
 8187SOL     OW25459   1.927   2.423   5.781
 8187SOL    HW125460   1.897   2.409   5.876
 8187SOL    HW225461   1.853   2.466   5.729
 8188SOL     OW25462   5.296   2.120   1.961
 8188SOL    HW125463   5.219   2.163   1.914
 8188SOL    HW225464   5.378   2.177   1.950
 8189SOL     OW25465   4.924   5.031   2.063
 8189SOL    HW125466   4.877   4.953   2.021
 8189SOL    HW225467   4.859   5.083   2.119
 8190SOL     OW25468   5.163   5.577   4.322
 8190SOL    HW125469   5.156   5.478   4.328
 8190SOL    HW225470   5.193   5.603   4.230
 8191SOL     OW25471   3.279   5.554   3.242
 8191SOL    HW125472   3.364   5.558   3.294
 8191SOL    HW225473   3.219   5.484   3.282
 8192SOL     OW25474   3.628   5.379   0.160
 8192SOL    HW125475   3.718   5.368   0.118
 8192SOL    HW225476   3.608   5.476   0.173
 8193SOL     OW25477   6.739   0.390   4.120
 8193SOL    HW125478   6.782   0.332   4.189
 8193SOL    HW225479   6.673   0.336   4.067
 8194SOL     OW25480   6.070   2.420   0.935
 8194SOL    HW125481   6.043   2.516   0.933
 8194SOL    HW225482   6.078   2.386   0.841
 8195SOL     OW25483   0.828   0.097   0.274
 8195SOL    HW125484   0.833   0.143   0.185
 8195SOL    HW225485   0.732   0.075   0.294
 8196SOL     OW25486   3.465   0.266   5.681
 8196SOL    HW125487   3.449   0.197   5.752
 8196SOL    HW225488   3.522   0.339   5.718
 8197SOL     OW25489   4.333   1.096   5.704
 8197SOL    HW125490   4.301   1.066   5.614
 8197SOL    HW225491   4.370   1.188   5.697
 8198SOL     OW25492   2.664   6.467   3.351
 8198SOL    HW125493   2.664   6.563   3.324
 8198SOL    HW225494   2.669   6.408   3.270
 8199SOL     OW25495   6.879   3.308   6.974
 8199SOL    HW125496   6.853   3.243   0.025
 8199SOL    HW225497   6.943   3.264   6.911
 8200SOL     OW25498   4.930   3.970   1.032
 8200SOL    HW125499   4.862   3.999   0.964
 8200SOL    HW225500   5.018   4.011   1.010
 8201SOL     OW25501   4.910   0.791   4.387
 8201SOL    HW125502   4.893   0.890   4.389
 8201SOL    HW225503   4.904   0.758   4.293
 8202SOL     OW25504   0.682   5.570   4.137
 8202SOL    HW125505   0.668   5.662   4.102
 8202SOL    HW225506   0.606   5.511   4.107
 8203SOL     OW25507   4.710   2.896   6.978
 8203SOL    HW125508   4.784   2.933   0.014
 8203SOL    HW225509   4.697   2.799   6.999
 8204SOL     OW25510   3.444   5.445   0.834
 8204SOL    HW125511   3.358   5.481   0.871
 8204SOL    HW225512   3.461   5.485   0.744
 8205SOL     OW25513   6.495   4.299   1.678
 8205SOL    HW125514   6.556   4.234   1.723
 8205SOL    HW225515   6.548   4.367   1.628
 8206SOL     OW25516   3.379   2.624   5.643
 8206SOL    HW125517   3.424   2.680   5.574
 8206SOL    HW225518   3.359   2.534   5.604
 8207SOL     OW25519   3.681   4.568   5.332
 8207SOL    HW125520   3.679   4.469   5.350
 8207SOL    HW225521   3.588   4.604   5.338
 8208SOL     OW25522   2.310   6.534   1.235
 8208SOL    HW125523   2.328   6.444   1.275
 8208SOL    HW225524   2.249   6.586   1.296
 8209SOL     OW25525   0.684   1.920   5.241
 8209SOL    HW125526   0.637   1.970   5.314
 8209SOL    HW225527   0.637   1.935   5.154
 8210SOL     OW25528   3.147   0.795   1.077
 8210SOL    HW125529   3.095   0.740   1.143
 8210SOL    HW225530   3.147   0.891   1.105
 8211SOL     OW25531   3.548   4.125   3.754
 8211SOL    HW125532   3.448   4.127   3.743
 8211SOL    HW225533   3.571   4.153   3.847
 8212SOL     OW25534   3.105   1.059   1.101
 8212SOL    HW125535   3.006   1.077   1.098
 8212SOL    HW225536   3.149   1.105   1.024
 8213SOL     OW25537   5.162   4.643   2.610
 8213SOL    HW125538   5.112   4.727   2.633
 8213SOL    HW225539   5.151   4.576   2.684
 8214SOL     OW25540   2.351   6.035   3.880
 8214SOL    HW125541   2.292   5.986   3.945
 8214SOL    HW225542   2.353   5.985   3.793
 8215SOL     OW25543   4.290   5.287   0.186
 8215SOL    HW125544   4.223   5.339   0.133
 8215SOL    HW225545   4.335   5.347   0.252
 8216SOL     OW25546   5.141   0.059   3.081
 8216SOL    HW125547   5.094   0.044   3.168
 8216SOL    HW225548   5.073   0.082   3.011
 8217SOL     OW25549   2.124   3.841   2.172
 8217SOL    HW125550   2.161   3.840   2.265
 8217SOL    HW225551   2.191   3.883   2.110
 8218SOL     OW25552   1.485   0.082   3.997
 8218SOL    HW125553   1.445   0.169   4.025
 8218SOL    HW225554   1.526   0.092   3.906
 8219SOL     OW25555   3.516   3.865   1.434
 8219SOL    HW125556   3.503   3.810   1.517
 8219SOL    HW225557   3.592   3.829   1.381
 8220SOL     OW25558   3.383   4.393   5.321
 8220SOL    HW125559   3.403   4.469   5.384
 8220SOL    HW225560   3.285   4.388   5.305
 8221SOL     OW25561   6.179   4.226   3.054
 8221SOL    HW125562   6.217   4.287   2.983
 8221SOL    HW225563   6.247   4.156   3.077
 8222SOL     OW25564   5.523   2.009   0.885
 8222SOL    HW125565   5.529   2.076   0.959
 8222SOL    HW225566   5.491   2.054   0.801
 8223SOL     OW25567   0.421   4.935   5.716
 8223SOL    HW125568   0.323   4.941   5.695
 8223SOL    HW225569   0.458   4.849   5.679
 8224SOL     OW25570   4.701   1.727   1.589
 8224SOL    HW125571   4.740   1.815   1.562
 8224SOL    HW225572   4.648   1.739   1.673
 8225SOL     OW25573   3.839   0.863   1.102
 8225SOL    HW125574   3.746   0.900   1.102
 8225SOL    HW225575   3.893   0.907   1.030
 8226SOL     OW25576   2.828   0.593   0.718
 8226SOL    HW125577   2.886   0.597   0.799
 8226SOL    HW225578   2.884   0.605   0.636
 8227SOL     OW25579   0.256   1.240   2.276
 8227SOL    HW125580   0.170   1.263   2.322
 8227SOL    HW225581   0.284   1.315   2.216
 8228SOL     OW25582   0.569   1.596   6.088
 8228SOL    HW125583   0.574   1.695   6.076
 8228SOL    HW225584   0.650   1.553   6.049
 8229SOL     OW25585   4.424   4.435   1.133
 8229SOL    HW125586   4.418   4.385   1.220
 8229SOL    HW225587   4.520   4.454   1.112
 8230SOL     OW25588   3.948   6.575   5.797
 8230SOL    HW125589   3.927   6.512   5.873
 8230SOL    HW225590   3.916   6.667   5.821
 8231SOL     OW25591   3.247   2.044   2.626
 8231SOL    HW125592   3.201   1.956   2.637
 8231SOL    HW225593   3.261   2.062   2.529
 8232SOL     OW25594   5.216   1.991   2.370
 8232SOL    HW125595   5.148   2.008   2.299
 8232SOL    HW225596   5.183   1.919   2.431
 8233SOL     OW25597   1.155   0.022   5.871
 8233SOL    HW125598   1.225   0.056   5.809
 8233SOL    HW225599   1.105   0.099   5.910
 8234SOL     OW25600   3.229   3.147   0.268
 8234SOL    HW125601   3.243   3.217   0.198
 8234SOL    HW225602   3.293   3.161   0.344
 8235SOL     OW25603   0.621   3.884   6.986
 8235SOL    HW125604   0.597   3.886   6.889
 8235SOL    HW225605   0.556   3.826   0.015
 8236SOL     OW25606   0.397   5.380   6.220
 8236SOL    HW125607   0.394   5.424   6.310
 8236SOL    HW225608   0.311   5.397   6.172
 8237SOL     OW25609   4.532   6.174   5.932
 8237SOL    HW125610   4.512   6.093   5.986
 8237SOL    HW225611   4.517   6.155   5.835
 8238SOL     OW25612   0.524   5.678   6.807
 8238SOL    HW125613   0.462   5.755   6.818
 8238SOL    HW225614   0.508   5.634   6.718
 8239SOL     OW25615   0.272   1.148   5.006
 8239SOL    HW125616   0.329   1.092   4.946
 8239SOL    HW225617   0.201   1.090   5.048
 8240SOL     OW25618   2.912   3.374   2.678
 8240SOL    HW125619   2.844   3.447   2.675
 8240SOL    HW225620   3.004   3.414   2.677
 8241SOL     OW25621   2.103   4.052   6.230
 8241SOL    HW125622   2.169   3.993   6.183
 8241SOL    HW225623   2.011   4.030   6.199
 8242SOL     OW25624   1.242   3.599   4.894
 8242SOL    HW125625   1.181   3.564   4.965
 8242SOL    HW225626   1.307   3.664   4.934
 8243SOL     OW25627   0.583   4.376   0.147
 8243SOL    HW125628   0.651   4.337   0.210
 8243SOL    HW225629   0.580   4.322   0.063
 8244SOL     OW25630   0.537   0.117   3.809
 8244SOL    HW125631   0.568   0.059   3.734
 8244SOL    HW225632   0.445   0.089   3.837
 8245SOL     OW25633   4.191   1.616   3.551
 8245SOL    HW125634   4.170   1.692   3.489
 8245SOL    HW225635   4.269   1.564   3.515
 8246SOL     OW25636   0.763   4.373   6.394
 8246SOL    HW125637   0.698   4.342   6.325
 8246SOL    HW225638   0.727   4.455   6.440
 8247SOL     OW25639   2.490   5.871   3.660
 8247SOL    HW125640   2.483   5.812   3.580
 8247SOL    HW225641   2.564   5.937   3.648
 8248SOL     OW25642   0.775   5.728   4.988
 8248SOL    HW125643   0.831   5.800   4.948
 8248SOL    HW225644   0.680   5.759   4.994
 8249SOL     OW25645   2.678   1.396   5.290
 8249SOL    HW125646   2.697   1.489   5.258
 8249SOL    HW225647   2.753   1.336   5.262
 8250SOL     OW25648   3.064   2.117   0.893
 8250SOL    HW125649   2.973   2.159   0.898
 8250SOL    HW225650   3.134   2.189   0.893
 8251SOL     OW25651   5.905   1.346   4.040
 8251SOL    HW125652   5.948   1.423   4.087
 8251SOL    HW225653   5.829   1.379   3.984
 8252SOL     OW25654   3.265   1.985   0.115
 8252SOL    HW125655   3.204   1.987   0.036
 8252SOL    HW225656   3.224   1.929   0.187
 8253SOL     OW25657   4.095   5.996   6.674
 8253SOL    HW125658   4.142   5.997   6.762
 8253SOL    HW225659   4.011   5.943   6.681
 8254SOL     OW25660   5.457   5.020   6.120
 8254SOL    HW125661   5.377   5.074   6.095
 8254SOL    HW225662   5.509   5.068   6.190
 8255SOL     OW25663   1.147   0.138   6.282
 8255SOL    HW125664   1.066   0.149   6.341
 8255SOL    HW225665   1.122   0.085   6.201
 8256SOL     OW25666   6.743   0.294   3.200
 8256SOL    HW125667   6.710   0.273   3.108
 8256SOL    HW225668   6.666   0.317   3.259
 8257SOL     OW25669   5.578   4.765   4.320
 8257SOL    HW125670   5.613   4.778   4.413
 8257SOL    HW225671   5.481   4.787   4.317
 8258SOL     OW25672   5.570   2.642   1.747
 8258SOL    HW125673   5.485   2.596   1.773
 8258SOL    HW225674   5.646   2.578   1.759
 8259SOL     OW25675   4.229   1.940   4.949
 8259SOL    HW125676   4.307   1.987   4.991
 8259SOL    HW225677   4.257   1.850   4.917
 8260SOL     OW25678   2.066   6.345   1.133
 8260SOL    HW125679   2.017   6.330   1.219
 8260SOL    HW225680   2.160   6.311   1.142
 8261SOL     OW25681   5.122   6.466   3.339
 8261SOL    HW125682   5.167   6.396   3.284
 8261SOL    HW225683   5.033   6.433   3.370
 8262SOL     OW25684   0.805   4.829   0.496
 8262SOL    HW125685   0.895   4.791   0.517
 8262SOL    HW225686   0.773   4.792   0.409
 8263SOL     OW25687   6.777   2.727   6.926
 8263SOL    HW125688   6.860   2.774   6.958
 8263SOL    HW225689   6.703   2.743   6.992
 8264SOL     OW25690   1.447   6.817   1.345
 8264SOL    HW125691   1.501   6.750   1.295
 8264SOL    HW225692   1.470   6.909   1.313
 8265SOL     OW25693   4.292   0.273   1.631
 8265SOL    HW125694   4.330   0.181   1.639
 8265SOL    HW225695   4.269   0.291   1.535
 8266SOL     OW25696   2.936   0.646   4.956
 8266SOL    HW125697   2.857   0.589   4.934
 8266SOL    HW225698   2.965   0.627   5.050
 8267SOL     OW25699   1.485   5.069   1.814
 8267SOL    HW125700   1.508   5.000   1.746
 8267SOL    HW225701   1.443   5.148   1.769
 8268SOL     OW25702   2.769   4.699   5.904
 8268SOL    HW125703   2.844   4.759   5.878
 8268SOL    HW225704   2.807   4.615   5.944
 8269SOL     OW25705   4.551   2.513   3.108
 8269SOL    HW125706   4.536   2.552   3.199
 8269SOL    HW225707   4.572   2.587   3.044
 8270SOL     OW25708   2.809   5.655   5.987
 8270SOL    HW125709   2.770   5.598   5.914
 8270SOL    HW225710   2.824   5.600   6.069
 8271SOL     OW25711   6.818   6.788   3.571
 8271SOL    HW125712   6.755   6.842   3.627
 8271SOL    HW225713   6.855   6.845   3.498
 8272SOL     OW25714   0.373   0.779   2.858
 8272SOL    HW125715   0.443   0.709   2.843
 8272SOL    HW225716   0.369   0.839   2.778
 8273SOL     OW25717   3.096   0.548   0.068
 8273SOL    HW125718   3.134   0.466   0.112
 8273SOL    HW225719   3.170   0.613   0.049
 8274SOL     OW25720   4.080   4.510   6.676
 8274SOL    HW125721   4.175   4.482   6.663
 8274SOL    HW225722   4.032   4.504   6.588
 8275SOL     OW25723   5.539   0.296   4.396
 8275SOL    HW125724   5.623   0.275   4.447
 8275SOL    HW225725   5.460   0.273   4.452
 8276SOL     OW25726   6.365   2.277   5.498
 8276SOL    HW125727   6.269   2.252   5.485
 8276SOL    HW225728   6.410   2.208   5.554
 8277SOL     OW25729   2.807   5.947   4.778
 8277SOL    HW125730   2.792   5.851   4.799
 8277SOL    HW225731   2.743   5.976   4.706
 8278SOL     OW25732   2.823   1.518   6.604
 8278SOL    HW125733   2.889   1.491   6.534
 8278SOL    HW225734   2.733   1.532   6.561
 8279SOL     OW25735   5.783   5.409   6.552
 8279SOL    HW125736   5.765   5.495   6.600
 8279SOL    HW225737   5.703   5.349   6.560
 8280SOL     OW25738   4.618   2.531   0.081
 8280SOL    HW125739   4.598   2.434   0.070
 8280SOL    HW225740   4.645   2.549   0.176
 8281SOL     OW25741   1.781   4.683   1.005
 8281SOL    HW125742   1.743   4.665   0.914
 8281SOL    HW225743   1.860   4.625   1.021
 8282SOL     OW25744   2.782   2.545   0.427
 8282SOL    HW125745   2.875   2.567   0.453
 8282SOL    HW225746   2.772   2.553   0.328
 8283SOL     OW25747   0.484   5.107   3.460
 8283SOL    HW125748   0.566   5.136   3.410
 8283SOL    HW225749   0.446   5.025   3.417
 8284SOL     OW25750   1.565   3.245   2.550
 8284SOL    HW125751   1.638   3.236   2.482
 8284SOL    HW225752   1.538   3.341   2.558
 8285SOL     OW25753   3.123   3.367   6.057
 8285SOL    HW125754   3.069   3.292   6.095
 8285SOL    HW225755   3.098   3.382   5.961
 8286SOL     OW25756   5.850   1.527   5.140
 8286SOL    HW125757   5.823   1.487   5.227
 8286SOL    HW225758   5.769   1.535   5.081
 8287SOL     OW25759   1.659   6.512   3.399
 8287SOL    HW125760   1.688   6.608   3.389
 8287SOL    HW225761   1.646   6.491   3.496
 8288SOL     OW25762   1.735   2.446   3.055
 8288SOL    HW125763   1.792   2.421   2.977
 8288SOL    HW225764   1.640   2.456   3.025
 8289SOL     OW25765   6.273   0.327   6.029
 8289SOL    HW125766   6.335   0.330   6.107
 8289SOL    HW225767   6.225   0.414   6.020
 8290SOL     OW25768   4.281   2.687   1.672
 8290SOL    HW125769   4.302   2.707   1.576
 8290SOL    HW225770   4.364   2.695   1.727
 8291SOL     OW25771   6.040   5.853   6.613
 8291SOL    HW125772   6.045   5.905   6.698
 8291SOL    HW225773   6.036   5.755   6.634
 8292SOL     OW25774   2.653   5.620   5.521
 8292SOL    HW125775   2.622   5.673   5.443
 8292SOL    HW225776   2.631   5.524   5.507
 8293SOL     OW25777   1.896   4.398   1.431
 8293SOL    HW125778   1.971   4.335   1.452
 8293SOL    HW225779   1.817   4.346   1.400
 8294SOL     OW25780   6.137   3.440   5.121
 8294SOL    HW125781   6.084   3.371   5.171
 8294SOL    HW225782   6.120   3.530   5.161
 8295SOL     OW25783   5.132   3.850   2.614
 8295SOL    HW125784   5.230   3.849   2.592
 8295SOL    HW225785   5.079   3.828   2.533
 8296SOL     OW25786   3.815   5.150   6.589
 8296SOL    HW125787   3.810   5.051   6.596
 8296SOL    HW225788   3.798   5.178   6.495
 8297SOL     OW25789   6.557   3.785   2.426
 8297SOL    HW125790   6.550   3.695   2.470
 8297SOL    HW225791   6.488   3.793   2.354
 8298SOL     OW25792   6.939   0.485   6.257
 8298SOL    HW125793   6.950   0.562   6.194
 8298SOL    HW225794   6.997   0.409   6.227
 8299SOL     OW25795   0.469   3.496   1.138
 8299SOL    HW125796   0.480   3.432   1.214
 8299SOL    HW225797   0.443   3.445   1.055
 8300SOL     OW25798   6.067   6.561   4.610
 8300SOL    HW125799   6.086   6.658   4.627
 8300SOL    HW225800   5.982   6.552   4.558
 8301SOL     OW25801   4.776   6.801   6.608
 8301SOL    HW125802   4.759   6.822   6.704
 8301SOL    HW225803   4.705   6.842   6.551
 8302SOL     OW25804   3.697   6.955   5.640
 8302SOL    HW125805   3.621   6.946   5.705
 8302SOL    HW225806   3.718   6.865   5.601
 8303SOL     OW25807   0.181   0.369   3.089
 8303SOL    HW125808   0.099   0.424   3.102
 8303SOL    HW225809   0.202   0.361   2.991
 8304SOL     OW25810   5.498   4.561   2.232
 8304SOL    HW125811   5.470   4.614   2.312
 8304SOL    HW225812   5.422   4.554   2.168
 8305SOL     OW25813   4.506   5.010   3.278
 8305SOL    HW125814   4.499   5.110   3.280
 8305SOL    HW225815   4.560   4.979   3.357
 8306SOL     OW25816   6.738   1.352   2.564
 8306SOL    HW125817   6.815   1.415   2.553
 8306SOL    HW225818   6.767   1.274   2.619
 8307SOL     OW25819   2.672   5.270   1.644
 8307SOL    HW125820   2.635   5.280   1.736
 8307SOL    HW225821   2.596   5.256   1.580
 8308SOL     OW25822   1.825   4.782   0.305
 8308SOL    HW125823   1.909   4.835   0.292
 8308SOL    HW225824   1.759   4.807   0.234
 8309SOL     OW25825   6.427   4.932   4.207
 8309SOL    HW125826   6.466   4.894   4.123
 8309SOL    HW225827   6.473   5.018   4.230
 8310SOL     OW25828   1.186   5.541   0.118
 8310SOL    HW125829   1.215   5.631   0.152
 8310SOL    HW225830   1.162   5.482   0.195
 8311SOL     OW25831   5.045   0.136   4.569
 8311SOL    HW125832   4.966   0.197   4.564
 8311SOL    HW225833   5.063   0.098   4.479
 8312SOL     OW25834   5.393   0.869   0.640
 8312SOL    HW125835   5.422   0.929   0.566
 8312SOL    HW225836   5.469   0.856   0.704
 8313SOL     OW25837   4.366   0.047   5.602
 8313SOL    HW125838   4.304   0.034   5.679
 8313SOL    HW225839   4.460   0.051   5.634
 8314SOL     OW25840   5.921   6.759   6.624
 8314SOL    HW125841   5.978   6.678   6.637
 8314SOL    HW225842   5.831   6.744   6.664
 8315SOL     OW25843   3.697   3.681   3.505
 8315SOL    HW125844   3.691   3.616   3.429
 8315SOL    HW225845   3.614   3.674   3.561
 8316SOL     OW25846   1.854   3.328   0.038
 8316SOL    HW125847   1.792   3.396   0.078
 8316SOL    HW225848   1.803   3.268   6.997
 8317SOL     OW25849   2.731   2.034   4.442
 8317SOL    HW125850   2.791   1.984   4.505
 8317SOL    HW225851   2.636   2.008   4.459
 8318SOL     OW25852   4.677   1.133   6.320
 8318SOL    HW125853   4.714   1.225   6.305
 8318SOL    HW225854   4.605   1.114   6.252
 8319SOL     OW25855   1.679   0.055   6.315
 8319SOL    HW125856   1.777   0.074   6.317
 8319SOL    HW225857   1.665   6.979   6.294
 8320SOL     OW25858   3.834   3.680   3.747
 8320SOL    HW125859   3.794   3.626   3.673
 8320SOL    HW225860   3.767   3.745   3.782
 8321SOL     OW25861   0.248   0.001   5.907
 8321SOL    HW125862   0.328   6.970   5.877
 8321SOL    HW225863   0.166   6.968   5.888
 8322SOL     OW25864   0.140   1.049   0.151
 8322SOL    HW125865   0.218   0.990   0.172
 8322SOL    HW225866   0.173   1.142   0.136
 8323SOL     OW25867   4.059   4.543   1.103
 8323SOL    HW125868   4.095   4.450   1.110
 8323SOL    HW225869   4.060   4.586   1.194
 8324SOL     OW25870   5.941   0.297   0.232
 8324SOL    HW125871   5.866   0.356   0.204
 8324SOL    HW225872   6.028   0.344   0.218
 8325SOL     OW25873   1.065   4.013   4.889
 8325SOL    HW125874   1.113   4.099   4.875
 8325SOL    HW225875   0.970   4.021   4.857
 8326SOL     OW25876   4.096   3.700   6.862
 8326SOL    HW125877   4.056   3.771   6.804
 8326SOL    HW225878   4.097   3.730   6.957
 8327SOL     OW25879   0.842   0.211   5.621
 8327SOL    HW125880   0.888   0.300   5.619
 8327SOL    HW225881   0.905   0.141   5.656
 8328SOL     OW25882   1.580   6.680   5.615
 8328SOL    HW125883   1.531   6.596   5.595
 8328SOL    HW225884   1.624   6.714   5.532
 8329SOL     OW25885   0.512   2.718   4.875
 8329SOL    HW125886   0.418   2.745   4.896
 8329SOL    HW225887   0.575   2.777   4.925
 8330SOL     OW25888   3.635   1.382   6.602
 8330SOL    HW125889   3.550   1.353   6.646
 8330SOL    HW225890   3.648   1.331   6.517
 8331SOL     OW25891   3.015   1.377   0.519
 8331SOL    HW125892   3.110   1.381   0.486
 8331SOL    HW225893   2.955   1.350   0.444
 8332SOL     OW25894   5.593   5.733   2.331
 8332SOL    HW125895   5.496   5.710   2.317
 8332SOL    HW225896   5.648   5.684   2.263
 8333SOL     OW25897   2.516   5.154   0.094
 8333SOL    HW125898   2.552   5.083   0.154
 8333SOL    HW225899   2.538   5.133   7.020
 8334SOL     OW25900   2.651   2.555   6.455
 8334SOL    HW125901   2.741   2.542   6.414
 8334SOL    HW225902   2.661   2.583   6.551
 8335SOL     OW25903   4.639   2.775   6.686
 8335SOL    HW125904   4.726   2.822   6.697
 8335SOL    HW225905   4.577   2.831   6.632
 8336SOL     OW25906   1.126   3.462   3.292
 8336SOL    HW125907   1.139   3.538   3.228
 8336SOL    HW225908   1.146   3.492   3.385
 8337SOL     OW25909   1.004   6.831   4.571
 8337SOL    HW125910   0.916   6.826   4.619
 8337SOL    HW225911   1.047   6.741   4.570
 8338SOL     OW25912   3.526   5.664   2.188
 8338SOL    HW125913   3.535   5.613   2.273
 8338SOL    HW225914   3.602   5.729   2.180
 8339SOL     OW25915   0.102   0.849   1.293
 8339SOL    HW125916   0.022   0.815   1.243
 8339SOL    HW225917   0.116   0.795   1.376
 8340SOL     OW25918   4.878   4.047   0.574
 8340SOL    HW125919   4.902   3.986   0.498
 8340SOL    HW225920   4.802   4.008   0.625
 8341SOL     OW25921   3.484   0.572   6.866
 8341SOL    HW125922   3.437   0.519   6.796
 8341SOL    HW225923   3.583   0.555   6.859
 8342SOL     OW25924   3.728   6.877   7.009
 8342SOL    HW125925   3.748   6.894   0.085
 8342SOL    HW225926   3.795   6.812   6.972
 8343SOL     OW25927   5.871   5.744   3.994
 8343SOL    HW125928   5.892   5.839   4.017
 8343SOL    HW225929   5.776   5.725   4.016
 8344SOL     OW25930   0.397   5.186   4.573
 8344SOL    HW125931   0.455   5.111   4.539
 8344SOL    HW225932   0.392   5.258   4.504
 8345SOL     OW25933   5.119   2.091   3.238
 8345SOL    HW125934   5.173   2.019   3.195
 8345SOL    HW225935   5.084   2.059   3.326
 8346SOL     OW25936   3.618   3.211   6.072
 8346SOL    HW125937   3.580   3.152   6.001
 8346SOL    HW225938   3.550   3.279   6.099
 8347SOL     OW25939   3.626   6.296   6.240
 8347SOL    HW125940   3.590   6.203   6.231
 8347SOL    HW225941   3.553   6.358   6.265
 8348SOL     OW25942   2.862   6.916   1.217
 8348SOL    HW125943   2.906   7.002   1.243
 8348SOL    HW225944   2.769   6.914   1.253
 8349SOL     OW25945   0.662   6.752   1.464
 8349SOL    HW125946   0.626   6.786   1.551
 8349SOL    HW225947   0.727   6.818   1.426
 8350SOL     OW25948   3.010   6.525   6.436
 8350SOL    HW125949   3.022   6.528   6.337
 8350SOL    HW225950   2.926   6.475   6.459
 8351SOL     OW25951   5.502   5.338   3.490
 8351SOL    HW125952   5.558   5.271   3.440
 8351SOL    HW225953   5.408   5.335   3.456
 8352SOL     OW25954   1.757   6.727   2.795
 8352SOL    HW125955   1.845   6.742   2.750
 8352SOL    HW225956   1.724   6.635   2.772
 8353SOL     OW25957   1.241   4.114   1.530
 8353SOL    HW125958   1.221   4.043   1.462
 8353SOL    HW225959   1.180   4.192   1.516
 8354SOL     OW25960   3.922   6.391   3.990
 8354SOL    HW125961   3.896   6.312   4.045
 8354SOL    HW225962   4.005   6.432   4.027
 8355SOL     OW25963   1.910   1.097   5.880
 8355SOL    HW125964   1.939   1.018   5.826
 8355SOL    HW225965   1.815   1.084   5.911
 8356SOL     OW25966   0.863   5.471   1.384
 8356SOL    HW125967   0.802   5.463   1.463
 8356SOL    HW225968   0.826   5.540   1.321
 8357SOL     OW25969   4.089   5.435   5.374
 8357SOL    HW125970   4.049   5.429   5.282
 8357SOL    HW225971   4.123   5.345   5.401
 8358SOL     OW25972   0.979   3.063   5.035
 8358SOL    HW125973   1.062   3.024   4.996
 8358SOL    HW225974   0.949   3.141   4.979
 8359SOL     OW25975   2.587   1.253   4.691
 8359SOL    HW125976   2.564   1.163   4.726
 8359SOL    HW225977   2.594   1.318   4.767
 8360SOL     OW25978   4.401   6.858   1.064
 8360SOL    HW125979   4.361   6.929   1.006
 8360SOL    HW225980   4.390   6.769   1.020
 8361SOL     OW25981   2.735   0.041   6.765
 8361SOL    HW125982   2.825   0.027   6.806
 8361SOL    HW225983   2.694   0.124   6.804
 8362SOL     OW25984   5.507   2.199   1.074
 8362SOL    HW125985   5.412   2.209   1.045
 8362SOL    HW225986   5.556   2.284   1.055
 8363SOL     OW25987   4.757   1.707   1.012
 8363SOL    HW125988   4.800   1.750   0.933
 8363SOL    HW225989   4.827   1.688   1.082
 8364SOL     OW25990   0.587   3.256   3.520
 8364SOL    HW125991   0.655   3.193   3.557
 8364SOL    HW225992   0.498   3.210   3.516
 8365SOL     OW25993   1.675   1.948   2.888
 8365SOL    HW125994   1.603   1.899   2.938
 8365SOL    HW225995   1.748   1.973   2.952
 8366SOL     OW25996   3.665   5.518   1.248
 8366SOL    HW125997   3.616   5.557   1.170
 8366SOL    HW225998   3.681   5.421   1.231
 8367SOL     OW25999   3.375   5.237   5.124
 8367SOL    HW126000   3.288   5.242   5.172
 8367SOL    HW226001   3.380   5.150   5.074
 8368SOL     OW26002   1.204   5.938   6.953
 8368SOL    HW126003   1.295   5.903   6.977
 8368SOL    HW226004   1.212   6.012   6.887
 8369SOL     OW26005   0.529   1.447   0.112
 8369SOL    HW126006   0.584   1.466   0.194
 8369SOL    HW226007   0.563   1.364   0.068
 8370SOL     OW26008   2.221   0.917   6.369
 8370SOL    HW126009   2.278   0.910   6.451
 8370SOL    HW226010   2.159   0.839   6.365
 8371SOL     OW26011   1.906   3.443   6.333
 8371SOL    HW126012   1.896   3.408   6.426
 8371SOL    HW226013   2.000   3.429   6.301
 8372SOL     OW26014   1.563   5.774   2.118
 8372SOL    HW126015   1.663   5.776   2.116
 8372SOL    HW226016   1.527   5.846   2.059
 8373SOL     OW26017   1.673   1.160   4.766
 8373SOL    HW126018   1.594   1.186   4.822
 8373SOL    HW226019   1.695   1.235   4.703
 8374SOL     OW26020   0.666   0.659   4.508
 8374SOL    HW126021   0.665   0.688   4.603
 8374SOL    HW226022   0.595   0.708   4.457
 8375SOL     OW26023   3.838   0.539   6.027
 8375SOL    HW126024   3.908   0.471   6.004
 8375SOL    HW226025   3.773   0.546   5.952
 8376SOL     OW26026   1.663   1.197   4.063
 8376SOL    HW126027   1.647   1.289   4.026
 8376SOL    HW226028   1.608   1.131   4.013
 8377SOL     OW26029   6.250   5.640   0.329
 8377SOL    HW126030   6.259   5.556   0.382
 8377SOL    HW226031   6.233   5.717   0.391
 8378SOL     OW26032   4.594   4.848   3.469
 8378SOL    HW126033   4.691   4.871   3.481
 8378SOL    HW226034   4.583   4.749   3.473
 8379SOL     OW26035   4.563   2.233   2.114
 8379SOL    HW126036   4.618   2.283   2.047
 8379SOL    HW226037   4.506   2.298   2.165
 8380SOL     OW26038   0.548   6.388   6.682
 8380SOL    HW126039   0.479   6.320   6.656
 8380SOL    HW226040   0.607   6.350   6.753
 8381SOL     OW26041   6.946   2.550   3.625
 8381SOL    HW126042   6.915   2.489   3.552
 8381SOL    HW226043   0.025   2.547   3.630
 8382SOL     OW26044   2.291   7.006   0.633
 8382SOL    HW126045   2.260   0.004   0.540
 8382SOL    HW226046   2.355   0.056   0.662
 8383SOL     OW26047   2.122   0.445   5.491
 8383SOL    HW126048   2.082   0.474   5.577
 8383SOL    HW226049   2.071   0.366   5.455
 8384SOL     OW26050   0.271   1.267   0.393
 8384SOL    HW126051   0.265   1.274   0.294
 8384SOL    HW226052   0.358   1.225   0.419
 8385SOL     OW26053   4.637   2.184   0.736
 8385SOL    HW126054   4.614   2.096   0.778
 8385SOL    HW226055   4.628   2.176   0.636
 8386SOL     OW26056   1.996   5.729   1.024
 8386SOL    HW126057   1.945   5.661   1.076
 8386SOL    HW226058   2.038   5.685   0.944
 8387SOL     OW26059   1.867   1.767   1.388
 8387SOL    HW126060   1.768   1.776   1.391
 8387SOL    HW226061   1.892   1.670   1.381
 8388SOL     OW26062   1.048   0.091   0.756
 8388SOL    HW126063   1.031   0.138   0.843
 8388SOL    HW226064   0.992   0.133   0.684
 8389SOL     OW26065   0.490   3.395   3.833
 8389SOL    HW126066   0.525   3.387   3.739
 8389SOL    HW226067   0.390   3.394   3.832
 8390SOL     OW26068   4.270   6.884   6.620
 8390SOL    HW126069   4.231   6.904   6.710
 8390SOL    HW226070   4.307   6.968   6.581
 8391SOL     OW26071   4.874   5.292   1.270
 8391SOL    HW126072   4.889   5.247   1.182
 8391SOL    HW226073   4.946   5.264   1.334
 8392SOL     OW26074   6.981   5.541   5.899
 8392SOL    HW126075   6.978   5.620   5.838
 8392SOL    HW226076   6.892   5.528   5.943
 8393SOL     OW26077   6.873   0.052   3.986
 8393SOL    HW126078   6.944   0.093   4.043
 8393SOL    HW226079   6.823   0.125   3.939
 8394SOL     OW26080   6.827   2.558   1.432
 8394SOL    HW126081   6.871   2.645   1.409
 8394SOL    HW226082   6.751   2.575   1.495
 8395SOL     OW26083   1.770   6.827   3.969
 8395SOL    HW126084   1.674   6.799   3.969
 8395SOL    HW226085   1.819   6.778   4.041
 8396SOL     OW26086   4.663   4.338   2.226
 8396SOL    HW126087   4.586   4.368   2.282
 8396SOL    HW226088   4.629   4.304   2.138
 8397SOL     OW26089   2.887   0.294   3.177
 8397SOL    HW126090   2.880   0.340   3.266
 8397SOL    HW226091   2.843   0.351   3.107
 8398SOL     OW26092   3.662   2.240   6.983
 8398SOL    HW126093   3.665   2.267   0.059
 8398SOL    HW226094   3.736   2.285   6.934
 8399SOL     OW26095   6.280   6.935   0.213
 8399SOL    HW126096   6.195   6.978   0.243
 8399SOL    HW226097   6.346   7.007   0.190
 8400SOL     OW26098   1.457   0.434   3.460
 8400SOL    HW126099   1.388   0.446   3.531
 8400SOL    HW226100   1.494   0.524   3.433
 8401SOL     OW26101   3.575   2.511   6.589
 8401SOL    HW126102   3.565   2.416   6.562
 8401SOL    HW226103   3.494   2.563   6.561
 8402SOL     OW26104   3.768   2.096   5.880
 8402SOL    HW126105   3.674   2.117   5.907
 8402SOL    HW226106   3.830   2.167   5.917
 8403SOL     OW26107   0.592   2.449   3.288
 8403SOL    HW126108   0.623   2.512   3.360
 8403SOL    HW226109   0.591   2.497   3.201
 8404SOL     OW26110   5.335   5.631   0.126
 8404SOL    HW126111   5.302   5.673   0.042
 8404SOL    HW226112   5.435   5.631   0.127
 8405SOL     OW26113   1.888   1.447   6.701
 8405SOL    HW126114   1.896   1.541   6.734
 8405SOL    HW226115   1.821   1.444   6.626
 8406SOL     OW26116   4.159   0.454   0.918
 8406SOL    HW126117   4.147   0.471   0.820
 8406SOL    HW226118   4.222   0.522   0.956
 8407SOL     OW26119   5.872   6.023   4.042
 8407SOL    HW126120   5.880   6.086   3.965
 8407SOL    HW226121   5.777   5.997   4.055
 8408SOL     OW26122   5.161   1.795   3.040
 8408SOL    HW126123   5.241   1.795   3.100
 8408SOL    HW226124   5.190   1.796   2.945
 8409SOL     OW26125   5.996   3.013   3.118
 8409SOL    HW126126   6.064   2.940   3.111
 8409SOL    HW226127   5.944   3.002   3.203
 8410SOL     OW26128   4.190   0.373   1.411
 8410SOL    HW126129   4.201   0.470   1.433
 8410SOL    HW226130   4.109   0.361   1.354
 8411SOL     OW26131   1.507   5.979   4.519
 8411SOL    HW126132   1.493   6.073   4.551
 8411SOL    HW226133   1.418   5.933   4.511
 8412SOL     OW26134   4.296   1.834   1.846
 8412SOL    HW126135   4.250   1.843   1.758
 8412SOL    HW226136   4.230   1.844   1.920
 8413SOL     OW26137   5.148   4.387   0.627
 8413SOL    HW126138   5.115   4.444   0.551
 8413SOL    HW226139   5.180   4.299   0.591
 8414SOL     OW26140   4.560   6.704   2.567
 8414SOL    HW126141   4.528   6.614   2.593
 8414SOL    HW226142   4.660   6.708   2.575
 8415SOL     OW26143   6.643   5.361   4.226
 8415SOL    HW126144   6.586   5.286   4.260
 8415SOL    HW226145   6.585   5.435   4.193
 8416SOL     OW26146   5.461   4.357   3.622
 8416SOL    HW126147   5.481   4.453   3.642
 8416SOL    HW226148   5.370   4.350   3.582
 8417SOL     OW26149   1.464   5.047   5.351
 8417SOL    HW126150   1.418   5.090   5.273
 8417SOL    HW226151   1.532   4.982   5.317
 8418SOL     OW26152   5.997   5.570   1.855
 8418SOL    HW126153   6.094   5.588   1.869
 8418SOL    HW226154   5.943   5.628   1.916
 8419SOL     OW26155   4.575   1.124   2.046
 8419SOL    HW126156   4.483   1.087   2.059
 8419SOL    HW226157   4.597   1.186   2.122
 8420SOL     OW26158   3.736   0.505   1.214
 8420SOL    HW126159   3.714   0.532   1.120
 8420SOL    HW226160   3.830   0.470   1.217
 8421SOL     OW26161   2.687   6.631   1.138
 8421SOL    HW126162   2.717   6.658   1.046
 8421SOL    HW226163   2.690   6.531   1.146
 8422SOL     OW26164   4.831   6.623   1.333
 8422SOL    HW126165   4.742   6.650   1.297
 8422SOL    HW226166   4.855   6.532   1.297
 8423SOL     OW26167   4.142   3.801   5.746
 8423SOL    HW126168   4.068   3.845   5.797
 8423SOL    HW226169   4.213   3.771   5.810
 8424SOL     OW26170   2.268   2.842   2.871
 8424SOL    HW126171   2.281   2.865   2.774
 8424SOL    HW226172   2.326   2.764   2.895
 8425SOL     OW26173   5.585   6.019   1.050
 8425SOL    HW126174   5.516   5.959   1.091
 8425SOL    HW226175   5.581   6.109   1.092
 8426SOL     OW26176   3.521   2.882   4.453
 8426SOL    HW126177   3.486   2.857   4.363
 8426SOL    HW226178   3.445   2.901   4.515
 8427SOL     OW26179   2.286   3.472   5.854
 8427SOL    HW126180   2.339   3.414   5.792
 8427SOL    HW226181   2.207   3.510   5.805
 8428SOL     OW26182   6.607   4.035   2.155
 8428SOL    HW126183   6.569   4.128   2.150
 8428SOL    HW226184   6.707   4.039   2.153
 8429SOL     OW26185   2.229   4.904   3.621
 8429SOL    HW126186   2.302   4.919   3.688
 8429SOL    HW226187   2.267   4.854   3.542
 8430SOL     OW26188   4.443   5.615   3.528
 8430SOL    HW126189   4.374   5.552   3.490
 8430SOL    HW226190   4.399   5.702   3.550
 8431SOL     OW26191   2.845   5.225   0.763
 8431SOL    HW126192   2.793   5.200   0.681
 8431SOL    HW226193   2.789   5.284   0.821
 8432SOL     OW26194   4.987   6.521   5.259
 8432SOL    HW126195   4.917   6.468   5.212
 8432SOL    HW226196   4.971   6.619   5.245
 8433SOL     OW26197   6.361   2.562   6.684
 8433SOL    HW126198   6.311   2.632   6.633
 8433SOL    HW226199   6.458   2.587   6.689
 8434SOL     OW26200   2.887   0.125   5.005
 8434SOL    HW126201   2.790   0.121   5.031
 8434SOL    HW226202   2.943   0.095   5.082
 8435SOL     OW26203   4.946   0.558   0.702
 8435SOL    HW126204   4.919   0.497   0.777
 8435SOL    HW226205   4.993   0.638   0.740
 8436SOL     OW26206   3.342   6.829   4.385
 8436SOL    HW126207   3.401   6.755   4.352
 8436SOL    HW226208   3.356   6.911   4.329
 8437SOL     OW26209   2.088   0.117   2.866
 8437SOL    HW126210   2.096   0.216   2.880
 8437SOL    HW226211   2.078   0.071   2.954
 8438SOL     OW26212   3.015   5.124   2.366
 8438SOL    HW126213   3.061   5.039   2.387
 8438SOL    HW226214   2.936   5.106   2.307
 8439SOL     OW26215   6.923   5.544   1.063
 8439SOL    HW126216   6.905   5.523   1.160
 8439SOL    HW226217   7.014   5.511   1.039
 8440SOL     OW26218   0.230   1.298   3.311
 8440SOL    HW126219   0.244   1.345   3.398
 8440SOL    HW226220   0.138   1.257   3.310
 8441SOL     OW26221   6.653   6.772   6.948
 8441SOL    HW126222   6.724   6.843   6.950
 8441SOL    HW226223   6.564   6.815   6.931
 8442SOL     OW26224   3.470   2.493   6.297
 8442SOL    HW126225   3.567   2.518   6.292
 8442SOL    HW226226   3.429   2.536   6.378
 8443SOL     OW26227   1.399   6.826   3.205
 8443SOL    HW126228   1.476   6.790   3.257
 8443SOL    HW226229   1.419   6.820   3.107
 8444SOL     OW26230   3.987   5.807   3.820
 8444SOL    HW126231   3.908   5.792   3.761
 8444SOL    HW226232   3.995   5.904   3.841
 8445SOL     OW26233   3.328   5.434   2.052
 8445SOL    HW126234   3.295   5.342   2.071
 8445SOL    HW226235   3.405   5.455   2.113
 8446SOL     OW26236   4.600   5.036   1.323
 8446SOL    HW126237   4.534   4.991   1.263
 8446SOL    HW226238   4.615   5.129   1.291
 8447SOL     OW26239   5.557   1.722   2.219
 8447SOL    HW126240   5.512   1.810   2.238
 8447SOL    HW226241   5.495   1.647   2.243
 8448SOL     OW26242   5.855   4.763   4.801
 8448SOL    HW126243   5.937   4.821   4.795
 8448SOL    HW226244   5.855   4.715   4.889
 8449SOL     OW26245   6.509   2.834   4.389
 8449SOL    HW126246   6.514   2.931   4.412
 8449SOL    HW226247   6.561   2.816   4.305
 8450SOL     OW26248   1.453   5.676   1.769
 8450SOL    HW126249   1.464   5.769   1.804
 8450SOL    HW226250   1.495   5.611   1.833
 8451SOL     OW26251   5.063   2.841   6.904
 8451SOL    HW126252   5.000   2.879   6.972
 8451SOL    HW226253   5.020   2.845   6.814
 8452SOL     OW26254   0.204   0.514   1.509
 8452SOL    HW126255   0.117   0.537   1.553
 8452SOL    HW226256   0.260   0.460   1.572
 8453SOL     OW26257   6.400   4.176   6.749
 8453SOL    HW126258   6.426   4.245   6.682
 8453SOL    HW226259   6.302   4.184   6.769
 8454SOL     OW26260   0.996   6.313   0.740
 8454SOL    HW126261   1.064   6.346   0.675
 8454SOL    HW226262   0.990   6.213   0.733
 8455SOL     OW26263   5.222   1.554   0.977
 8455SOL    HW126264   5.255   1.621   1.043
 8455SOL    HW226265   5.280   1.473   0.979
 8456SOL     OW26266   4.764   4.314   2.604
 8456SOL    HW126267   4.786   4.251   2.529
 8456SOL    HW226268   4.665   4.319   2.614
 8457SOL     OW26269   0.086   6.529   5.474
 8457SOL    HW126270   0.003   6.525   5.418
 8457SOL    HW226271   0.140   6.447   5.459
 8458SOL     OW26272   2.246   0.981   6.844
 8458SOL    HW126273   2.256   0.924   6.926
 8458SOL    HW226274   2.156   1.025   6.845
 8459SOL     OW26275   3.011   6.744   1.459
 8459SOL    HW126276   2.976   6.748   1.552
 8459SOL    HW226277   2.951   6.798   1.399
 8460SOL     OW26278   4.333   2.397   5.779
 8460SOL    HW126279   4.325   2.322   5.845
 8460SOL    HW226280   4.280   2.476   5.812
 8461SOL     OW26281   0.708   3.968   2.418
 8461SOL    HW126282   0.758   4.042   2.372
 8461SOL    HW226283   0.623   3.950   2.369
 8462SOL     OW26284   4.046   2.127   0.437
 8462SOL    HW126285   4.078   2.205   0.490
 8462SOL    HW226286   4.104   2.115   0.356
 8463SOL     OW26287   6.743   0.741   0.681
 8463SOL    HW126288   6.804   0.816   0.656
 8463SOL    HW226289   6.657   0.778   0.718
 8464SOL     OW26290   6.825   4.311   5.548
 8464SOL    HW126291   6.733   4.307   5.586
 8464SOL    HW226292   6.828   4.384   5.479
 8465SOL     OW26293   2.951   2.422   0.837
 8465SOL    HW126294   2.887   2.496   0.817
 8465SOL    HW226295   2.918   2.369   0.915
 8466SOL     OW26296   6.009   6.486   5.820
 8466SOL    HW126297   6.029   6.560   5.756
 8466SOL    HW226298   5.912   6.464   5.815
 8467SOL     OW26299   3.594   0.757   1.661
 8467SOL    HW126300   3.660   0.751   1.585
 8467SOL    HW226301   3.638   0.801   1.739
 8468SOL     OW26302   4.940   2.434   6.978
 8468SOL    HW126303   5.029   2.475   6.960
 8468SOL    HW226304   4.868   2.502   6.963
 8469SOL     OW26305   2.563   1.602   5.650
 8469SOL    HW126306   2.531   1.695   5.631
 8469SOL    HW226307   2.497   1.536   5.615
 8470SOL     OW26308   0.876   4.792   0.032
 8470SOL    HW126309   0.804   4.724   0.017
 8470SOL    HW226310   0.957   4.748   0.071
 8471SOL     OW26311   4.054   0.370   5.339
 8471SOL    HW126312   3.956   0.392   5.348
 8471SOL    HW226313   4.095   0.362   5.429
 8472SOL     OW26314   6.224   0.346   5.488
 8472SOL    HW126315   6.129   0.317   5.481
 8472SOL    HW226316   6.252   0.389   5.402
 8473SOL     OW26317   6.703   5.626   0.968
 8473SOL    HW126318   6.788   5.579   0.989
 8473SOL    HW226319   6.722   5.719   0.938
 8474SOL     OW26320   3.189   3.432   2.113
 8474SOL    HW126321   3.229   3.446   2.204
 8474SOL    HW226322   3.249   3.373   2.059
 8475SOL     OW26323   6.965   2.664   3.132
 8475SOL    HW126324   6.915   2.746   3.102
 8475SOL    HW226325   6.997   2.677   3.225
 8476SOL     OW26326   6.191   1.668   0.927
 8476SOL    HW126327   6.237   1.719   0.999
 8476SOL    HW226328   6.113   1.720   0.894
 8477SOL     OW26329   4.838   6.711   2.606
 8477SOL    HW126330   4.853   6.632   2.665
 8477SOL    HW226331   4.915   6.722   2.544
 8478SOL     OW26332   1.377   0.687   5.214
 8478SOL    HW126333   1.309   0.626   5.172
 8478SOL    HW226334   1.425   0.638   5.286
 8479SOL     OW26335   1.893   3.778   0.633
 8479SOL    HW126336   1.886   3.719   0.714
 8479SOL    HW226337   1.847   3.734   0.556
 8480SOL     OW26338   5.236   3.032   6.805
 8480SOL    HW126339   5.170   3.073   6.743
 8480SOL    HW226340   5.190   2.967   6.865
 8481SOL     OW26341   4.555   2.658   5.033
 8481SOL    HW126342   4.585   2.571   4.994
 8481SOL    HW226343   4.628   2.726   5.020
 8482SOL     OW26344   4.988   0.041   2.621
 8482SOL    HW126345   4.981   6.998   2.698
 8482SOL    HW226346   5.033   7.016   2.544
 8483SOL     OW26347   3.514   6.126   2.251
 8483SOL    HW126348   3.469   6.198   2.302
 8483SOL    HW226349   3.571   6.167   2.180
 8484SOL     OW26350   6.877   6.476   3.903
 8484SOL    HW126351   6.883   6.503   3.807
 8484SOL    HW226352   6.802   6.411   3.915
 8485SOL     OW26353   4.068   2.455   0.321
 8485SOL    HW126354   3.993   2.390   0.330
 8485SOL    HW226355   4.117   2.438   0.236
 8486SOL     OW26356   2.560   1.263   2.427
 8486SOL    HW126357   2.470   1.230   2.398
 8486SOL    HW226358   2.550   1.317   2.511
 8487SOL     OW26359   5.826   2.268   6.030
 8487SOL    HW126360   5.795   2.219   6.111
 8487SOL    HW226361   5.785   2.359   6.028
 8488SOL     OW26362   5.524   6.316   1.801
 8488SOL    HW126363   5.606   6.326   1.745
 8488SOL    HW226364   5.527   6.381   1.877
 8489SOL     OW26365   6.235   1.687   1.888
 8489SOL    HW126366   6.167   1.760   1.899
 8489SOL    HW226367   6.196   1.600   1.919
 8490SOL     OW26368   3.472   6.833   5.775
 8490SOL    HW126369   3.423   6.902   5.828
 8490SOL    HW226370   3.515   6.768   5.837
 8491SOL     OW26371   2.034   5.952   2.024
 8491SOL    HW126372   2.019   6.003   2.110
 8491SOL    HW226373   1.945   5.937   1.980
 8492SOL     OW26374   5.919   4.674   5.083
 8492SOL    HW126375   5.867   4.591   5.105
 8492SOL    HW226376   5.913   4.739   5.158
 8493SOL     OW26377   2.341   2.605   6.012
 8493SOL    HW126378   2.409   2.534   5.996
 8493SOL    HW226379   2.277   2.574   6.083
 8494SOL     OW26380   4.060   5.303   1.571
 8494SOL    HW126381   4.140   5.344   1.528
 8494SOL    HW226382   4.088   5.245   1.648
 8495SOL     OW26383   0.107   4.677   1.306
 8495SOL    HW126384   0.066   4.587   1.317
 8495SOL    HW226385   0.128   4.693   1.209
 8496SOL     OW26386   0.771   1.669   2.492
 8496SOL    HW126387   0.812   1.581   2.517
 8496SOL    HW226388   0.673   1.667   2.513
 8497SOL     OW26389   0.174   1.454   3.595
 8497SOL    HW126390   0.077   1.436   3.612
 8497SOL    HW226391   0.229   1.414   3.669
 8498SOL     OW26392   6.480   6.288   3.435
 8498SOL    HW126393   6.447   6.223   3.503
 8498SOL    HW226394   6.463   6.381   3.466
 8499SOL     OW26395   1.980   3.925   6.686
 8499SOL    HW126396   2.058   3.970   6.642
 8499SOL    HW226397   1.941   3.858   6.623
 8500SOL     OW26398   1.498   6.481   5.917
 8500SOL    HW126399   1.532   6.572   5.891
 8500SOL    HW226400   1.462   6.435   5.836
 8501SOL     OW26401   6.874   2.903   5.930
 8501SOL    HW126402   6.925   2.852   5.861
 8501SOL    HW226403   6.844   2.991   5.892
 8502SOL     OW26404   0.546   3.093   1.556
 8502SOL    HW126405   0.474   3.158   1.582
 8502SOL    HW226406   0.514   3.038   1.479
 8503SOL     OW26407   0.550   5.525   4.820
 8503SOL    HW126408   0.469   5.549   4.765
 8503SOL    HW226409   0.606   5.606   4.835
 8504SOL     OW26410   2.088   5.186   2.056
 8504SOL    HW126411   2.075   5.266   2.113
 8504SOL    HW226412   2.186   5.170   2.041
 8505SOL     OW26413   6.071   3.802   3.059
 8505SOL    HW126414   5.975   3.803   3.086
 8505SOL    HW226415   6.119   3.730   3.109
 8506SOL     OW26416   1.154   1.573   6.773
 8506SOL    HW126417   1.077   1.623   6.734
 8506SOL    HW226418   1.131   1.541   6.865
 8507SOL     OW26419   3.708   6.480   5.159
 8507SOL    HW126420   3.640   6.530   5.105
 8507SOL    HW226421   3.662   6.412   5.216
 8508SOL     OW26422   5.163   1.750   4.530
 8508SOL    HW126423   5.254   1.773   4.563
 8508SOL    HW226424   5.097   1.818   4.562
 8509SOL     OW26425   5.072   0.331   3.375
 8509SOL    HW126426   4.998   0.381   3.330
 8509SOL    HW226427   5.043   0.238   3.395
 8510SOL     OW26428   5.926   4.263   2.945
 8510SOL    HW126429   6.012   4.240   2.990
 8510SOL    HW226430   5.860   4.189   2.958
 8511SOL     OW26431   6.281   3.571   2.694
 8511SOL    HW126432   6.310   3.493   2.750
 8511SOL    HW226433   6.332   3.570   2.607
 8512SOL     OW26434   2.963   0.808   2.830
 8512SOL    HW126435   3.000   0.718   2.851
 8512SOL    HW226436   3.031   0.878   2.852
 8513SOL     OW26437   6.651   4.824   1.119
 8513SOL    HW126438   6.721   4.893   1.099
 8513SOL    HW226439   6.565   4.869   1.143
 8514SOL     OW26440   2.291   0.955   3.506
 8514SOL    HW126441   2.378   0.934   3.461
 8514SOL    HW226442   2.305   1.028   3.572
 8515SOL     OW26443   4.929   2.363   1.299
 8515SOL    HW126444   4.946   2.407   1.387
 8515SOL    HW226445   5.016   2.335   1.258
 8516SOL     OW26446   0.281   1.725   2.214
 8516SOL    HW126447   0.265   1.795   2.284
 8516SOL    HW226448   0.205   1.725   2.149
 8517SOL     OW26449   0.623   2.987   4.951
 8517SOL    HW126450   0.666   3.056   4.893
 8517SOL    HW226451   0.685   2.910   4.963
 8518SOL     OW26452   4.593   4.192   6.693
 8518SOL    HW126453   4.590   4.211   6.791
 8518SOL    HW226454   4.538   4.110   6.674
 8519SOL     OW26455   1.573   5.037   2.072
 8519SOL    HW126456   1.542   5.118   2.122
 8519SOL    HW226457   1.532   5.037   1.980
 8520SOL     OW26458   3.611   1.193   0.938
 8520SOL    HW126459   3.572   1.254   0.869
 8520SOL    HW226460   3.680   1.134   0.896
 8521SOL     OW26461   2.073   5.625   5.779
 8521SOL    HW126462   2.171   5.629   5.758
 8521SOL    HW226463   2.035   5.540   5.742
 8522SOL     OW26464   1.090   6.080   1.996
 8522SOL    HW126465   1.014   6.146   1.993
 8522SOL    HW226466   1.158   6.104   1.928
 8523SOL     OW26467   2.830   6.436   6.972
 8523SOL    HW126468   2.896   6.470   0.018
 8523SOL    HW226469   2.844   6.482   6.885
 8524SOL     OW26470   1.226   2.531   5.124
 8524SOL    HW126471   1.152   2.473   5.158
 8524SOL    HW226472   1.238   2.516   5.026
 8525SOL     OW26473   6.353   4.554   3.434
 8525SOL    HW126474   6.304   4.505   3.362
 8525SOL    HW226475   6.451   4.557   3.412
 8526SOL     OW26476   2.550   4.026   0.998
 8526SOL    HW126477   2.460   4.008   0.958
 8526SOL    HW226478   2.585   4.113   0.965
 8527SOL     OW26479   3.455   0.313   4.979
 8527SOL    HW126480   3.379   0.376   4.995
 8527SOL    HW226481   3.448   0.275   4.887
 8528SOL     OW26482   5.038   3.112   6.029
 8528SOL    HW126483   5.121   3.098   5.976
 8528SOL    HW226484   5.018   3.209   6.035
 8529SOL     OW26485   0.928   6.800   6.574
 8529SOL    HW126486   1.014   6.839   6.606
 8529SOL    HW226487   0.866   6.874   6.547
 8530SOL     OW26488   0.984   4.360   6.103
 8530SOL    HW126489   1.048   4.284   6.097
 8530SOL    HW226490   1.029   4.439   6.144
 8531SOL     OW26491   5.327   4.294   2.397
 8531SOL    HW126492   5.310   4.361   2.325
 8531SOL    HW226493   5.242   4.250   2.424
 8532SOL     OW26494   3.969   4.940   4.839
 8532SOL    HW126495   3.874   4.951   4.868
 8532SOL    HW226496   4.022   4.897   4.914
 8533SOL     OW26497   1.665   0.504   5.747
 8533SOL    HW126498   1.695   0.481   5.839
 8533SOL    HW226499   1.576   0.463   5.729
 8534SOL     OW26500   6.953   3.582   3.439
 8534SOL    HW126501   6.964   3.670   3.486
 8534SOL    HW226502   6.868   3.583   3.387
 8535SOL     OW26503   0.601   2.021   4.838
 8535SOL    HW126504   0.627   2.117   4.844
 8535SOL    HW226505   0.683   1.964   4.834
 8536SOL     OW26506   6.302   2.247   4.730
 8536SOL    HW126507   6.326   2.320   4.667
 8536SOL    HW226508   6.365   2.247   4.808
 8537SOL     OW26509   5.419   1.852   1.114
 8537SOL    HW126510   5.468   1.906   1.182
 8537SOL    HW226511   5.448   1.880   1.023
 8538SOL     OW26512   0.123   0.995   5.164
 8538SOL    HW126513   0.124   1.009   5.263
 8538SOL    HW226514   0.112   0.898   5.144
 8539SOL     OW26515   6.158   2.061   1.969
 8539SOL    HW126516   6.206   2.096   1.888
 8539SOL    HW226517   6.091   1.992   1.941
 8540SOL     OW26518   3.301   1.412   0.453
 8540SOL    HW126519   3.285   1.326   0.405
 8540SOL    HW226520   3.375   1.462   0.409
 8541SOL     OW26521   2.743   1.690   4.271
 8541SOL    HW126522   2.675   1.619   4.283
 8541SOL    HW226523   2.806   1.691   4.349
 8542SOL     OW26524   2.442   4.637   6.391
 8542SOL    HW126525   2.470   4.711   6.330
 8542SOL    HW226526   2.497   4.556   6.372
 8543SOL     OW26527   3.030   1.497   5.940
 8543SOL    HW126528   3.053   1.563   5.869
 8543SOL    HW226529   3.091   1.510   6.019
 8544SOL     OW26530   5.457   3.234   4.838
 8544SOL    HW126531   5.359   3.253   4.830
 8544SOL    HW226532   5.481   3.222   4.934
 8545SOL     OW26533   3.684   6.781   4.866
 8545SOL    HW126534   3.764   6.811   4.919
 8545SOL    HW226535   3.634   6.712   4.919
 8546SOL     OW26536   6.691   0.003   1.955
 8546SOL    HW126537   6.743   0.084   1.928
 8546SOL    HW226538   6.682   6.963   1.876
 8547SOL     OW26539   0.403   0.279   5.371
 8547SOL    HW126540   0.451   0.194   5.394
 8547SOL    HW226541   0.337   0.261   5.298
 8548SOL     OW26542   7.002   3.251   5.782
 8548SOL    HW126543   6.918   3.206   5.812
 8548SOL    HW226544   6.985   3.349   5.770
 8549SOL     OW26545   0.943   2.687   3.850
 8549SOL    HW126546   0.937   2.716   3.946
 8549SOL    HW226547   0.851   2.680   3.811
 8550SOL     OW26548   1.600   3.877   6.745
 8550SOL    HW126549   1.527   3.862   6.678
 8550SOL    HW226550   1.660   3.949   6.712
 8551SOL     OW26551   3.118   3.053   6.950
 8551SOL    HW126552   3.118   3.132   7.011
 8551SOL    HW226553   3.076   2.975   6.997
 8552SOL     OW26554   2.114   0.367   2.833
 8552SOL    HW126555   2.145   0.353   2.739
 8552SOL    HW226556   2.053   0.446   2.836
 8553SOL     OW26557   4.121   4.467   0.038
 8553SOL    HW126558   4.173   4.539   7.012
 8553SOL    HW226559   4.094   4.397   6.993
 8554SOL     OW26560   0.441   5.918   0.846
 8554SOL    HW126561   0.447   5.896   0.943
 8554SOL    HW226562   0.397   5.842   0.798
 8555SOL     OW26563   4.019   1.705   3.183
 8555SOL    HW126564   3.924   1.679   3.166
 8555SOL    HW226565   4.047   1.775   3.117
 8556SOL     OW26566   2.291   6.181   5.029
 8556SOL    HW126567   2.374   6.159   4.978
 8556SOL    HW226568   2.228   6.104   5.026
 8557SOL     OW26569   0.017   0.374   1.346
 8557SOL    HW126570   0.065   0.445   1.397
 8557SOL    HW226571   6.970   0.416   1.285
 8558SOL     OW26572   2.015   5.499   3.025
 8558SOL    HW126573   2.049   5.550   2.946
 8558SOL    HW226574   1.954   5.557   3.079
 8559SOL     OW26575   1.666   6.210   2.283
 8559SOL    HW126576   1.731   6.285   2.295
 8559SOL    HW226577   1.630   6.212   2.190
 8560SOL     OW26578   1.118   5.506   1.496
 8560SOL    HW126579   1.059   5.430   1.470
 8560SOL    HW226580   1.113   5.577   1.426
 8561SOL     OW26581   3.605   6.831   4.029
 8561SOL    HW126582   3.528   6.780   3.990
 8561SOL    HW226583   3.690   6.790   3.997
 8562SOL     OW26584   3.455   6.938   6.953
 8562SOL    HW126585   3.539   6.911   6.999
 8562SOL    HW226586   3.382   6.951   0.001
 8563SOL     OW26587   0.736   5.198   1.887
 8563SOL    HW126588   0.671   5.123   1.873
 8563SOL    HW226589   0.827   5.161   1.905
 8564SOL     OW26590   3.743   6.171   5.802
 8564SOL    HW126591   3.785   6.131   5.721
 8564SOL    HW226592   3.799   6.248   5.834
 8565SOL     OW26593   3.714   5.367   0.826
 8565SOL    HW126594   3.614   5.366   0.816
 8565SOL    HW226595   3.745   5.461   0.842
 8566SOL     OW26596   1.497   0.369   1.966
 8566SOL    HW126597   1.464   0.426   1.891
 8566SOL    HW226598   1.595   0.384   1.979
 8567SOL     OW26599   1.119   2.222   2.277
 8567SOL    HW126600   1.056   2.286   2.320
 8567SOL    HW226601   1.152   2.156   2.345
 8568SOL     OW26602   5.503   1.595   0.491
 8568SOL    HW126603   5.490   1.694   0.500
 8568SOL    HW226604   5.547   1.575   0.403
 8569SOL     OW26605   5.293   1.892   5.808
 8569SOL    HW126606   5.295   1.802   5.852
 8569SOL    HW226607   5.344   1.889   5.723
 8570SOL     OW26608   1.168   1.816   4.863
 8570SOL    HW126609   1.181   1.889   4.929
 8570SOL    HW226610   1.157   1.729   4.911
 8571SOL     OW26611   0.863   6.756   5.026
 8571SOL    HW126612   0.954   6.781   5.059
 8571SOL    HW226613   0.800   6.832   5.041
 8572SOL     OW26614   1.565   4.332   5.011
 8572SOL    HW126615   1.530   4.269   5.080
 8572SOL    HW226616   1.661   4.354   5.033
 8573SOL     OW26617   2.807   5.864   6.324
 8573SOL    HW126618   2.904   5.885   6.312
 8573SOL    HW226619   2.796   5.795   6.396
 8574SOL     OW26620   6.204   6.779   5.857
 8574SOL    HW126621   6.221   6.704   5.921
 8574SOL    HW226622   6.129   6.754   5.796
 8575SOL     OW26623   3.371   1.725   3.462
 8575SOL    HW126624   3.397   1.667   3.539
 8575SOL    HW226625   3.378   1.821   3.490
 8576SOL     OW26626   1.771   4.960   3.938
 8576SOL    HW126627   1.815   5.004   3.860
 8576SOL    HW226628   1.742   4.868   3.912
 8577SOL     OW26629   1.729   0.594   6.183
 8577SOL    HW126630   1.742   0.517   6.121
 8577SOL    HW226631   1.675   0.665   6.137
 8578SOL     OW26632   6.728   4.669   5.886
 8578SOL    HW126633   6.717   4.592   5.949
 8578SOL    HW226634   6.741   4.634   5.793
 8579SOL     OW26635   1.225   5.918   2.162
 8579SOL    HW126636   1.218   5.974   2.245
 8579SOL    HW226637   1.174   5.962   2.088
 8580SOL     OW26638   2.273   5.889   0.565
 8580SOL    HW126639   2.314   5.947   0.495
 8580SOL    HW226640   2.238   5.946   0.639
 8581SOL     OW26641   3.689   4.728   1.474
 8581SOL    HW126642   3.643   4.661   1.417
 8581SOL    HW226643   3.630   4.808   1.487
 8582SOL     OW26644   4.609   4.604   5.626
 8582SOL    HW126645   4.631   4.603   5.723
 8582SOL    HW226646   4.647   4.523   5.581
 8583SOL     OW26647   2.923   6.723   2.899
 8583SOL    HW126648   2.896   6.657   2.969
 8583SOL    HW226649   2.996   6.781   2.935
 8584SOL     OW26650   0.842   6.428   5.574
 8584SOL    HW126651   0.795   6.423   5.486
 8584SOL    HW226652   0.800   6.499   5.630
 8585SOL     OW26653   6.298   1.380   0.832
 8585SOL    HW126654   6.258   1.436   0.904
 8585SOL    HW226655   6.321   1.290   0.868
 8586SOL     OW26656   3.977   6.834   1.201
 8586SOL    HW126657   3.895   6.782   1.225
 8586SOL    HW226658   3.974   6.857   1.104
 8587SOL     OW26659   0.707   1.226   4.989
 8587SOL    HW126660   0.706   1.230   4.889
 8587SOL    HW226661   0.706   1.318   5.026
 8588SOL     OW26662   4.831   1.169   6.824
 8588SOL    HW126663   4.757   1.111   6.790
 8588SOL    HW226664   4.801   1.217   6.906
 8589SOL     OW26665   6.553   2.588   5.130
 8589SOL    HW126666   6.535   2.526   5.206
 8589SOL    HW226667   6.610   2.663   5.161
 8590SOL     OW26668   1.081   1.245   2.619
 8590SOL    HW126669   1.156   1.229   2.555
 8590SOL    HW226670   1.017   1.168   2.616
 8591SOL     OW26671   0.283   4.061   0.483
 8591SOL    HW126672   0.360   4.070   0.420
 8591SOL    HW226673   0.256   3.965   0.489
 8592SOL     OW26674   6.094   2.499   0.119
 8592SOL    HW126675   6.120   2.460   0.031
 8592SOL    HW226676   6.001   2.470   0.143
 8593SOL     OW26677   2.864   1.197   6.485
 8593SOL    HW126678   2.798   1.179   6.557
 8593SOL    HW226679   2.956   1.201   6.524
 8594SOL     OW26680   6.025   2.115   5.927
 8594SOL    HW126681   5.977   2.195   5.962
 8594SOL    HW226682   6.082   2.141   5.849
 8595SOL     OW26683   5.946   0.852   4.083
 8595SOL    HW126684   5.908   0.876   3.993
 8595SOL    HW226685   6.030   0.800   4.071
 8596SOL     OW26686   1.516   4.768   3.143
 8596SOL    HW126687   1.501   4.851   3.196
 8596SOL    HW226688   1.505   4.688   3.202
 8597SOL     OW26689   5.134   1.772   1.552
 8597SOL    HW126690   5.135   1.710   1.630
 8597SOL    HW226691   5.223   1.817   1.544
 8598SOL     OW26692   5.798   0.155   5.941
 8598SOL    HW126693   5.771   0.068   5.983
 8598SOL    HW226694   5.746   0.170   5.858
 8599SOL     OW26695   1.419   2.753   4.910
 8599SOL    HW126696   1.472   2.809   4.974
 8599SOL    HW226697   1.434   2.786   4.816
 8600SOL     OW26698   5.283   3.559   0.175
 8600SOL    HW126699   5.362   3.533   0.120
 8600SOL    HW226700   5.274   3.659   0.174
 8601SOL     OW26701   0.435   1.633   3.703
 8601SOL    HW126702   0.440   1.678   3.792
 8601SOL    HW226703   0.389   1.545   3.713
 8602SOL     OW26704   2.527   6.894   2.204
 8602SOL    HW126705   2.535   6.904   2.105
 8602SOL    HW226706   2.618   6.881   2.244
 8603SOL     OW26707   5.141   6.962   0.507
 8603SOL    HW126708   5.162   0.015   0.443
 8603SOL    HW226709   5.082   6.996   0.580
 8604SOL     OW26710   1.168   2.200   6.210
 8604SOL    HW126711   1.073   2.232   6.215
 8604SOL    HW226712   1.229   2.273   6.242
 8605SOL     OW26713   1.550   5.429   3.600
 8605SOL    HW126714   1.459   5.389   3.606
 8605SOL    HW226715   1.546   5.511   3.544
 8606SOL     OW26716   2.150   2.602   0.150
 8606SOL    HW126717   2.221   2.659   0.192
 8606SOL    HW226718   2.156   2.609   0.051
 8607SOL     OW26719   2.296   4.933   6.003
 8607SOL    HW126720   2.353   4.901   6.079
 8607SOL    HW226721   2.205   4.892   6.012
 8608SOL     OW26722   2.099   4.490   2.384
 8608SOL    HW126723   2.016   4.506   2.438
 8608SOL    HW226724   2.150   4.576   2.375
 8609SOL     OW26725   4.833   0.327   3.694
 8609SOL    HW126726   4.873   0.238   3.716
 8609SOL    HW226727   4.905   0.395   3.685
 8610SOL     OW26728   0.159   0.783   3.040
 8610SOL    HW126729   0.240   0.786   2.981
 8610SOL    HW226730   0.180   0.728   3.121
 8611SOL     OW26731   3.187   1.426   4.144
 8611SOL    HW126732   3.233   1.361   4.204
 8611SOL    HW226733   3.091   1.400   4.133
 8612SOL     OW26734   2.496   3.421   1.300
 8612SOL    HW126735   2.433   3.363   1.351
 8612SOL    HW226736   2.551   3.365   1.239
 8613SOL     OW26737   2.885   2.001   1.375
 8613SOL    HW126738   2.942   1.989   1.294
 8613SOL    HW226739   2.908   2.088   1.419
 8614SOL     OW26740   0.896   2.658   3.112
 8614SOL    HW126741   0.812   2.698   3.076
 8614SOL    HW226742   0.925   2.709   3.193
 8615SOL     OW26743   4.773   2.319   5.233
 8615SOL    HW126744   4.816   2.230   5.217
 8615SOL    HW226745   4.805   2.357   5.319
 8616SOL     OW26746   2.965   4.769   1.785
 8616SOL    HW126747   2.890   4.835   1.778
 8616SOL    HW226748   2.936   4.692   1.842
 8617SOL     OW26749   5.958   0.933   4.371
 8617SOL    HW126750   6.041   0.983   4.349
 8617SOL    HW226751   5.934   0.873   4.295
 8618SOL     OW26752   6.232   4.341   1.706
 8618SOL    HW126753   6.330   4.358   1.696
 8618SOL    HW226754   6.216   4.279   1.782
 8619SOL     OW26755   3.901   5.458   2.736
 8619SOL    HW126756   3.855   5.542   2.764
 8619SOL    HW226757   3.965   5.429   2.808
 8620SOL     OW26758   2.232   6.243   3.982
 8620SOL    HW126759   2.137   6.236   3.949
 8620SOL    HW226760   2.290   6.182   3.927
 8621SOL     OW26761   5.020   2.886   2.217
 8621SOL    HW126762   4.982   2.847   2.133
 8621SOL    HW226763   4.968   2.966   2.243
 8622SOL     OW26764   5.059   4.348   1.161
 8622SOL    HW126765   5.153   4.314   1.157
 8622SOL    HW226766   5.049   4.409   1.240
 8623SOL     OW26767   0.746   4.293   5.459
 8623SOL    HW126768   0.803   4.218   5.426
 8623SOL    HW226769   0.737   4.361   5.386
 8624SOL     OW26770   2.323   4.042   5.509
 8624SOL    HW126771   2.321   3.942   5.514
 8624SOL    HW226772   2.302   4.070   5.415
 8625SOL     OW26773   4.933   0.800   5.338
 8625SOL    HW126774   4.857   0.757   5.387
 8625SOL    HW226775   5.002   0.830   5.404
 8626SOL     OW26776   4.270   2.760   6.780
 8626SOL    HW126777   4.315   2.733   6.866
 8626SOL    HW226778   4.200   2.692   6.756
 8627SOL     OW26779   2.117   1.856   2.272
 8627SOL    HW126780   2.153   1.861   2.365
 8627SOL    HW226781   2.122   1.947   2.229
 8628SOL     OW26782   5.806   6.784   0.160
 8628SOL    HW126783   5.755   6.852   0.108
 8628SOL    HW226784   5.792   6.799   0.258
 8629SOL     OW26785   1.883   6.618   5.271
 8629SOL    HW126786   1.918   6.524   5.265
 8629SOL    HW226787   1.940   6.671   5.333
 8630SOL     OW26788   4.931   3.365   4.057
 8630SOL    HW126789   4.883   3.419   3.988
 8630SOL    HW226790   4.951   3.274   4.021
 8631SOL     OW26791   1.501   5.750   6.356
 8631SOL    HW126792   1.596   5.769   6.381
 8631SOL    HW226793   1.496   5.725   6.259
 8632SOL     OW26794   4.039   4.825   5.071
 8632SOL    HW126795   4.122   4.846   5.123
 8632SOL    HW226796   3.966   4.799   5.134
 8633SOL     OW26797   5.657   2.744   5.821
 8633SOL    HW126798   5.650   2.739   5.721
 8633SOL    HW226799   5.700   2.831   5.846
 8634SOL     OW26800   4.827   3.768   6.406
 8634SOL    HW126801   4.789   3.815   6.486
 8634SOL    HW226802   4.772   3.687   6.386
 8635SOL     OW26803   5.816   2.716   6.692
 8635SOL    HW126804   5.839   2.629   6.649
 8635SOL    HW226805   5.830   2.710   6.791
 8636SOL     OW26806   5.249   6.180   1.159
 8636SOL    HW126807   5.273   6.086   1.137
 8636SOL    HW226808   5.248   6.192   1.258
 8637SOL     OW26809   1.908   1.731   6.755
 8637SOL    HW126810   1.822   1.720   6.804
 8637SOL    HW226811   1.980   1.760   6.819
 8638SOL     OW26812   4.117   2.266   5.303
 8638SOL    HW126813   4.216   2.272   5.318
 8638SOL    HW226814   4.095   2.180   5.259
 8639SOL     OW26815   4.748   2.995   6.538
 8639SOL    HW126816   4.656   3.029   6.554
 8639SOL    HW226817   4.805   3.069   6.503
 8640SOL     OW26818   3.909   3.538   0.320
 8640SOL    HW126819   3.903   3.476   0.399
 8640SOL    HW226820   3.853   3.619   0.338
 8641SOL     OW26821   4.331   4.802   4.166
 8641SOL    HW126822   4.320   4.774   4.070
 8641SOL    HW226823   4.243   4.834   4.202
 8642SOL     OW26824   1.177   6.564   3.814
 8642SOL    HW126825   1.144   6.470   3.808
 8642SOL    HW226826   1.243   6.581   3.741
 8643SOL     OW26827   1.562   0.521   0.146
 8643SOL    HW126828   1.469   0.513   0.110
 8643SOL    HW226829   1.602   0.430   0.154
 8644SOL     OW26830   5.249   2.572   5.694
 8644SOL    HW126831   5.216   2.657   5.652
 8644SOL    HW226832   5.245   2.581   5.793
 8645SOL     OW26833   4.584   5.019   2.091
 8645SOL    HW126834   4.594   5.055   1.998
 8645SOL    HW226835   4.562   4.921   2.086
 8646SOL     OW26836   0.129   1.629   6.952
 8646SOL    HW126837   0.155   1.706   6.894
 8646SOL    HW226838   0.088   1.557   6.895
 8647SOL     OW26839   2.596   4.802   0.053
 8647SOL    HW126840   2.586   4.853   0.139
 8647SOL    HW226841   2.681   4.750   0.055
 8648SOL     OW26842   6.566   0.329   1.940
 8648SOL    HW126843   6.502   0.268   1.894
 8648SOL    HW226844   6.517   0.409   1.974
 8649SOL     OW26845   5.753   5.623   0.306
 8649SOL    HW126846   5.801   5.710   0.312
 8649SOL    HW226847   5.684   5.617   0.378
 8650SOL     OW26848   1.840   6.686   5.014
 8650SOL    HW126849   1.862   6.653   5.107
 8650SOL    HW226850   1.748   6.657   4.989
 8651SOL     OW26851   3.827   1.519   0.899
 8651SOL    HW126852   3.896   1.446   0.899
 8651SOL    HW226853   3.774   1.515   0.984
 8652SOL     OW26854   0.811   4.880   3.149
 8652SOL    HW126855   0.886   4.823   3.117
 8652SOL    HW226856   0.724   4.840   3.120
 8653SOL     OW26857   6.527   1.315   5.983
 8653SOL    HW126858   6.543   1.386   5.915
 8653SOL    HW226859   6.520   1.226   5.938
 8654SOL     OW26860   0.386   4.860   1.591
 8654SOL    HW126861   0.308   4.923   1.592
 8654SOL    HW226862   0.456   4.895   1.529
 8655SOL     OW26863   5.890   0.026   4.516
 8655SOL    HW126864   5.907   0.122   4.495
 8655SOL    HW226865   5.930   0.003   4.605
 8656SOL     OW26866   6.529   1.300   2.172
 8656SOL    HW126867   6.467   1.377   2.157
 8656SOL    HW226868   6.518   1.266   2.266
 8657SOL     OW26869   5.800   5.886   0.356
 8657SOL    HW126870   5.873   5.955   0.350
 8657SOL    HW226871   5.760   5.888   0.448
 8658SOL     OW26872   6.530   5.621   0.258
 8658SOL    HW126873   6.570   5.575   0.338
 8658SOL    HW226874   6.442   5.661   0.283
 8659SOL     OW26875   5.269   2.209   2.528
 8659SOL    HW126876   5.210   2.273   2.479
 8659SOL    HW226877   5.285   2.128   2.471
 8660SOL     OW26878   6.473   3.647   2.083
 8660SOL    HW126879   6.376   3.641   2.107
 8660SOL    HW226880   6.512   3.555   2.080
 8661SOL     OW26881   6.116   3.833   1.858
 8661SOL    HW126882   6.051   3.759   1.843
 8661SOL    HW226883   6.133   3.881   1.772
 8662SOL     OW26884   3.891   5.977   1.936
 8662SOL    HW126885   3.989   5.967   1.951
 8662SOL    HW226886   3.874   6.051   1.870
 8663SOL     OW26887   2.464   5.680   2.632
 8663SOL    HW126888   2.491   5.623   2.710
 8663SOL    HW226889   2.488   5.633   2.547
 8664SOL     OW26890   2.296   4.986   1.989
 8664SOL    HW126891   2.342   4.989   1.901
 8664SOL    HW226892   2.215   4.927   1.983
 8665SOL     OW26893   6.345   5.399   4.693
 8665SOL    HW126894   6.403   5.419   4.772
 8665SOL    HW226895   6.362   5.467   4.622
 8666SOL     OW26896   5.576   0.499   3.876
 8666SOL    HW126897   5.561   0.510   3.778
 8666SOL    HW226898   5.493   0.524   3.926
 8667SOL     OW26899   5.126   1.746   3.737
 8667SOL    HW126900   5.040   1.794   3.754
 8667SOL    HW226901   5.181   1.746   3.820
 8668SOL     OW26902   5.211   3.737   4.226
 8668SOL    HW126903   5.237   3.663   4.288
 8668SOL    HW226904   5.149   3.800   4.273
 8669SOL     OW26905   0.322   6.225   6.571
 8669SOL    HW126906   0.314   6.289   6.495
 8669SOL    HW226907   0.328   6.132   6.535
 8670SOL     OW26908   4.462   5.399   6.207
 8670SOL    HW126909   4.513   5.366   6.287
 8670SOL    HW226910   4.456   5.499   6.210
 8671SOL     OW26911   0.608   1.974   3.031
 8671SOL    HW126912   0.639   1.940   3.120
 8671SOL    HW226913   0.655   2.060   3.010
 8672SOL     OW26914   0.379   6.566   3.517
 8672SOL    HW126915   0.433   6.507   3.577
 8672SOL    HW226916   0.284   6.567   3.548
 8673SOL     OW26917   6.065   2.001   0.813
 8673SOL    HW126918   5.980   1.985   0.863
 8673SOL    HW226919   6.049   1.991   0.715
 8674SOL     OW26920   5.755   5.182   2.840
 8674SOL    HW126921   5.826   5.111   2.831
 8674SOL    HW226922   5.725   5.210   2.749
 8675SOL     OW26923   4.572   1.534   4.918
 8675SOL    HW126924   4.560   1.564   5.013
 8675SOL    HW226925   4.663   1.560   4.886
 8676SOL     OW26926   5.382   6.902   2.909
 8676SOL    HW126927   5.316   6.967   2.946
 8676SOL    HW226928   5.385   6.820   2.967
 8677SOL     OW26929   2.160   5.831   5.450
 8677SOL    HW126930   2.122   5.842   5.542
 8677SOL    HW226931   2.256   5.804   5.457
 8678SOL     OW26932   0.914   0.188   0.524
 8678SOL    HW126933   0.903   0.145   0.435
 8678SOL    HW226934   0.942   0.284   0.512
 8679SOL     OW26935   1.363   1.581   3.291
 8679SOL    HW126936   1.378   1.487   3.324
 8679SOL    HW226937   1.335   1.578   3.195
 8680SOL     OW26938   6.101   3.738   0.055
 8680SOL    HW126939   6.049   3.823   0.046
 8680SOL    HW226940   6.104   3.711   0.151
 8681SOL     OW26941   4.853   5.745   1.474
 8681SOL    HW126942   4.754   5.748   1.457
 8681SOL    HW226943   4.875   5.669   1.535
 8682SOL     OW26944   6.523   0.706   2.301
 8682SOL    HW126945   6.543   0.631   2.239
 8682SOL    HW226946   6.432   0.743   2.282
 8683SOL     OW26947   1.610   2.527   5.858
 8683SOL    HW126948   1.651   2.534   5.767
 8683SOL    HW226949   1.571   2.436   5.870
 8684SOL     OW26950   6.335   3.123   4.668
 8684SOL    HW126951   6.307   3.128   4.764
 8684SOL    HW226952   6.255   3.108   4.610
 8685SOL     OW26953   5.853   2.988   6.572
 8685SOL    HW126954   5.897   2.918   6.628
 8685SOL    HW226955   5.810   3.057   6.630
 8686SOL     OW26956   6.676   0.938   1.804
 8686SOL    HW126957   6.774   0.946   1.821
 8686SOL    HW226958   6.650   0.841   1.800
 8687SOL     OW26959   5.210   4.913   2.897
 8687SOL    HW126960   5.282   4.971   2.858
 8687SOL    HW226961   5.135   4.905   2.833
 8688SOL     OW26962   1.425   4.827   6.801
 8688SOL    HW126963   1.365   4.749   6.820
 8688SOL    HW226964   1.520   4.801   6.820
 8689SOL     OW26965   4.366   2.438   0.505
 8689SOL    HW126966   4.274   2.427   0.543
 8689SOL    HW226967   4.402   2.348   0.479
 8690SOL     OW26968   1.161   3.559   3.562
 8690SOL    HW126969   1.099   3.507   3.622
 8690SOL    HW226970   1.249   3.571   3.608
 8691SOL     OW26971   3.838   1.828   5.867
 8691SOL    HW126972   3.840   1.763   5.791
 8691SOL    HW226973   3.812   1.919   5.834
 8692SOL     OW26974   3.737   0.896   4.467
 8692SOL    HW126975   3.639   0.902   4.484
 8692SOL    HW226976   3.781   0.983   4.488
 8693SOL     OW26977   5.861   0.281   6.949
 8693SOL    HW126978   5.824   0.352   7.009
 8693SOL    HW226979   5.855   0.311   6.854
 8694SOL     OW26980   6.037   1.705   5.004
 8694SOL    HW126981   5.994   1.626   5.047
 8694SOL    HW226982   6.047   1.779   5.071
 8695SOL     OW26983   3.625   2.907   6.092
 8695SOL    HW126984   3.564   2.933   6.017
 8695SOL    HW226985   3.699   2.850   6.056
 8696SOL     OW26986   3.086   5.787   5.497
 8696SOL    HW126987   3.137   5.706   5.469
 8696SOL    HW226988   3.078   5.850   5.420
 8697SOL     OW26989   0.419   4.340   6.562
 8697SOL    HW126990   0.431   4.427   6.513
 8697SOL    HW226991   0.330   4.302   6.540
 8698SOL     OW26992   5.002   6.288   5.014
 8698SOL    HW126993   5.069   6.275   5.087
 8698SOL    HW226994   4.911   6.300   5.054
 8699SOL     OW26995   1.963   3.467   5.250
 8699SOL    HW126996   1.946   3.376   5.211
 8699SOL    HW226997   1.901   3.533   5.207
 8700SOL     OW26998   0.538   0.527   4.777
 8700SOL    HW126999   0.625   0.491   4.744
 8700SOL    HW227000   0.555   0.604   4.838
 8701SOL     OW27001   1.664   1.471   0.999
 8701SOL    HW127002   1.616   1.468   0.911
 8701SOL    HW227003   1.762   1.469   0.984
 8702SOL     OW27004   5.148   5.418   1.702
 8702SOL    HW127005   5.229   5.456   1.747
 8702SOL    HW227006   5.172   5.330   1.660
 8703SOL     OW27007   2.975   4.444   0.066
 8703SOL    HW127008   3.051   4.415   0.125
 8703SOL    HW227009   2.894   4.390   0.088
 8704SOL     OW27010   6.635   4.055   3.071
 8704SOL    HW127011   6.692   4.137   3.078
 8704SOL    HW227012   6.554   4.067   3.127
 8705SOL     OW27013   4.691   2.036   6.482
 8705SOL    HW127014   4.709   2.128   6.517
 8705SOL    HW227015   4.778   1.987   6.471
 8706SOL     OW27016   4.964   2.056   0.486
 8706SOL    HW127017   5.008   2.093   0.568
 8706SOL    HW227018   4.920   1.969   0.509
 8707SOL     OW27019   1.345   2.393   4.178
 8707SOL    HW127020   1.293   2.344   4.108
 8707SOL    HW227021   1.416   2.448   4.134
 8708SOL     OW27022   4.326   1.264   3.525
 8708SOL    HW127023   4.262   1.229   3.456
 8708SOL    HW227024   4.280   1.266   3.614
 8709SOL     OW27025   6.607   6.893   6.506
 8709SOL    HW127026   6.693   6.860   6.468
 8709SOL    HW227027   6.621   6.984   6.545
 8710SOL     OW27028   2.559   2.560   3.566
 8710SOL    HW127029   2.499   2.629   3.605
 8710SOL    HW227030   2.526   2.534   3.475
 8711SOL     OW27031   1.950   6.534   3.019
 8711SOL    HW127032   1.884   6.464   2.989
 8711SOL    HW227033   2.034   6.525   2.967
 8712SOL     OW27034   3.538   1.694   4.503
 8712SOL    HW127035   3.599   1.750   4.559
 8712SOL    HW227036   3.593   1.645   4.435
 8713SOL     OW27037   6.769   3.663   2.289
 8713SOL    HW127038   6.704   3.716   2.343
 8713SOL    HW227039   6.748   3.673   2.191
 8714SOL     OW27040   1.557   0.474   6.375
 8714SOL    HW127041   1.500   0.402   6.335
 8714SOL    HW227042   1.624   0.505   6.308
 8715SOL     OW27043   3.689   1.561   0.634
 8715SOL    HW127044   3.770   1.577   0.577
 8715SOL    HW227045   3.717   1.516   0.719
 8716SOL     OW27046   0.176   6.375   0.187
 8716SOL    HW127047   0.252   6.325   0.147
 8716SOL    HW227048   0.193   6.473   0.180
 8717SOL     OW27049   2.458   3.569   5.410
 8717SOL    HW127050   2.412   3.610   5.332
 8717SOL    HW227051   2.504   3.484   5.381
 8718SOL     OW27052   1.396   2.183   5.701
 8718SOL    HW127053   1.391   2.084   5.702
 8718SOL    HW227054   1.446   2.215   5.782
 8719SOL     OW27055   3.519   0.825   0.245
 8719SOL    HW127056   3.609   0.819   0.201
 8719SOL    HW227057   3.448   0.819   0.175
 8720SOL     OW27058   0.697   6.287   6.023
 8720SOL    HW127059   0.660   6.233   5.947
 8720SOL    HW227060   0.797   6.291   6.016
 8721SOL     OW27061   6.496   1.058   0.394
 8721SOL    HW127062   6.468   0.969   0.430
 8721SOL    HW227063   6.475   1.129   0.461
 8722SOL     OW27064   3.082   0.991   0.716
 8722SOL    HW127065   2.996   1.040   0.728
 8722SOL    HW227066   3.159   1.054   0.724
 8723SOL     OW27067   5.498   0.155   2.097
 8723SOL    HW127068   5.513   0.058   2.077
 8723SOL    HW227069   5.523   0.210   2.018
 8724SOL     OW27070   5.945   6.864   4.314
 8724SOL    HW127071   5.897   6.930   4.373
 8724SOL    HW227072   5.923   6.883   4.218
 8725SOL     OW27073   1.288   5.419   5.484
 8725SOL    HW127074   1.361   5.474   5.443
 8725SOL    HW227075   1.327   5.336   5.524
 8726SOL     OW27076   6.886   0.597   1.438
 8726SOL    HW127077   6.853   0.688   1.412
 8726SOL    HW227078   6.929   0.602   1.528
 8727SOL     OW27079   6.042   0.173   0.915
 8727SOL    HW127080   5.997   0.262   0.909
 8727SOL    HW227081   6.022   0.120   0.833
 8728SOL     OW27082   5.448   1.477   2.338
 8728SOL    HW127083   5.387   1.424   2.280
 8728SOL    HW227084   5.394   1.533   2.401
 8729SOL     OW27085   3.464   4.993   5.031
 8729SOL    HW127086   3.435   4.917   4.973
 8729SOL    HW227087   3.514   4.957   5.110
 8730SOL     OW27088   5.113   4.091   3.369
 8730SOL    HW127089   5.054   4.050   3.299
 8730SOL    HW227090   5.175   4.021   3.405
 8731SOL     OW27091   0.792   3.929   2.962
 8731SOL    HW127092   0.845   3.938   3.046
 8731SOL    HW227093   0.831   3.857   2.905
 8732SOL     OW27094   5.300   3.970   2.324
 8732SOL    HW127095   5.239   4.024   2.267
 8732SOL    HW227096   5.304   3.876   2.289
 8733SOL     OW27097   1.309   5.722   0.350
 8733SOL    HW127098   1.385   5.657   0.352
 8733SOL    HW227099   1.234   5.686   0.407
 8734SOL     OW27100   0.165   3.469   3.012
 8734SOL    HW127101   0.253   3.426   3.031
 8734SOL    HW227102   0.136   3.446   2.919
 8735SOL     OW27103   0.850   2.508   5.417
 8735SOL    HW127104   0.792   2.589   5.407
 8735SOL    HW227105   0.940   2.535   5.451
 8736SOL     OW27106   6.736   5.482   2.081
 8736SOL    HW127107   6.736   5.411   2.010
 8736SOL    HW227108   6.699   5.443   2.166
 8737SOL     OW27109   2.487   6.541   6.960
 8737SOL    HW127110   2.413   6.483   6.996
 8737SOL    HW227111   2.472   6.557   6.863
 8738SOL     OW27112   2.460   6.128   3.497
 8738SOL    HW127113   2.440   6.226   3.496
 8738SOL    HW227114   2.536   6.110   3.559
 8739SOL     OW27115   5.205   5.547   5.812
 8739SOL    HW127116   5.130   5.531   5.748
 8739SOL    HW227117   5.263   5.466   5.814
 8740SOL     OW27118   4.429   1.868   3.167
 8740SOL    HW127119   4.525   1.843   3.183
 8740SOL    HW227120   4.421   1.968   3.167
 8741SOL     OW27121   2.436   0.760   2.769
 8741SOL    HW127122   2.415   0.786   2.864
 8741SOL    HW227123   2.528   0.790   2.745
 8742SOL     OW27124   4.355   0.517   1.726
 8742SOL    HW127125   4.317   0.441   1.673
 8742SOL    HW227126   4.451   0.499   1.747
 8743SOL     OW27127   1.664   0.892   1.241
 8743SOL    HW127128   1.712   0.836   1.173
 8743SOL    HW227129   1.729   0.920   1.312
 8744SOL     OW27130   4.338   2.901   0.654
 8744SOL    HW127131   4.253   2.879   0.702
 8744SOL    HW227132   4.321   2.905   0.556
 8745SOL     OW27133   6.644   2.378   6.120
 8745SOL    HW127134   6.576   2.338   6.182
 8745SOL    HW227135   6.731   2.387   6.167
 8746SOL     OW27136   4.829   6.019   4.002
 8746SOL    HW127137   4.866   5.999   4.093
 8746SOL    HW227138   4.742   5.972   3.990
 8747SOL     OW27139   0.524   1.169   2.268
 8747SOL    HW127140   0.427   1.196   2.269
 8747SOL    HW227141   0.564   1.186   2.357
 8748SOL     OW27142   1.218   2.123   4.466
 8748SOL    HW127143   1.250   2.078   4.550
 8748SOL    HW227144   1.269   2.208   4.453
 8749SOL     OW27145   1.544   0.579   5.418
 8749SOL    HW127146   1.589   0.667   5.402
 8749SOL    HW227147   1.600   0.505   5.380
 8750SOL     OW27148   3.343   3.285   5.815
 8750SOL    HW127149   3.425   3.294   5.757
 8750SOL    HW227150   3.347   3.352   5.889
 8751SOL     OW27151   6.795   1.395   2.116
 8751SOL    HW127152   6.701   1.384   2.149
 8751SOL    HW227153   6.817   1.318   2.055
 8752SOL     OW27154   4.633   3.095   6.805
 8752SOL    HW127155   4.534   3.098   6.798
 8752SOL    HW227156   4.660   3.016   6.861
 8753SOL     OW27157   2.923   2.558   6.397
 8753SOL    HW127158   3.019   2.533   6.402
 8753SOL    HW227159   2.899   2.583   6.304
 8754SOL     OW27160   2.243   4.474   5.695
 8754SOL    HW127161   2.211   4.523   5.776
 8754SOL    HW227162   2.165   4.428   5.650
 8755SOL     OW27163   1.894   0.243   1.352
 8755SOL    HW127164   1.935   0.164   1.307
 8755SOL    HW227165   1.872   0.220   1.447
 8756SOL     OW27166   1.351   3.140   3.302
 8756SOL    HW127167   1.448   3.147   3.328
 8756SOL    HW227168   1.326   3.219   3.246
 8757SOL     OW27169   4.881   6.020   6.973
 8757SOL    HW127170   4.884   6.014   0.052
 8757SOL    HW227171   4.894   6.115   6.945
 8758SOL     OW27172   4.494   6.451   2.635
 8758SOL    HW127173   4.400   6.476   2.614
 8758SOL    HW227174   4.496   6.376   2.701
 8759SOL     OW27175   6.071   3.376   0.108
 8759SOL    HW127176   6.159   3.347   0.070
 8759SOL    HW227177   6.086   3.447   0.177
 8760SOL     OW27178   3.202   0.630   4.864
 8760SOL    HW127179   3.232   0.560   4.929
 8760SOL    HW227180   3.102   0.636   4.865
 8761SOL     OW27181   5.873   1.947   1.001
 8761SOL    HW127182   5.787   1.960   1.050
 8761SOL    HW227183   5.949   1.979   1.056
 8762SOL     OW27184   1.004   5.915   4.419
 8762SOL    HW127185   1.082   5.889   4.362
 8762SOL    HW227186   0.925   5.859   4.395
 8763SOL     OW27187   5.983   6.754   5.217
 8763SOL    HW127188   6.079   6.768   5.192
 8763SOL    HW227189   5.978   6.696   5.299
 8764SOL     OW27190   4.487   6.765   5.923
 8764SOL    HW127191   4.579   6.772   5.883
 8764SOL    HW227192   4.487   6.805   6.014
 8765SOL     OW27193   4.892   1.492   4.302
 8765SOL    HW127194   4.859   1.419   4.361
 8765SOL    HW227195   4.916   1.455   4.213
 8766SOL     OW27196   4.005   4.209   5.286
 8766SOL    HW127197   4.075   4.260   5.236
 8766SOL    HW227198   3.916   4.226   5.244
 8767SOL     OW27199   4.923   6.134   2.880
 8767SOL    HW127200   4.890   6.070   2.811
 8767SOL    HW227201   4.876   6.117   2.967
 8768SOL     OW27202   0.982   2.561   0.957
 8768SOL    HW127203   0.884   2.576   0.945
 8768SOL    HW227204   0.998   2.473   1.000
 8769SOL     OW27205   6.870   1.182   1.955
 8769SOL    HW127206   6.852   1.089   1.922
 8769SOL    HW227207   6.951   1.219   1.909
 8770SOL     OW27208   4.874   4.573   2.570
 8770SOL    HW127209   4.861   4.474   2.571
 8770SOL    HW227210   4.972   4.593   2.577
 8771SOL     OW27211   0.490   2.553   6.350
 8771SOL    HW127212   0.538   2.631   6.310
 8771SOL    HW227213   0.521   2.468   6.308
 8772SOL     OW27214   4.919   0.623   6.164
 8772SOL    HW127215   4.977   0.679   6.222
 8772SOL    HW227216   4.962   0.534   6.148
 8773SOL     OW27217   5.192   2.543   3.058
 8773SOL    HW127218   5.128   2.489   3.004
 8773SOL    HW227219   5.216   2.493   3.141
 8774SOL     OW27220   0.665   0.371   6.920
 8774SOL    HW127221   0.574   0.330   6.930
 8774SOL    HW227222   0.656   0.470   6.908
 8775SOL     OW27223   5.266   1.146   5.790
 8775SOL    HW127224   5.193   1.206   5.758
 8775SOL    HW227225   5.334   1.134   5.717
 8776SOL     OW27226   4.843   3.450   1.429
 8776SOL    HW127227   4.897   3.368   1.446
 8776SOL    HW227228   4.899   3.531   1.447
 8777SOL     OW27229   6.521   4.113   3.633
 8777SOL    HW127230   6.448   4.178   3.653
 8777SOL    HW227231   6.584   4.154   3.566
 8778SOL     OW27232   5.240   3.024   5.453
 8778SOL    HW127233   5.324   2.971   5.444
 8778SOL    HW227234   5.241   3.100   5.388
 8779SOL     OW27235   2.096   5.656   2.458
 8779SOL    HW127236   2.005   5.614   2.462
 8779SOL    HW227237   2.138   5.637   2.369
 8780SOL     OW27238   0.133   6.864   2.902
 8780SOL    HW127239   0.035   6.884   2.896
 8780SOL    HW227240   0.186   6.942   2.869
 8781SOL     OW27241   4.769   0.298   3.949
 8781SOL    HW127242   4.823   0.225   3.990
 8781SOL    HW227243   4.799   0.312   3.855
 8782SOL     OW27244   6.238   1.037   1.784
 8782SOL    HW127245   6.244   0.948   1.740
 8782SOL    HW227246   6.322   1.089   1.768
 8783SOL     OW27247   6.480   4.194   3.926
 8783SOL    HW127248   6.537   4.163   3.849
 8783SOL    HW227249   6.384   4.190   3.899
 8784SOL     OW27250   6.465   6.458   6.187
 8784SOL    HW127251   6.414   6.539   6.157
 8784SOL    HW227252   6.457   6.386   6.118
 8785SOL     OW27253   6.776   5.316   6.373
 8785SOL    HW127254   6.702   5.315   6.306
 8785SOL    HW227255   6.863   5.324   6.326
 8786SOL     OW27256   2.948   1.178   1.694
 8786SOL    HW127257   3.019   1.132   1.747
 8786SOL    HW227258   2.990   1.244   1.632
 8787SOL     OW27259   3.697   0.414   2.472
 8787SOL    HW127260   3.624   0.383   2.412
 8787SOL    HW227261   3.659   0.437   2.562
 8788SOL     OW27262   6.796   1.704   5.350
 8788SOL    HW127263   6.824   1.797   5.372
 8788SOL    HW227264   6.861   1.665   5.285
 8789SOL     OW27265   6.287   4.502   5.446
 8789SOL    HW127266   6.225   4.457   5.510
 8789SOL    HW227267   6.250   4.591   5.419
 8790SOL     OW27268   6.377   0.787   6.230
 8790SOL    HW127269   6.473   0.768   6.211
 8790SOL    HW227270   6.325   0.702   6.228
 8791SOL     OW27271   5.076   6.728   4.540
 8791SOL    HW127272   5.029   6.663   4.600
 8791SOL    HW227273   5.142   6.679   4.483
 8792SOL     OW27274   2.913   5.212   2.649
 8792SOL    HW127275   2.815   5.230   2.651
 8792SOL    HW227276   2.942   5.193   2.555
 8793SOL     OW27277   0.959   4.581   3.570
 8793SOL    HW127278   0.954   4.547   3.476
 8793SOL    HW227279   0.907   4.522   3.631
 8794SOL     OW27280   5.467   1.089   3.158
 8794SOL    HW127281   5.434   1.034   3.234
 8794SOL    HW227282   5.507   1.173   3.193
 8795SOL     OW27283   1.330   4.707   4.973
 8795SOL    HW127284   1.286   4.688   5.060
 8795SOL    HW227285   1.305   4.636   4.907
 8796SOL     OW27286   5.916   2.839   2.840
 8796SOL    HW127287   5.990   2.869   2.779
 8796SOL    HW227288   5.907   2.905   2.915
 8797SOL     OW27289   0.196   6.865   5.308
 8797SOL    HW127290   0.280   6.844   5.258
 8797SOL    HW227291   0.117   6.849   5.249
 8798SOL     OW27292   4.436   6.100   6.259
 8798SOL    HW127293   4.375   6.024   6.282
 8798SOL    HW227294   4.528   6.081   6.295
 8799SOL     OW27295   2.521   5.151   2.772
 8799SOL    HW127296   2.570   5.212   2.710
 8799SOL    HW227297   2.584   5.083   2.810
 8800SOL     OW27298   5.647   5.816   6.235
 8800SOL    HW127299   5.704   5.785   6.159
 8800SOL    HW227300   5.555   5.838   6.200
 8801SOL     OW27301   5.999   1.651   4.569
 8801SOL    HW127302   6.071   1.590   4.602
 8801SOL    HW227303   5.944   1.682   4.646
 8802SOL     OW27304   1.994   5.871   5.683
 8802SOL    HW127305   2.010   5.774   5.698
 8802SOL    HW227306   1.952   5.911   5.765
 8803SOL     OW27307   6.897   0.007   6.686
 8803SOL    HW127308   6.889   0.030   6.589
 8803SOL    HW227309   6.975   6.967   6.700
 8804SOL     OW27310   2.399   6.064   1.471
 8804SOL    HW127311   2.419   6.051   1.568
 8804SOL    HW227312   2.350   5.984   1.436
 8805SOL     OW27313   3.724   5.442   3.159
 8805SOL    HW127314   3.735   5.381   3.081
 8805SOL    HW227315   3.808   5.442   3.213
 8806SOL     OW27316   2.201   4.981   1.051
 8806SOL    HW127317   2.215   4.926   1.133
 8806SOL    HW227318   2.133   4.936   0.993
 8807SOL     OW27319   4.344   1.560   0.335
 8807SOL    HW127320   4.409   1.602   0.272
 8807SOL    HW227321   4.291   1.631   0.381
 8808SOL     OW27322   6.618   2.334   5.849
 8808SOL    HW127323   6.698   2.278   5.827
 8808SOL    HW227324   6.619   2.356   5.947
 8809SOL     OW27325   2.453   4.491   3.675
 8809SOL    HW127326   2.396   4.461   3.752
 8809SOL    HW227327   2.465   4.415   3.611
 8810SOL     OW27328   5.788   1.169   5.026
 8810SOL    HW127329   5.780   1.085   4.972
 8810SOL    HW227330   5.742   1.244   4.979
 8811SOL     OW27331   2.940   0.587   2.566
 8811SOL    HW127332   2.950   0.672   2.619
 8811SOL    HW227333   2.951   0.509   2.627
 8812SOL     OW27334   2.603   0.447   0.802
 8812SOL    HW127335   2.678   0.499   0.760
 8812SOL    HW227336   2.555   0.395   0.731
 8813SOL     OW27337   1.911   5.000   3.083
 8813SOL    HW127338   1.951   5.084   3.119
 8813SOL    HW227339   1.823   5.021   3.041
 8814SOL     OW27340   6.295   6.877   0.762
 8814SOL    HW127341   6.279   6.782   0.738
 8814SOL    HW227342   6.226   6.907   0.828
 8815SOL     OW27343   5.595   6.841   0.892
 8815SOL    HW127344   5.649   6.923   0.869
 8815SOL    HW227345   5.615   6.769   0.826
 8816SOL     OW27346   0.788   7.018   6.512
 8816SOL    HW127347   0.844   0.079   6.497
 8816SOL    HW227348   0.720   7.010   6.439
 8817SOL     OW27349   0.251   4.057   3.828
 8817SOL    HW127350   0.292   4.141   3.863
 8817SOL    HW227351   0.323   3.991   3.807
 8818SOL     OW27352   1.014   6.114   3.648
 8818SOL    HW127353   0.963   6.138   3.565
 8818SOL    HW227354   1.021   6.014   3.655
 8819SOL     OW27355   6.456   4.430   6.101
 8819SOL    HW127356   6.417   4.340   6.118
 8819SOL    HW227357   6.532   4.422   6.037
 8820SOL     OW27358   2.810   1.502   4.936
 8820SOL    HW127359   2.885   1.562   4.906
 8820SOL    HW227360   2.829   1.408   4.907
 8821SOL     OW27361   1.142   5.490   0.785
 8821SOL    HW127362   1.200   5.569   0.801
 8821SOL    HW227363   1.074   5.484   0.858
 8822SOL     OW27364   0.546   0.375   3.668
 8822SOL    HW127365   0.540   0.286   3.714
 8822SOL    HW227366   0.570   0.361   3.572
 8823SOL     OW27367   2.235   1.233   2.452
 8823SOL    HW127368   2.152   1.261   2.500
 8823SOL    HW227369   2.279   1.313   2.411
 8824SOL     OW27370   1.727   1.140   0.621
 8824SOL    HW127371   1.804   1.080   0.601
 8824SOL    HW227372   1.643   1.087   0.625
 8825SOL     OW27373   0.755   1.191   1.448
 8825SOL    HW127374   0.700   1.268   1.479
 8825SOL    HW227375   0.760   1.191   1.348
 8826SOL     OW27376   1.136   3.361   0.838
 8826SOL    HW127377   1.121   3.269   0.804
 8826SOL    HW227378   1.223   3.396   0.804
 8827SOL     OW27379   3.658   6.868   3.360
 8827SOL    HW127380   3.712   6.946   3.390
 8827SOL    HW227381   3.698   6.783   3.395
 8828SOL     OW27382   4.149   4.946   6.664
 8828SOL    HW127383   4.198   5.034   6.661
 8828SOL    HW227384   4.120   4.921   6.571
 8829SOL     OW27385   5.585   1.316   1.419
 8829SOL    HW127386   5.559   1.234   1.368
 8829SOL    HW227387   5.566   1.397   1.364
 8830SOL     OW27388   2.331   1.516   2.433
 8830SOL    HW127389   2.363   1.584   2.499
 8830SOL    HW227390   2.361   1.542   2.341
 8831SOL     OW27391   5.999   2.586   2.853
 8831SOL    HW127392   5.960   2.517   2.793
 8831SOL    HW227393   5.944   2.669   2.849
 8832SOL     OW27394   6.845   6.299   4.534
 8832SOL    HW127395   6.913   6.348   4.589
 8832SOL    HW227396   6.819   6.215   4.581
 8833SOL     OW27397   3.761   4.038   6.440
 8833SOL    HW127398   3.699   4.042   6.362
 8833SOL    HW227399   3.825   4.115   6.435
 8834SOL     OW27400   5.588   4.403   4.707
 8834SOL    HW127401   5.598   4.364   4.799
 8834SOL    HW227402   5.575   4.330   4.641
 8835SOL     OW27403   5.758   0.888   6.289
 8835SOL    HW127404   5.714   0.803   6.258
 8835SOL    HW227405   5.719   0.915   6.376
 8836SOL     OW27406   4.713   2.187   1.159
 8836SOL    HW127407   4.652   2.162   1.235
 8836SOL    HW227408   4.773   2.261   1.188
 8837SOL     OW27409   0.226   0.400   2.031
 8837SOL    HW127410   0.286   0.333   1.987
 8837SOL    HW227411   0.274   0.487   2.041
 8838SOL     OW27412   1.721   4.109   2.682
 8838SOL    HW127413   1.746   4.156   2.597
 8838SOL    HW227414   1.710   4.176   2.755
 8839SOL     OW27415   3.667   6.459   1.996
 8839SOL    HW127416   3.636   6.459   1.901
 8839SOL    HW227417   3.691   6.366   2.023
 8840SOL     OW27418   6.660   0.425   2.641
 8840SOL    HW127419   6.587   0.373   2.686
 8840SOL    HW227420   6.703   0.368   2.571
 8841SOL     OW27421   6.112   1.586   3.345
 8841SOL    HW127422   6.024   1.627   3.366
 8841SOL    HW227423   6.178   1.610   3.416
 8842SOL     OW27424   3.220   3.569   3.470
 8842SOL    HW127425   3.197   3.590   3.375
 8842SOL    HW227426   3.279   3.489   3.473
 8843SOL     OW27427   1.515   3.880   4.492
 8843SOL    HW127428   1.611   3.879   4.464
 8843SOL    HW227429   1.493   3.795   4.538
 8844SOL     OW27430   6.703   1.415   4.711
 8844SOL    HW127431   6.690   1.318   4.693
 8844SOL    HW227432   6.619   1.465   4.689
 8845SOL     OW27433   2.491   4.302   0.467
 8845SOL    HW127434   2.487   4.304   0.567
 8845SOL    HW227435   2.405   4.264   0.432
 8846SOL     OW27436   4.383   4.887   3.661
 8846SOL    HW127437   4.405   4.836   3.578
 8846SOL    HW227438   4.462   4.941   3.689
 8847SOL     OW27439   2.063   1.593   3.664
 8847SOL    HW127440   2.002   1.652   3.610
 8847SOL    HW227441   2.099   1.520   3.606
 8848SOL     OW27442   2.668   1.690   2.857
 8848SOL    HW127443   2.764   1.671   2.876
 8848SOL    HW227444   2.661   1.755   2.782
 8849SOL     OW27445   3.320   4.925   3.029
 8849SOL    HW127446   3.221   4.907   3.031
 8849SOL    HW227447   3.347   4.975   3.111
 8850SOL     OW27448   2.936   1.610   0.591
 8850SOL    HW127449   2.979   1.520   0.591
 8850SOL    HW227450   3.001   1.679   0.559
 8851SOL     OW27451   1.030   4.917   2.183
 8851SOL    HW127452   1.125   4.895   2.207
 8851SOL    HW227453   1.029   5.000   2.127
 8852SOL     OW27454   4.367   3.368   5.906
 8852SOL    HW127455   4.417   3.285   5.879
 8852SOL    HW227456   4.429   3.447   5.901
 8853SOL     OW27457   3.172   0.360   5.312
 8853SOL    HW127458   3.196   0.263   5.303
 8853SOL    HW227459   3.213   0.397   5.395
 8854SOL     OW27460   2.527   0.734   6.274
 8854SOL    HW127461   2.478   0.666   6.329
 8854SOL    HW227462   2.625   0.715   6.276
 8855SOL     OW27463   6.768   6.273   0.240
 8855SOL    HW127464   6.830   6.352   0.243
 8855SOL    HW227465   6.687   6.292   0.296
 8856SOL     OW27466   5.671   0.625   6.183
 8856SOL    HW127467   5.711   0.561   6.249
 8856SOL    HW227468   5.575   0.639   6.205
 8857SOL     OW27469   6.427   1.727   3.842
 8857SOL    HW127470   6.333   1.719   3.876
 8857SOL    HW227471   6.438   1.816   3.798
 8858SOL     OW27472   1.344   2.676   6.096
 8858SOL    HW127473   1.419   2.721   6.144
 8858SOL    HW227474   1.355   2.690   5.997
 8859SOL     OW27475   0.100   0.578   4.567
 8859SOL    HW127476   0.186   0.527   4.576
 8859SOL    HW227477   0.078   0.589   4.470
 8860SOL     OW27478   1.781   3.995   3.010
 8860SOL    HW127479   1.878   3.971   3.012
 8860SOL    HW227480   1.727   3.919   3.046
 8861SOL     OW27481   3.579   2.168   6.256
 8861SOL    HW127482   3.616   2.179   6.348
 8861SOL    HW227483   3.611   2.242   6.198
 8862SOL     OW27484   6.218   1.060   3.876
 8862SOL    HW127485   6.302   1.013   3.904
 8862SOL    HW227486   6.194   1.129   3.943
 8863SOL     OW27487   2.021   5.985   4.360
 8863SOL    HW127488   2.025   5.960   4.263
 8863SOL    HW227489   1.925   5.999   4.386
 8864SOL     OW27490   2.115   3.057   6.305
 8864SOL    HW127491   2.019   3.052   6.333
 8864SOL    HW227492   2.174   3.042   6.384
 8865SOL     OW27493   3.294   1.985   5.961
 8865SOL    HW127494   3.269   2.044   6.038
 8865SOL    HW227495   3.211   1.960   5.910
 8866SOL     OW27496   5.629   6.817   4.320
 8866SOL    HW127497   5.575   6.744   4.362
 8866SOL    HW227498   5.602   6.827   4.224
 8867SOL     OW27499   5.152   3.650   3.453
 8867SOL    HW127500   5.061   3.692   3.448
 8867SOL    HW227501   5.142   3.552   3.466
 8868SOL     OW27502   6.133   3.248   0.724
 8868SOL    HW127503   6.054   3.188   0.711
 8868SOL    HW227504   6.207   3.219   0.664
 8869SOL     OW27505   4.726   5.655   3.557
 8869SOL    HW127506   4.630   5.668   3.532
 8869SOL    HW227507   4.732   5.593   3.635
 8870SOL     OW27508   3.890   0.100   0.299
 8870SOL    HW127509   3.840   0.014   0.295
 8870SOL    HW227510   3.845   0.162   0.364
 8871SOL     OW27511   2.152   1.050   4.017
 8871SOL    HW127512   2.207   0.978   3.973
 8871SOL    HW227513   2.061   1.051   3.977
 8872SOL     OW27514   1.375   4.440   4.833
 8872SOL    HW127515   1.399   4.452   4.737
 8872SOL    HW227516   1.458   4.425   4.887
 8873SOL     OW27517   6.889   5.239   1.718
 8873SOL    HW127518   6.796   5.203   1.724
 8873SOL    HW227519   6.935   5.230   1.807
 8874SOL     OW27520   2.609   6.275   1.344
 8874SOL    HW127521   2.690   6.293   1.399
 8874SOL    HW227522   2.527   6.297   1.398
 8875SOL     OW27523   7.012   3.266   4.650
 8875SOL    HW127524   6.988   3.175   4.684
 8875SOL    HW227525   6.940   3.300   4.590
 8876SOL     OW27526   1.939   0.230   4.400
 8876SOL    HW127527   1.863   0.271   4.350
 8876SOL    HW227528   1.931   0.130   4.397
 8877SOL     OW27529   2.282   1.692   4.134
 8877SOL    HW127530   2.285   1.690   4.034
 8877SOL    HW227531   2.354   1.632   4.170
 8878SOL     OW27532   0.471   5.609   0.779
 8878SOL    HW127533   0.469   5.517   0.816
 8878SOL    HW227534   0.430   5.610   0.688
 8879SOL     OW27535   5.356   5.323   1.057
 8879SOL    HW127536   5.304   5.252   1.010
 8879SOL    HW227537   5.440   5.284   1.095
 8880SOL     OW27538   6.284   5.955   4.473
 8880SOL    HW127539   6.309   6.046   4.504
 8880SOL    HW227540   6.194   5.959   4.430
 8881SOL     OW27541   6.165   6.793   4.677
 8881SOL    HW127542   6.237   6.787   4.746
 8881SOL    HW227543   6.205   6.826   4.591
 8882SOL     OW27544   5.082   1.209   0.418
 8882SOL    HW127545   5.141   1.264   0.476
 8882SOL    HW227546   5.068   1.254   0.330
 8883SOL     OW27547   1.457   0.339   5.089
 8883SOL    HW127548   1.541   0.335   5.145
 8883SOL    HW227549   1.481   0.357   4.994
 8884SOL     OW27550   6.248   4.852   6.270
 8884SOL    HW127551   6.283   4.836   6.362
 8884SOL    HW227552   6.322   4.886   6.212
 8885SOL     OW27553   0.510   3.509   0.642
 8885SOL    HW127554   0.548   3.540   0.554
 8885SOL    HW227555   0.585   3.491   0.706
 8886SOL     OW27556   3.674   6.655   5.526
 8886SOL    HW127557   3.671   6.692   5.434
 8886SOL    HW227558   3.745   6.585   5.532
 8887SOL     OW27559   2.995   0.846   1.689
 8887SOL    HW127560   3.051   0.856   1.607
 8887SOL    HW227561   3.037   0.896   1.765
 8888SOL     OW27562   1.469   1.827   1.236
 8888SOL    HW127563   1.473   1.730   1.210
 8888SOL    HW227564   1.510   1.839   1.326
 8889SOL     OW27565   5.835   6.969   5.297
 8889SOL    HW127566   5.744   6.947   5.263
 8889SOL    HW227567   5.888   6.885   5.307
 8890SOL     OW27568   5.636   5.411   4.325
 8890SOL    HW127569   5.629   5.321   4.369
 8890SOL    HW227570   5.720   5.415   4.271
 8891SOL     OW27571   5.285   3.445   5.509
 8891SOL    HW127572   5.307   3.535   5.469
 8891SOL    HW227573   5.300   3.448   5.608
 8892SOL     OW27574   3.628   5.846   2.619
 8892SOL    HW127575   3.689   5.893   2.683
 8892SOL    HW227576   3.612   5.752   2.650
 8893SOL     OW27577   0.820   0.276   2.668
 8893SOL    HW127578   0.885   0.278   2.744
 8893SOL    HW227579   0.856   0.217   2.596
 8894SOL     OW27580   4.260   2.170   5.610
 8894SOL    HW127581   4.276   2.236   5.536
 8894SOL    HW227582   4.319   2.191   5.687
 8895SOL     OW27583   6.199   1.916   1.491
 8895SOL    HW127584   6.149   1.852   1.432
 8895SOL    HW227585   6.273   1.958   1.438
 8896SOL     OW27586   1.711   3.163   5.318
 8896SOL    HW127587   1.653   3.082   5.310
 8896SOL    HW227588   1.691   3.210   5.404
 8897SOL     OW27589   1.862   2.503   3.580
 8897SOL    HW127590   1.843   2.446   3.500
 8897SOL    HW227591   1.885   2.595   3.550
 8898SOL     OW27592   5.938   3.856   4.476
 8898SOL    HW127593   5.863   3.916   4.447
 8898SOL    HW227594   6.026   3.899   4.452
 8899SOL     OW27595   1.973   4.773   0.003
 8899SOL    HW127596   1.954   4.868   6.999
 8899SOL    HW227597   2.066   4.766   0.038
 8900SOL     OW27598   5.538   2.556   2.740
 8900SOL    HW127599   5.485   2.472   2.740
 8900SOL    HW227600   5.631   2.537   2.709
 8901SOL     OW27601   2.325   1.378   4.239
 8901SOL    HW127602   2.267   1.347   4.163
 8901SOL    HW227603   2.268   1.421   4.309
 8902SOL     OW27604   3.353   6.620   6.884
 8902SOL    HW127605   3.304   6.563   6.950
 8902SOL    HW227606   3.447   6.634   6.913
 8903SOL     OW27607   0.473   1.109   4.606
 8903SOL    HW127608   0.538   1.145   4.673
 8903SOL    HW227609   0.455   1.013   4.625
 8904SOL     OW27610   6.091   5.388   3.830
 8904SOL    HW127611   6.073   5.407   3.926
 8904SOL    HW227612   6.155   5.456   3.794
 8905SOL     OW27613   2.088   3.753   4.510
 8905SOL    HW127614   2.135   3.841   4.511
 8905SOL    HW227615   2.089   3.716   4.417
 8906SOL     OW27616   6.797   6.592   6.739
 8906SOL    HW127617   6.851   6.536   6.802
 8906SOL    HW227618   6.728   6.643   6.791
 8907SOL     OW27619   3.319   1.781   4.605
 8907SOL    HW127620   3.359   1.840   4.675
 8907SOL    HW227621   3.391   1.737   4.552
 8908SOL     OW27622   1.276   3.211   6.421
 8908SOL    HW127623   1.365   3.226   6.465
 8908SOL    HW227624   1.287   3.149   6.344
 8909SOL     OW27625   1.425   1.034   5.206
 8909SOL    HW127626   1.388   1.100   5.272
 8909SOL    HW227627   1.408   1.067   5.113
 8910SOL     OW27628   1.251   3.040   6.221
 8910SOL    HW127629   1.154   3.037   6.196
 8910SOL    HW227630   1.307   3.020   6.141
 8911SOL     OW27631   4.464   2.499   4.787
 8911SOL    HW127632   4.389   2.498   4.854
 8911SOL    HW227633   4.445   2.566   4.716
 8912SOL     OW27634   4.515   1.653   0.909
 8912SOL    HW127635   4.608   1.662   0.942
 8912SOL    HW227636   4.486   1.558   0.916
 8913SOL     OW27637   4.785   4.893   0.155
 8913SOL    HW127638   4.689   4.901   0.129
 8913SOL    HW227639   4.838   4.858   0.078
 8914SOL     OW27640   4.249   0.786   5.002
 8914SOL    HW127641   4.331   0.813   5.053
 8914SOL    HW227642   4.213   0.865   4.954
 8915SOL     OW27643   0.801   2.216   3.401
 8915SOL    HW127644   0.715   2.169   3.423
 8915SOL    HW227645   0.833   2.265   3.482
 8916SOL     OW27646   0.267   3.683   1.195
 8916SOL    HW127647   0.351   3.629   1.199
 8916SOL    HW227648   0.197   3.631   1.147
 8917SOL     OW27649   6.100   4.323   6.057
 8917SOL    HW127650   6.191   4.342   6.020
 8917SOL    HW227651   6.095   4.228   6.088
 8918SOL     OW27652   0.406   4.363   1.560
 8918SOL    HW127653   0.442   4.314   1.481
 8918SOL    HW227654   0.383   4.457   1.534
 8919SOL     OW27655   4.278   4.032   1.163
 8919SOL    HW127656   4.371   4.008   1.192
 8919SOL    HW227657   4.213   3.965   1.200
 8920SOL     OW27658   0.781   6.310   6.361
 8920SOL    HW127659   0.877   6.304   6.336
 8920SOL    HW227660   0.726   6.326   6.279
 8921SOL     OW27661   2.445   2.018   2.791
 8921SOL    HW127662   2.414   1.931   2.829
 8921SOL    HW227663   2.511   2.060   2.853
 8922SOL     OW27664   3.307   5.142   1.683
 8922SOL    HW127665   3.257   5.065   1.724
 8922SOL    HW227666   3.271   5.161   1.592
 8923SOL     OW27667   1.434   3.741   5.941
 8923SOL    HW127668   1.458   3.832   5.975
 8923SOL    HW227669   1.363   3.701   6.000
 8924SOL     OW27670   3.415   5.815   5.307
 8924SOL    HW127671   3.507   5.783   5.283
 8924SOL    HW227672   3.359   5.738   5.336
 8925SOL     OW27673   0.539   0.577   2.768
 8925SOL    HW127674   0.479   0.511   2.723
 8925SOL    HW227675   0.617   0.598   2.709
 8926SOL     OW27676   5.799   3.596   6.423
 8926SOL    HW127677   5.802   3.515   6.482
 8926SOL    HW227678   5.771   3.675   6.478
 8927SOL     OW27679   0.969   1.625   4.429
 8927SOL    HW127680   0.931   1.622   4.337
 8927SOL    HW227681   1.032   1.703   4.437
 8928SOL     OW27682   6.614   0.900   5.410
 8928SOL    HW127683   6.668   0.937   5.334
 8928SOL    HW227684   6.531   0.857   5.375
 8929SOL     OW27685   6.858   3.286   3.829
 8929SOL    HW127686   6.787   3.273   3.759
 8929SOL    HW227687   6.913   3.203   3.837
 8930SOL     OW27688   2.268   4.056   3.989
 8930SOL    HW127689   2.247   4.012   3.902
 8930SOL    HW227690   2.235   3.999   4.064
 8931SOL     OW27691   2.910   3.037   1.462
 8931SOL    HW127692   2.958   3.080   1.539
 8931SOL    HW227693   2.964   2.960   1.429
 8932SOL     OW27694   5.368   0.669   0.168
 8932SOL    HW127695   5.281   0.653   0.216
 8932SOL    HW227696   5.350   0.680   0.070
 8933SOL     OW27697   0.708   2.225   6.055
 8933SOL    HW127698   0.772   2.237   6.131
 8933SOL    HW227699   0.713   2.304   5.994
 8934SOL     OW27700   3.408   5.524   3.799
 8934SOL    HW127701   3.370   5.606   3.755
 8934SOL    HW227702   3.360   5.443   3.766
 8935SOL     OW27703   5.523   3.846   1.643
 8935SOL    HW127704   5.621   3.839   1.624
 8935SOL    HW227705   5.491   3.937   1.619
 8936SOL     OW27706   1.135   3.402   1.181
 8936SOL    HW127707   1.159   3.488   1.135
 8936SOL    HW227708   1.072   3.350   1.124
 8937SOL     OW27709   0.683   0.606   4.208
 8937SOL    HW127710   0.695   0.509   4.187
 8937SOL    HW227711   0.657   0.616   4.304
 8938SOL     OW27712   6.662   0.909   0.070
 8938SOL    HW127713   6.655   0.988   0.009
 8938SOL    HW227714   6.758   0.895   0.095
 8939SOL     OW27715   6.411   3.366   4.491
 8939SOL    HW127716   6.337   3.353   4.557
 8939SOL    HW227717   6.386   3.438   4.427
 8940SOL     OW27718   6.066   2.015   1.193
 8940SOL    HW127719   6.021   2.072   1.261
 8940SOL    HW227720   6.129   2.071   1.139
 8941SOL     OW27721   6.447   2.863   2.220
 8941SOL    HW127722   6.357   2.830   2.190
 8941SOL    HW227723   6.511   2.787   2.223
 8942SOL     OW27724   0.755   5.819   4.329
 8942SOL    HW127725   0.777   5.728   4.363
 8942SOL    HW227726   0.737   5.815   4.231
 8943SOL     OW27727   4.002   5.483   0.262
 8943SOL    HW127728   4.033   5.578   0.255
 8943SOL    HW227729   4.024   5.434   0.177
 8944SOL     OW27730   4.946   5.675   4.432
 8944SOL    HW127731   5.024   5.631   4.387
 8944SOL    HW227732   4.916   5.619   4.509
 8945SOL     OW27733   6.994   2.386   4.351
 8945SOL    HW127734   0.017   2.387   4.441
 8945SOL    HW227735   6.899   2.414   4.360
 8946SOL     OW27736   3.802   0.982   4.197
 8946SOL    HW127737   3.791   1.080   4.211
 8946SOL    HW227738   3.743   0.933   4.261
 8947SOL     OW27739   1.970   3.116   5.731
 8947SOL    HW127740   2.067   3.110   5.754
 8947SOL    HW227741   1.919   3.147   5.812
 8948SOL     OW27742   5.613   5.901   3.159
 8948SOL    HW127743   5.600   5.859   3.069
 8948SOL    HW227744   5.649   5.833   3.223
 8949SOL     OW27745   3.981   5.667   0.663
 8949SOL    HW127746   4.076   5.647   0.639
 8949SOL    HW227747   3.921   5.622   0.597
 8950SOL     OW27748   4.368   2.893   1.119
 8950SOL    HW127749   4.403   2.941   1.038
 8950SOL    HW227750   4.270   2.876   1.108
 8951SOL     OW27751   1.942   1.264   4.723
 8951SOL    HW127752   1.984   1.242   4.635
 8951SOL    HW227753   1.880   1.189   4.749
 8952SOL     OW27754   0.682   5.199   3.304
 8952SOL    HW127755   0.680   5.126   3.235
 8952SOL    HW227756   0.774   5.238   3.308
 8953SOL     OW27757   1.484   4.511   0.970
 8953SOL    HW127758   1.399   4.468   0.999
 8953SOL    HW227759   1.533   4.450   0.907
 8954SOL     OW27760   0.440   6.708   4.332
 8954SOL    HW127761   0.533   6.714   4.296
 8954SOL    HW227762   0.417   6.613   4.351
 8955SOL     OW27763   0.287   3.776   2.769
 8955SOL    HW127764   0.309   3.861   2.721
 8955SOL    HW227765   0.217   3.795   2.839
 8956SOL     OW27766   1.323   0.565   5.554
 8956SOL    HW127767   1.314   0.484   5.613
 8956SOL    HW227768   1.413   0.564   5.511
 8957SOL     OW27769   2.136   4.439   1.227
 8957SOL    HW127770   2.078   4.361   1.251
 8957SOL    HW227771   2.232   4.415   1.240
 8958SOL     OW27772   0.844   2.392   5.790
 8958SOL    HW127773   0.907   2.323   5.755
 8958SOL    HW227774   0.882   2.483   5.775
 8959SOL     OW27775   1.723   3.613   2.786
 8959SOL    HW127776   1.737   3.613   2.687
 8959SOL    HW227777   1.630   3.582   2.806
 8960SOL     OW27778   5.799   5.173   4.042
 8960SOL    HW127779   5.824   5.112   3.968
 8960SOL    HW227780   5.715   5.221   4.019
 8961SOL     OW27781   4.387   1.465   3.754
 8961SOL    HW127782   4.311   1.401   3.768
 8961SOL    HW227783   4.359   1.539   3.693
 8962SOL     OW27784   6.711   5.864   1.570
 8962SOL    HW127785   6.657   5.817   1.500
 8962SOL    HW227786   6.809   5.849   1.553
 8963SOL     OW27787   3.628   6.766   5.283
 8963SOL    HW127788   3.579   6.710   5.216
 8963SOL    HW227789   3.689   6.830   5.236
 8964SOL     OW27790   5.611   3.152   2.847
 8964SOL    HW127791   5.548   3.227   2.865
 8964SOL    HW227792   5.698   3.169   2.894
 8965SOL     OW27793   3.267   4.711   0.483
 8965SOL    HW127794   3.356   4.717   0.438
 8965SOL    HW227795   3.261   4.625   0.533
 8966SOL     OW27796   6.778   4.413   0.253
 8966SOL    HW127797   6.696   4.408   0.196
 8966SOL    HW227798   6.768   4.351   0.331
 8967SOL     OW27799   4.192   1.512   2.951
 8967SOL    HW127800   4.189   1.431   2.893
 8967SOL    HW227801   4.265   1.573   2.921
 8968SOL     OW27802   3.068   5.763   2.356
 8968SOL    HW127803   3.092   5.688   2.418
 8968SOL    HW227804   3.152   5.812   2.331
 8969SOL     OW27805   0.114   0.269   3.852
 8969SOL    HW127806   0.181   0.201   3.879
 8969SOL    HW227807   0.105   0.338   3.924
 8970SOL     OW27808   1.104   2.104   6.887
 8970SOL    HW127809   1.192   2.121   6.931
 8970SOL    HW227810   1.030   2.125   6.952
 8971SOL     OW27811   5.463   6.679   1.717
 8971SOL    HW127812   5.415   6.614   1.777
 8971SOL    HW227813   5.397   6.746   1.682
 8972SOL     OW27814   5.311   3.867   0.598
 8972SOL    HW127815   5.361   3.952   0.582
 8972SOL    HW227816   5.374   3.798   0.633
 8973SOL     OW27817   0.333   3.158   2.213
 8973SOL    HW127818   0.286   3.173   2.126
 8973SOL    HW227819   0.276   3.193   2.287
 8974SOL     OW27820   1.882   3.315   4.286
 8974SOL    HW127821   1.833   3.379   4.346
 8974SOL    HW227822   1.836   3.226   4.287
 8975SOL     OW27823   0.827   5.805   6.654
 8975SOL    HW127824   0.871   5.822   6.742
 8975SOL    HW227825   0.765   5.881   6.633
 8976SOL     OW27826   0.002   5.550   0.552
 8976SOL    HW127827   0.062   5.599   0.615
 8976SOL    HW227828   6.933   5.536   0.595
 8977SOL     OW27829   6.621   4.242   6.884
 8977SOL    HW127830   6.540   4.193   6.854
 8977SOL    HW227831   6.681   4.180   6.934
 8978SOL     OW27832   5.452   0.049   4.796
 8978SOL    HW127833   5.502   0.025   4.713
 8978SOL    HW227834   5.359   0.076   4.773
 8979SOL     OW27835   1.705   5.337   5.679
 8979SOL    HW127836   1.681   5.386   5.595
 8979SOL    HW227837   1.669   5.244   5.674
 8980SOL     OW27838   5.459   2.321   5.718
 8980SOL    HW127839   5.377   2.266   5.735
 8980SOL    HW227840   5.509   2.283   5.641
 8981SOL     OW27841   4.997   1.603   5.243
 8981SOL    HW127842   5.090   1.623   5.272
 8981SOL    HW227843   4.974   1.509   5.267
 8982SOL     OW27844   0.269   1.971   1.311
 8982SOL    HW127845   0.352   1.943   1.262
 8982SOL    HW227846   0.273   2.069   1.329
 8983SOL     OW27847   0.636   5.451   1.098
 8983SOL    HW127848   0.575   5.419   1.025
 8983SOL    HW227849   0.585   5.511   1.160
 8984SOL     OW27850   6.461   6.929   4.629
 8984SOL    HW127851   6.435   6.858   4.564
 8984SOL    HW227852   6.413   7.014   4.607
 8985SOL     OW27853   3.040   2.104   1.652
 8985SOL    HW127854   3.072   2.020   1.609
 8985SOL    HW227855   3.079   2.111   1.744
 8986SOL     OW27856   4.686   5.003   2.735
 8986SOL    HW127857   4.699   5.058   2.652
 8986SOL    HW227858   4.728   4.914   2.722
 8987SOL     OW27859   2.911   0.133   1.337
 8987SOL    HW127860   2.955   0.198   1.398
 8987SOL    HW227861   2.812   0.148   1.338
 8988SOL     OW27862   1.947   5.228   0.125
 8988SOL    HW127863   1.908   5.317   0.100
 8988SOL    HW227864   2.009   5.239   0.203
 8989SOL     OW27865   4.895   3.323   2.534
 8989SOL    HW127866   4.852   3.293   2.449
 8989SOL    HW227867   4.972   3.262   2.556
 8990SOL     OW27868   2.268   5.806   1.633
 8990SOL    HW127869   2.217   5.814   1.548
 8990SOL    HW227870   2.346   5.746   1.620
 8991SOL     OW27871   2.690   1.431   1.584
 8991SOL    HW127872   2.697   1.372   1.504
 8991SOL    HW227873   2.651   1.519   1.557
 8992SOL     OW27874   7.017   2.760   0.197
 8992SOL    HW127875   0.082   2.810   0.210
 8992SOL    HW227876   6.940   2.815   0.230
 8993SOL     OW27877   4.831   2.518   3.218
 8993SOL    HW127878   4.851   2.595   3.156
 8993SOL    HW227879   4.759   2.462   3.178
 8994SOL     OW27880   1.424   5.877   3.702
 8994SOL    HW127881   1.507   5.822   3.695
 8994SOL    HW227882   1.350   5.820   3.738
 8995SOL     OW27883   1.374   2.407   6.008
 8995SOL    HW127884   1.358   2.326   6.064
 8995SOL    HW227885   1.357   2.489   6.062
 8996SOL     OW27886   0.624   4.319   2.057
 8996SOL    HW127887   0.638   4.418   2.061
 8996SOL    HW227888   0.526   4.299   2.053
 8997SOL     OW27889   4.600   1.002   6.687
 8997SOL    HW127890   4.564   1.092   6.712
 8997SOL    HW227891   4.681   1.014   6.629
 8998SOL     OW27892   0.360   1.804   4.701
 8998SOL    HW127893   0.298   1.804   4.623
 8998SOL    HW227894   0.454   1.796   4.669
 8999SOL     OW27895   4.369   0.448   0.105
 8999SOL    HW127896   4.350   0.378   0.036
 8999SOL    HW227897   4.310   0.433   0.185
 9000SOL     OW27898   2.500   3.763   6.224
 9000SOL    HW127899   2.501   3.831   6.150
 9000SOL    HW227900   2.475   3.674   6.185
 9001SOL     OW27901   1.630   5.032   3.020
 9001SOL    HW127902   1.587   5.048   3.109
 9001SOL    HW227903   1.566   4.985   2.959
 9002SOL     OW27904   0.757   5.337   5.370
 9002SOL    HW127905   0.737   5.400   5.295
 9002SOL    HW227906   0.852   5.306   5.363
 9003SOL     OW27907   5.709   3.119   1.572
 9003SOL    HW127908   5.677   3.207   1.537
 9003SOL    HW227909   5.631   3.057   1.583
 9004SOL     OW27910   4.374   6.558   1.328
 9004SOL    HW127911   4.289   6.569   1.276
 9004SOL    HW227912   4.355   6.506   1.411
 9005SOL     OW27913   6.186   1.546   3.732
 9005SOL    HW127914   6.225   1.583   3.648
 9005SOL    HW227915   6.142   1.458   3.712
 9006SOL     OW27916   1.421   6.107   0.656
 9006SOL    HW127917   1.380   6.197   0.674
 9006SOL    HW227918   1.402   6.081   0.561
 9007SOL     OW27919   3.803   5.702   3.416
 9007SOL    HW127920   3.806   5.799   3.440
 9007SOL    HW227921   3.736   5.688   3.344
 9008SOL     OW27922   6.567   5.207   3.201
 9008SOL    HW127923   6.489   5.256   3.162
 9008SOL    HW227924   6.599   5.256   3.282
 9009SOL     OW27925   3.395   6.518   0.345
 9009SOL    HW127926   3.395   6.418   0.340
 9009SOL    HW227927   3.309   6.553   0.306
 9010SOL     OW27928   1.153   6.679   4.885
 9010SOL    HW127929   1.210   6.719   4.813
 9010SOL    HW227930   1.091   6.748   4.921
 9011SOL     OW27931   3.775   2.065   1.510
 9011SOL    HW127932   3.788   2.074   1.608
 9011SOL    HW227933   3.840   2.124   1.462
 9012SOL     OW27934   3.007   5.313   1.398
 9012SOL    HW127935   2.947   5.392   1.412
 9012SOL    HW227936   3.024   5.301   1.300
 9013SOL     OW27937   5.992   5.733   4.783
 9013SOL    HW127938   6.025   5.827   4.782
 9013SOL    HW227939   6.062   5.672   4.744
 9014SOL     OW27940   1.258   1.396   0.510
 9014SOL    HW127941   1.248   1.325   0.441
 9014SOL    HW227942   1.189   1.467   0.496
 9015SOL     OW27943   6.091   0.349   0.631
 9015SOL    HW127944   6.091   0.395   0.720
 9015SOL    HW227945   5.998   0.345   0.596
 9016SOL     OW27946   6.388   6.333   5.949
 9016SOL    HW127947   6.439   6.342   5.863
 9016SOL    HW227948   6.356   6.239   5.959
 9017SOL     OW27949   5.344   2.381   3.260
 9017SOL    HW127950   5.251   2.347   3.274
 9017SOL    HW227951   5.400   2.310   3.218
 9018SOL     OW27952   4.299   1.541   5.631
 9018SOL    HW127953   4.223   1.488   5.596
 9018SOL    HW227954   4.268   1.599   5.707
 9019SOL     OW27955   1.423   6.584   0.443
 9019SOL    HW127956   1.422   6.667   0.500
 9019SOL    HW227957   1.332   6.569   0.406
 9020SOL     OW27958   1.679   3.332   2.102
 9020SOL    HW127959   1.586   3.366   2.119
 9020SOL    HW227960   1.711   3.369   2.014
 9021SOL     OW27961   6.733   0.187   3.820
 9021SOL    HW127962   6.781   0.266   3.781
 9021SOL    HW227963   6.635   0.196   3.804
 9022SOL     OW27964   2.686   0.621   1.007
 9022SOL    HW127965   2.638   0.568   0.937
 9022SOL    HW227966   2.781   0.592   1.012
 9023SOL     OW27967   3.934   3.248   3.051
 9023SOL    HW127968   3.971   3.277   2.963
 9023SOL    HW227969   3.994   3.280   3.124
 9024SOL     OW27970   1.601   5.906   6.028
 9024SOL    HW127971   1.573   5.811   6.041
 9024SOL    HW227972   1.698   5.909   6.007
 9025SOL     OW27973   6.377   5.841   0.887
 9025SOL    HW127974   6.377   5.908   0.813
 9025SOL    HW227975   6.385   5.888   0.975
 9026SOL     OW27976   4.044   3.118   3.462
 9026SOL    HW127977   4.082   3.177   3.391
 9026SOL    HW227978   4.068   3.154   3.552
 9027SOL     OW27979   3.162   2.170   3.732
 9027SOL    HW127980   3.132   2.092   3.677
 9027SOL    HW227981   3.087   2.201   3.790
 9028SOL     OW27982   2.297   4.403   6.526
 9028SOL    HW127983   2.372   4.370   6.470
 9028SOL    HW227984   2.325   4.485   6.575
 9029SOL     OW27985   3.804   5.524   4.720
 9029SOL    HW127986   3.746   5.474   4.656
 9029SOL    HW227987   3.888   5.472   4.736
 9030SOL     OW27988   1.994   1.273   2.616
 9030SOL    HW127989   2.054   1.210   2.664
 9030SOL    HW227990   1.906   1.279   2.663
 9031SOL     OW27991   4.302   5.628   5.429
 9031SOL    HW127992   4.249   5.547   5.452
 9031SOL    HW227993   4.286   5.654   5.334
 9032SOL     OW27994   4.089   2.341   0.627
 9032SOL    HW127995   4.097   2.304   0.720
 9032SOL    HW227996   4.045   2.430   0.630
 9033SOL     OW27997   1.254   3.682   4.117
 9033SOL    HW127998   1.221   3.736   4.040
 9033SOL    HW227999   1.253   3.738   4.200
 9034SOL     OW28000   2.683   6.368   4.757
 9034SOL    HW128001   2.755   6.381   4.826
 9034SOL    HW228002   2.725   6.340   4.671
 9035SOL     OW28003   0.528   6.406   5.133
 9035SOL    HW128004   0.517   6.479   5.066
 9035SOL    HW228005   0.587   6.334   5.096
 9036SOL     OW28006   1.647   1.979   4.442
 9036SOL    HW128007   1.697   1.974   4.356
 9036SOL    HW228008   1.663   2.067   4.486
 9037SOL     OW28009   1.412   3.836   6.535
 9037SOL    HW128010   1.385   3.747   6.571
 9037SOL    HW228011   1.449   3.824   6.442
 9038SOL     OW28012   5.349   0.327   5.827
 9038SOL    HW128013   5.353   0.318   5.926
 9038SOL    HW228014   5.343   0.423   5.802
 9039SOL     OW28015   1.683   4.597   4.531
 9039SOL    HW128016   1.744   4.670   4.502
 9039SOL    HW228017   1.727   4.508   4.516
 9040SOL     OW28018   2.847   1.951   3.350
 9040SOL    HW128019   2.883   1.974   3.259
 9040SOL    HW228020   2.772   2.013   3.373
 9041SOL     OW28021   0.831   1.819   2.101
 9041SOL    HW128022   0.839   1.877   2.020
 9041SOL    HW228023   0.904   1.842   2.166
 9042SOL     OW28024   3.270   5.735   3.719
 9042SOL    HW128025   3.234   5.824   3.745
 9042SOL    HW228026   3.196   5.678   3.684
 9043SOL     OW28027   2.224   1.259   5.343
 9043SOL    HW128028   2.247   1.352   5.371
 9043SOL    HW228029   2.190   1.260   5.249
 9044SOL     OW28030   6.248   1.480   1.200
 9044SOL    HW128031   6.217   1.562   1.153
 9044SOL    HW228032   6.337   1.498   1.242
 9045SOL     OW28033   3.095   1.757   2.414
 9045SOL    HW128034   3.034   1.745   2.336
 9045SOL    HW228035   3.043   1.796   2.491
 9046SOL     OW28036   3.237   3.813   4.210
 9046SOL    HW128037   3.161   3.845   4.267
 9046SOL    HW228038   3.298   3.757   4.265
 9047SOL     OW28039   1.263   3.550   5.501
 9047SOL    HW128040   1.185   3.578   5.446
 9047SOL    HW228041   1.276   3.613   5.577
 9048SOL     OW28042   6.364   3.134   6.535
 9048SOL    HW128043   6.336   3.070   6.606
 9048SOL    HW228044   6.399   3.218   6.577
 9049SOL     OW28045   4.416   6.554   6.772
 9049SOL    HW128046   4.428   6.644   6.814
 9049SOL    HW228047   4.472   6.487   6.820
 9050SOL     OW28048   1.431   5.370   6.196
 9050SOL    HW128049   1.332   5.362   6.195
 9050SOL    HW228050   1.467   5.337   6.283
 9051SOL     OW28051   4.438   6.335   0.860
 9051SOL    HW128052   4.390   6.298   0.939
 9051SOL    HW228053   4.454   6.433   0.873
 9052SOL     OW28054   2.185   3.948   4.263
 9052SOL    HW128055   2.132   3.864   4.256
 9052SOL    HW228056   2.170   3.990   4.353
 9053SOL     OW28057   2.226   1.968   3.131
 9053SOL    HW128058   2.164   2.045   3.146
 9053SOL    HW228059   2.301   1.972   3.197
 9054SOL     OW28060   1.772   0.375   2.009
 9054SOL    HW128061   1.857   0.413   1.973
 9054SOL    HW228062   1.771   0.384   2.109
 9055SOL     OW28063   0.234   3.793   3.485
 9055SOL    HW128064   0.309   3.736   3.450
 9055SOL    HW228065   0.201   3.755   3.571
 9056SOL     OW28066   5.262   0.187   2.235
 9056SOL    HW128067   5.200   0.256   2.197
 9056SOL    HW228068   5.350   0.192   2.188
 9057SOL     OW28069   6.139   5.276   6.469
 9057SOL    HW128070   6.239   5.279   6.460
 9057SOL    HW228071   6.104   5.200   6.415
 9058SOL     OW28072   2.244   1.574   3.886
 9058SOL    HW128073   2.167   1.580   3.822
 9058SOL    HW228074   2.247   1.481   3.925
 9059SOL     OW28075   0.006   1.028   3.962
 9059SOL    HW128076   6.963   0.958   3.992
 9059SOL    HW228077   0.100   0.994   3.969
 9060SOL     OW28078   0.164   4.255   2.278
 9060SOL    HW128079   0.213   4.239   2.192
 9060SOL    HW228080   0.076   4.297   2.259
 9061SOL     OW28081   4.021   5.743   2.585
 9061SOL    HW128082   3.993   5.698   2.500
 9061SOL    HW228083   3.956   5.720   2.657
 9062SOL     OW28084   1.525   4.861   2.606
 9062SOL    HW128085   1.503   4.765   2.624
 9062SOL    HW228086   1.540   4.874   2.508
 9063SOL     OW28087   2.543   0.502   2.635
 9063SOL    HW128088   2.519   0.574   2.700
 9063SOL    HW228089   2.505   0.526   2.545
 9064SOL     OW28090   6.432   4.205   4.441
 9064SOL    HW128091   6.502   4.200   4.512
 9064SOL    HW228092   6.475   4.224   4.353
 9065SOL     OW28093   3.147   5.386   6.522
 9065SOL    HW128094   3.167   5.330   6.603
 9065SOL    HW228095   3.232   5.422   6.484
 9066SOL     OW28096   5.369   0.294   6.780
 9066SOL    HW128097   5.374   0.194   6.790
 9066SOL    HW228098   5.335   0.335   6.864
 9067SOL     OW28099   5.776   6.322   5.495
 9067SOL    HW128100   5.808   6.394   5.433
 9067SOL    HW228101   5.838   6.244   5.488
 9068SOL     OW28102   3.324   0.921   5.057
 9068SOL    HW128103   3.412   0.967   5.066
 9068SOL    HW228104   3.291   0.928   4.963
 9069SOL     OW28105   3.464   2.086   2.099
 9069SOL    HW128106   3.549   2.120   2.058
 9069SOL    HW228107   3.458   1.987   2.086
 9070SOL     OW28108   0.470   3.025   5.687
 9070SOL    HW128109   0.528   2.944   5.686
 9070SOL    HW228110   0.405   3.018   5.764
 9071SOL     OW28111   5.271   6.681   0.897
 9071SOL    HW128112   5.252   6.615   0.824
 9071SOL    HW228113   5.291   6.771   0.857
 9072SOL     OW28114   4.945   0.138   1.789
 9072SOL    HW128115   4.862   0.083   1.784
 9072SOL    HW228116   5.001   0.106   1.866
 9073SOL     OW28117   3.493   6.876   1.162
 9073SOL    HW128118   3.485   6.782   1.128
 9073SOL    HW228119   3.440   6.885   1.247
 9074SOL     OW28120   1.871   0.766   1.065
 9074SOL    HW128121   1.930   0.827   1.012
 9074SOL    HW228122   1.854   0.683   1.012
 9075SOL     OW28123   0.267   0.022   1.300
 9075SOL    HW128124   0.323   6.962   1.318
 9075SOL    HW228125   0.323   0.104   1.309
 9076SOL     OW28126   5.574   1.590   4.974
 9076SOL    HW128127   5.486   1.625   4.941
 9076SOL    HW228128   5.573   1.490   4.969
 9077SOL     OW28129   5.152   1.004   6.936
 9077SOL    HW128130   5.094   0.928   6.907
 9077SOL    HW228131   5.129   1.029   0.009
 9078SOL     OW28132   4.994   3.308   0.353
 9078SOL    HW128133   4.929   3.358   0.409
 9078SOL    HW228134   4.984   3.335   0.258
 9079SOL     OW28135   1.729   6.519   4.321
 9079SOL    HW128136   1.807   6.579   4.302
 9079SOL    HW228137   1.735   6.438   4.263
 9080SOL     OW28138   5.834   2.666   6.974
 9080SOL    HW128139   5.919   2.699   7.016
 9080SOL    HW228140   5.758   2.687   0.014
 9081SOL     OW28141   3.114   0.282   2.293
 9081SOL    HW128142   3.187   0.331   2.340
 9081SOL    HW228143   3.093   0.198   2.342
 9082SOL     OW28144   2.625   6.246   5.535
 9082SOL    HW128145   2.613   6.318   5.602
 9082SOL    HW228146   2.565   6.169   5.557
 9083SOL     OW28147   3.645   4.376   5.677
 9083SOL    HW128148   3.677   4.309   5.610
 9083SOL    HW228149   3.661   4.341   5.769
 9084SOL     OW28150   1.623   2.613   6.152
 9084SOL    HW128151   1.572   2.539   6.108
 9084SOL    HW228152   1.692   2.574   6.213
 9085SOL     OW28153   1.731   5.377   0.965
 9085SOL    HW128154   1.775   5.466   0.977
 9085SOL    HW228155   1.708   5.339   1.054
 9086SOL     OW28156   6.855   4.054   1.587
 9086SOL    HW128157   6.893   4.025   1.675
 9086SOL    HW228158   6.756   4.064   1.594
 9087SOL     OW28159   4.904   3.276   1.966
 9087SOL    HW128160   4.850   3.192   1.974
 9087SOL    HW228161   4.863   3.334   1.896
 9088SOL     OW28162   6.611   6.204   0.585
 9088SOL    HW128163   6.550   6.271   0.541
 9088SOL    HW228164   6.671   6.251   0.649
 9089SOL     OW28165   4.153   5.983   6.054
 9089SOL    HW128166   4.068   5.933   6.036
 9089SOL    HW228167   4.143   6.038   6.137
 9090SOL     OW28168   6.190   0.274   3.723
 9090SOL    HW128169   6.186   0.300   3.627
 9090SOL    HW228170   6.097   0.268   3.760
 9091SOL     OW28171   2.730   3.668   0.540
 9091SOL    HW128172   2.722   3.600   0.614
 9091SOL    HW228173   2.807   3.728   0.559
 9092SOL     OW28174   6.977   1.530   0.229
 9092SOL    HW128175   7.012   1.478   0.151
 9092SOL    HW228176   6.924   1.608   0.196
 9093SOL     OW28177   1.767   6.231   6.251
 9093SOL    HW128178   1.796   6.202   6.342
 9093SOL    HW228179   1.737   6.327   6.254
 9094SOL     OW28180   0.197   5.060   2.977
 9094SOL    HW128181   0.261   4.983   2.974
 9094SOL    HW228182   0.141   5.061   2.895
 9095SOL     OW28183   3.822   3.496   5.858
 9095SOL    HW128184   3.895   3.449   5.908
 9095SOL    HW228185   3.861   3.544   5.779
 9096SOL     OW28186   5.624   4.166   1.895
 9096SOL    HW128187   5.618   4.203   1.988
 9096SOL    HW228188   5.615   4.067   1.898
 9097SOL     OW28189   0.552   2.866   6.580
 9097SOL    HW128190   0.637   2.874   6.528
 9097SOL    HW228191   0.565   2.907   6.670
 9098SOL     OW28192   4.361   2.628   0.010
 9098SOL    HW128193   4.440   2.576   0.044
 9098SOL    HW228194   4.277   2.576   0.025
 9099SOL     OW28195   3.553   3.693   0.179
 9099SOL    HW128196   3.555   3.780   0.228
 9099SOL    HW228197   3.527   3.619   0.242
 9100SOL     OW28198   0.991   3.252   3.152
 9100SOL    HW128199   1.021   3.337   3.195
 9100SOL    HW228200   0.944   3.273   3.066
 9101SOL     OW28201   2.297   2.760   3.217
 9101SOL    HW128202   2.307   2.693   3.290
 9101SOL    HW228203   2.282   2.712   3.130
 9102SOL     OW28204   2.300   0.027   1.805
 9102SOL    HW128205   2.326   0.076   1.721
 9102SOL    HW228206   2.204   0.046   1.826
 9103SOL     OW28207   6.405   3.651   0.415
 9103SOL    HW128208   6.407   3.627   0.318
 9103SOL    HW228209   6.320   3.617   0.456
 9104SOL     OW28210   5.549   6.509   2.801
 9104SOL    HW128211   5.624   6.554   2.850
 9104SOL    HW228212   5.514   6.570   2.730
 9105SOL     OW28213   1.560   1.198   0.821
 9105SOL    HW128214   1.593   1.173   0.911
 9105SOL    HW228215   1.638   1.207   0.758
 9106SOL     OW28216   6.290   4.212   0.559
 9106SOL    HW128217   6.334   4.270   0.490
 9106SOL    HW228218   6.230   4.147   0.514
 9107SOL     OW28219   3.236   0.483   6.073
 9107SOL    HW128220   3.151   0.467   6.022
 9107SOL    HW228221   3.214   0.507   6.167
 9108SOL     OW28222   5.115   4.080   5.755
 9108SOL    HW128223   5.203   4.043   5.782
 9108SOL    HW228224   5.049   4.005   5.743
 9109SOL     OW28225   0.581   2.560   2.723
 9109SOL    HW128226   0.498   2.614   2.709
 9109SOL    HW228227   0.600   2.553   2.820
 9110SOL     OW28228   2.096   4.026   3.737
 9110SOL    HW128229   2.112   3.933   3.705
 9110SOL    HW228230   1.998   4.038   3.755
 9111SOL     OW28231   4.298   2.120   0.620
 9111SOL    HW128232   4.219   2.180   0.614
 9111SOL    HW228233   4.311   2.092   0.715
 9112SOL     OW28234   0.786   4.746   5.038
 9112SOL    HW128235   0.822   4.822   4.983
 9112SOL    HW228236   0.780   4.774   5.134
 9113SOL     OW28237   4.630   0.527   1.754
 9113SOL    HW128238   4.618   0.618   1.714
 9113SOL    HW228239   4.610   0.531   1.852
 9114SOL     OW28240   1.235   4.496   1.743
 9114SOL    HW128241   1.201   4.448   1.662
 9114SOL    HW228242   1.179   4.473   1.822
 9115SOL     OW28243   0.438   5.078   5.313
 9115SOL    HW128244   0.466   5.137   5.388
 9115SOL    HW228245   0.514   5.067   5.249
 9116SOL     OW28246   6.375   1.211   0.613
 9116SOL    HW128247   6.300   1.149   0.635
 9116SOL    HW228248   6.374   1.288   0.677
 9117SOL     OW28249   6.145   2.264   0.724
 9117SOL    HW128250   6.143   2.284   0.626
 9117SOL    HW228251   6.101   2.176   0.741
 9118SOL     OW28252   6.530   4.600   0.340
 9118SOL    HW128253   6.433   4.625   0.341
 9118SOL    HW228254   6.539   4.501   0.336
 9119SOL     OW28255   4.619   0.789   1.671
 9119SOL    HW128256   4.519   0.792   1.669
 9119SOL    HW228257   4.656   0.860   1.611
 9120SOL     OW28258   6.057   1.640   6.228
 9120SOL    HW128259   6.120   1.600   6.294
 9120SOL    HW228260   6.087   1.618   6.135
 9121SOL     OW28261   2.556   2.123   5.196
 9121SOL    HW128262   2.541   2.211   5.241
 9121SOL    HW228263   2.495   2.116   5.117
 9122SOL     OW28264   1.922   4.160   2.418
 9122SOL    HW128265   1.847   4.219   2.388
 9122SOL    HW228266   1.978   4.134   2.338
 9123SOL     OW28267   2.299   0.168   4.208
 9123SOL    HW128268   2.348   0.227   4.144
 9123SOL    HW228269   2.224   0.123   4.160
 9124SOL     OW28270   5.691   6.291   6.870
 9124SOL    HW128271   5.674   6.360   6.800
 9124SOL    HW228272   5.609   6.234   6.881
 9125SOL     OW28273   4.792   4.337   1.168
 9125SOL    HW128274   4.772   4.312   1.263
 9125SOL    HW228275   4.885   4.309   1.145
 9126SOL     OW28276   5.410   3.202   1.737
 9126SOL    HW128277   5.467   3.282   1.724
 9126SOL    HW228278   5.325   3.212   1.687
 9127SOL     OW28279   6.172   1.278   5.855
 9127SOL    HW128280   6.108   1.289   5.932
 9127SOL    HW228281   6.236   1.204   5.876
 9128SOL     OW28282   5.705   1.577   5.585
 9128SOL    HW128283   5.799   1.543   5.595
 9128SOL    HW228284   5.706   1.677   5.589
 9129SOL     OW28285   0.342   2.492   0.414
 9129SOL    HW128286   0.267   2.443   0.369
 9129SOL    HW228287   0.429   2.450   0.389
 9130SOL     OW28288   6.999   3.542   0.024
 9130SOL    HW128289   6.934   3.467   0.014
 9130SOL    HW228290   0.061   3.521   6.992
 9131SOL     OW28291   6.093   2.768   5.225
 9131SOL    HW128292   6.105   2.825   5.307
 9131SOL    HW228293   6.153   2.689   5.231
 9132SOL     OW28294   0.810   5.358   4.308
 9132SOL    HW128295   0.735   5.332   4.369
 9132SOL    HW228296   0.779   5.431   4.246
 9133SOL     OW28297   4.043   5.657   1.864
 9133SOL    HW128298   4.052   5.680   1.960
 9133SOL    HW228299   3.961   5.601   1.851
 9134SOL     OW28300   5.042   5.288   0.710
 9134SOL    HW128301   4.959   5.322   0.754
 9134SOL    HW228302   5.019   5.210   0.651
 9135SOL     OW28303   6.455   6.916   1.766
 9135SOL    HW128304   6.546   6.895   1.730
 9135SOL    HW228305   6.440   6.864   1.850
 9136SOL     OW28306   5.472   5.378   6.777
 9136SOL    HW128307   5.463   5.399   6.680
 9136SOL    HW228308   5.566   5.353   6.797
 9137SOL     OW28309   5.407   1.052   0.991
 9137SOL    HW128310   5.365   1.039   0.902
 9137SOL    HW228311   5.376   0.979   1.053
 9138SOL     OW28312   0.569   5.705   6.101
 9138SOL    HW128313   0.499   5.645   6.063
 9138SOL    HW228314   0.623   5.655   6.170
 9139SOL     OW28315   2.870   1.802   3.768
 9139SOL    HW128316   2.858   1.750   3.853
 9139SOL    HW228317   2.785   1.799   3.715
 9140SOL     OW28318   6.353   3.788   2.831
 9140SOL    HW128319   6.338   3.708   2.773
 9140SOL    HW228320   6.274   3.849   2.825
 9141SOL     OW28321   5.403   0.422   0.526
 9141SOL    HW128322   5.319   0.400   0.575
 9141SOL    HW228323   5.444   0.504   0.564
 9142SOL     OW28324   0.822   2.517   1.222
 9142SOL    HW128325   0.848   2.602   1.268
 9142SOL    HW228326   0.725   2.521   1.199
 9143SOL     OW28327   6.344   3.421   6.599
 9143SOL    HW128328   6.284   3.430   6.679
 9143SOL    HW228329   6.293   3.448   6.517
 9144SOL     OW28330   2.324   5.105   4.973
 9144SOL    HW128331   2.239   5.158   4.981
 9144SOL    HW228332   2.392   5.141   5.037
 9145SOL     OW28333   6.991   5.816   0.154
 9145SOL    HW128334   0.044   5.799   0.088
 9145SOL    HW228335   6.956   5.909   0.141
 9146SOL     OW28336   5.229   2.764   3.225
 9146SOL    HW128337   5.222   2.844   3.165
 9146SOL    HW228338   5.241   2.682   3.169
 9147SOL     OW28339   6.019   0.345   5.173
 9147SOL    HW128340   6.098   0.387   5.217
 9147SOL    HW228341   6.034   0.341   5.074
 9148SOL     OW28342   5.071   5.870   1.173
 9148SOL    HW128343   5.004   5.891   1.244
 9148SOL    HW228344   5.032   5.890   1.083
 9149SOL     OW28345   5.963   3.564   3.420
 9149SOL    HW128346   6.042   3.554   3.360
 9149SOL    HW228347   5.956   3.485   3.480
 9150SOL     OW28348   3.200   5.866   1.592
 9150SOL    HW128349   3.247   5.777   1.595
 9150SOL    HW228350   3.118   5.862   1.649
 9151SOL     OW28351   1.735   4.356   3.438
 9151SOL    HW128352   1.750   4.358   3.339
 9151SOL    HW228353   1.706   4.447   3.468
 9152SOL     OW28354   2.099   4.016   4.561
 9152SOL    HW128355   2.115   4.114   4.565
 9152SOL    HW228356   2.101   3.978   4.653
 9153SOL     OW28357   1.497   3.254   6.549
 9153SOL    HW128358   1.556   3.221   6.623
 9153SOL    HW228359   1.553   3.301   6.481
 9154SOL     OW28360   4.519   5.022   7.000
 9154SOL    HW128361   4.442   4.974   6.958
 9154SOL    HW228362   4.541   5.103   6.944
 9155SOL     OW28363   1.510   3.548   2.175
 9155SOL    HW128364   1.429   3.591   2.136
 9155SOL    HW228365   1.592   3.594   2.139
 9156SOL     OW28366   0.862   2.421   6.964
 9156SOL    HW128367   0.862   2.333   7.011
 9156SOL    HW228368   0.934   2.421   6.894
 9157SOL     OW28369   0.679   4.091   6.194
 9157SOL    HW128370   0.770   4.101   6.235
 9157SOL    HW228371   0.684   4.026   6.117
 9158SOL     OW28372   5.794   3.270   4.472
 9158SOL    HW128373   5.734   3.325   4.414
 9158SOL    HW228374   5.881   3.253   4.425
 9159SOL     OW28375   1.933   0.703   2.272
 9159SOL    HW128376   1.861   0.660   2.326
 9159SOL    HW228377   1.996   0.751   2.333
 9160SOL     OW28378   5.956   6.562   5.416
 9160SOL    HW128379   6.033   6.504   5.388
 9160SOL    HW228380   5.980   6.612   5.499
 9161SOL     OW28381   5.035   4.264   4.079
 9161SOL    HW128382   5.027   4.363   4.062
 9161SOL    HW228383   5.109   4.227   4.024
 9162SOL     OW28384   4.499   1.073   3.924
 9162SOL    HW128385   4.566   1.138   3.960
 9162SOL    HW228386   4.408   1.099   3.954
 9163SOL     OW28387   1.312   2.391   4.886
 9163SOL    HW128388   1.411   2.379   4.880
 9163SOL    HW228389   1.266   2.304   4.868
 9164SOL     OW28390   2.663   6.650   6.479
 9164SOL    HW128391   2.703   6.604   6.558
 9164SOL    HW228392   2.672   6.749   6.490
 9165SOL     OW28393   6.360   1.406   5.389
 9165SOL    HW128394   6.441   1.455   5.355
 9165SOL    HW228395   6.297   1.472   5.429
 9166SOL     OW28396   3.660   6.198   1.576
 9166SOL    HW128397   3.677   6.187   1.478
 9166SOL    HW228398   3.589   6.134   1.606
 9167SOL     OW28399   1.928   2.502   6.237
 9167SOL    HW128400   1.903   2.477   6.330
 9167SOL    HW228401   2.024   2.532   6.236
 9168SOL     OW28402   6.891   6.431   6.124
 9168SOL    HW128403   6.833   6.470   6.196
 9168SOL    HW228404   6.965   6.495   6.103
 9169SOL     OW28405   6.449   6.938   5.688
 9169SOL    HW128406   6.533   6.936   5.741
 9169SOL    HW228407   6.376   6.892   5.739
 9170SOL     OW28408   1.437   6.604   6.691
 9170SOL    HW128409   1.369   6.607   6.764
 9170SOL    HW228410   1.520   6.561   6.726
 9171SOL     OW28411   4.305   5.035   1.017
 9171SOL    HW128412   4.363   5.024   0.937
 9171SOL    HW228413   4.243   4.958   1.025
 9172SOL     OW28414   4.499   1.102   2.485
 9172SOL    HW128415   4.450   1.132   2.567
 9172SOL    HW228416   4.502   1.177   2.420
 9173SOL     OW28417   6.321   3.777   6.019
 9173SOL    HW128418   6.399   3.827   5.981
 9173SOL    HW228419   6.236   3.823   5.992
 9174SOL     OW28420   6.065   4.448   1.527
 9174SOL    HW128421   6.115   4.415   1.447
 9174SOL    HW228422   6.117   4.426   1.610
 9175SOL     OW28423   0.886   6.983   5.775
 9175SOL    HW128424   0.817   0.014   5.826
 9175SOL    HW228425   0.976   6.999   5.816
 9176SOL     OW28426   2.567   0.975   3.397
 9176SOL    HW128427   2.636   1.027   3.447
 9176SOL    HW228428   2.612   0.915   3.330
 9177SOL     OW28429   0.803   4.757   4.218
 9177SOL    HW128430   0.883   4.808   4.187
 9177SOL    HW228431   0.720   4.809   4.199
 9178SOL     OW28432   2.046   5.757   0.682
 9178SOL    HW128433   2.119   5.801   0.629
 9178SOL    HW228434   2.046   5.659   0.662
 9179SOL     OW28435   1.744   4.839   3.603
 9179SOL    HW128436   1.827   4.894   3.600
 9179SOL    HW228437   1.727   4.809   3.697
 9180SOL     OW28438   6.417   2.593   3.533
 9180SOL    HW128439   6.491   2.649   3.571
 9180SOL    HW228440   6.345   2.584   3.602
 9181SOL     OW28441   5.872   2.607   4.617
 9181SOL    HW128442   5.955   2.573   4.572
 9181SOL    HW228443   5.897   2.677   4.684
 9182SOL     OW28444   2.527   6.634   2.653
 9182SOL    HW128445   2.460   6.614   2.582
 9182SOL    HW228446   2.481   6.679   2.730
 9183SOL     OW28447   4.213   4.843   0.572
 9183SOL    HW128448   4.216   4.835   0.472
 9183SOL    HW228449   4.304   4.831   0.610
 9184SOL     OW28450   4.807   2.401   0.740
 9184SOL    HW128451   4.764   2.457   0.811
 9184SOL    HW228452   4.755   2.316   0.729
 9185SOL     OW28453   5.104   6.753   4.943
 9185SOL    HW128454   5.084   6.824   4.876
 9185SOL    HW228455   5.083   6.787   5.035
 9186SOL     OW28456   5.994   6.026   5.011
 9186SOL    HW128457   6.065   6.000   4.946
 9186SOL    HW228458   6.009   6.120   5.042
 9187SOL     OW28459   3.188   1.697   0.509
 9187SOL    HW128460   3.225   1.629   0.445
 9187SOL    HW228461   3.179   1.785   0.462
 9188SOL     OW28462   1.690   0.019   1.002
 9188SOL    HW128463   1.594   7.009   1.004
 9188SOL    HW228464   1.745   6.977   1.058
 9189SOL     OW28465   2.634   6.263   2.083
 9189SOL    HW128466   2.641   6.302   1.991
 9189SOL    HW228467   2.643   6.163   2.078
 9190SOL     OW28468   2.021   4.195   5.001
 9190SOL    HW128469   2.102   4.246   4.973
 9190SOL    HW228470   2.048   4.120   5.062
 9191SOL     OW28471   5.833   1.269   7.021
 9191SOL    HW128472   5.856   1.325   6.941
 9191SOL    HW228473   5.750   1.217   7.001
 9192SOL     OW28474   0.213   2.105   6.039
 9192SOL    HW128475   0.166   2.025   6.003
 9192SOL    HW228476   0.146   2.174   6.065
 9193SOL     OW28477   3.649   3.946   5.059
 9193SOL    HW128478   3.566   3.894   5.078
 9193SOL    HW228479   3.651   3.972   4.963
 9194SOL     OW28480   3.790   1.422   3.039
 9194SOL    HW128481   3.750   1.424   2.948
 9194SOL    HW228482   3.808   1.516   3.070
 9195SOL     OW28483   0.661   2.636   2.293
 9195SOL    HW128484   0.681   2.731   2.321
 9195SOL    HW228485   0.716   2.574   2.348
 9196SOL     OW28486   5.737   0.389   3.356
 9196SOL    HW128487   5.762   0.438   3.273
 9196SOL    HW228488   5.735   0.453   3.433
 9197SOL     OW28489   2.870   5.091   1.284
 9197SOL    HW128490   2.815   5.171   1.261
 9197SOL    HW228491   2.926   5.065   1.205
 9198SOL     OW28492   6.079   4.431   6.612
 9198SOL    HW128493   6.070   4.431   6.513
 9198SOL    HW228494   6.010   4.492   6.651
 9199SOL     OW28495   0.410   3.341   5.323
 9199SOL    HW128496   0.324   3.328   5.275
 9199SOL    HW228497   0.436   3.438   5.319
 9200SOL     OW28498   3.277   6.234   6.885
 9200SOL    HW128499   3.282   6.312   6.947
 9200SOL    HW228500   3.326   6.157   6.926
 9201SOL     OW28501   0.475   3.714   0.133
 9201SOL    HW128502   0.501   3.734   0.227
 9201SOL    HW228503   0.375   3.717   0.124
 9202SOL     OW28504   0.775   6.464   2.809
 9202SOL    HW128505   0.766   6.372   2.770
 9202SOL    HW228506   0.864   6.503   2.783
 9203SOL     OW28507   6.823   3.114   6.198
 9203SOL    HW128508   6.899   3.132   6.135
 9203SOL    HW228509   6.751   3.180   6.182
 9204SOL     OW28510   4.730   3.400   5.375
 9204SOL    HW128511   4.651   3.354   5.416
 9204SOL    HW228512   4.707   3.430   5.283
 9205SOL     OW28513   5.260   6.237   3.259
 9205SOL    HW128514   5.350   6.203   3.233
 9205SOL    HW228515   5.225   6.184   3.336
 9206SOL     OW28516   3.264   4.934   3.487
 9206SOL    HW128517   3.169   4.960   3.473
 9206SOL    HW228518   3.322   4.985   3.423
 9207SOL     OW28519   5.192   4.418   6.486
 9207SOL    HW128520   5.219   4.357   6.561
 9207SOL    HW228521   5.186   4.365   6.401
 9208SOL     OW28522   5.943   4.677   3.660
 9208SOL    HW128523   5.898   4.741   3.721
 9208SOL    HW228524   5.902   4.683   3.569
 9209SOL     OW28525   4.188   0.765   0.450
 9209SOL    HW128526   4.185   0.858   0.487
 9209SOL    HW228527   4.261   0.759   0.382
 9210SOL     OW28528   1.200   1.920   2.029
 9210SOL    HW128529   1.135   1.868   1.974
 9210SOL    HW228530   1.270   1.959   1.970
 9211SOL     OW28531   6.742   3.116   5.820
 9211SOL    HW128532   6.700   3.192   5.871
 9211SOL    HW228533   6.708   3.117   5.726
 9212SOL     OW28534   4.247   5.536   4.475
 9212SOL    HW128535   4.253   5.536   4.574
 9212SOL    HW228536   4.189   5.612   4.445
 9213SOL     OW28537   5.234   4.339   5.436
 9213SOL    HW128538   5.206   4.432   5.411
 9213SOL    HW228539   5.155   4.278   5.431
 9214SOL     OW28540   0.277   3.518   5.622
 9214SOL    HW128541   0.195   3.515   5.565
 9214SOL    HW228542   0.328   3.432   5.612
 9215SOL     OW28543   2.140   3.223   2.089
 9215SOL    HW128544   2.134   3.243   2.187
 9215SOL    HW228545   2.188   3.298   2.042
 9216SOL     OW28546   2.891   0.032   3.073
 9216SOL    HW128547   2.905   0.129   3.095
 9216SOL    HW228548   2.838   7.010   3.146
 9217SOL     OW28549   6.585   3.503   6.754
 9217SOL    HW128550   6.494   3.475   6.724
 9217SOL    HW228551   6.653   3.473   6.688
 9218SOL     OW28552   2.472   0.771   6.781
 9218SOL    HW128553   2.540   0.775   6.855
 9218SOL    HW228554   2.411   0.850   6.789
 9219SOL     OW28555   5.840   3.965   6.865
 9219SOL    HW128556   5.758   3.953   6.921
 9219SOL    HW228557   5.885   4.051   6.889
 9220SOL     OW28558   0.696   5.860   1.516
 9220SOL    HW128559   0.748   5.940   1.485
 9220SOL    HW228560   0.733   5.828   1.603
 9221SOL     OW28561   1.910   0.885   3.062
 9221SOL    HW128562   1.998   0.929   3.081
 9221SOL    HW228563   1.884   0.904   2.967
 9222SOL     OW28564   2.647   5.534   5.778
 9222SOL    HW128565   2.568   5.473   5.775
 9222SOL    HW228566   2.654   5.583   5.691
 9223SOL     OW28567   0.910   1.981   3.718
 9223SOL    HW128568   0.986   1.916   3.725
 9223SOL    HW228569   0.864   1.969   3.630
 9224SOL     OW28570   1.052   5.482   4.265
 9224SOL    HW128571   0.969   5.437   4.302
 9224SOL    HW228572   1.028   5.574   4.234
 9225SOL     OW28573   3.313   5.978   6.363
 9225SOL    HW128574   3.228   5.952   6.316
 9225SOL    HW228575   3.291   6.020   6.451
 9226SOL     OW28576   6.599   6.450   1.112
 9226SOL    HW128577   6.526   6.465   1.178
 9226SOL    HW228578   6.581   6.502   1.029
 9227SOL     OW28579   1.999   6.022   1.271
 9227SOL    HW128580   1.940   6.013   1.190
 9227SOL    HW228581   1.992   6.115   1.307
 9228SOL     OW28582   2.701   1.577   6.061
 9228SOL    HW128583   2.705   1.509   6.135
 9228SOL    HW228584   2.778   1.564   5.999
 9229SOL     OW28585   1.675   5.492   4.838
 9229SOL    HW128586   1.705   5.536   4.923
 9229SOL    HW228587   1.730   5.526   4.762
 9230SOL     OW28588   5.332   2.996   3.578
 9230SOL    HW128589   5.417   3.046   3.596
 9230SOL    HW228590   5.350   2.898   3.574
 9231SOL     OW28591   0.953   2.957   4.366
 9231SOL    HW128592   0.926   3.002   4.451
 9231SOL    HW228593   0.932   3.017   4.289
 9232SOL     OW28594   3.510   5.569   6.903
 9232SOL    HW128595   3.444   5.641   6.878
 9232SOL    HW228596   3.497   5.544   6.999
 9233SOL     OW28597   5.842   5.719   2.038
 9233SOL    HW128598   5.896   5.799   2.066
 9233SOL    HW228599   5.848   5.648   2.108
 9234SOL     OW28600   3.879   5.394   6.598
 9234SOL    HW128601   3.961   5.426   6.646
 9234SOL    HW228602   3.876   5.294   6.598
 9235SOL     OW28603   1.306   3.172   3.678
 9235SOL    HW128604   1.380   3.108   3.696
 9235SOL    HW228605   1.272   3.210   3.764
 9236SOL     OW28606   1.802   4.161   6.047
 9236SOL    HW128607   1.811   4.062   6.053
 9236SOL    HW228608   1.826   4.203   6.135
 9237SOL     OW28609   0.545   6.272   4.196
 9237SOL    HW128610   0.537   6.274   4.096
 9237SOL    HW228611   0.483   6.339   4.236
 9238SOL     OW28612   2.139   1.996   0.040
 9238SOL    HW128613   2.212   2.051   0.081
 9238SOL    HW228614   2.080   1.959   0.113
 9239SOL     OW28615   6.726   3.985   0.229
 9239SOL    HW128616   6.758   3.890   0.227
 9239SOL    HW228617   6.740   4.027   0.140
 9240SOL     OW28618   4.987   2.259   1.940
 9240SOL    HW128619   4.894   2.267   1.904
 9240SOL    HW228620   4.986   2.275   2.039
 9241SOL     OW28621   1.448   5.216   5.568
 9241SOL    HW128622   1.409   5.172   5.649
 9241SOL    HW228623   1.477   5.147   5.502
 9242SOL     OW28624   1.300   5.040   0.136
 9242SOL    HW128625   1.279   5.104   0.209
 9242SOL    HW228626   1.333   4.954   0.175
 9243SOL     OW28627   6.943   6.885   1.562
 9243SOL    HW128628   6.986   6.808   1.608
 9243SOL    HW228629   7.011   6.957   1.546
 9244SOL     OW28630   3.952   5.374   6.323
 9244SOL    HW128631   3.956   5.410   6.416
 9244SOL    HW228632   3.861   5.387   6.285
 9245SOL     OW28633   1.199   5.250   3.537
 9245SOL    HW128634   1.259   5.173   3.554
 9245SOL    HW228635   1.199   5.311   3.617
 9246SOL     OW28636   6.133   5.983   2.500
 9246SOL    HW128637   6.062   5.945   2.441
 9246SOL    HW228638   6.173   6.064   2.457
 9247SOL     OW28639   1.895   6.486   3.710
 9247SOL    HW128640   1.796   6.477   3.719
 9247SOL    HW228641   1.932   6.405   3.665
 9248SOL     OW28642   2.442   2.325   4.775
 9248SOL    HW128643   2.514   2.353   4.839
 9248SOL    HW228644   2.354   2.363   4.804
 9249SOL     OW28645   3.648   3.470   0.915
 9249SOL    HW128646   3.622   3.380   0.950
 9249SOL    HW228647   3.574   3.535   0.930
 9250SOL     OW28648   5.901   2.997   4.170
 9250SOL    HW128649   5.894   2.920   4.233
 9250SOL    HW228650   5.993   3.037   4.177
 9251SOL     OW28651   3.730   1.835   2.810
 9251SOL    HW128652   3.707   1.926   2.844
 9251SOL    HW228653   3.688   1.821   2.721
 9252SOL     OW28654   4.924   0.025   4.003
 9252SOL    HW128655   5.019   0.034   4.031
 9252SOL    HW228656   4.918   0.031   3.903
 9253SOL     OW28657   5.752   6.126   5.816
 9253SOL    HW128658   5.791   6.138   5.908
 9253SOL    HW228659   5.799   6.050   5.770
 9254SOL     OW28660   5.714   4.873   2.781
 9254SOL    HW128661   5.675   4.954   2.738
 9254SOL    HW228662   5.687   4.791   2.731
 9255SOL     OW28663   4.602   4.136   0.232
 9255SOL    HW128664   4.526   4.072   0.237
 9255SOL    HW228665   4.612   4.183   0.319
 9256SOL     OW28666   3.020   0.552   2.897
 9256SOL    HW128667   3.021   0.477   2.831
 9256SOL    HW228668   3.077   0.528   2.976
 9257SOL     OW28669   0.429   4.113   3.261
 9257SOL    HW128670   0.423   4.029   3.207
 9257SOL    HW228671   0.362   4.110   3.335
 9258SOL     OW28672   3.254   3.034   2.446
 9258SOL    HW128673   3.211   2.996   2.364
 9258SOL    HW228674   3.184   3.054   2.514
 9259SOL     OW28675   0.874   2.324   0.288
 9259SOL    HW128676   0.870   2.418   0.254
 9259SOL    HW228677   0.925   2.321   0.373
 9260SOL     OW28678   6.215   1.440   4.919
 9260SOL    HW128679   6.135   1.380   4.920
 9260SOL    HW228680   6.226   1.482   5.009
 9261SOL     OW28681   2.409   1.520   0.603
 9261SOL    HW128682   2.375   1.597   0.550
 9261SOL    HW228683   2.503   1.538   0.633
 9262SOL     OW28684   6.819   4.792   5.316
 9262SOL    HW128685   6.853   4.876   5.274
 9262SOL    HW228686   6.895   4.730   5.333
 9263SOL     OW28687   5.145   6.728   1.145
 9263SOL    HW128688   5.118   6.635   1.171
 9263SOL    HW228689   5.199   6.725   1.061
 9264SOL     OW28690   4.542   4.707   0.336
 9264SOL    HW128691   4.496   4.699   0.424
 9264SOL    HW228692   4.567   4.616   0.303
 9265SOL     OW28693   3.257   1.927   0.813
 9265SOL    HW128694   3.216   2.016   0.831
 9265SOL    HW228695   3.191   1.868   0.768
 9266SOL     OW28696   2.035   7.007   1.292
 9266SOL    HW128697   1.997   6.923   1.254
 9266SOL    HW228698   2.107   0.021   1.231
 9267SOL     OW28699   6.967   2.848   4.368
 9267SOL    HW128700   6.919   2.932   4.395
 9267SOL    HW228701   0.033   2.873   4.324
 9268SOL     OW28702   0.916   5.366   2.699
 9268SOL    HW128703   0.998   5.423   2.700
 9268SOL    HW228704   0.849   5.406   2.636
 9269SOL     OW28705   3.537   1.745   6.723
 9269SOL    HW128706   3.601   1.677   6.690
 9269SOL    HW228707   3.479   1.776   6.647
 9270SOL     OW28708   4.677   6.853   6.332
 9270SOL    HW128709   4.720   6.939   6.305
 9270SOL    HW228710   4.586   6.847   6.289
 9271SOL     OW28711   5.978   0.036   0.702
 9271SOL    HW128712   5.963   0.094   0.622
 9271SOL    HW228713   5.956   6.962   0.678
 9272SOL     OW28714   1.305   6.090   4.816
 9272SOL    HW128715   1.292   6.011   4.756
 9272SOL    HW228716   1.393   6.133   4.795
 9273SOL     OW28717   5.843   6.860   2.879
 9273SOL    HW128718   5.921   6.900   2.927
 9273SOL    HW228719   5.764   6.920   2.890
 9274SOL     OW28720   6.217   2.049   6.822
 9274SOL    HW128721   6.203   1.950   6.827
 9274SOL    HW228722   6.217   2.078   6.727
 9275SOL     OW28723   6.413   0.814   0.518
 9275SOL    HW128724   6.313   0.822   0.523
 9275SOL    HW228725   6.449   0.796   0.610
 9276SOL     OW28726   1.688   3.463   1.859
 9276SOL    HW128727   1.710   3.406   1.780
 9276SOL    HW228728   1.729   3.553   1.848
 9277SOL     OW28729   4.695   3.724   0.360
 9277SOL    HW128730   4.630   3.651   0.384
 9277SOL    HW228731   4.683   3.747   0.263
 9278SOL     OW28732   1.954   0.542   5.699
 9278SOL    HW128733   1.975   0.507   5.791
 9278SOL    HW228734   1.855   0.547   5.687
 9279SOL     OW28735   4.330   1.364   2.304
 9279SOL    HW128736   4.417   1.343   2.259
 9279SOL    HW228737   4.296   1.453   2.271
 9280SOL     OW28738   2.038   2.150   3.258
 9280SOL    HW128739   1.972   2.224   3.259
 9280SOL    HW228740   2.046   2.112   3.351
 9281SOL     OW28741   2.422   3.859   6.943
 9281SOL    HW128742   2.358   3.787   6.914
 9281SOL    HW228743   2.371   3.935   6.982
 9282SOL     OW28744   5.094   1.042   3.618
 9282SOL    HW128745   5.089   1.087   3.707
 9282SOL    HW228746   5.014   0.985   3.605
 9283SOL     OW28747   5.812   0.474   3.992
 9283SOL    HW128748   5.762   0.456   4.076
 9283SOL    HW228749   5.748   0.494   3.918
 9284SOL     OW28750   3.405   3.236   5.172
 9284SOL    HW128751   3.417   3.334   5.192
 9284SOL    HW228752   3.469   3.210   5.099
 9285SOL     OW28753   5.216   2.740   0.822
 9285SOL    HW128754   5.132   2.771   0.867
 9285SOL    HW228755   5.200   2.731   0.724
 9286SOL     OW28756   5.377   5.706   0.766
 9286SOL    HW128757   5.468   5.710   0.810
 9286SOL    HW228758   5.333   5.796   0.774
 9287SOL     OW28759   2.977   4.677   6.907
 9287SOL    HW128760   2.992   4.607   6.976
 9287SOL    HW228761   3.038   4.662   6.829
 9288SOL     OW28762   4.827   1.221   3.297
 9288SOL    HW128763   4.753   1.262   3.351
 9288SOL    HW228764   4.817   1.248   3.201
 9289SOL     OW28765   3.929   1.437   2.132
 9289SOL    HW128766   3.982   1.353   2.120
 9289SOL    HW228767   3.864   1.424   2.207
 9290SOL     OW28768   5.642   1.357   3.197
 9290SOL    HW128769   5.564   1.378   3.256
 9290SOL    HW228770   5.650   1.428   3.127
 9291SOL     OW28771   1.373   6.215   4.120
 9291SOL    HW128772   1.465   6.223   4.158
 9291SOL    HW228773   1.311   6.182   4.192
 9292SOL     OW28774   2.071   2.724   6.637
 9292SOL    HW128775   2.142   2.662   6.604
 9292SOL    HW228776   1.989   2.672   6.660
 9293SOL     OW28777   5.395   3.095   6.585
 9293SOL    HW128778   5.327   3.154   6.629
 9293SOL    HW228779   5.399   3.007   6.634
 9294SOL     OW28780   4.432   0.840   5.708
 9294SOL    HW128781   4.367   0.794   5.647
 9294SOL    HW228782   4.414   0.938   5.708
 9295SOL     OW28783   5.233   1.664   4.992
 9295SOL    HW128784   5.135   1.687   4.991
 9295SOL    HW228785   5.268   1.666   4.898
 9296SOL     OW28786   1.489   5.605   6.751
 9296SOL    HW128787   1.534   5.695   6.749
 9296SOL    HW228788   1.422   5.600   6.677
 9297SOL     OW28789   6.808   0.250   1.859
 9297SOL    HW128790   6.736   0.292   1.914
 9297SOL    HW228791   6.771   0.222   1.770
 9298SOL     OW28792   1.186   6.787   5.973
 9298SOL    HW128793   1.165   6.868   5.919
 9298SOL    HW228794   1.151   6.706   5.926
 9299SOL     OW28795   0.705   2.529   5.147
 9299SOL    HW128796   0.755   2.533   5.234
 9299SOL    HW228797   0.688   2.434   5.123
 9300SOL     OW28798   0.252   4.685   5.848
 9300SOL    HW128799   0.219   4.726   5.932
 9300SOL    HW228800   0.185   4.700   5.775
 9301SOL     OW28801   5.031   5.273   3.920
 9301SOL    HW128802   5.052   5.333   3.998
 9301SOL    HW228803   4.964   5.205   3.948
 9302SOL     OW28804   2.387   2.678   4.303
 9302SOL    HW128805   2.350   2.713   4.217
 9302SOL    HW228806   2.472   2.629   4.286
 9303SOL     OW28807   2.627   4.027   0.636
 9303SOL    HW128808   2.601   4.077   0.719
 9303SOL    HW228809   2.546   4.012   0.579
 9304SOL     OW28810   4.171   5.137   1.751
 9304SOL    HW128811   4.264   5.153   1.718
 9304SOL    HW228812   4.139   5.049   1.717
 9305SOL     OW28813   3.228   1.274   0.960
 9305SOL    HW128814   3.226   1.349   0.894
 9305SOL    HW228815   3.194   1.306   1.049
 9306SOL     OW28816   0.368   5.322   4.934
 9306SOL    HW128817   0.301   5.396   4.931
 9306SOL    HW228818   0.434   5.334   4.860
 9307SOL     OW28819   1.744   3.264   1.656
 9307SOL    HW128820   1.818   3.206   1.622
 9307SOL    HW228821   1.678   3.280   1.583
 9308SOL     OW28822   2.297   3.354   0.566
 9308SOL    HW128823   2.384   3.370   0.520
 9308SOL    HW228824   2.312   3.350   0.665
 9309SOL     OW28825   3.614   4.619   5.784
 9309SOL    HW128826   3.657   4.558   5.717
 9309SOL    HW228827   3.556   4.566   5.846
 9310SOL     OW28828   5.039   5.295   6.904
 9310SOL    HW128829   5.120   5.245   6.933
 9310SOL    HW228830   5.053   5.393   6.916
 9311SOL     OW28831   4.780   4.823   1.967
 9311SOL    HW128832   4.816   4.753   1.905
 9311SOL    HW228833   4.688   4.797   1.995
 9312SOL     OW28834   1.231   3.634   1.064
 9312SOL    HW128835   1.174   3.709   1.030
 9312SOL    HW228836   1.273   3.661   1.151
 9313SOL     OW28837   0.652   0.777   1.020
 9313SOL    HW128838   0.555   0.785   0.995
 9313SOL    HW228839   0.666   0.692   1.071
 9314SOL     OW28840   5.404   4.867   6.891
 9314SOL    HW128841   5.403   4.884   6.792
 9314SOL    HW228842   5.482   4.809   6.914
 9315SOL     OW28843   6.320   6.981   5.151
 9315SOL    HW128844   6.391   6.957   5.218
 9315SOL    HW228845   6.251   0.018   5.195
 9316SOL     OW28846   5.213   6.405   5.781
 9316SOL    HW128847   5.183   6.426   5.688
 9316SOL    HW228848   5.313   6.412   5.785
 9317SOL     OW28849   5.360   4.991   3.566
 9317SOL    HW128850   5.289   5.045   3.610
 9317SOL    HW228851   5.377   5.026   3.474
 9318SOL     OW28852   5.711   0.497   5.828
 9318SOL    HW128853   5.751   0.523   5.915
 9318SOL    HW228854   5.690   0.399   5.829
 9319SOL     OW28855   2.372   2.923   7.010
 9319SOL    HW128856   2.273   2.910   7.009
 9319SOL    HW228857   2.395   3.009   6.966
 9320SOL     OW28858   3.586   0.852   5.330
 9320SOL    HW128859   3.593   0.894   5.420
 9320SOL    HW228860   3.553   0.920   5.264
 9321SOL     OW28861   0.329   0.582   4.365
 9321SOL    HW128862   0.377   0.668   4.348
 9321SOL    HW228863   0.388   0.521   4.417
 9322SOL     OW28864   6.874   3.461   6.683
 9322SOL    HW128865   6.846   3.406   6.604
 9322SOL    HW228866   6.849   3.413   6.767
 9323SOL     OW28867   1.321   0.811   5.647
 9323SOL    HW128868   1.249   0.869   5.608
 9323SOL    HW228869   1.310   0.717   5.614
 9324SOL     OW28870   1.143   4.193   1.157
 9324SOL    HW128871   1.185   4.107   1.186
 9324SOL    HW228872   1.046   4.193   1.182
 9325SOL     OW28873   5.852   0.721   0.064
 9325SOL    HW128874   5.914   0.722   7.006
 9325SOL    HW228875   5.840   0.814   0.099
 9326SOL     OW28876   2.514   5.326   0.610
 9326SOL    HW128877   2.528   5.326   0.511
 9326SOL    HW228878   2.540   5.236   0.646
 9327SOL     OW28879   5.137   0.418   2.906
 9327SOL    HW128880   5.186   0.338   2.939
 9327SOL    HW228881   5.043   0.393   2.883
 9328SOL     OW28882   2.658   1.194   5.032
 9328SOL    HW128883   2.742   1.210   5.084
 9328SOL    HW228884   2.613   1.281   5.014
 9329SOL     OW28885   6.235   3.730   1.277
 9329SOL    HW128886   6.248   3.675   1.195
 9329SOL    HW228887   6.144   3.771   1.276
 9330SOL     OW28888   6.816   0.207   5.597
 9330SOL    HW128889   6.729   0.198   5.548
 9330SOL    HW228890   6.817   0.294   5.646
 9331SOL     OW28891   1.897   0.752   0.383
 9331SOL    HW128892   1.922   0.665   0.425
 9331SOL    HW228893   1.800   0.751   0.359
 9332SOL     OW28894   4.180   4.303   1.101
 9332SOL    HW128895   4.263   4.357   1.113
 9332SOL    HW228896   4.195   4.210   1.134
 9333SOL     OW28897   3.896   4.000   6.955
 9333SOL    HW128898   3.932   3.938   0.003
 9333SOL    HW228899   3.874   3.949   6.871
 9334SOL     OW28900   5.716   6.000   3.487
 9334SOL    HW128901   5.811   5.970   3.489
 9334SOL    HW228902   5.663   5.948   3.555
 9335SOL     OW28903   0.809   1.091   6.724
 9335SOL    HW128904   0.868   1.011   6.727
 9335SOL    HW228905   0.866   1.174   6.723
 9336SOL     OW28906   3.468   5.674   5.948
 9336SOL    HW128907   3.515   5.693   5.862
 9336SOL    HW228908   3.370   5.661   5.931
 9337SOL     OW28909   3.780   1.442   4.620
 9337SOL    HW128910   3.787   1.517   4.554
 9337SOL    HW228911   3.785   1.479   4.713
 9338SOL     OW28912   5.707   6.733   1.628
 9338SOL    HW128913   5.629   6.693   1.677
 9338SOL    HW228914   5.674   6.802   1.564
 9339SOL     OW28915   6.144   6.493   1.199
 9339SOL    HW128916   6.053   6.454   1.213
 9339SOL    HW228917   6.163   6.559   1.271
 9340SOL     OW28918   4.451   4.574   3.798
 9340SOL    HW128919   4.365   4.616   3.826
 9340SOL    HW228920   4.472   4.600   3.704
 9341SOL     OW28921   0.269   5.295   1.061
 9341SOL    HW128922   0.193   5.335   1.010
 9341SOL    HW228923   0.268   5.195   1.049
 9342SOL     OW28924   3.270   6.298   3.609
 9342SOL    HW128925   3.345   6.249   3.654
 9342SOL    HW228926   3.295   6.394   3.598
 9343SOL     OW28927   5.522   4.370   1.739
 9343SOL    HW128928   5.597   4.404   1.682
 9343SOL    HW228929   5.557   4.298   1.799
 9344SOL     OW28930   4.937   6.947   2.848
 9344SOL    HW128931   4.984   6.872   2.893
 9344SOL    HW228932   4.839   6.925   2.839
 9345SOL     OW28933   6.720   5.937   1.850
 9345SOL    HW128934   6.762   5.914   1.762
 9345SOL    HW228935   6.762   5.882   1.922
 9346SOL     OW28936   5.498   1.080   1.298
 9346SOL    HW128937   5.529   1.108   1.207
 9346SOL    HW228938   5.432   1.005   1.289
 9347SOL     OW28939   3.153   3.642   0.273
 9347SOL    HW128940   3.078   3.578   0.259
 9347SOL    HW228941   3.134   3.727   0.223
 9348SOL     OW28942   2.788   6.705   2.647
 9348SOL    HW128943   2.693   6.684   2.669
 9348SOL    HW228944   2.844   6.695   2.729
 9349SOL     OW28945   6.207   5.058   2.881
 9349SOL    HW128946   6.258   4.973   2.865
 9349SOL    HW228947   6.271   5.135   2.879
 9350SOL     OW28948   6.812   2.777   4.965
 9350SOL    HW128949   6.910   2.759   4.978
 9350SOL    HW228950   6.800   2.866   4.922
 9351SOL     OW28951   2.823   6.554   6.718
 9351SOL    HW128952   2.915   6.517   6.701
 9351SOL    HW228953   2.756   6.482   6.706
 9352SOL     OW28954   3.928   1.816   6.155
 9352SOL    HW128955   3.849   1.825   6.094
 9352SOL    HW228956   3.896   1.798   6.248
 9353SOL     OW28957   0.753   4.308   1.018
 9353SOL    HW128958   0.798   4.274   1.101
 9353SOL    HW228959   0.668   4.257   1.003
 9354SOL     OW28960   7.009   1.795   6.290
 9354SOL    HW128961   0.060   1.726   6.276
 9354SOL    HW228962   6.934   1.754   6.342
 9355SOL     OW28963   0.308   2.000   4.386
 9355SOL    HW128964   0.341   2.088   4.351
 9355SOL    HW228965   0.233   2.015   4.450
 9356SOL     OW28966   4.530   6.718   2.292
 9356SOL    HW128967   4.532   6.720   2.392
 9356SOL    HW228968   4.452   6.663   2.261
 9357SOL     OW28969   1.396   3.561   6.524
 9357SOL    HW128970   1.357   3.516   6.444
 9357SOL    HW228971   1.351   3.527   6.606
 9358SOL     OW28972   0.333   2.748   1.947
 9358SOL    HW128973   0.354   2.828   1.892
 9358SOL    HW228974   0.403   2.736   2.017
 9359SOL     OW28975   1.866   3.924   5.269
 9359SOL    HW128976   1.876   3.997   5.336
 9359SOL    HW228977   1.956   3.903   5.230
 9360SOL     OW28978   0.784   4.911   6.806
 9360SOL    HW128979   0.821   4.894   6.897
 9360SOL    HW228980   0.706   4.974   6.813
 9361SOL     OW28981   1.232   5.238   2.749
 9361SOL    HW128982   1.322   5.208   2.717
 9361SOL    HW228983   1.243   5.300   2.827
 9362SOL     OW28984   2.021   2.746   3.008
 9362SOL    HW128985   1.987   2.667   2.957
 9362SOL    HW228986   2.071   2.807   2.945
 9363SOL     OW28987   3.393   6.525   1.393
 9363SOL    HW128988   3.345   6.606   1.362
 9363SOL    HW228989   3.370   6.448   1.333
 9364SOL     OW28990   2.905   3.269   6.482
 9364SOL    HW128991   2.876   3.337   6.415
 9364SOL    HW228992   3.003   3.253   6.472
 9365SOL     OW28993   2.431   1.980   3.884
 9365SOL    HW128994   2.487   1.946   3.959
 9365SOL    HW228995   2.357   1.915   3.865
 9366SOL     OW28996   3.805   5.393   5.882
 9366SOL    HW128997   3.856   5.478   5.885
 9366SOL    HW228998   3.790   5.359   5.975
 9367SOL     OW28999   6.933   6.405   2.698
 9367SOL    HW129000   6.915   6.496   2.736
 9367SOL    HW229001   0.008   6.400   2.668
 9368SOL     OW29002   3.417   0.271   2.984
 9368SOL    HW129003   3.330   0.265   3.032
 9368SOL    HW229004   3.491   0.281   3.051
 9369SOL     OW29005   0.208   6.631   4.167
 9369SOL    HW129006   0.279   6.688   4.210
 9369SOL    HW229007   0.140   6.690   4.124
 9370SOL     OW29008   5.332   0.581   3.941
 9370SOL    HW129009   5.293   0.668   3.912
 9370SOL    HW229010   5.324   0.572   4.040
 9371SOL     OW29011   2.560   4.957   0.291
 9371SOL    HW129012   2.584   4.886   0.357
 9371SOL    HW229013   2.473   4.999   0.318
 9372SOL     OW29014   4.617   0.508   1.464
 9372SOL    HW129015   4.691   0.452   1.427
 9372SOL    HW229016   4.625   0.511   1.564
 9373SOL     OW29017   4.745   2.069   1.744
 9373SOL    HW129018   4.677   2.000   1.770
 9373SOL    HW229019   4.820   2.025   1.694
 9374SOL     OW29020   0.494   2.964   0.405
 9374SOL    HW129021   0.565   2.925   0.345
 9374SOL    HW229022   0.529   3.048   0.447
 9375SOL     OW29023   0.642   1.671   1.222
 9375SOL    HW129024   0.621   1.577   1.248
 9375SOL    HW229025   0.722   1.672   1.162
 9376SOL     OW29026   2.336   3.985   1.397
 9376SOL    HW129027   2.417   3.929   1.409
 9376SOL    HW229028   2.294   4.004   1.486
 9377SOL     OW29029   1.944   5.201   3.267
 9377SOL    HW129030   2.030   5.224   3.312
 9377SOL    HW229031   1.872   5.187   3.336
 9378SOL     OW29032   2.434   1.228   3.362
 9378SOL    HW129033   2.341   1.221   3.324
 9378SOL    HW229034   2.472   1.137   3.374
 9379SOL     OW29035   4.676   0.306   5.500
 9379SOL    HW129036   4.753   0.368   5.486
 9379SOL    HW229037   4.698   0.216   5.462
 9380SOL     OW29038   3.916   5.618   5.604
 9380SOL    HW129039   3.961   5.542   5.558
 9380SOL    HW229040   3.863   5.671   5.538
 9381SOL     OW29041   4.907   2.941   5.836
 9381SOL    HW129042   4.926   2.873   5.906
 9381SOL    HW229043   4.895   3.031   5.879
 9382SOL     OW29044   3.802   0.559   4.100
 9382SOL    HW129045   3.828   0.625   4.170
 9382SOL    HW229046   3.733   0.601   4.040
 9383SOL     OW29047   5.551   5.154   4.645
 9383SOL    HW129048   5.538   5.242   4.600
 9383SOL    HW229049   5.612   5.165   4.724
 9384SOL     OW29050   4.238   0.465   2.134
 9384SOL    HW129051   4.208   0.550   2.091
 9384SOL    HW229052   4.253   0.395   2.063
 9385SOL     OW29053   4.655   1.426   3.707
 9385SOL    HW129054   4.556   1.430   3.724
 9385SOL    HW229055   4.698   1.510   3.740
 9386SOL     OW29056   3.546   6.019   5.151
 9386SOL    HW129057   3.576   5.969   5.069
 9386SOL    HW229058   3.471   5.971   5.194
 9387SOL     OW29059   2.557   2.068   0.331
 9387SOL    HW129060   2.632   2.135   0.330
 9387SOL    HW229061   2.587   1.986   0.379
 9388SOL     OW29062   2.793   5.706   3.273
 9388SOL    HW129063   2.717   5.769   3.289
 9388SOL    HW229064   2.757   5.613   3.258
 9389SOL     OW29065   2.340   0.012   3.404
 9389SOL    HW129066   2.379   0.099   3.436
 9389SOL    HW229067   2.251   7.018   3.448
 9390SOL     OW29068   5.284   4.372   6.767
 9390SOL    HW129069   5.371   4.421   6.759
 9390SOL    HW229070   5.303   4.277   6.795
 9391SOL     OW29071   1.157   1.013   5.538
 9391SOL    HW129072   1.159   1.112   5.555
 9391SOL    HW229073   1.155   0.996   5.440
 9392SOL     OW29074   4.984   5.465   5.677
 9392SOL    HW129075   5.046   5.396   5.639
 9392SOL    HW229076   4.939   5.514   5.603
 9393SOL     OW29077   2.515   0.114   5.967
 9393SOL    HW129078   2.614   0.107   5.958
 9393SOL    HW229079   2.483   0.043   6.030
 9394SOL     OW29080   6.473   1.105   1.632
 9394SOL    HW129081   6.512   1.016   1.656
 9394SOL    HW229082   6.413   1.094   1.552
 9395SOL     OW29083   2.682   0.751   1.255
 9395SOL    HW129084   2.666   0.715   1.163
 9395SOL    HW229085   2.602   0.803   1.285
 9396SOL     OW29086   2.309   4.236   4.428
 9396SOL    HW129087   2.388   4.291   4.455
 9396SOL    HW229088   2.258   4.209   4.510
 9397SOL     OW29089   3.574   6.001   6.312
 9397SOL    HW129090   3.614   5.914   6.341
 9397SOL    HW229091   3.476   6.000   6.330
 9398SOL     OW29092   6.260   1.036   5.107
 9398SOL    HW129093   6.174   1.026   5.158
 9398SOL    HW229094   6.334   1.058   5.171
 9399SOL     OW29095   0.958   2.895   5.292
 9399SOL    HW129096   0.979   2.851   5.205
 9399SOL    HW229097   0.987   2.990   5.290
 9400SOL     OW29098   5.213   1.071   1.244
 9400SOL    HW129099   5.222   1.126   1.328
 9400SOL    HW229100   5.203   1.133   1.166
 9401SOL     OW29101   6.720   1.750   2.826
 9401SOL    HW129102   6.630   1.707   2.829
 9401SOL    HW229103   6.779   1.700   2.762
 9402SOL     OW29104   1.500   4.542   3.287
 9402SOL    HW129105   1.518   4.559   3.383
 9402SOL    HW229106   1.547   4.459   3.258
 9403SOL     OW29107   6.087   1.465   2.029
 9403SOL    HW129108   6.167   1.416   2.065
 9403SOL    HW229109   6.059   1.535   2.094
 9404SOL     OW29110   0.789   1.967   0.880
 9404SOL    HW129111   0.706   1.938   0.831
 9404SOL    HW229112   0.864   1.976   0.814
 9405SOL     OW29113   2.130   4.294   3.634
 9405SOL    HW129114   2.138   4.206   3.681
 9405SOL    HW229115   2.221   4.325   3.606
 9406SOL     OW29116   0.879   2.610   6.483
 9406SOL    HW129117   0.833   2.522   6.471
 9406SOL    HW229118   0.930   2.633   6.401
 9407SOL     OW29119   2.290   5.225   3.726
 9407SOL    HW129120   2.210   5.215   3.665
 9407SOL    HW229121   2.327   5.135   3.747
 9408SOL     OW29122   6.768   3.562   6.051
 9408SOL    HW129123   6.818   3.632   6.102
 9408SOL    HW229124   6.803   3.558   5.957
 9409SOL     OW29125   6.565   5.732   1.378
 9409SOL    HW129126   6.581   5.634   1.388
 9409SOL    HW229127   6.471   5.747   1.349
 9410SOL     OW29128   2.217   0.641   2.627
 9410SOL    HW129129   2.295   0.692   2.663
 9410SOL    HW229130   2.199   0.562   2.686
 9411SOL     OW29131   3.604   3.276   3.443
 9411SOL    HW129132   3.662   3.344   3.397
 9411SOL    HW229133   3.646   3.186   3.436
 9412SOL     OW29134   1.661   1.237   2.072
 9412SOL    HW129135   1.672   1.202   1.979
 9412SOL    HW229136   1.718   1.184   2.134
 9413SOL     OW29137   4.919   4.613   3.351
 9413SOL    HW129138   4.914   4.526   3.300
 9413SOL    HW229139   4.922   4.594   3.449
 9414SOL     OW29140   2.555   1.367   3.743
 9414SOL    HW129141   2.544   1.466   3.753
 9414SOL    HW229142   2.559   1.325   3.833
 9415SOL     OW29143   2.123   6.928   2.381
 9415SOL    HW129144   2.213   6.969   2.390
 9415SOL    HW229145   2.059   6.996   2.343
 9416SOL     OW29146   0.343   0.821   5.876
 9416SOL    HW129147   0.408   0.857   5.810
 9416SOL    HW229148   0.259   0.875   5.873
 9417SOL     OW29149   3.378   0.789   1.296
 9417SOL    HW129150   3.384   0.756   1.202
 9417SOL    HW229151   3.427   0.727   1.356
 9418SOL     OW29152   2.127   1.295   1.079
 9418SOL    HW129153   2.198   1.270   1.014
 9418SOL    HW229154   2.153   1.266   1.171
 9419SOL     OW29155   2.062   3.562   6.658
 9419SOL    HW129156   2.009   3.573   6.743
 9419SOL    HW229157   2.101   3.470   6.654
 9420SOL     OW29158   6.020   4.687   0.618
 9420SOL    HW129159   6.096   4.737   0.577
 9420SOL    HW229160   6.053   4.600   0.654
 9421SOL     OW29161   3.311   6.181   4.950
 9421SOL    HW129162   3.354   6.126   4.878
 9421SOL    HW229163   3.327   6.137   5.038
 9422SOL     OW29164   3.039   5.464   3.064
 9422SOL    HW129165   3.037   5.467   2.964
 9422SOL    HW229166   3.110   5.526   3.098
 9423SOL     OW29167   4.031   6.304   3.589
 9423SOL    HW129168   3.942   6.311   3.543
 9423SOL    HW229169   4.056   6.393   3.626
 9424SOL     OW29170   5.049   2.131   4.386
 9424SOL    HW129171   4.988   2.208   4.405
 9424SOL    HW229172   5.144   2.163   4.382
 9425SOL     OW29173   5.330   4.045   1.566
 9425SOL    HW129174   5.328   4.144   1.551
 9425SOL    HW229175   5.269   4.000   1.501
 9426SOL     OW29176   3.349   1.423   6.395
 9426SOL    HW129177   3.368   1.521   6.396
 9426SOL    HW229178   3.320   1.392   6.486
 9427SOL     OW29179   3.069   5.152   3.081
 9427SOL    HW129180   3.081   5.224   3.012
 9427SOL    HW229181   2.975   5.154   3.115
 9428SOL     OW29182   0.457   0.327   0.937
 9428SOL    HW129183   0.492   0.246   0.891
 9428SOL    HW229184   0.379   0.363   0.886
 9429SOL     OW29185   2.117   3.570   4.013
 9429SOL    HW129186   2.113   3.478   4.052
 9429SOL    HW229187   2.108   3.564   3.913
 9430SOL     OW29188   0.454   2.397   4.907
 9430SOL    HW129189   0.493   2.487   4.889
 9430SOL    HW229190   0.452   2.344   4.822
 9431SOL     OW29191   6.619   4.483   1.539
 9431SOL    HW129192   6.589   4.561   1.484
 9431SOL    HW229193   6.707   4.450   1.506
 9432SOL     OW29194   6.530   0.731   4.100
 9432SOL    HW129195   6.462   0.715   4.171
 9432SOL    HW229196   6.620   0.703   4.133
 9433SOL     OW29197   3.074   6.629   3.162
 9433SOL    HW129198   3.012   6.643   3.239
 9433SOL    HW229199   3.075   6.712   3.105
 9434SOL     OW29200   5.554   5.971   2.109
 9434SOL    HW129201   5.598   5.889   2.074
 9434SOL    HW229202   5.612   6.014   2.178
 9435SOL     OW29203   6.833   2.114   3.201
 9435SOL    HW129204   6.765   2.061   3.149
 9435SOL    HW229205   6.870   2.056   3.274
 9436SOL     OW29206   1.368   1.857   2.371
 9436SOL    HW129207   1.349   1.828   2.464
 9436SOL    HW229208   1.389   1.778   2.314
 9437SOL     OW29209   0.347   6.309   3.348
 9437SOL    HW129210   0.323   6.404   3.364
 9437SOL    HW229211   0.382   6.269   3.433
 9438SOL     OW29212   0.848   0.211   1.884
 9438SOL    HW129213   0.891   0.268   1.953
 9438SOL    HW229214   0.908   0.203   1.804
 9439SOL     OW29215   0.829   3.086   0.835
 9439SOL    HW129216   0.924   3.072   0.806
 9439SOL    HW229217   0.812   3.035   0.919
 9440SOL     OW29218   3.793   5.044   3.113
 9440SOL    HW129219   3.862   5.088   3.056
 9440SOL    HW229220   3.708   5.033   3.060
 9441SOL     OW29221   6.419   4.921   6.086
 9441SOL    HW129222   6.442   4.900   5.991
 9441SOL    HW229223   6.492   4.887   6.146
 9442SOL     OW29224   5.078   3.694   1.959
 9442SOL    HW129225   5.058   3.598   1.940
 9442SOL    HW229226   5.167   3.718   1.920
 9443SOL     OW29227   2.597   5.321   0.315
 9443SOL    HW129228   2.656   5.400   0.298
 9443SOL    HW229229   2.575   5.277   0.228
 9444SOL     OW29230   1.799   3.986   0.766
 9444SOL    HW129231   1.852   4.065   0.734
 9444SOL    HW229232   1.828   3.904   0.716
 9445SOL     OW29233   6.716   3.569   3.321
 9445SOL    HW129234   6.684   3.481   3.287
 9445SOL    HW229235   6.673   3.588   3.409
 9446SOL     OW29236   6.426   5.637   4.897
 9446SOL    HW129237   6.425   5.673   4.804
 9446SOL    HW229238   6.503   5.677   4.947
 9447SOL     OW29239   5.652   4.704   3.753
 9447SOL    HW129240   5.644   4.664   3.844
 9447SOL    HW229241   5.564   4.701   3.707
 9448SOL     OW29242   6.556   0.143   5.995
 9448SOL    HW129243   6.466   0.109   5.970
 9448SOL    HW229244   6.601   0.076   6.055
 9449SOL     OW29245   5.548   6.455   0.296
 9449SOL    HW129246   5.613   6.379   0.295
 9449SOL    HW229247   5.468   6.430   0.349
 9450SOL     OW29248   2.470   5.732   3.160
 9450SOL    HW129249   2.420   5.777   3.086
 9450SOL    HW229250   2.435   5.639   3.172
 9451SOL     OW29251   3.827   5.701   5.369
 9451SOL    HW129252   3.825   5.601   5.370
 9451SOL    HW229253   3.776   5.735   5.290
 9452SOL     OW29254   1.463   4.257   0.034
 9452SOL    HW129255   1.516   4.244   0.118
 9452SOL    HW229256   1.521   4.299   6.985
 9453SOL     OW29257   2.754   5.522   2.627
 9453SOL    HW129258   2.779   5.611   2.586
 9453SOL    HW229259   2.823   5.496   2.695
 9454SOL     OW29260   3.650   3.810   6.549
 9454SOL    HW129261   3.698   3.891   6.516
 9454SOL    HW229262   3.656   3.738   6.481
 9455SOL     OW29263   2.620   2.143   3.345
 9455SOL    HW129264   2.599   2.198   3.426
 9455SOL    HW229265   2.537   2.100   3.310
 9456SOL     OW29266   6.657   3.711   0.828
 9456SOL    HW129267   6.617   3.793   0.867
 9456SOL    HW229268   6.640   3.633   0.889
 9457SOL     OW29269   0.825   4.656   4.502
 9457SOL    HW129270   0.807   4.691   4.410
 9457SOL    HW229271   0.750   4.683   4.562
 9458SOL     OW29272   0.639   3.877   6.725
 9458SOL    HW129273   0.725   3.926   6.744
 9458SOL    HW229274   0.606   3.901   6.634
 9459SOL     OW29275   5.320   4.799   4.354
 9459SOL    HW129276   5.325   4.862   4.431
 9459SOL    HW229277   5.275   4.714   4.382
 9460SOL     OW29278   2.209   3.618   5.000
 9460SOL    HW129279   2.118   3.658   4.990
 9460SOL    HW229280   2.211   3.528   4.957
 9461SOL     OW29281   0.539   2.061   1.666
 9461SOL    HW129282   0.477   1.992   1.628
 9461SOL    HW229283   0.534   2.144   1.611
 9462SOL     OW29284   1.067   2.911   3.748
 9462SOL    HW129285   1.097   2.882   3.657
 9462SOL    HW229286   1.017   2.836   3.792
 9463SOL     OW29287   5.820   0.214   1.447
 9463SOL    HW129288   5.762   0.153   1.501
 9463SOL    HW229289   5.875   0.271   1.508
 9464SOL     OW29290   5.885   0.424   0.845
 9464SOL    HW129291   5.805   0.472   0.810
 9464SOL    HW229292   5.864   0.385   0.934
 9465SOL     OW29293   0.465   3.491   2.066
 9465SOL    HW129294   0.378   3.460   2.103
 9465SOL    HW229295   0.532   3.417   2.072
 9466SOL     OW29296   3.425   4.651   5.418
 9466SOL    HW129297   3.459   4.689   5.503
 9466SOL    HW229298   3.326   4.667   5.412
 9467SOL     OW29299   0.966   3.211   1.067
 9467SOL    HW129300   0.902   3.141   1.099
 9467SOL    HW229301   0.941   3.239   0.974
 9468SOL     OW29302   5.636   3.837   6.490
 9468SOL    HW129303   5.647   3.905   6.561
 9468SOL    HW229304   5.588   3.757   6.527
 9469SOL     OW29305   0.771   5.708   1.275
 9469SOL    HW129306   0.726   5.739   1.192
 9469SOL    HW229307   0.742   5.765   1.352
 9470SOL     OW29308   5.104   3.397   0.061
 9470SOL    HW129309   5.140   3.321   0.006
 9470SOL    HW229310   5.180   3.450   0.098
 9471SOL     OW29311   6.678   2.026   4.589
 9471SOL    HW129312   6.629   2.070   4.514
 9471SOL    HW229313   6.612   2.000   4.660
 9472SOL     OW29314   0.188   3.331   5.147
 9472SOL    HW129315   0.121   3.371   5.085
 9472SOL    HW229316   0.141   3.298   5.230
 9473SOL     OW29317   3.422   4.520   0.213
 9473SOL    HW129318   3.479   4.518   0.295
 9473SOL    HW229319   3.465   4.465   0.141
 9474SOL     OW29320   6.725   3.610   1.458
 9474SOL    HW129321   6.739   3.658   1.544
 9474SOL    HW229322   6.717   3.512   1.476
 9475SOL     OW29323   3.903   3.196   0.967
 9475SOL    HW129324   3.843   3.269   0.999
 9475SOL    HW229325   3.993   3.233   0.946
 9476SOL     OW29326   4.041   3.834   4.737
 9476SOL    HW129327   4.085   3.771   4.801
 9476SOL    HW229328   4.065   3.809   4.644
 9477SOL     OW29329   0.249   2.785   0.764
 9477SOL    HW129330   0.278   2.781   0.668
 9477SOL    HW229331   0.221   2.878   0.786
 9478SOL     OW29332   5.445   3.272   0.991
 9478SOL    HW129333   5.441   3.275   0.891
 9478SOL    HW229334   5.352   3.266   1.028
 9479SOL     OW29335   4.225   6.604   0.574
 9479SOL    HW129336   4.305   6.579   0.628
 9479SOL    HW229337   4.160   6.527   0.573
 9480SOL     OW29338   6.541   5.185   0.514
 9480SOL    HW129339   6.530   5.096   0.471
 9480SOL    HW229340   6.491   5.187   0.601
 9481SOL     OW29341   4.912   2.626   2.543
 9481SOL    HW129342   4.832   2.682   2.565
 9481SOL    HW229343   4.992   2.686   2.535
 9482SOL     OW29344   0.542   0.799   3.283
 9482SOL    HW129345   0.496   0.843   3.206
 9482SOL    HW229346   0.633   0.768   3.253
 9483SOL     OW29347   1.289   0.401   0.484
 9483SOL    HW129348   1.296   0.442   0.575
 9483SOL    HW229349   1.225   0.455   0.428
 9484SOL     OW29350   3.654   0.587   4.798
 9484SOL    HW129351   3.559   0.596   4.769
 9484SOL    HW229352   3.682   0.491   4.793
 9485SOL     OW29353   0.415   1.198   1.285
 9485SOL    HW129354   0.456   1.139   1.216
 9485SOL    HW229355   0.315   1.194   1.277
 9486SOL     OW29356   4.016   6.098   0.747
 9486SOL    HW129357   4.062   6.024   0.795
 9486SOL    HW229358   3.938   6.131   0.801
 9487SOL     OW29359   3.284   4.110   3.802
 9487SOL    HW129360   3.287   4.178   3.876
 9487SOL    HW229361   3.254   4.022   3.840
 9488SOL     OW29362   3.000   6.892   0.970
 9488SOL    HW129363   3.011   6.864   1.065
 9488SOL    HW229364   3.043   6.981   0.956
 9489SOL     OW29365   5.318   4.250   1.118
 9489SOL    HW129366   5.341   4.343   1.088
 9489SOL    HW229367   5.395   4.212   1.169
 9490SOL     OW29368   6.428   5.419   3.571
 9490SOL    HW129369   6.480   5.485   3.516
 9490SOL    HW229370   6.356   5.466   3.620
 9491SOL     OW29371   5.176   5.206   3.698
 9491SOL    HW129372   5.148   5.244   3.787
 9491SOL    HW229373   5.096   5.169   3.651
 9492SOL     OW29374   3.797   3.686   4.685
 9492SOL    HW129375   3.798   3.603   4.741
 9492SOL    HW229376   3.889   3.704   4.650
 9493SOL     OW29377   3.078   5.724   4.073
 9493SOL    HW129378   3.166   5.694   4.035
 9493SOL    HW229379   3.005   5.700   4.010
 9494SOL     OW29380   5.507   2.929   2.920
 9494SOL    HW129381   5.480   2.889   2.832
 9494SOL    HW229382   5.559   3.013   2.904
 9495SOL     OW29383   6.791   2.015   2.804
 9495SOL    HW129384   6.876   2.063   2.826
 9495SOL    HW229385   6.805   1.916   2.816
 9496SOL     OW29386   5.778   3.770   1.470
 9496SOL    HW129387   5.819   3.827   1.542
 9496SOL    HW229388   5.817   3.678   1.475
 9497SOL     OW29389   4.810   5.953   4.739
 9497SOL    HW129390   4.908   5.966   4.754
 9497SOL    HW229391   4.765   5.937   4.826
 9498SOL     OW29392   5.673   5.434   4.826
 9498SOL    HW129393   5.749   5.372   4.844
 9498SOL    HW229394   5.700   5.500   4.756
 9499SOL     OW29395   1.500   5.659   5.395
 9499SOL    HW129396   1.503   5.758   5.379
 9499SOL    HW229397   1.592   5.622   5.394
 9500SOL     OW29398   4.294   6.643   0.304
 9500SOL    HW129399   4.285   6.607   0.397
 9500SOL    HW229400   4.213   6.618   0.250
 9501SOL     OW29401   2.547   1.411   4.925
 9501SOL    HW129402   2.629   1.463   4.899
 9501SOL    HW229403   2.468   1.446   4.876
 9502SOL     OW29404   5.744   3.280   4.852
 9502SOL    HW129405   5.648   3.281   4.822
 9502SOL    HW229406   5.801   3.235   4.783
 9503SOL     OW29407   0.225   2.083   0.877
 9503SOL    HW129408   0.191   2.162   0.826
 9503SOL    HW229409   0.319   2.101   0.908
 9504SOL     OW29410   6.930   3.744   1.156
 9504SOL    HW129411   6.898   3.820   1.098
 9504SOL    HW229412   6.931   3.774   1.252
 9505SOL     OW29413   5.103   4.542   5.307
 9505SOL    HW129414   5.011   4.507   5.323
 9505SOL    HW229415   5.105   4.640   5.324
 9506SOL     OW29416   1.475   2.398   0.281
 9506SOL    HW129417   1.566   2.403   0.238
 9506SOL    HW229418   1.485   2.373   0.377
 9507SOL     OW29419   0.606   0.917   2.126
 9507SOL    HW129420   0.672   0.867   2.182
 9507SOL    HW229421   0.551   0.977   2.186
 9508SOL     OW29422   5.976   1.890   2.352
 9508SOL    HW129423   5.905   1.942   2.305
 9508SOL    HW229424   6.044   1.952   2.390
 9509SOL     OW29425   0.295   1.009   3.657
 9509SOL    HW129426   0.257   1.041   3.744
 9509SOL    HW229427   0.254   0.921   3.633
 9510SOL     OW29428   1.466   4.099   3.894
 9510SOL    HW129429   1.496   4.110   3.800
 9510SOL    HW229430   1.464   4.188   3.939
 9511SOL     OW29431   1.829   6.989   0.532
 9511SOL    HW129432   1.877   0.042   0.485
 9511SOL    HW229433   1.731   7.002   0.523
 9512SOL     OW29434   6.620   1.538   0.835
 9512SOL    HW129435   6.570   1.453   0.818
 9512SOL    HW229436   6.710   1.517   0.872
 9513SOL     OW29437   2.459   4.190   6.069
 9513SOL    HW129438   2.535   4.196   6.004
 9513SOL    HW229439   2.383   4.245   6.037
 9514SOL     OW29440   2.407   5.064   6.387
 9514SOL    HW129441   2.338   5.103   6.327
 9514SOL    HW229442   2.497   5.098   6.361
 9515SOL     OW29443   1.838   5.942   1.858
 9515SOL    HW129444   1.851   5.954   1.760
 9515SOL    HW229445   1.766   6.004   1.890
 9516SOL     OW29446   5.613   5.058   6.873
 9516SOL    HW129447   5.627   4.959   6.881
 9516SOL    HW229448   5.561   5.090   6.952
 9517SOL     OW29449   1.694   3.964   1.441
 9517SOL    HW129450   1.710   3.869   1.467
 9517SOL    HW229451   1.678   4.019   1.523
 9518SOL     OW29452   2.162   1.495   0.783
 9518SOL    HW129453   2.161   1.417   0.721
 9518SOL    HW229454   2.182   1.578   0.731
 9519SOL     OW29455   3.273   3.025   5.337
 9519SOL    HW129456   3.349   2.965   5.312
 9519SOL    HW229457   3.294   3.119   5.310
 9520SOL     OW29458   2.547   1.060   2.981
 9520SOL    HW129459   2.642   1.042   2.955
 9520SOL    HW229460   2.541   1.150   3.024
 9521SOL     OW29461   4.987   5.762   2.508
 9521SOL    HW129462   5.040   5.705   2.570
 9521SOL    HW229463   4.992   5.724   2.415
 9522SOL     OW29464   2.916   5.723   1.230
 9522SOL    HW129465   2.880   5.730   1.138
 9522SOL    HW229466   2.998   5.780   1.239
 9523SOL     OW29467   3.882   5.338   4.451
 9523SOL    HW129468   3.849   5.261   4.506
 9523SOL    HW229469   3.908   5.305   4.360
 9524SOL     OW29470   3.915   2.067   1.228
 9524SOL    HW129471   3.962   1.987   1.192
 9524SOL    HW229472   3.863   2.041   1.310
 9525SOL     OW29473   2.900   2.888   5.900
 9525SOL    HW129474   2.913   2.844   5.989
 9525SOL    HW229475   2.990   2.902   5.857
 9526SOL     OW29476   5.077   5.781   1.970
 9526SOL    HW129477   5.079   5.880   1.987
 9526SOL    HW229478   5.006   5.760   1.904
 9527SOL     OW29479   0.564   0.229   2.698
 9527SOL    HW129480   0.652   0.274   2.678
 9527SOL    HW229481   0.579   0.132   2.713
 9528SOL     OW29482   6.764   0.488   0.750
 9528SOL    HW129483   6.764   0.585   0.725
 9528SOL    HW229484   6.693   0.441   0.700
 9529SOL     OW29485   6.281   3.168   5.234
 9529SOL    HW129486   6.379   3.183   5.238
 9529SOL    HW229487   6.257   3.122   5.149
 9530SOL     OW29488   1.944   2.901   3.312
 9530SOL    HW129489   1.986   2.910   3.402
 9530SOL    HW229490   2.015   2.889   3.242
 9531SOL     OW29491   3.999   5.850   2.983
 9531SOL    HW129492   4.009   5.876   3.079
 9531SOL    HW229493   4.090   5.838   2.943
 9532SOL     OW29494   0.821   6.785   1.722
 9532SOL    HW129495   0.777   6.711   1.774
 9532SOL    HW229496   0.894   6.748   1.666
 9533SOL     OW29497   6.804   0.720   5.075
 9533SOL    HW129498   6.735   0.678   5.134
 9533SOL    HW229499   6.762   0.742   4.986
 9534SOL     OW29500   5.809   3.125   5.117
 9534SOL    HW129501   5.780   3.157   5.027
 9534SOL    HW229502   5.895   3.170   5.142
 9535SOL     OW29503   2.509   1.171   5.363
 9535SOL    HW129504   2.565   1.245   5.326
 9535SOL    HW229505   2.413   1.188   5.344
 9536SOL     OW29506   3.164   4.977   5.080
 9536SOL    HW129507   3.114   4.902   5.122
 9536SOL    HW229508   3.173   4.961   4.982
 9537SOL     OW29509   2.390   0.076   2.293
 9537SOL    HW129510   2.394   0.133   2.211
 9537SOL    HW229511   2.428   7.007   2.272
 9538SOL     OW29512   6.691   1.834   3.884
 9538SOL    HW129513   6.762   1.766   3.870
 9538SOL    HW229514   6.602   1.789   3.892
 9539SOL     OW29515   2.044   3.687   5.423
 9539SOL    HW129516   1.992   3.626   5.363
 9539SOL    HW229517   2.113   3.736   5.369
 9540SOL     OW29518   4.884   4.049   4.631
 9540SOL    HW129519   4.913   4.029   4.725
 9540SOL    HW229520   4.815   4.122   4.632
 9541SOL     OW29521   2.422   1.863   5.617
 9541SOL    HW129522   2.436   1.884   5.521
 9541SOL    HW229523   2.404   1.947   5.668
 9542SOL     OW29524   4.955   4.014   4.902
 9542SOL    HW129525   4.934   3.939   4.966
 9542SOL    HW229526   4.920   4.100   4.938
 9543SOL     OW29527   3.472   0.952   4.534
 9543SOL    HW129528   3.393   0.931   4.475
 9543SOL    HW229529   3.466   1.046   4.565
 9544SOL     OW29530   0.071   1.229   2.473
 9544SOL    HW129531   0.044   1.242   2.569
 9544SOL    HW229532   0.009   1.163   2.430
 9545SOL     OW29533   6.629   4.573   3.830
 9545SOL    HW129534   6.710   4.521   3.802
 9545SOL    HW229535   6.652   4.670   3.838
 9546SOL     OW29536   2.616   2.847   5.842
 9546SOL    HW129537   2.579   2.849   5.749
 9546SOL    HW229538   2.713   2.873   5.839
 9547SOL     OW29539   1.559   5.977   4.018
 9547SOL    HW129540   1.628   5.980   3.946
 9547SOL    HW229541   1.571   6.054   4.080
 9548SOL     OW29542   6.312   6.002   4.970
 9548SOL    HW129543   6.247   5.991   4.894
 9548SOL    HW229544   6.344   6.097   4.972
 9549SOL     OW29545   2.780   4.128   1.550
 9549SOL    HW129546   2.716   4.166   1.483
 9549SOL    HW229547   2.778   4.028   1.545
 9550SOL     OW29548   6.992   1.330   7.008
 9550SOL    HW129549   6.993   1.236   6.973
 9550SOL    HW229550   6.971   1.393   6.934
 9551SOL     OW29551   0.003   0.230   4.403
 9551SOL    HW129552   0.007   0.330   4.399
 9551SOL    HW229553   6.928   0.200   4.406
 9552SOL     OW29554   0.675   6.175   2.117
 9552SOL    HW129555   0.673   6.249   2.184
 9552SOL    HW229556   0.676   6.087   2.165
 9553SOL     OW29557   6.026   4.197   6.466
 9553SOL    HW129558   6.039   4.098   6.469
 9553SOL    HW229559   6.062   4.239   6.549
 9554SOL     OW29560   2.691   0.594   1.484
 9554SOL    HW129561   2.705   0.676   1.539
 9554SOL    HW229562   2.680   0.619   1.388
 9555SOL     OW29563   0.005   1.157   0.996
 9555SOL    HW129564   0.072   1.183   0.926
 9555SOL    HW229565   0.044   1.173   1.086
 9556SOL     OW29566   2.492   2.707   1.176
 9556SOL    HW129567   2.475   2.731   1.080
 9556SOL    HW229568   2.453   2.617   1.195
 9557SOL     OW29569   6.319   0.831   2.931
 9557SOL    HW129570   6.334   0.918   2.885
 9557SOL    HW229571   6.248   0.841   3.000
 9558SOL     OW29572   5.494   5.168   4.166
 9558SOL    HW129573   5.483   5.082   4.116
 9558SOL    HW229574   5.553   5.152   4.246
 9559SOL     OW29575   0.175   3.506   1.738
 9559SOL    HW129576   0.271   3.480   1.747
 9559SOL    HW229577   0.167   3.587   1.680
 9560SOL     OW29578   1.146   1.690   2.502
 9560SOL    HW129579   1.065   1.638   2.530
 9560SOL    HW229580   1.204   1.706   2.582
 9561SOL     OW29581   2.039   6.756   0.925
 9561SOL    HW129582   2.067   6.664   0.899
 9561SOL    HW229583   1.964   6.786   0.866
 9562SOL     OW29584   3.196   6.504   5.141
 9562SOL    HW129585   3.148   6.475   5.059
 9562SOL    HW229586   3.249   6.586   5.122
 9563SOL     OW29587   6.201   6.320   0.219
 9563SOL    HW129588   6.126   6.371   0.175
 9563SOL    HW229589   6.285   6.374   0.214
 9564SOL     OW29590   2.563   0.245   6.536
 9564SOL    HW129591   2.494   0.212   6.600
 9564SOL    HW229592   2.602   0.330   6.571
 9565SOL     OW29593   4.358   6.037   5.142
 9565SOL    HW129594   4.307   6.042   5.056
 9565SOL    HW229595   4.386   6.129   5.170
 9566SOL     OW29596   3.407   4.576   0.752
 9566SOL    HW129597   3.347   4.504   0.717
 9566SOL    HW229598   3.376   4.605   0.842
 9567SOL     OW29599   6.548   5.677   6.532
 9567SOL    HW129600   6.472   5.685   6.597
 9567SOL    HW229601   6.635   5.689   6.580
 9568SOL     OW29602   4.649   2.606   6.150
 9568SOL    HW129603   4.627   2.659   6.068
 9568SOL    HW229604   4.728   2.646   6.196
 9569SOL     OW29605   6.818   0.852   1.389
 9569SOL    HW129606   6.743   0.851   1.323
 9569SOL    HW229607   6.864   0.941   1.386
 9570SOL     OW29608   1.359   2.062   1.842
 9570SOL    HW129609   1.345   2.008   1.759
 9570SOL    HW229610   1.371   2.158   1.818
 9571SOL     OW29611   2.879   3.472   6.979
 9571SOL    HW129612   2.790   3.475   0.005
 9571SOL    HW229613   2.864   3.469   6.880
 9572SOL     OW29614   2.061   5.496   0.622
 9572SOL    HW129615   2.045   5.432   0.698
 9572SOL    HW229616   2.158   5.495   0.598
 9573SOL     OW29617   0.500   1.805   6.738
 9573SOL    HW129618   0.455   1.755   6.812
 9573SOL    HW229619   0.444   1.797   6.655
 9574SOL     OW29620   4.100   3.246   4.725
 9574SOL    HW129621   4.034   3.171   4.733
 9574SOL    HW229622   4.126   3.278   4.816
 9575SOL     OW29623   5.230   0.679   0.971
 9575SOL    HW129624   5.215   0.735   0.890
 9575SOL    HW229625   5.142   0.661   1.016
 9576SOL     OW29626   3.150   1.656   2.755
 9576SOL    HW129627   3.161   1.563   2.720
 9576SOL    HW229628   3.237   1.705   2.747
 9577SOL     OW29629   1.423   0.406   2.728
 9577SOL    HW129630   1.516   0.390   2.760
 9577SOL    HW229631   1.414   0.499   2.693
 9578SOL     OW29632   6.593   3.356   3.116
 9578SOL    HW129633   6.659   3.363   3.042
 9578SOL    HW229634   6.538   3.439   3.121
 9579SOL     OW29635   1.239   6.386   2.647
 9579SOL    HW129636   1.208   6.423   2.559
 9579SOL    HW229637   1.162   6.342   2.693
 9580SOL     OW29638   5.347   3.505   0.467
 9580SOL    HW129639   5.304   3.422   0.503
 9580SOL    HW229640   5.331   3.511   0.369
 9581SOL     OW29641   2.011   5.154   6.059
 9581SOL    HW129642   1.911   5.151   6.059
 9581SOL    HW229643   2.046   5.109   5.977
 9582SOL     OW29644   4.229   4.691   4.460
 9582SOL    HW129645   4.134   4.696   4.490
 9582SOL    HW229646   4.236   4.722   4.365
 9583SOL     OW29647   2.070   3.309   1.511
 9583SOL    HW129648   2.046   3.389   1.566
 9583SOL    HW229649   2.048   3.226   1.563
 9584SOL     OW29650   5.715   5.999   6.810
 9584SOL    HW129651   5.719   6.077   6.747
 9584SOL    HW229652   5.776   6.015   6.887
 9585SOL     OW29653   6.456   0.613   2.826
 9585SOL    HW129654   6.389   0.687   2.838
 9585SOL    HW229655   6.465   0.591   2.729
 9586SOL     OW29656   5.600   4.241   2.469
 9586SOL    HW129657   5.625   4.154   2.514
 9586SOL    HW229658   5.501   4.249   2.465
 9587SOL     OW29659   6.460   0.352   2.260
 9587SOL    HW129660   6.403   0.317   2.335
 9587SOL    HW229661   6.545   0.300   2.257
 9588SOL     OW29662   0.627   1.213   1.999
 9588SOL    HW129663   0.597   1.252   2.087
 9588SOL    HW229664   0.614   1.114   2.001
 9589SOL     OW29665   2.810   5.529   6.854
 9589SOL    HW129666   2.763   5.615   6.872
 9589SOL    HW229667   2.745   5.463   6.817
 9590SOL     OW29668   7.004   4.887   2.354
 9590SOL    HW129669   6.924   4.927   2.311
 9590SOL    HW229670   7.010   4.919   2.449
 9591SOL     OW29671   3.106   6.119   0.127
 9591SOL    HW129672   3.100   6.019   0.127
 9591SOL    HW229673   3.085   6.154   0.036
 9592SOL     OW29674   3.694   5.419   2.336
 9592SOL    HW129675   3.706   5.339   2.277
 9592SOL    HW229676   3.779   5.470   2.341
 9593SOL     OW29677   5.321   1.187   4.822
 9593SOL    HW129678   5.409   1.171   4.777
 9593SOL    HW229679   5.250   1.135   4.774
 9594SOL     OW29680   6.889   6.064   3.444
 9594SOL    HW129681   6.894   5.966   3.462
 9594SOL    HW229682   6.890   6.114   3.531
 9595SOL     OW29683   2.124   5.021   4.669
 9595SOL    HW129684   2.191   5.075   4.720
 9595SOL    HW229685   2.034   5.031   4.711
 9596SOL     OW29686   0.537   5.070   6.406
 9596SOL    HW129687   0.548   4.986   6.460
 9596SOL    HW229688   0.475   5.132   6.452
 9597SOL     OW29689   0.221   3.899   1.394
 9597SOL    HW129690   0.240   3.836   1.318
 9597SOL    HW229691   0.132   3.942   1.381
 9598SOL     OW29692   0.610   3.915   5.599
 9598SOL    HW129693   0.511   3.905   5.601
 9598SOL    HW229694   0.643   3.907   5.504
 9599SOL     OW29695   3.592   0.979   5.037
 9599SOL    HW129696   3.688   1.000   5.019
 9599SOL    HW229697   3.537   1.061   5.026
 9600SOL     OW29698   1.792   0.394   5.995
 9600SOL    HW129699   1.861   0.407   6.066
 9600SOL    HW229700   1.803   0.304   5.953
 9601SOL     OW29701   6.376   4.175   6.138
 9601SOL    HW129702   6.362   4.115   6.217
 9601SOL    HW229703   6.359   4.123   6.054
 9602SOL     OW29704   6.884   4.811   6.840
 9602SOL    HW129705   6.946   4.887   6.858
 9602SOL    HW229706   6.795   4.846   6.814
 9603SOL     OW29707   2.058   6.740   4.680
 9603SOL    HW129708   2.058   6.674   4.754
 9603SOL    HW229709   2.147   6.785   4.675
 9604SOL     OW29710   5.274   0.645   6.919
 9604SOL    HW129711   5.186   0.620   6.879
 9604SOL    HW229712   5.310   0.725   6.872
 9605SOL     OW29713   0.804   4.956   5.556
 9605SOL    HW129714   0.762   4.984   5.642
 9605SOL    HW229715   0.834   4.860   5.563
 9606SOL     OW29716   1.305   6.830   4.335
 9606SOL    HW129717   1.229   6.889   4.307
 9606SOL    HW229718   1.276   6.735   4.332
 9607SOL     OW29719   1.054   1.700   1.762
 9607SOL    HW129720   1.143   1.667   1.793
 9607SOL    HW229721   0.982   1.650   1.810
 9608SOL     OW29722   6.974   6.892   2.617
 9608SOL    HW129723   6.911   6.929   2.548
 9608SOL    HW229724   0.040   6.870   2.573
 9609SOL     OW29725   1.096   3.997   4.456
 9609SOL    HW129726   1.052   3.936   4.522
 9609SOL    HW229727   1.144   3.943   4.387
 9610SOL     OW29728   1.027   3.175   5.281
 9610SOL    HW129729   1.003   3.259   5.330
 9610SOL    HW229730   0.973   3.169   5.197
 9611SOL     OW29731   0.112   6.627   1.202
 9611SOL    HW129732   0.135   6.687   1.125
 9611SOL    HW229733   0.025   6.656   1.242
 9612SOL     OW29734   6.337   2.805   0.612
 9612SOL    HW129735   6.330   2.891   0.562
 9612SOL    HW229736   6.411   2.812   0.680
 9613SOL     OW29737   5.669   6.151   4.288
 9613SOL    HW129738   5.669   6.245   4.322
 9613SOL    HW229739   5.591   6.137   4.227
 9614SOL     OW29740   4.264   3.629   1.733
 9614SOL    HW129741   4.315   3.545   1.716
 9614SOL    HW229742   4.328   3.707   1.737
 9615SOL     OW29743   2.329   5.992   3.318
 9615SOL    HW129744   2.362   6.018   3.227
 9615SOL    HW229745   2.387   6.035   3.388
 9616SOL     OW29746   4.189   3.086   1.252
 9616SOL    HW129747   4.274   3.121   1.212
 9616SOL    HW229748   4.172   2.994   1.218
 9617SOL     OW29749   1.245   3.995   3.643
 9617SOL    HW129750   1.290   4.078   3.677
 9617SOL    HW229751   1.203   3.946   3.720
 9618SOL     OW29752   3.308   0.807   6.636
 9618SOL    HW129753   3.273   0.848   6.552
 9618SOL    HW229754   3.406   0.788   6.626
 9619SOL     OW29755   0.707   6.672   1.036
 9619SOL    HW129756   0.689   6.692   0.940
 9619SOL    HW229757   0.621   6.669   1.087
 9620SOL     OW29758   4.115   1.312   6.794
 9620SOL    HW129759   4.105   1.233   6.855
 9620SOL    HW229760   4.167   1.284   6.713
 9621SOL     OW29761   1.501   1.023   1.679
 9621SOL    HW129762   1.429   1.000   1.614
 9621SOL    HW229763   1.590   1.006   1.636
 9622SOL     OW29764   6.519   1.284   6.735
 9622SOL    HW129765   6.466   1.226   6.673
 9622SOL    HW229766   6.493   1.379   6.721
 9623SOL     OW29767   4.546   5.496   6.795
 9623SOL    HW129768   4.529   5.547   6.879
 9623SOL    HW229769   4.608   5.548   6.736
 9624SOL     OW29770   4.962   4.521   5.871
 9624SOL    HW129771   5.023   4.584   5.823
 9624SOL    HW229772   4.960   4.433   5.822
 9625SOL     OW29773   4.592   4.438   6.542
 9625SOL    HW129774   4.617   4.350   6.581
 9625SOL    HW229775   4.633   4.447   6.451
 9626SOL     OW29776   1.847   5.453   4.357
 9626SOL    HW129777   1.805   5.510   4.427
 9626SOL    HW229778   1.936   5.420   4.389
 9627SOL     OW29779   0.963   4.432   4.821
 9627SOL    HW129780   0.951   4.460   4.916
 9627SOL    HW229781   1.008   4.343   4.818
 9628SOL     OW29782   6.025   3.828   0.920
 9628SOL    HW129783   6.062   3.905   0.972
 9628SOL    HW229784   6.089   3.802   0.847
 9629SOL     OW29785   6.829   6.518   3.625
 9629SOL    HW129786   6.868   6.483   3.540
 9629SOL    HW229787   6.826   6.618   3.621
 9630SOL     OW29788   5.996   5.508   5.264
 9630SOL    HW129789   5.928   5.488   5.194
 9630SOL    HW229790   5.994   5.605   5.286
 9631SOL     OW29791   4.500   1.071   1.756
 9631SOL    HW129792   4.484   0.982   1.713
 9631SOL    HW229793   4.510   1.059   1.854
 9632SOL     OW29794   2.283   5.265   1.664
 9632SOL    HW129795   2.323   5.324   1.734
 9632SOL    HW229796   2.198   5.225   1.699
 9633SOL     OW29797   4.299   2.981   1.487
 9633SOL    HW129798   4.391   3.019   1.488
 9633SOL    HW229799   4.243   3.032   1.421
 9634SOL     OW29800   6.063   4.992   3.086
 9634SOL    HW129801   6.138   5.011   3.024
 9634SOL    HW229802   6.015   5.077   3.106
 9635SOL     OW29803   0.165   4.734   5.217
 9635SOL    HW129804   0.080   4.713   5.168
 9635SOL    HW229805   0.162   4.691   5.307
 9636SOL     OW29806   3.806   1.473   6.327
 9636SOL    HW129807   3.771   1.551   6.378
 9636SOL    HW229808   3.731   1.410   6.307
 9637SOL     OW29809   3.440   3.368   1.720
 9637SOL    HW129810   3.521   3.311   1.712
 9637SOL    HW229811   3.367   3.315   1.765
 9638SOL     OW29812   6.850   4.046   6.320
 9638SOL    HW129813   6.866   3.986   6.397
 9638SOL    HW229814   6.938   4.067   6.275
 9639SOL     OW29815   4.530   2.789   1.726
 9639SOL    HW129816   4.563   2.871   1.773
 9639SOL    HW229817   4.583   2.775   1.642
 9640SOL     OW29818   3.754   1.659   2.039
 9640SOL    HW129819   3.816   1.583   2.059
 9640SOL    HW229820   3.807   1.744   2.035
 9641SOL     OW29821   4.771   6.187   2.585
 9641SOL    HW129822   4.677   6.196   2.620
 9641SOL    HW229823   4.797   6.270   2.537
 9642SOL     OW29824   1.188   0.093   4.330
 9642SOL    HW129825   1.201   0.187   4.301
 9642SOL    HW229826   1.172   0.090   4.429
 9643SOL     OW29827   5.153   3.904   3.775
 9643SOL    HW129828   5.173   3.818   3.728
 9643SOL    HW229829   5.054   3.913   3.788
 9644SOL     OW29830   2.198   5.825   4.947
 9644SOL    HW129831   2.232   5.850   4.856
 9644SOL    HW229832   2.137   5.896   4.980
 9645SOL     OW29833   1.055   3.877   5.101
 9645SOL    HW129834   1.054   3.933   5.018
 9645SOL    HW229835   1.149   3.863   5.131
 9646SOL     OW29836   2.805   6.106   3.146
 9646SOL    HW129837   2.708   6.131   3.134
 9646SOL    HW229838   2.850   6.176   3.202
 9647SOL     OW29839   6.905   6.607   2.869
 9647SOL    HW129840   6.946   6.568   2.951
 9647SOL    HW229841   6.877   6.702   2.887
 9648SOL     OW29842   5.164   3.299   1.083
 9648SOL    HW129843   5.216   3.302   1.169
 9648SOL    HW229844   5.163   3.206   1.048
 9649SOL     OW29845   2.454   3.937   6.469
 9649SOL    HW129846   2.482   3.875   6.395
 9649SOL    HW229847   2.515   3.924   6.547
 9650SOL     OW29848   4.891   4.457   3.661
 9650SOL    HW129849   4.797   4.422   3.663
 9650SOL    HW229850   4.899   4.534   3.725
 9651SOL     OW29851   3.950   1.334   1.459
 9651SOL    HW129852   4.022   1.360   1.522
 9651SOL    HW229853   3.873   1.296   1.509
 9652SOL     OW29854   0.594   4.876   0.933
 9652SOL    HW129855   0.609   4.808   1.005
 9652SOL    HW229856   0.656   4.953   0.947
 9653SOL     OW29857   4.437   4.382   6.107
 9653SOL    HW129858   4.503   4.348   6.040
 9653SOL    HW229859   4.458   4.477   6.130
 9654SOL     OW29860   3.184   3.363   2.391
 9654SOL    HW129861   3.276   3.363   2.352
 9654SOL    HW229862   3.125   3.302   2.338
 9655SOL     OW29863   0.172   1.960   0.567
 9655SOL    HW129864   0.235   1.910   0.626
 9655SOL    HW229865   0.109   1.896   0.524
 9656SOL     OW29866   4.819   2.046   0.960
 9656SOL    HW129867   4.782   2.108   1.028
 9656SOL    HW229868   4.747   2.023   0.893
 9657SOL     OW29869   5.645   4.231   3.476
 9657SOL    HW129870   5.581   4.276   3.538
 9657SOL    HW229871   5.736   4.230   3.518
 9658SOL     OW29872   5.595   2.088   2.579
 9658SOL    HW129873   5.656   2.143   2.636
 9658SOL    HW229874   5.500   2.106   2.605
 9659SOL     OW29875   1.263   2.314   0.141
 9659SOL    HW129876   1.299   2.227   0.107
 9659SOL    HW229877   1.336   2.365   0.186
 9660SOL     OW29878   0.458   0.650   1.773
 9660SOL    HW129879   0.374   0.606   1.743
 9660SOL    HW229880   0.521   0.580   1.807
 9661SOL     OW29881   4.449   5.892   1.203
 9661SOL    HW129882   4.479   5.829   1.131
 9661SOL    HW229883   4.492   5.867   1.289
 9662SOL     OW29884   5.095   3.681   0.687
 9662SOL    HW129885   5.122   3.602   0.742
 9662SOL    HW229886   5.175   3.739   0.672
 9663SOL     OW29887   0.241   5.535   2.403
 9663SOL    HW129888   0.178   5.494   2.468
 9663SOL    HW229889   0.255   5.631   2.427
 9664SOL     OW29890   5.414   4.092   5.064
 9664SOL    HW129891   5.418   4.071   5.162
 9664SOL    HW229892   5.339   4.156   5.047
 9665SOL     OW29893   6.296   6.066   5.936
 9665SOL    HW129894   6.203   6.029   5.932
 9665SOL    HW229895   6.355   6.003   5.987
 9666SOL     OW29896   6.148   3.742   2.135
 9666SOL    HW129897   6.189   3.812   2.193
 9666SOL    HW229898   6.129   3.781   2.044
 9667SOL     OW29899   4.432   3.779   1.517
 9667SOL    HW129900   4.410   3.721   1.439
 9667SOL    HW229901   4.348   3.807   1.562
 9668SOL     OW29902   1.732   1.220   6.166
 9668SOL    HW129903   1.772   1.131   6.190
 9668SOL    HW229904   1.688   1.213   6.076
 9669SOL     OW29905   1.848   6.838   1.125
 9669SOL    HW129906   1.931   6.824   1.071
 9669SOL    HW229907   1.831   6.757   1.181
 9670SOL     OW29908   0.276   5.550   5.173
 9670SOL    HW129909   0.254   5.632   5.227
 9670SOL    HW229910   0.213   5.544   5.095
 9671SOL     OW29911   6.720   4.679   0.546
 9671SOL    HW129912   6.664   4.665   0.464
 9671SOL    HW229913   6.811   4.641   0.532
 9672SOL     OW29914   1.640   4.597   3.542
 9672SOL    HW129915   1.676   4.690   3.554
 9672SOL    HW229916   1.636   4.551   3.631
 9673SOL     OW29917   3.820   3.517   1.146
 9673SOL    HW129918   3.821   3.434   1.202
 9673SOL    HW229919   3.765   3.501   1.064
 9674SOL     OW29920   4.030   6.652   2.997
 9674SOL    HW129921   3.945   6.603   3.017
 9674SOL    HW229922   4.048   6.718   3.069
 9675SOL     OW29923   4.961   2.834   6.649
 9675SOL    HW129924   4.983   2.752   6.596
 9675SOL    HW229925   4.891   2.887   6.602
 9676SOL     OW29926   1.680   3.802   5.419
 9676SOL    HW129927   1.703   3.708   5.394
 9676SOL    HW229928   1.747   3.865   5.378
 9677SOL     OW29929   6.707   4.903   6.136
 9677SOL    HW129930   6.721   4.977   6.070
 9677SOL    HW229931   6.773   4.911   6.210
 9678SOL     OW29932   2.969   3.594   4.283
 9678SOL    HW129933   2.953   3.507   4.331
 9678SOL    HW229934   3.015   3.575   4.196
 9679SOL     OW29935   2.754   0.603   4.085
 9679SOL    HW129936   2.722   0.523   4.136
 9679SOL    HW229937   2.754   0.683   4.145
 9680SOL     OW29938   4.425   0.318   5.378
 9680SOL    HW129939   4.343   0.320   5.436
 9680SOL    HW229940   4.500   0.274   5.427
 9681SOL     OW29941   3.456   1.978   0.617
 9681SOL    HW129942   3.391   2.044   0.580
 9681SOL    HW229943   3.416   1.933   0.697
 9682SOL     OW29944   4.867   3.862   3.816
 9682SOL    HW129945   4.883   3.768   3.787
 9682SOL    HW229946   4.816   3.911   3.746
 9683SOL     OW29947   3.384   5.930   0.350
 9683SOL    HW129948   3.381   6.000   0.421
 9683SOL    HW229949   3.356   5.842   0.389
 9684SOL     OW29950   0.960   4.340   5.118
 9684SOL    HW129951   1.059   4.341   5.109
 9684SOL    HW229952   0.932   4.260   5.170
 9685SOL     OW29953   4.790   3.440   0.528
 9685SOL    HW129954   4.741   3.447   0.441
 9685SOL    HW229955   4.775   3.524   0.581
 9686SOL     OW29956   0.499   3.037   6.773
 9686SOL    HW129957   0.517   3.008   6.867
 9686SOL    HW229958   0.539   3.127   6.758
 9687SOL     OW29959   6.335   0.990   2.466
 9687SOL    HW129960   6.312   0.977   2.369
 9687SOL    HW229961   6.434   0.989   2.477
 9688SOL     OW29962   1.166   3.497   0.517
 9688SOL    HW129963   1.072   3.476   0.543
 9688SOL    HW229964   1.173   3.501   0.417
 9689SOL     OW29965   0.419   4.643   6.968
 9689SOL    HW129966   0.423   4.696   6.884
 9689SOL    HW229967   0.510   4.637   7.008
 9690SOL     OW29968   5.164   6.451   5.479
 9690SOL    HW129969   5.237   6.413   5.422
 9690SOL    HW229970   5.088   6.479   5.421
 9691SOL     OW29971   2.940   3.798   1.801
 9691SOL    HW129972   2.968   3.893   1.814
 9691SOL    HW229973   2.996   3.739   1.858
 9692SOL     OW29974   4.405   5.794   0.900
 9692SOL    HW129975   4.320   5.815   0.851
 9692SOL    HW229976   4.423   5.696   0.896
 9693SOL     OW29977   6.072   4.168   3.473
 9693SOL    HW129978   6.023   4.123   3.398
 9693SOL    HW229979   6.010   4.183   3.550
 9694SOL     OW29980   3.591   1.273   2.449
 9694SOL    HW129981   3.564   1.207   2.519
 9694SOL    HW229982   3.596   1.227   2.360
 9695SOL     OW29983   6.536   2.720   3.239
 9695SOL    HW129984   6.537   2.636   3.294
 9695SOL    HW229985   6.539   2.696   3.142
 9696SOL     OW29986   5.926   2.989   1.673
 9696SOL    HW129987   5.861   2.963   1.744
 9696SOL    HW229988   5.883   3.055   1.611
 9697SOL     OW29989   0.814   5.957   0.210
 9697SOL    HW129990   0.905   5.916   0.212
 9697SOL    HW229991   0.819   6.052   0.240
 9698SOL     OW29992   5.105   2.833   5.581
 9698SOL    HW129993   5.154   2.896   5.522
 9698SOL    HW229994   5.038   2.883   5.636
 9699SOL     OW29995   0.350   5.623   0.177
 9699SOL    HW129996   0.273   5.620   0.242
 9699SOL    HW229997   0.435   5.632   0.228
 9700SOL     OW29998   6.684   5.242   4.804
 9700SOL    HW129999   6.650   5.327   4.765
 9700SOL    HW230000   6.772   5.218   4.763
 9701SOL     OW30001   4.353   4.094   5.847
 9701SOL    HW130002   4.425   4.033   5.879
 9701SOL    HW230003   4.273   4.086   5.907
 9702SOL     OW30004   4.153   1.856   0.408
 9702SOL    HW130005   4.191   1.925   0.471
 9702SOL    HW230006   4.072   1.815   0.449
 9703SOL     OW30007   5.003   3.565   3.741
 9703SOL    HW130008   4.977   3.473   3.713
 9703SOL    HW230009   5.089   3.561   3.793
 9704SOL     OW30010   3.415   6.018   2.000
 9704SOL    HW130011   3.428   6.071   2.084
 9704SOL    HW230012   3.448   5.925   2.013
 9705SOL     OW30013   5.639   4.407   6.050
 9705SOL    HW130014   5.555   4.429   6.099
 9705SOL    HW230015   5.639   4.311   6.024
 9706SOL     OW30016   2.580   1.916   1.551
 9706SOL    HW130017   2.603   1.914   1.649
 9706SOL    HW230018   2.613   2.002   1.512
 9707SOL     OW30019   5.324   5.330   2.513
 9707SOL    HW130020   5.318   5.276   2.598
 9707SOL    HW230021   5.383   5.409   2.528
 9708SOL     OW30022   0.940   1.383   3.408
 9708SOL    HW130023   1.031   1.349   3.383
 9708SOL    HW230024   0.873   1.311   3.392
 9709SOL     OW30025   5.144   4.905   2.185
 9709SOL    HW130026   5.149   4.806   2.200
 9709SOL    HW230027   5.070   4.924   2.120
 9710SOL     OW30028   6.569   1.363   1.285
 9710SOL    HW130029   6.623   1.433   1.237
 9710SOL    HW230030   6.601   1.357   1.380
 9711SOL     OW30031   4.424   5.126   6.151
 9711SOL    HW130032   4.445   5.089   6.241
 9711SOL    HW230033   4.415   5.226   6.156
 9712SOL     OW30034   5.854   3.340   7.003
 9712SOL    HW130035   5.865   3.377   6.910
 9712SOL    HW230036   5.936   3.360   0.036
 9713SOL     OW30037   2.318   5.033   3.336
 9713SOL    HW130038   2.346   5.061   3.244
 9713SOL    HW230039   2.268   4.947   3.331
 9714SOL     OW30040   4.351   6.597   6.231
 9714SOL    HW130041   4.358   6.506   6.189
 9714SOL    HW230042   4.393   6.596   6.322
 9715SOL     OW30043   5.599   4.133   0.040
 9715SOL    HW130044   5.532   4.064   0.012
 9715SOL    HW230045   5.553   4.204   0.093
 9716SOL     OW30046   3.773   4.305   6.870
 9716SOL    HW130047   3.870   4.282   6.875
 9716SOL    HW230048   3.733   4.262   6.789
 9717SOL     OW30049   4.936   6.180   6.140
 9717SOL    HW130050   4.917   6.183   6.238
 9717SOL    HW230051   4.878   6.245   6.092
 9718SOL     OW30052   4.920   3.176   1.447
 9718SOL    HW130053   4.944   3.116   1.371
 9718SOL    HW230054   4.821   3.173   1.462
 9719SOL     OW30055   5.623   0.201   5.758
 9719SOL    HW130056   5.599   0.215   5.662
 9719SOL    HW230057   5.545   0.226   5.815
 9720SOL     OW30058   0.791   3.654   2.279
 9720SOL    HW130059   0.736   3.572   2.298
 9720SOL    HW230060   0.882   3.643   2.319
 9721SOL     OW30061   6.921   1.062   6.896
 9721SOL    HW130062   6.821   1.066   6.893
 9721SOL    HW230063   6.950   0.968   6.915
 9722SOL     OW30064   3.514   1.294   5.285
 9722SOL    HW130065   3.500   1.249   5.197
 9722SOL    HW230066   3.470   1.383   5.285
 9723SOL     OW30067   4.401   6.100   4.110
 9723SOL    HW130068   4.362   6.036   4.175
 9723SOL    HW230069   4.420   6.187   4.156
 9724SOL     OW30070   1.534   4.621   0.543
 9724SOL    HW130071   1.623   4.666   0.553
 9724SOL    HW230072   1.462   4.690   0.536
 9725SOL     OW30073   4.105   6.434   6.107
 9725SOL    HW130074   4.088   6.533   6.102
 9725SOL    HW230075   4.202   6.418   6.129
 9726SOL     OW30076   4.504   1.498   4.078
 9726SOL    HW130077   4.590   1.451   4.057
 9726SOL    HW230078   4.443   1.495   3.999
 9727SOL     OW30079   0.688   1.854   6.359
 9727SOL    HW130080   0.718   1.827   6.268
 9727SOL    HW230081   0.734   1.939   6.386
 9728SOL     OW30082   0.374   1.585   5.167
 9728SOL    HW130083   0.353   1.487   5.167
 9728SOL    HW230084   0.337   1.627   5.083
 9729SOL     OW30085   1.075   4.403   3.931
 9729SOL    HW130086   1.170   4.424   3.955
 9729SOL    HW230087   1.017   4.481   3.957
 9730SOL     OW30088   0.855   4.143   3.666
 9730SOL    HW130089   0.793   4.080   3.619
 9730SOL    HW230090   0.827   4.153   3.761
 9731SOL     OW30091   5.428   5.699   1.841
 9731SOL    HW130092   5.355   5.731   1.781
 9731SOL    HW230093   5.390   5.672   1.929
 9732SOL     OW30094   1.384   4.006   2.352
 9732SOL    HW130095   1.339   3.967   2.271
 9732SOL    HW230096   1.383   3.939   2.426
 9733SOL     OW30097   4.952   5.689   0.243
 9733SOL    HW130098   4.979   5.614   0.303
 9733SOL    HW230099   4.868   5.664   0.194
 9734SOL     OW30100   6.593   0.310   0.292
 9734SOL    HW130101   6.666   0.317   0.359
 9734SOL    HW230102   6.527   0.241   0.322
 9735SOL     OW30103   1.692   2.924   3.534
 9735SOL    HW130104   1.768   2.959   3.590
 9735SOL    HW230105   1.643   3.001   3.493
 9736SOL     OW30106   5.496   1.686   6.291
 9736SOL    HW130107   5.474   1.664   6.196
 9736SOL    HW230108   5.484   1.784   6.306
 9737SOL     OW30109   4.975   2.123   2.748
 9737SOL    HW130110   5.029   2.150   2.828
 9737SOL    HW230111   4.988   2.189   2.675
 9738SOL     OW30112   1.994   6.290   0.868
 9738SOL    HW130113   1.899   6.267   0.851
 9738SOL    HW230114   2.012   6.293   0.966
 9739SOL     OW30115   5.117   5.744   0.627
 9739SOL    HW130116   5.023   5.778   0.639
 9739SOL    HW230117   5.149   5.766   0.535
 9740SOL     OW30118   0.614   1.188   3.179
 9740SOL    HW130119   0.555   1.125   3.128
 9740SOL    HW230120   0.629   1.152   3.271
 9741SOL     OW30121   2.405   1.212   2.785
 9741SOL    HW130122   2.311   1.184   2.802
 9741SOL    HW230123   2.466   1.164   2.848
 9742SOL     OW30124   4.160   1.045   0.549
 9742SOL    HW130125   4.089   1.033   0.619
 9742SOL    HW230126   4.120   1.089   0.469
 9743SOL     OW30127   6.219   4.264   2.733
 9743SOL    HW130128   6.280   4.302   2.664
 9743SOL    HW230129   6.211   4.165   2.720
 9744SOL     OW30130   1.618   0.113   2.250
 9744SOL    HW130131   1.621   0.180   2.324
 9744SOL    HW230132   1.524   0.106   2.216
 9745SOL     OW30133   4.474   2.853   6.269
 9745SOL    HW130134   4.569   2.836   6.243
 9745SOL    HW230135   4.416   2.855   6.188
 9746SOL     OW30136   5.781   0.060   5.555
 9746SOL    HW130137   5.799   0.043   5.458
 9746SOL    HW230138   5.823   0.147   5.582
 9747SOL     OW30139   2.797   2.186   1.828
 9747SOL    HW130140   2.883   2.184   1.776
 9747SOL    HW230141   2.802   2.258   1.897
 9748SOL     OW30142   6.492   6.681   3.842
 9748SOL    HW130143   6.522   6.592   3.808
 9748SOL    HW230144   6.572   6.737   3.863
 9749SOL     OW30145   1.144   0.770   3.964
 9749SOL    HW130146   1.177   0.864   3.953
 9749SOL    HW230147   1.076   0.767   4.037
 9750SOL     OW30148   5.767   4.928   3.309
 9750SOL    HW130149   5.669   4.918   3.323
 9750SOL    HW230150   5.786   4.937   3.211
 9751SOL     OW30151   2.319   0.040   1.116
 9751SOL    HW130152   2.291   0.128   1.155
 9751SOL    HW230153   2.256   0.015   1.042
 9752SOL     OW30154   4.562   1.775   5.150
 9752SOL    HW130155   4.524   1.867   5.140
 9752SOL    HW230156   4.507   1.723   5.215
 9753SOL     OW30157   0.648   5.459   5.603
 9753SOL    HW130158   0.697   5.392   5.547
 9753SOL    HW230159   0.552   5.431   5.612
 9754SOL     OW30160   2.442   0.861   0.741
 9754SOL    HW130161   2.400   0.821   0.659
 9754SOL    HW230162   2.443   0.960   0.733
 9755SOL     OW30163   3.333   3.637   4.388
 9755SOL    HW130164   3.433   3.641   4.387
 9755SOL    HW230165   3.304   3.551   4.431
 9756SOL     OW30166   6.238   2.342   6.119
 9756SOL    HW130167   6.316   2.306   6.170
 9756SOL    HW230168   6.158   2.347   6.179
 9757SOL     OW30169   5.580   4.810   5.019
 9757SOL    HW130170   5.627   4.898   5.022
 9757SOL    HW230171   5.589   4.772   4.927
 9758SOL     OW30172   1.849   1.388   0.658
 9758SOL    HW130173   1.910   1.438   0.720
 9758SOL    HW230174   1.809   1.310   0.706
 9759SOL     OW30175   1.764   1.127   0.299
 9759SOL    HW130176   1.788   1.123   0.396
 9759SOL    HW230177   1.840   1.092   0.244
 9760SOL     OW30178   4.946   3.242   5.439
 9760SOL    HW130179   4.885   3.319   5.422
 9760SOL    HW230180   4.953   3.226   5.537
 9761SOL     OW30181   0.449   2.432   1.678
 9761SOL    HW130182   0.526   2.436   1.741
 9761SOL    HW230183   0.369   2.394   1.724
 9762SOL     OW30184   3.809   1.679   4.815
 9762SOL    HW130185   3.907   1.669   4.794
 9762SOL    HW230186   3.768   1.744   4.751
 9763SOL     OW30187   5.179   1.518   3.582
 9763SOL    HW130188   5.096   1.463   3.581
 9763SOL    HW230189   5.156   1.614   3.601
 9764SOL     OW30190   6.770   2.373   2.665
 9764SOL    HW130191   6.869   2.371   2.676
 9764SOL    HW230192   6.726   2.361   2.754
 9765SOL     OW30193   6.717   6.267   3.313
 9765SOL    HW130194   6.631   6.275   3.363
 9765SOL    HW230195   6.760   6.179   3.334
 9766SOL     OW30196   2.091   6.515   1.937
 9766SOL    HW130197   2.005   6.520   1.887
 9766SOL    HW230198   2.097   6.592   2.001
 9767SOL     OW30199   2.531   2.304   5.594
 9767SOL    HW130200   2.586   2.236   5.642
 9767SOL    HW230201   2.586   2.386   5.577
 9768SOL     OW30202   4.688   1.357   1.386
 9768SOL    HW130203   4.751   1.295   1.339
 9768SOL    HW230204   4.691   1.339   1.484
 9769SOL     OW30205   3.302   1.494   4.911
 9769SOL    HW130206   3.255   1.418   4.955
 9769SOL    HW230207   3.390   1.510   4.956
 9770SOL     OW30208   3.544   1.015   5.736
 9770SOL    HW130209   3.602   0.955   5.681
 9770SOL    HW230210   3.513   1.092   5.680
 9771SOL     OW30211   2.673   5.451   0.838
 9771SOL    HW130212   2.641   5.546   0.838
 9771SOL    HW230213   2.600   5.392   0.803
 9772SOL     OW30214   1.558   6.121   1.652
 9772SOL    HW130215   1.585   6.217   1.665
 9772SOL    HW230216   1.639   6.067   1.630
 9773SOL     OW30217   4.933   5.480   3.717
 9773SOL    HW130218   4.952   5.440   3.807
 9773SOL    HW230219   5.004   5.450   3.652
 9774SOL     OW30220   0.031   4.947   2.074
 9774SOL    HW130221   6.987   5.006   2.026
 9774SOL    HW230222   0.005   4.940   2.170
 9775SOL     OW30223   3.367   0.100   3.880
 9775SOL    HW130224   3.269   0.085   3.883
 9775SOL    HW230225   3.406   0.091   3.972
 9776SOL     OW30226   0.945   5.195   5.789
 9776SOL    HW130227   0.868   5.141   5.755
 9776SOL    HW230228   0.946   5.283   5.741
 9777SOL     OW30229   6.403   4.504   0.874
 9777SOL    HW130230   6.440   4.412   0.858
 9777SOL    HW230231   6.321   4.518   0.818
 9778SOL     OW30232   0.075   1.485   4.481
 9778SOL    HW130233   0.125   1.410   4.438
 9778SOL    HW230234   0.118   1.572   4.457
 9779SOL     OW30235   0.556   1.382   3.962
 9779SOL    HW130236   0.643   1.431   3.965
 9779SOL    HW230237   0.561   1.302   4.022
 9780SOL     OW30238   2.146   2.309   0.277
 9780SOL    HW130239   2.108   2.375   0.213
 9780SOL    HW230240   2.200   2.242   0.226
 9781SOL     OW30241   1.954   2.497   5.000
 9781SOL    HW130242   2.004   2.538   5.076
 9781SOL    HW230243   1.941   2.565   4.928
 9782SOL     OW30244   0.515   1.970   0.333
 9782SOL    HW130245   0.415   1.973   0.339
 9782SOL    HW230246   0.555   2.040   0.392
 9783SOL     OW30247   4.536   2.636   3.363
 9783SOL    HW130248   4.612   2.692   3.396
 9783SOL    HW230249   4.503   2.578   3.437
 9784SOL     OW30250   3.185   0.933   6.397
 9784SOL    HW130251   3.105   0.891   6.355
 9784SOL    HW230252   3.263   0.926   6.335
 9785SOL     OW30253   0.216   2.202   5.491
 9785SOL    HW130254   0.288   2.230   5.554
 9785SOL    HW230255   0.196   2.106   5.504
 9786SOL     OW30256   2.740   4.213   0.396
 9786SOL    HW130257   2.660   4.243   0.448
 9786SOL    HW230258   2.725   4.120   0.362
 9787SOL     OW30259   3.443   2.927   2.591
 9787SOL    HW130260   3.535   2.948   2.559
 9787SOL    HW230261   3.378   2.944   2.517
 9788SOL     OW30262   0.865   6.888   2.515
 9788SOL    HW130263   0.861   6.791   2.541
 9788SOL    HW230264   0.895   6.942   2.593
 9789SOL     OW30265   1.884   5.484   0.417
 9789SOL    HW130266   1.947   5.480   0.495
 9789SOL    HW230267   1.832   5.399   0.412
 9790SOL     OW30268   6.422   4.655   6.541
 9790SOL    HW130269   6.406   4.585   6.472
 9790SOL    HW230270   6.476   4.729   6.501
 9791SOL     OW30271   0.342   0.049   6.546
 9791SOL    HW130272   0.398   6.990   6.523
 9791SOL    HW230273   0.401   0.129   6.558
 9792SOL     OW30274   2.896   3.982   0.687
 9792SOL    HW130275   2.802   3.998   0.657
 9792SOL    HW230276   2.945   4.069   0.694
 9793SOL     OW30277   4.035   0.306   2.317
 9793SOL    HW130278   4.013   0.388   2.370
 9793SOL    HW230279   4.065   0.233   2.378
 9794SOL     OW30280   6.687   4.221   6.188
 9794SOL    HW130281   6.603   4.178   6.220
 9794SOL    HW230282   6.766   4.173   6.226
 9795SOL     OW30283   1.378   2.040   4.690
 9795SOL    HW130284   1.315   2.058   4.766
 9795SOL    HW230285   1.465   2.086   4.707
 9796SOL     OW30286   4.053   3.671   2.560
 9796SOL    HW130287   3.979   3.726   2.522
 9796SOL    HW230288   4.140   3.719   2.548
 9797SOL     OW30289   2.348   5.530   0.685
 9797SOL    HW130290   2.380   5.612   0.638
 9797SOL    HW230291   2.396   5.450   0.649
 9798SOL     OW30292   3.182   1.180   2.288
 9798SOL    HW130293   3.144   1.110   2.228
 9798SOL    HW230294   3.192   1.142   2.380
 9799SOL     OW30295   2.538   4.219   5.555
 9799SOL    HW130296   2.456   4.162   5.550
 9799SOL    HW230297   2.513   4.315   5.556
 9800SOL     OW30298   4.843   5.415   4.994
 9800SOL    HW130299   4.831   5.358   5.076
 9800SOL    HW230300   4.917   5.481   5.009
 9801SOL     OW30301   4.357   4.031   6.966
 9801SOL    HW130302   4.332   4.127   6.959
 9801SOL    HW230303   4.344   3.985   6.878
 9802SOL     OW30304   6.054   4.754   2.015
 9802SOL    HW130305   6.008   4.670   1.984
 9802SOL    HW230306   5.985   4.826   2.028
 9803SOL     OW30307   1.790   2.405   6.487
 9803SOL    HW130308   1.729   2.399   6.408
 9803SOL    HW230309   1.739   2.433   6.567
 9804SOL     OW30310   0.618   6.623   2.980
 9804SOL    HW130311   0.653   6.706   3.023
 9804SOL    HW230312   0.672   6.603   2.898
 9805SOL     OW30313   0.509   6.739   2.697
 9805SOL    HW130314   0.528   6.832   2.727
 9805SOL    HW230315   0.424   6.707   2.740
 9806SOL     OW30316   1.441   1.866   6.820
 9806SOL    HW130317   1.424   1.867   6.722
 9806SOL    HW230318   1.374   1.923   6.867
 9807SOL     OW30319   3.177   3.595   1.605
 9807SOL    HW130320   3.237   3.675   1.611
 9807SOL    HW230321   3.082   3.625   1.601
 9808SOL     OW30322   4.173   6.490   5.008
 9808SOL    HW130323   4.204   6.486   5.103
 9808SOL    HW230324   4.090   6.436   4.998
 9809SOL     OW30325   0.966   3.677   6.813
 9809SOL    HW130326   0.920   3.703   6.728
 9809SOL    HW230327   1.063   3.661   6.795
 9810SOL     OW30328   3.180   2.147   4.437
 9810SOL    HW130329   3.107   2.186   4.381
 9810SOL    HW230330   3.167   2.174   4.533
 9811SOL     OW30331   5.493   4.778   3.337
 9811SOL    HW130332   5.484   4.765   3.436
 9811SOL    HW230333   5.494   4.688   3.292
 9812SOL     OW30334   3.924   1.379   5.527
 9812SOL    HW130335   3.887   1.328   5.450
 9812SOL    HW230336   3.875   1.354   5.611
 9813SOL     OW30337   4.953   1.796   0.640
 9813SOL    HW130338   4.969   1.705   0.601
 9813SOL    HW230339   5.039   1.832   0.676
 9814SOL     OW30340   6.946   0.243   6.481
 9814SOL    HW130341   7.008   0.308   6.523
 9814SOL    HW230342   6.998   0.173   6.432
 9815SOL     OW30343   4.931   3.629   4.478
 9815SOL    HW130344   4.964   3.536   4.492
 9815SOL    HW230345   4.919   3.674   4.567
 9816SOL     OW30346   0.859   1.144   5.843
 9816SOL    HW130347   0.763   1.157   5.822
 9816SOL    HW230348   0.880   1.046   5.847
 9817SOL     OW30349   2.382   6.390   3.443
 9817SOL    HW130350   2.322   6.462   3.406
 9817SOL    HW230351   2.475   6.403   3.409
 9818SOL     OW30352   6.984   0.699   3.735
 9818SOL    HW130353   0.026   0.760   3.688
 9818SOL    HW230354   6.950   0.743   3.818
 9819SOL     OW30355   5.553   3.648   3.296
 9819SOL    HW130356   5.586   3.677   3.207
 9819SOL    HW230357   5.524   3.552   3.292
 9820SOL     OW30358   3.519   2.937   6.633
 9820SOL    HW130359   3.546   2.943   6.537
 9820SOL    HW230360   3.456   3.011   6.655
 9821SOL     OW30361   5.616   1.134   6.912
 9821SOL    HW130362   5.567   1.195   6.849
 9821SOL    HW230363   5.565   1.126   6.998
 9822SOL     OW30364   2.037   7.009   3.088
 9822SOL    HW130365   1.991   6.920   3.090
 9822SOL    HW230366   1.998   0.047   3.159
 9823SOL     OW30367   2.459   0.612   0.178
 9823SOL    HW130368   2.381   0.558   0.147
 9823SOL    HW230369   2.479   0.591   0.274
 9824SOL     OW30370   2.069   5.317   4.446
 9824SOL    HW130371   2.073   5.337   4.544
 9824SOL    HW230372   2.107   5.227   4.428
 9825SOL     OW30373   4.289   5.251   5.454
 9825SOL    HW130374   4.366   5.200   5.416
 9825SOL    HW230375   4.321   5.308   5.529
 9826SOL     OW30376   5.495   5.414   6.509
 9826SOL    HW130377   5.470   5.373   6.421
 9826SOL    HW230378   5.545   5.499   6.493
 9827SOL     OW30379   2.037   3.793   3.603
 9827SOL    HW130380   1.938   3.803   3.599
 9827SOL    HW230381   2.074   3.794   3.509
 9828SOL     OW30382   1.965   2.865   5.993
 9828SOL    HW130383   2.064   2.862   6.009
 9828SOL    HW230384   1.928   2.772   5.991
 9829SOL     OW30385   3.758   5.183   0.311
 9829SOL    HW130386   3.685   5.240   0.272
 9829SOL    HW230387   3.753   5.185   0.411
 9830SOL     OW30388   6.008   2.789   1.945
 9830SOL    HW130389   5.923   2.811   1.897
 9830SOL    HW230390   6.059   2.721   1.893
 9831SOL     OW30391   2.307   4.943   1.380
 9831SOL    HW130392   2.406   4.936   1.370
 9831SOL    HW230393   2.264   4.860   1.345
 9832SOL     OW30394   4.700   5.560   3.149
 9832SOL    HW130395   4.723   5.488   3.214
 9832SOL    HW230396   4.729   5.649   3.185
 9833SOL     OW30397   3.494   3.784   5.294
 9833SOL    HW130398   3.455   3.831   5.215
 9833SOL    HW230399   3.431   3.792   5.372
 9834SOL     OW30400   3.062   4.741   5.202
 9834SOL    HW130401   2.991   4.674   5.178
 9834SOL    HW230402   3.103   4.716   5.290
 9835SOL     OW30403   3.618   2.936   5.644
 9835SOL    HW130404   3.630   3.007   5.574
 9835SOL    HW230405   3.555   2.866   5.610
 9836SOL     OW30406   6.299   4.969   3.797
 9836SOL    HW130407   6.298   4.991   3.700
 9836SOL    HW230408   6.337   4.878   3.811
 9837SOL     OW30409   3.194   0.528   3.107
 9837SOL    HW130410   3.193   0.442   3.158
 9837SOL    HW230411   3.283   0.572   3.120
 9838SOL     OW30412   1.745   6.964   6.593
 9838SOL    HW130413   1.717   6.994   6.502
 9838SOL    HW230414   1.731   0.018   6.658
 9839SOL     OW30415   5.880   0.775   3.814
 9839SOL    HW130416   5.887   0.685   3.771
 9839SOL    HW230417   5.960   0.829   3.790
 9840SOL     OW30418   6.853   1.449   0.942
 9840SOL    HW130419   6.809   1.377   0.996
 9840SOL    HW230420   6.901   1.511   1.003
 9841SOL     OW30421   1.705   3.939   5.027
 9841SOL    HW130422   1.742   3.951   5.119
 9841SOL    HW230423   1.778   3.946   4.960
 9842SOL     OW30424   4.030   3.388   2.449
 9842SOL    HW130425   4.074   3.350   2.368
 9842SOL    HW230426   4.054   3.484   2.458
 9843SOL     OW30427   6.054   0.786   0.983
 9843SOL    HW130428   6.022   0.743   1.067
 9843SOL    HW230429   6.046   0.885   0.991
 9844SOL     OW30430   6.325   0.942   2.184
 9844SOL    HW130431   6.256   0.941   2.112
 9844SOL    HW230432   6.415   0.959   2.144
 9845SOL     OW30433   2.948   2.220   3.899
 9845SOL    HW130434   2.890   2.191   3.975
 9845SOL    HW230435   2.900   2.290   3.846
 9846SOL     OW30436   4.002   3.465   1.706
 9846SOL    HW130437   4.089   3.415   1.714
 9846SOL    HW230438   3.933   3.420   1.762
 9847SOL     OW30439   3.409   2.857   4.193
 9847SOL    HW130440   3.404   2.758   4.182
 9847SOL    HW230441   3.345   2.901   4.130
 9848SOL     OW30442   3.214   3.676   5.154
 9848SOL    HW130443   3.138   3.735   5.126
 9848SOL    HW230444   3.193   3.633   5.241
 9849SOL     OW30445   0.490   6.556   6.465
 9849SOL    HW130446   0.542   6.506   6.535
 9849SOL    HW230447   0.524   6.530   6.375
 9850SOL     OW30448   6.120   0.238   4.034
 9850SOL    HW130449   6.118   0.155   3.979
 9850SOL    HW230450   6.124   0.318   3.975
 9851SOL     OW30451   5.109   0.520   4.832
 9851SOL    HW130452   5.093   0.559   4.741
 9851SOL    HW230453   5.204   0.533   4.857
 9852SOL     OW30454   4.102   2.204   3.552
 9852SOL    HW130455   4.173   2.164   3.495
 9852SOL    HW230456   4.126   2.299   3.573
 9853SOL     OW30457   5.208   4.028   4.778
 9853SOL    HW130458   5.266   3.956   4.740
 9853SOL    HW230459   5.128   3.987   4.823
 9854SOL     OW30460   0.291   5.988   4.668
 9854SOL    HW130461   0.388   5.999   4.649
 9854SOL    HW230462   0.245   5.953   4.587
 9855SOL     OW30463   2.608   3.011   0.633
 9855SOL    HW130464   2.632   2.918   0.604
 9855SOL    HW230465   2.541   3.049   0.570
 9856SOL     OW30466   5.052   4.910   5.538
 9856SOL    HW130467   4.965   4.924   5.491
 9856SOL    HW230468   5.126   4.906   5.472
 9857SOL     OW30469   4.385   2.091   3.698
 9857SOL    HW130470   4.376   2.067   3.602
 9857SOL    HW230471   4.352   2.015   3.755
 9858SOL     OW30472   6.666   0.822   1.104
 9858SOL    HW130473   6.642   0.737   1.055
 9858SOL    HW230474   6.757   0.851   1.075
 9859SOL     OW30475   6.284   0.143   2.386
 9859SOL    HW130476   6.269   0.111   2.293
 9859SOL    HW230477   6.339   0.076   2.436
 9860SOL     OW30478   1.179   1.442   3.836
 9860SOL    HW130479   1.158   1.346   3.855
 9860SOL    HW230480   1.168   1.495   3.920
 9861SOL     OW30481   3.178   0.054   3.439
 9861SOL    HW130482   3.272   0.034   3.410
 9861SOL    HW230483   3.175   0.146   3.479
 9862SOL     OW30484   4.028   3.805   0.101
 9862SOL    HW130485   4.047   3.824   0.197
 9862SOL    HW230486   3.939   3.760   0.093
 9863SOL     OW30487   3.096   6.889   3.027
 9863SOL    HW130488   3.176   6.948   3.031
 9863SOL    HW230489   3.013   6.944   3.036
 9864SOL     OW30490   3.681   6.493   4.184
 9864SOL    HW130491   3.682   6.527   4.091
 9864SOL    HW230492   3.762   6.526   4.233
 9865SOL     OW30493   1.370   1.118   4.605
 9865SOL    HW130494   1.467   1.144   4.604
 9865SOL    HW230495   1.317   1.187   4.556
 9866SOL     OW30496   5.126   5.066   6.308
 9866SOL    HW130497   5.026   5.068   6.304
 9866SOL    HW230498   5.163   5.122   6.234
 9867SOL     OW30499   6.497   0.817   0.773
 9867SOL    HW130500   6.423   0.764   0.816
 9867SOL    HW230501   6.500   0.909   0.812
 9868SOL     OW30502   0.469   3.802   6.328
 9868SOL    HW130503   0.429   3.890   6.303
 9868SOL    HW230504   0.501   3.805   6.422
 9869SOL     OW30505   1.755   3.246   2.348
 9869SOL    HW130506   1.808   3.326   2.376
 9869SOL    HW230507   1.713   3.264   2.259
 9870SOL     OW30508   3.443   5.498   2.403
 9870SOL    HW130509   3.372   5.429   2.385
 9870SOL    HW230510   3.530   5.452   2.422
 9871SOL     OW30511   0.446   5.546   5.875
 9871SOL    HW130512   0.445   5.452   5.841
 9871SOL    HW230513   0.526   5.594   5.838
 9872SOL     OW30514   2.071   5.378   3.896
 9872SOL    HW130515   1.999   5.309   3.899
 9872SOL    HW230516   2.064   5.429   3.810
 9873SOL     OW30517   2.738   2.496   0.143
 9873SOL    HW130518   2.667   2.563   0.166
 9873SOL    HW230519   2.808   2.539   0.086
 9874SOL     OW30520   6.714   3.052   4.992
 9874SOL    HW130521   6.671   3.143   4.988
 9874SOL    HW230522   6.791   3.055   5.055
 9875SOL     OW30523   6.026   5.902   2.153
 9875SOL    HW130524   6.057   5.995   2.133
 9875SOL    HW230525   6.105   5.843   2.169
 9876SOL     OW30526   6.545   0.367   3.326
 9876SOL    HW130527   6.515   0.462   3.319
 9876SOL    HW230528   6.473   0.306   3.294
 9877SOL     OW30529   6.854   6.177   4.282
 9877SOL    HW130530   6.781   6.121   4.323
 9877SOL    HW230531   6.894   6.236   4.352
 9878SOL     OW30532   2.529   4.743   5.007
 9878SOL    HW130533   2.610   4.688   5.028
 9878SOL    HW230534   2.543   4.792   4.921
 9879SOL     OW30535   5.484   5.166   5.076
 9879SOL    HW130536   5.570   5.116   5.077
 9879SOL    HW230537   5.480   5.226   4.997
 9880SOL     OW30538   3.389   0.973   6.212
 9880SOL    HW130539   3.438   0.909   6.154
 9880SOL    HW230540   3.344   1.042   6.155
 9881SOL     OW30541   0.682   0.841   4.771
 9881SOL    HW130542   0.613   0.913   4.769
 9881SOL    HW230543   0.766   0.878   4.813
 9882SOL     OW30544   1.219   3.398   3.894
 9882SOL    HW130545   1.132   3.447   3.899
 9882SOL    HW230546   1.261   3.393   3.984
 9883SOL     OW30547   1.439   6.736   0.135
 9883SOL    HW130548   1.419   6.706   0.228
 9883SOL    HW230549   1.368   6.701   0.073
 9884SOL     OW30550   5.138   2.370   1.728
 9884SOL    HW130551   5.096   2.344   1.815
 9884SOL    HW230552   5.206   2.442   1.744
 9885SOL     OW30553   6.529   2.153   4.931
 9885SOL    HW130554   6.468   2.176   5.007
 9885SOL    HW230555   6.622   2.142   4.966
 9886SOL     OW30556   1.050   4.593   2.820
 9886SOL    HW130557   1.031   4.601   2.722
 9886SOL    HW230558   0.984   4.529   2.861
 9887SOL     OW30559   4.166   0.369   6.501
 9887SOL    HW130560   4.192   0.465   6.508
 9887SOL    HW230561   4.076   0.362   6.458
 9888SOL     OW30562   5.599   4.643   2.643
 9888SOL    HW130563   5.665   4.578   2.607
 9888SOL    HW230564   5.580   4.621   2.739
 9889SOL     OW30565   6.653   4.973   1.481
 9889SOL    HW130566   6.652   4.887   1.431
 9889SOL    HW230567   6.740   5.021   1.465
 9890SOL     OW30568   1.257   2.636   0.793
 9890SOL    HW130569   1.183   2.636   0.861
 9890SOL    HW230570   1.308   2.550   0.799
 9891SOL     OW30571   5.512   3.071   1.959
 9891SOL    HW130572   5.448   3.041   2.030
 9891SOL    HW230573   5.460   3.098   1.878
 9892SOL     OW30574   0.207   4.662   1.043
 9892SOL    HW130575   0.287   4.688   1.098
 9892SOL    HW230576   0.200   4.722   0.963
 9893SOL     OW30577   0.819   0.869   1.238
 9893SOL    HW130578   0.787   0.796   1.178
 9893SOL    HW230579   0.882   0.928   1.187
 9894SOL     OW30580   3.542   2.671   0.512
 9894SOL    HW130581   3.524   2.714   0.423
 9894SOL    HW230582   3.539   2.572   0.502
 9895SOL     OW30583   5.727   5.060   4.996
 9895SOL    HW130584   5.810   5.069   5.052
 9895SOL    HW230585   5.750   5.079   4.901
 9896SOL     OW30586   6.206   1.061   0.169
 9896SOL    HW130587   6.158   1.091   0.252
 9896SOL    HW230588   6.304   1.078   0.180
 9897SOL     OW30589   5.709   6.340   2.440
 9897SOL    HW130590   5.717   6.254   2.491
 9897SOL    HW230591   5.613   6.355   2.416
 9898SOL     OW30592   1.411   5.128   5.097
 9898SOL    HW130593   1.411   5.226   5.079
 9898SOL    HW230594   1.389   5.078   5.013
 9899SOL     OW30595   1.838   5.928   0.740
 9899SOL    HW130596   1.780   5.913   0.661
 9899SOL    HW230597   1.912   5.860   0.740
 9900SOL     OW30598   1.276   2.702   3.391
 9900SOL    HW130599   1.376   2.700   3.392
 9900SOL    HW230600   1.244   2.780   3.445
 9901SOL     OW30601   2.961   0.666   6.828
 9901SOL    HW130602   2.906   0.583   6.817
 9901SOL    HW230603   2.974   0.685   6.925
 9902SOL     OW30604   2.675   4.670   1.352
 9902SOL    HW130605   2.595   4.716   1.313
 9902SOL    HW230606   2.714   4.608   1.285
 9903SOL     OW30607   5.865   2.159   1.968
 9903SOL    HW130608   5.956   2.150   1.929
 9903SOL    HW230609   5.825   2.068   1.980
 9904SOL     OW30610   0.724   3.979   0.238
 9904SOL    HW130611   0.824   3.985   0.238
 9904SOL    HW230612   0.694   3.931   0.155
 9905SOL     OW30613   2.285   0.770   5.992
 9905SOL    HW130614   2.295   0.829   6.072
 9905SOL    HW230615   2.319   0.818   5.911
 9906SOL     OW30616   1.709   3.037   0.662
 9906SOL    HW130617   1.678   2.946   0.635
 9906SOL    HW230618   1.762   3.078   0.588
 9907SOL     OW30619   0.631   0.263   0.555
 9907SOL    HW130620   0.619   0.334   0.485
 9907SOL    HW230621   0.728   0.239   0.561
 9908SOL     OW30622   6.754   1.564   5.612
 9908SOL    HW130623   6.849   1.555   5.644
 9908SOL    HW230624   6.753   1.612   5.525
 9909SOL     OW30625   4.427   1.273   2.708
 9909SOL    HW130626   4.471   1.333   2.774
 9909SOL    HW230627   4.327   1.282   2.716
 9910SOL     OW30628   1.253   5.051   1.977
 9910SOL    HW130629   1.332   5.074   1.920
 9910SOL    HW230630   1.238   4.952   1.976
 9911SOL     OW30631   3.184   6.391   2.356
 9911SOL    HW130632   3.184   6.386   2.257
 9911SOL    HW230633   3.090   6.389   2.390
 9912SOL     OW30634   3.571   0.967   1.085
 9912SOL    HW130635   3.534   1.039   1.026
 9912SOL    HW230636   3.517   0.884   1.073
 9913SOL     OW30637   6.741   3.963   0.652
 9913SOL    HW130638   6.702   3.891   0.709
 9913SOL    HW230639   6.684   3.977   0.571
 9914SOL     OW30640   5.870   0.936   4.825
 9914SOL    HW130641   5.968   0.941   4.810
 9914SOL    HW230642   5.823   0.922   4.737
 9915SOL     OW30643   6.081   0.914   3.692
 9915SOL    HW130644   6.137   0.954   3.765
 9915SOL    HW230645   6.082   0.976   3.613
 9916SOL     OW30646   2.353   2.457   3.273
 9916SOL    HW130647   2.431   2.519   3.261
 9916SOL    HW230648   2.322   2.426   3.183
 9917SOL     OW30649   3.954   3.789   6.254
 9917SOL    HW130650   3.954   3.889   6.250
 9917SOL    HW230651   4.026   3.754   6.193
 9918SOL     OW30652   1.931   2.262   2.933
 9918SOL    HW130653   1.901   2.257   2.838
 9918SOL    HW230654   1.961   2.355   2.954
 9919SOL     OW30655   1.015   5.670   1.158
 9919SOL    HW130656   0.943   5.684   1.226
 9919SOL    HW230657   1.048   5.575   1.164
 9920SOL     OW30658   4.953   0.550   2.524
 9920SOL    HW130659   4.907   0.463   2.544
 9920SOL    HW230660   5.051   0.539   2.539
 9921SOL     OW30661   4.387   6.492   4.571
 9921SOL    HW130662   4.415   6.533   4.658
 9921SOL    HW230663   4.427   6.545   4.496
 9922SOL     OW30664   3.523   3.883   1.014
 9922SOL    HW130665   3.430   3.915   1.030
 9922SOL    HW230666   3.576   3.889   1.099
 9923SOL     OW30667   5.970   4.477   0.016
 9923SOL    HW130668   5.925   4.524   6.961
 9923SOL    HW230669   6.058   4.521   0.035
 9924SOL     OW30670   6.263   1.959   3.490
 9924SOL    HW130671   6.199   1.972   3.415
 9924SOL    HW230672   6.354   1.941   3.454
 9925SOL     OW30673   0.251   4.987   3.861
 9925SOL    HW130674   0.256   5.083   3.890
 9925SOL    HW230675   0.206   4.933   3.932
 9926SOL     OW30676   4.395   2.677   1.307
 9926SOL    HW130677   4.399   2.765   1.259
 9926SOL    HW230678   4.338   2.613   1.254
 9927SOL     OW30679   1.830   6.867   0.809
 9927SOL    HW130680   1.794   6.937   0.870
 9927SOL    HW230681   1.796   6.882   0.716
 9928SOL     OW30682   4.850   5.164   2.953
 9928SOL    HW130683   4.838   5.138   3.049
 9928SOL    HW230684   4.792   5.106   2.895
 9929SOL     OW30685   3.196   4.098   4.587
 9929SOL    HW130686   3.144   4.057   4.512
 9929SOL    HW230687   3.132   4.131   4.657
 9930SOL     OW30688   0.073   6.495   5.758
 9930SOL    HW130689   0.090   6.511   5.661
 9930SOL    HW230690   0.159   6.476   5.805
 9931SOL     OW30691   0.141   5.625   4.565
 9931SOL    HW130692   0.088   5.547   4.598
 9931SOL    HW230693   0.234   5.618   4.600
 9932SOL     OW30694   2.567   3.096   6.202
 9932SOL    HW130695   2.476   3.086   6.162
 9932SOL    HW230696   2.624   3.019   6.174
 9933SOL     OW30697   1.397   7.008   3.678
 9933SOL    HW130698   1.349   0.024   3.758
 9933SOL    HW230699   1.424   6.913   3.697
 9934SOL     OW30700   6.817   2.186   5.658
 9934SOL    HW130701   6.758   2.200   5.578
 9934SOL    HW230702   6.892   2.251   5.657
 9935SOL     OW30703   3.186   6.638   1.256
 9935SOL    HW130704   3.125   6.566   1.223
 9935SOL    HW230705   3.140   6.691   1.327
 9936SOL     OW30706   6.684   4.291   1.015
 9936SOL    HW130707   6.636   4.372   1.047
 9936SOL    HW230708   6.733   4.313   0.930
 9937SOL     OW30709   0.603   2.276   1.485
 9937SOL    HW130710   0.666   2.244   1.414
 9937SOL    HW230711   0.625   2.370   1.509
 9938SOL     OW30712   5.937   4.916   4.122
 9938SOL    HW130713   5.965   4.974   4.045
 9938SOL    HW230714   5.847   4.877   4.103
 9939SOL     OW30715   4.979   3.049   1.213
 9939SOL    HW130716   4.904   3.066   1.150
 9939SOL    HW230717   5.054   3.004   1.164
 9940SOL     OW30718   1.090   0.978   1.767
 9940SOL    HW130719   1.035   0.909   1.813
 9940SOL    HW230720   1.030   1.035   1.710
 9941SOL     OW30721   3.548   2.891   4.995
 9941SOL    HW130722   3.551   2.983   4.954
 9941SOL    HW230723   3.639   2.867   5.028
 9942SOL     OW30724   2.663   5.267   2.579
 9942SOL    HW130725   2.677   5.366   2.584
 9942SOL    HW230726   2.613   5.244   2.496
 9943SOL     OW30727   0.687   4.325   6.662
 9943SOL    HW130728   0.595   4.323   6.624
 9943SOL    HW230729   0.753   4.297   6.592
 9944SOL     OW30730   0.889   4.750   6.628
 9944SOL    HW130731   0.838   4.769   6.544
 9944SOL    HW230732   0.866   4.818   6.697
 9945SOL     OW30733   4.488   6.027   0.135
 9945SOL    HW130734   4.391   6.032   0.110
 9945SOL    HW230735   4.524   5.937   0.108
 9946SOL     OW30736   5.992   0.638   3.304
 9946SOL    HW130737   6.029   0.728   3.280
 9946SOL    HW230738   5.893   0.639   3.294
 9947SOL     OW30739   3.125   2.177   4.749
 9947SOL    HW130740   3.029   2.190   4.724
 9947SOL    HW230741   3.137   2.196   4.847
 9948SOL     OW30742   6.613   4.664   6.235
 9948SOL    HW130743   6.673   4.709   6.169
 9948SOL    HW230744   6.627   4.565   6.232
 9949SOL     OW30745   6.491   4.573   4.087
 9949SOL    HW130746   6.397   4.590   4.058
 9949SOL    HW230747   6.540   4.527   4.013
 9950SOL     OW30748   5.453   6.125   5.733
 9950SOL    HW130749   5.381   6.098   5.797
 9950SOL    HW230750   5.541   6.092   5.767
 9951SOL     OW30751   1.305   2.137   3.748
 9951SOL    HW130752   1.359   2.173   3.672
 9951SOL    HW230753   1.267   2.048   3.722
 9952SOL     OW30754   1.388   4.885   0.603
 9952SOL    HW130755   1.328   4.956   0.567
 9952SOL    HW230756   1.482   4.917   0.604
 9953SOL     OW30757   6.129   2.566   4.551
 9953SOL    HW130758   6.178   2.479   4.544
 9953SOL    HW230759   6.194   2.639   4.573
 9954SOL     OW30760   0.799   0.951   5.624
 9954SOL    HW130761   0.861   0.946   5.545
 9954SOL    HW230762   0.721   0.889   5.608
 9955SOL     OW30763   5.720   4.150   6.000
 9955SOL    HW130764   5.662   4.085   6.049
 9955SOL    HW230765   5.805   4.164   6.052
 9956SOL     OW30766   0.369   5.691   2.840
 9956SOL    HW130767   0.380   5.790   2.838
 9956SOL    HW230768   0.360   5.661   2.935
 9957SOL     OW30769   5.925   0.098   2.149
 9957SOL    HW130770   5.918   0.098   2.049
 9957SOL    HW230771   5.956   0.009   2.181
 9958SOL     OW30772   1.842   5.479   6.394
 9958SOL    HW130773   1.881   5.396   6.354
 9958SOL    HW230774   1.788   5.454   6.474
 9959SOL     OW30775   4.094   3.636   4.214
 9959SOL    HW130776   4.104   3.625   4.115
 9959SOL    HW230777   4.184   3.631   4.257
 9960SOL     OW30778   6.759   0.363   2.361
 9960SOL    HW130779   6.818   0.440   2.336
 9960SOL    HW230780   6.786   0.282   2.310
 9961SOL     OW30781   1.430   5.634   4.440
 9961SOL    HW130782   1.508   5.673   4.489
 9961SOL    HW230783   1.463   5.584   4.360
 9962SOL     OW30784   4.849   6.837   1.746
 9962SOL    HW130785   4.850   6.881   1.656
 9962SOL    HW230786   4.939   6.799   1.767
 9963SOL     OW30787   2.908   2.683   6.164
 9963SOL    HW130788   2.884   2.628   6.084
 9963SOL    HW230789   2.831   2.741   6.189
 9964SOL     OW30790   4.519   3.759   5.692
 9964SOL    HW130791   4.469   3.682   5.652
 9964SOL    HW230792   4.540   3.826   5.621
 9965SOL     OW30793   3.735   4.850   6.582
 9965SOL    HW130794   3.779   4.845   6.493
 9965SOL    HW230795   3.764   4.773   6.638
 9966SOL     OW30796   2.206   5.670   2.223
 9966SOL    HW130797   2.233   5.760   2.257
 9966SOL    HW230798   2.216   5.667   2.124
 9967SOL     OW30799   6.262   6.689   2.310
 9967SOL    HW130800   6.223   6.745   2.383
 9967SOL    HW230801   6.271   6.744   2.227
 9968SOL     OW30802   3.356   3.775   6.544
 9968SOL    HW130803   3.293   3.754   6.620
 9968SOL    HW230804   3.442   3.809   6.582
 9969SOL     OW30805   1.986   2.579   4.323
 9969SOL    HW130806   2.065   2.600   4.379
 9969SOL    HW230807   2.015   2.527   4.243
 9970SOL     OW30808   5.553   4.307   3.020
 9970SOL    HW130809   5.493   4.265   3.088
 9970SOL    HW230810   5.540   4.407   3.023
 9971SOL     OW30811   2.719   3.937   0.368
 9971SOL    HW130812   2.804   3.887   0.387
 9971SOL    HW230813   2.650   3.911   0.436
 9972SOL     OW30814   3.662   4.483   0.724
 9972SOL    HW130815   3.571   4.520   0.741
 9972SOL    HW230816   3.656   4.383   0.716
 9973SOL     OW30817   4.347   1.725   4.207
 9973SOL    HW130818   4.415   1.652   4.199
 9973SOL    HW230819   4.346   1.759   4.301
 9974SOL     OW30820   6.327   3.985   3.400
 9974SOL    HW130821   6.378   4.054   3.451
 9974SOL    HW230822   6.229   4.008   3.401
 9975SOL     OW30823   6.682   4.420   0.682
 9975SOL    HW130824   6.697   4.518   0.677
 9975SOL    HW230825   6.753   4.378   0.738
 9976SOL     OW30826   0.111   6.106   5.435
 9976SOL    HW130827   0.083   6.184   5.490
 9976SOL    HW230828   0.196   6.068   5.471
 9977SOL     OW30829   0.227   5.182   5.951
 9977SOL    HW130830   0.204   5.257   6.013
 9977SOL    HW230831   0.147   5.160   5.894
 9978SOL     OW30832   6.198   3.189   3.165
 9978SOL    HW130833   6.133   3.126   3.123
 9978SOL    HW230834   6.167   3.213   3.257
 9979SOL     OW30835   6.337   4.793   5.665
 9979SOL    HW130836   6.271   4.841   5.722
 9979SOL    HW230837   6.337   4.832   5.573
 9980SOL     OW30838   1.651   1.793   6.178
 9980SOL    HW130839   1.628   1.768   6.272
 9980SOL    HW230840   1.719   1.729   6.142
 9981SOL     OW30841   2.537   2.149   1.716
 9981SOL    HW130842   2.626   2.152   1.761
 9981SOL    HW230843   2.538   2.210   1.637
 9982SOL     OW30844   0.567   0.869   3.668
 9982SOL    HW130845   0.483   0.920   3.650
 9982SOL    HW230846   0.639   0.934   3.695
 9983SOL     OW30847   1.469   2.538   2.958
 9983SOL    HW130848   1.480   2.611   2.891
 9983SOL    HW230849   1.422   2.573   3.039
 9984SOL     OW30850   1.483   1.080   0.307
 9984SOL    HW130851   1.472   0.981   0.312
 9984SOL    HW230852   1.581   1.103   0.311
 9985SOL     OW30853   2.133   0.796   2.056
 9985SOL    HW130854   2.179   0.884   2.055
 9985SOL    HW230855   2.087   0.783   2.144
 9986SOL     OW30856   4.405   3.797   6.373
 9986SOL    HW130857   4.377   3.794   6.469
 9986SOL    HW230858   4.376   3.884   6.333
 9987SOL     OW30859   6.076   1.996   3.263
 9987SOL    HW130860   6.016   2.075   3.251
 9987SOL    HW230861   6.135   1.987   3.182
 9988SOL     OW30862   0.565   6.029   4.623
 9988SOL    HW130863   0.572   6.040   4.524
 9988SOL    HW230864   0.653   6.046   4.665
 9989SOL     OW30865   6.261   4.261   3.678
 9989SOL    HW130866   6.195   4.242   3.605
 9989SOL    HW230867   6.236   4.347   3.723
 9990SOL     OW30868   2.951   6.703   2.098
 9990SOL    HW130869   2.936   6.604   2.095
 9990SOL    HW230870   2.893   6.747   2.029
 9991SOL     OW30871   1.993   3.284   4.037
 9991SOL    HW130872   1.925   3.258   3.968
 9991SOL    HW230873   1.947   3.324   4.116
 9992SOL     OW30874   4.895   4.201   0.282
 9992SOL    HW130875   4.856   4.173   0.194
 9992SOL    HW230876   4.835   4.169   0.356
 9993SOL     OW30877   3.781   0.293   1.889
 9993SOL    HW130878   3.819   0.308   1.980
 9993SOL    HW230879   3.695   0.343   1.880
 9994SOL     OW30880   6.966   4.511   4.027
 9994SOL    HW130881   6.906   4.547   4.099
 9994SOL    HW230882   6.910   4.473   3.953
 9995SOL     OW30883   3.506   1.113   2.899
 9995SOL    HW130884   3.421   1.151   2.935
 9995SOL    HW230885   3.553   1.063   2.972
 9996SOL     OW30886   2.510   3.321   1.634
 9996SOL    HW130887   2.451   3.337   1.713
 9996SOL    HW230888   2.454   3.293   1.556
 9997SOL     OW30889   3.666   1.529   1.105
 9997SOL    HW130890   3.696   1.531   1.200
 9997SOL    HW230891   3.586   1.470   1.097
 9998SOL     OW30892   6.112   4.745   1.229
 9998SOL    HW130893   6.173   4.669   1.207
 9998SOL    HW230894   6.135   4.824   1.173
 9999SOL     OW30895   6.475   2.916   5.028
 9999SOL    HW130896   6.471   2.817   5.014
 9999SOL    HW230897   6.569   2.948   5.012
10000SOL     OW30898   6.641   3.342   0.333
10000SOL    HW130899   6.626   3.331   0.234
10000SOL    HW230900   6.738   3.361   0.349
10001SOL     OW30901   4.930   0.717   1.726
10001SOL    HW130902   4.928   0.760   1.816
10001SOL    HW230903   4.881   0.629   1.730
10002SOL     OW30904   1.776   0.489   1.646
10002SOL    HW130905   1.710   0.437   1.592
10002SOL    HW230906   1.728   0.555   1.703
10003SOL     OW30907   3.623   1.637   3.953
10003SOL    HW130908   3.621   1.589   3.865
10003SOL    HW230909   3.717   1.643   3.986
10004SOL     OW30910   4.392   2.357   4.122
10004SOL    HW130911   4.329   2.381   4.048
10004SOL    HW230912   4.388   2.259   4.139
10005SOL     OW30913   4.142   0.214   3.879
10005SOL    HW130914   4.232   0.240   3.844
10005SOL    HW230915   4.113   0.281   3.948
10006SOL     OW30916   5.104   0.469   3.689
10006SOL    HW130917   5.125   0.399   3.620
10006SOL    HW230918   5.186   0.525   3.706
10007SOL     OW30919   0.838   5.377   4.935
10007SOL    HW130920   0.824   5.458   4.993
10007SOL    HW230921   0.780   5.384   4.854
10008SOL     OW30922   4.324   1.343   4.832
10008SOL    HW130923   4.240   1.358   4.884
10008SOL    HW230924   4.403   1.366   4.890
10009SOL     OW30925   1.680   3.728   1.608
10009SOL    HW130926   1.705   3.752   1.702
10009SOL    HW230927   1.591   3.770   1.586
10010SOL     OW30928   1.843   0.080   5.982
10010SOL    HW130929   1.877   0.097   6.075
10010SOL    HW230930   1.743   0.080   5.982
10011SOL     OW30931   5.872   1.705   4.795
10011SOL    HW130932   5.926   1.686   4.877
10011SOL    HW230933   5.833   1.797   4.802
10012SOL     OW30934   4.820   0.942   3.339
10012SOL    HW130935   4.844   0.895   3.424
10012SOL    HW230936   4.863   1.032   3.337
10013SOL     OW30937   1.156   1.687   3.473
10013SOL    HW130938   1.084   1.740   3.428
10013SOL    HW230939   1.223   1.658   3.404
10014SOL     OW30940   6.842   3.768   0.378
10014SOL    HW130941   6.767   3.723   0.427
10014SOL    HW230942   6.851   3.728   0.287
10015SOL     OW30943   1.781   3.995   0.419
10015SOL    HW130944   1.724   3.914   0.433
10015SOL    HW230945   1.859   3.991   0.481
10016SOL     OW30946   1.703   0.829   5.971
10016SOL    HW130947   1.617   0.844   6.021
10016SOL    HW230948   1.683   0.815   5.874
10017SOL     OW30949   2.933   2.274   2.934
10017SOL    HW130950   2.887   2.323   3.008
10017SOL    HW230951   2.998   2.208   2.973
10018SOL     OW30952   4.954   6.993   5.325
10018SOL    HW130953   5.037   6.977   5.270
10018SOL    HW230954   4.880   0.001   5.265
10019SOL     OW30955   0.073   1.862   2.798
10019SOL    HW130956   0.112   1.814   2.876
10019SOL    HW230957   0.067   1.960   2.820
10020SOL     OW30958   1.363   2.313   1.677
10020SOL    HW130959   1.408   2.386   1.727
10020SOL    HW230960   1.283   2.350   1.629
10021SOL     OW30961   0.352   2.402   1.076
10021SOL    HW130962   0.311   2.387   1.166
10021SOL    HW230963   0.288   2.453   1.018
10022SOL     OW30964   2.772   6.901   6.550
10022SOL    HW130965   2.871   6.907   6.541
10022SOL    HW230966   2.742   6.953   6.629
10023SOL     OW30967   1.518   5.300   6.495
10023SOL    HW130968   1.606   5.288   6.542
10023SOL    HW230969   1.465   5.216   6.501
10024SOL     OW30970   1.614   6.678   1.839
10024SOL    HW130971   1.666   6.761   1.859
10024SOL    HW230972   1.526   6.702   1.799
10025SOL     OW30973   1.938   1.500   1.383
10025SOL    HW130974   1.972   1.406   1.390
10025SOL    HW230975   1.838   1.499   1.373
10026SOL     OW30976   5.361   6.376   3.499
10026SOL    HW130977   5.427   6.404   3.429
10026SOL    HW230978   5.271   6.365   3.458
10027SOL     OW30979   6.709   4.030   5.204
10027SOL    HW130980   6.687   4.047   5.108
10027SOL    HW230981   6.807   4.044   5.219
10028SOL     OW30982   1.766   1.118   1.830
10028SOL    HW130983   1.817   1.043   1.873
10028SOL    HW230984   1.725   1.085   1.745
10029SOL     OW30985   4.404   2.216   4.794
10029SOL    HW130986   4.443   2.172   4.714
10029SOL    HW230987   4.422   2.315   4.791
10030SOL     OW30988   2.672   6.675   3.765
10030SOL    HW130989   2.723   6.611   3.707
10030SOL    HW230990   2.577   6.643   3.774
10031SOL     OW30991   6.414   4.857   4.658
10031SOL    HW130992   6.337   4.795   4.676
10031SOL    HW230993   6.418   4.927   4.729
10032SOL     OW30994   2.135   1.968   5.485
10032SOL    HW130995   2.098   1.894   5.430
10032SOL    HW230996   2.180   1.931   5.566
10033SOL     OW30997   6.008   2.122   3.657
10033SOL    HW130998   6.065   2.044   3.682
10033SOL    HW230999   5.988   2.176   3.740
10034SOL     OW31000   2.720   0.235   4.002
10034SOL    HW131001   2.714   0.200   4.095
10034SOL    HW231002   2.804   0.202   3.959
10035SOL     OW31003   6.271   4.267   1.993
10035SOL    HW131004   6.261   4.169   1.975
10035SOL    HW231005   6.352   4.283   2.050
10036SOL     OW31006   6.426   2.304   1.482
10036SOL    HW131007   6.482   2.227   1.512
10036SOL    HW231008   6.435   2.316   1.383
10037SOL     OW31009   6.804   1.047   0.833
10037SOL    HW131010   6.863   1.074   0.909
10037SOL    HW231011   6.860   1.027   0.753
10038SOL     OW31012   5.019   0.578   6.825
10038SOL    HW131013   4.986   0.485   6.808
10038SOL    HW231014   4.955   0.644   6.785
10039SOL     OW31015   3.065   0.670   3.314
10039SOL    HW131016   3.099   0.631   3.400
10039SOL    HW231017   3.119   0.634   3.237
10040SOL     OW31018   5.185   5.451   6.442
10040SOL    HW131019   5.175   5.354   6.466
10040SOL    HW231020   5.273   5.484   6.475
10041SOL     OW31021   4.043   6.272   6.623
10041SOL    HW131022   4.050   6.174   6.636
10041SOL    HW231023   3.969   6.292   6.558
10042SOL     OW31024   0.808   2.360   3.627
10042SOL    HW131025   0.833   2.444   3.580
10042SOL    HW231026   0.878   2.337   3.695
10043SOL     OW31027   6.639   1.104   4.979
10043SOL    HW131028   6.722   1.130   4.930
10043SOL    HW231029   6.560   1.114   4.918
10044SOL     OW31030   1.830   1.940   4.158
10044SOL    HW131031   1.909   1.879   4.172
10044SOL    HW231032   1.760   1.891   4.105
10045SOL     OW31033   4.119   0.139   2.113
10045SOL    HW131034   4.099   0.206   2.185
10045SOL    HW231035   4.108   0.181   2.023
10046SOL     OW31036   2.071   3.581   0.470
10046SOL    HW131037   1.993   3.594   0.409
10046SOL    HW231038   2.063   3.492   0.516
10047SOL     OW31039   1.130   3.058   4.622
10047SOL    HW131040   1.186   3.055   4.705
10047SOL    HW231041   1.157   3.137   4.566
10048SOL     OW31042   0.054   0.177   2.083
10048SOL    HW131043   0.133   0.238   2.070
10048SOL    HW231044   0.040   0.123   2.000
10049SOL     OW31045   1.424   1.634   5.657
10049SOL    HW131046   1.347   1.609   5.599
10049SOL    HW231047   1.413   1.728   5.689
10050SOL     OW31048   5.980   3.994   5.154
10050SOL    HW131049   5.988   4.005   5.055
10050SOL    HW231050   5.951   4.081   5.195
10051SOL     OW31051   0.626   3.896   4.860
10051SOL    HW131052   0.698   3.966   4.858
10051SOL    HW231053   0.581   3.897   4.949
10052SOL     OW31054   2.059   1.343   3.541
10052SOL    HW131055   2.035   1.339   3.444
10052SOL    HW231056   2.148   1.299   3.555
10053SOL     OW31057   4.514   6.219   4.424
10053SOL    HW131058   4.420   6.189   4.436
10053SOL    HW231059   4.561   6.219   4.512
10054SOL     OW31060   5.904   5.589   5.763
10054SOL    HW131061   5.916   5.548   5.673
10054SOL    HW231062   5.991   5.624   5.796
10055SOL     OW31063   6.198   1.845   5.194
10055SOL    HW131064   6.296   1.862   5.179
10055SOL    HW231065   6.183   1.824   5.291
10056SOL     OW31066   5.246   4.356   3.442
10056SOL    HW131067   5.194   4.274   3.465
10056SOL    HW231068   5.254   4.364   3.343
10057SOL     OW31069   5.165   3.772   5.513
10057SOL    HW131070   5.154   3.824   5.597
10057SOL    HW231071   5.208   3.831   5.443
10058SOL     OW31072   6.286   3.907   5.113
10058SOL    HW131073   6.220   3.962   5.062
10058SOL    HW231074   6.240   3.829   5.154
10059SOL     OW31075   0.113   1.459   0.511
10059SOL    HW131076   0.068   1.412   0.587
10059SOL    HW231077   0.155   1.391   0.451
10060SOL     OW31078   2.234   2.406   2.769
10060SOL    HW131079   2.228   2.335   2.699
10060SOL    HW231080   2.314   2.464   2.751
10061SOL     OW31081   4.616   0.987   3.714
10061SOL    HW131082   4.576   0.901   3.682
10061SOL    HW231083   4.561   1.023   3.789
10062SOL     OW31084   6.769   0.154   4.323
10062SOL    HW131085   6.677   0.194   4.330
10062SOL    HW231086   6.766   0.074   4.263
10063SOL     OW31087   3.129   1.340   4.695
10063SOL    HW131088   3.072   1.323   4.615
10063SOL    HW231089   3.185   1.422   4.680
10064SOL     OW31090   4.915   6.573   6.657
10064SOL    HW131091   4.844   6.503   6.651
10064SOL    HW231092   4.877   6.662   6.632
10065SOL     OW31093   2.058   1.240   1.414
10065SOL    HW131094   2.073   1.194   1.502
10065SOL    HW231095   2.145   1.271   1.377
10066SOL     OW31096   0.235   2.152   4.990
10066SOL    HW131097   0.142   2.187   4.978
10066SOL    HW231098   0.281   2.148   4.901
10067SOL     OW31099   0.133   2.989   6.384
10067SOL    HW131100   0.091   2.951   6.301
10067SOL    HW231101   0.063   3.001   6.454
10068SOL     OW31102   1.045   3.913   3.212
10068SOL    HW131103   0.967   3.970   3.238
10068SOL    HW231104   1.072   3.856   3.290
10069SOL     OW31105   3.157   4.829   1.429
10069SOL    HW131106   3.197   4.918   1.451
10069SOL    HW231107   3.059   4.839   1.412
10070SOL     OW31108   0.488   5.404   5.186
10070SOL    HW131109   0.400   5.451   5.192
10070SOL    HW231110   0.489   5.345   5.105
10071SOL     OW31111   0.866   6.982   4.136
10071SOL    HW131112   0.921   7.014   4.059
10071SOL    HW231113   0.859   0.033   4.205
10072SOL     OW31114   0.414   1.243   3.569
10072SOL    HW131115   0.412   1.157   3.519
10072SOL    HW231116   0.345   1.241   3.641
10073SOL     OW31117   6.896   3.844   3.690
10073SOL    HW131118   6.942   3.921   3.646
10073SOL    HW231119   6.798   3.847   3.670
10074SOL     OW31120   1.974   6.323   6.762
10074SOL    HW131121   1.999   6.226   6.765
10074SOL    HW231122   1.979   6.356   6.667
10075SOL     OW31123   1.422   0.953   2.729
10075SOL    HW131124   1.455   0.905   2.648
10075SOL    HW231125   1.419   1.051   2.710
10076SOL     OW31126   4.930   5.630   2.801
10076SOL    HW131127   4.876   5.713   2.787
10076SOL    HW231128   4.875   5.550   2.775
10077SOL     OW31129   4.954   2.743   1.326
10077SOL    HW131130   4.993   2.661   1.370
10077SOL    HW231131   5.026   2.791   1.276
10078SOL     OW31132   0.160   6.226   4.739
10078SOL    HW131133   0.199   6.147   4.691
10078SOL    HW231134   0.167   6.212   4.837
10079SOL     OW31135   5.810   2.697   2.547
10079SOL    HW131136   5.808   2.780   2.602
10079SOL    HW231137   5.837   2.619   2.604
10080SOL     OW31138   4.815   0.999   6.502
10080SOL    HW131139   4.769   1.065   6.443
10080SOL    HW231140   4.898   0.967   6.457
10081SOL     OW31141   0.706   1.529   6.793
10081SOL    HW131142   0.712   1.623   6.827
10081SOL    HW231143   0.615   1.492   6.812
10082SOL     OW31144   0.889   5.367   2.975
10082SOL    HW131145   0.867   5.271   2.990
10082SOL    HW231146   0.900   5.384   2.877
10083SOL     OW31147   3.154   6.948   3.977
10083SOL    HW131148   3.137   6.855   4.009
10083SOL    HW231149   3.070   6.985   3.937
10084SOL     OW31150   0.443   6.838   5.183
10084SOL    HW131151   0.395   6.837   5.095
10084SOL    HW231152   0.514   6.909   5.181
10085SOL     OW31153   3.781   0.217   0.508
10085SOL    HW131154   3.683   0.237   0.512
10085SOL    HW231155   3.834   0.301   0.520
10086SOL     OW31156   5.902   6.637   3.170
10086SOL    HW131157   5.882   6.734   3.177
10086SOL    HW231158   6.001   6.623   3.172
10087SOL     OW31159   6.609   6.399   4.435
10087SOL    HW131160   6.620   6.485   4.385
10087SOL    HW231161   6.696   6.373   4.477
10088SOL     OW31162   6.815   0.472   1.215
10088SOL    HW131163   6.747   0.520   1.160
10088SOL    HW231164   6.828   0.521   1.301
10089SOL     OW31165   2.960   1.997   3.097
10089SOL    HW131166   2.912   2.001   3.010
10089SOL    HW231167   2.993   1.904   3.114
10090SOL     OW31168   0.450   4.997   2.137
10090SOL    HW131169   0.477   4.990   2.041
10090SOL    HW231170   0.439   5.093   2.161
10091SOL     OW31171   6.235   6.084   0.011
10091SOL    HW131172   6.334   6.077   0.027
10091SOL    HW231173   6.202   6.170   0.051
10092SOL     OW31174   1.229   3.086   5.441
10092SOL    HW131175   1.159   3.136   5.391
10092SOL    HW231176   1.290   3.150   5.486
10093SOL     OW31177   4.925   3.687   4.746
10093SOL    HW131178   5.018   3.656   4.766
10093SOL    HW231179   4.876   3.703   4.832
10094SOL     OW31180   2.503   6.565   0.617
10094SOL    HW131181   2.462   6.478   0.589
10094SOL    HW231182   2.473   6.589   0.709
10095SOL     OW31183   5.538   1.485   4.672
10095SOL    HW131184   5.620   1.516   4.624
10095SOL    HW231185   5.483   1.428   4.611
10096SOL     OW31186   4.634   0.544   2.958
10096SOL    HW131187   4.616   0.539   2.860
10096SOL    HW231188   4.722   0.588   2.974
10097SOL     OW31189   2.330   2.144   6.349
10097SOL    HW131190   2.257   2.119   6.286
10097SOL    HW231191   2.372   2.062   6.387
10098SOL     OW31192   2.920   6.774   4.854
10098SOL    HW131193   2.866   6.809   4.778
10098SOL    HW231194   2.858   6.737   4.924
10099SOL     OW31195   6.405   4.582   2.361
10099SOL    HW131196   6.308   4.604   2.370
10099SOL    HW231197   6.425   4.500   2.414
10100SOL     OW31198   5.504   5.634   5.855
10100SOL    HW131199   5.419   5.658   5.808
10100SOL    HW231200   5.562   5.714   5.864
10101SOL     OW31201   6.883   2.895   1.755
10101SOL    HW131202   6.797   2.864   1.716
10101SOL    HW231203   6.943   2.927   1.682
10102SOL     OW31204   6.505   0.523   1.274
10102SOL    HW131205   6.536   0.540   1.180
10102SOL    HW231206   6.413   0.485   1.273
10103SOL     OW31207   1.425   0.443   4.813
10103SOL    HW131208   1.431   0.541   4.792
10103SOL    HW231209   1.460   0.390   4.736
10104SOL     OW31210   2.115   1.303   5.961
10104SOL    HW131211   2.033   1.245   5.959
10104SOL    HW231212   2.097   1.388   5.912
10105SOL     OW31213   2.121   1.337   6.240
10105SOL    HW131214   2.090   1.351   6.146
10105SOL    HW231215   2.089   1.248   6.272
10106SOL     OW31216   3.611   6.543   1.085
10106SOL    HW131217   3.581   6.554   0.990
10106SOL    HW231218   3.659   6.456   1.095
10107SOL     OW31219   5.368   1.964   6.368
10107SOL    HW131220   5.394   2.060   6.380
10107SOL    HW231221   5.326   1.952   6.278
10108SOL     OW31222   0.726   2.797   0.992
10108SOL    HW131223   0.735   2.746   0.906
10108SOL    HW231224   0.651   2.757   1.046
10109SOL     OW31225   0.516   1.071   0.244
10109SOL    HW131226   0.535   1.120   0.330
10109SOL    HW231227   0.536   1.131   0.167
10110SOL     OW31228   4.751   5.091   3.188
10110SOL    HW131229   4.741   5.183   3.227
10110SOL    HW231230   4.668   5.039   3.204
10111SOL     OW31231   0.583   3.442   2.722
10111SOL    HW131232   0.638   3.453   2.639
10111SOL    HW231233   0.603   3.517   2.785
10112SOL     OW31234   6.173   3.523   3.200
10112SOL    HW131235   6.246   3.482   3.146
10112SOL    HW231236   6.210   3.553   3.288
10113SOL     OW31237   4.002   0.498   0.030
10113SOL    HW131238   4.001   0.535   6.957
10113SOL    HW231239   3.937   0.423   0.036
10114SOL     OW31240   3.891   2.094   3.375
10114SOL    HW131241   3.934   2.152   3.444
10114SOL    HW231242   3.852   2.013   3.419
10115SOL     OW31243   3.614   1.602   4.216
10115SOL    HW131244   3.603   1.616   4.117
10115SOL    HW231245   3.571   1.516   4.242
10116SOL     OW31246   6.919   0.263   6.061
10116SOL    HW131247   6.897   0.207   5.981
10116SOL    HW231248   6.834   0.295   6.104
10117SOL     OW31249   6.927   5.954   5.578
10117SOL    HW131250   6.990   6.019   5.534
10117SOL    HW231251   6.979   5.885   5.627
10118SOL     OW31252   2.788   4.700   4.289
10118SOL    HW131253   2.713   4.653   4.243
10118SOL    HW231254   2.828   4.639   4.358
10119SOL     OW31255   6.775   5.672   4.191
10119SOL    HW131256   6.817   5.682   4.101
10119SOL    HW231257   6.679   5.646   4.181
10120SOL     OW31258   1.251   2.928   3.545
10120SOL    HW131259   1.227   2.998   3.478
10120SOL    HW231260   1.332   2.957   3.596
10121SOL     OW31261   6.111   4.285   1.278
10121SOL    HW131262   6.130   4.189   1.258
10121SOL    HW231263   6.013   4.298   1.290
10122SOL     OW31264   6.333   2.411   3.854
10122SOL    HW131265   6.413   2.422   3.914
10122SOL    HW231266   6.356   2.348   3.780
10123SOL     OW31267   5.925   6.493   0.436
10123SOL    HW131268   6.005   6.459   0.485
10123SOL    HW231269   5.950   6.513   0.341
10124SOL     OW31270   1.817   5.316   2.154
10124SOL    HW131271   1.874   5.234   2.150
10124SOL    HW231272   1.721   5.289   2.168
10125SOL     OW31273   2.417   1.070   1.429
10125SOL    HW131274   2.394   0.978   1.396
10125SOL    HW231275   2.422   1.070   1.528
10126SOL     OW31276   6.306   7.001   6.014
10126SOL    HW131277   6.232   0.002   6.079
10126SOL    HW231278   6.280   6.922   5.959
10127SOL     OW31279   1.277   4.256   5.986
10127SOL    HW131280   1.309   4.282   6.077
10127SOL    HW231281   1.328   4.176   5.954
10128SOL     OW31282   2.762   0.419   6.629
10128SOL    HW131283   2.818   0.436   6.547
10128SOL    HW231284   2.821   0.384   6.702
10129SOL     OW31285   0.383   1.486   1.888
10129SOL    HW131286   0.411   1.450   1.977
10129SOL    HW231287   0.311   1.555   1.901
10130SOL     OW31288   0.975   2.789   1.393
10130SOL    HW131289   1.007   2.772   1.300
10130SOL    HW231290   1.053   2.809   1.452
10131SOL     OW31291   1.617   0.508   4.084
10131SOL    HW131292   1.708   0.542   4.058
10131SOL    HW231293   1.553   0.585   4.087
10132SOL     OW31294   0.889   0.816   2.198
10132SOL    HW131295   0.883   0.915   2.193
10132SOL    HW231296   0.905   0.788   2.293
10133SOL     OW31297   3.819   6.356   1.071
10133SOL    HW131298   3.880   6.420   1.024
10133SOL    HW231299   3.791   6.284   1.008
10134SOL     OW31300   0.003   1.464   3.048
10134SOL    HW131301   7.019   1.420   3.138
10134SOL    HW231302   0.096   1.495   3.031
10135SOL     OW31303   5.676   1.401   3.860
10135SOL    HW131304   5.584   1.412   3.824
10135SOL    HW231305   5.729   1.342   3.799
10136SOL     OW31306   4.548   2.565   2.564
10136SOL    HW131307   4.615   2.537   2.495
10136SOL    HW231308   4.568   2.659   2.593
10137SOL     OW31309   0.788   4.954   5.947
10137SOL    HW131310   0.730   4.953   6.028
10137SOL    HW231311   0.853   4.878   5.951
10138SOL     OW31312   5.415   1.765   0.228
10138SOL    HW131313   5.402   1.796   0.322
10138SOL    HW231314   5.456   1.838   0.174
10139SOL     OW31315   3.904   3.071   4.846
10139SOL    HW131316   3.954   3.003   4.899
10139SOL    HW231317   3.829   3.026   4.797
10140SOL     OW31318   6.689   6.539   6.323
10140SOL    HW131319   6.708   6.489   6.407
10140SOL    HW231320   6.598   6.513   6.288
10141SOL     OW31321   4.256   0.579   3.216
10141SOL    HW131322   4.342   0.529   3.218
10141SOL    HW231323   4.180   0.516   3.227
10142SOL     OW31324   5.889   6.359   4.996
10142SOL    HW131325   5.946   6.356   5.078
10142SOL    HW231326   5.948   6.356   4.915
10143SOL     OW31327   6.028   3.108   0.116
10143SOL    HW131328   5.957   3.092   0.047
10143SOL    HW231329   6.026   3.204   0.145
10144SOL     OW31330   3.889   6.843   5.456
10144SOL    HW131331   3.933   6.930   5.434
10144SOL    HW231332   3.919   6.773   5.391
10145SOL     OW31333   4.171   6.298   2.350
10145SOL    HW131334   4.102   6.233   2.382
10145SOL    HW231335   4.205   6.352   2.427
10146SOL     OW31336   0.076   3.862   4.441
10146SOL    HW131337   7.007   3.883   4.404
10146SOL    HW231338   0.085   3.903   4.532
10147SOL     OW31339   4.645   4.812   6.892
10147SOL    HW131340   4.644   4.845   6.797
10147SOL    HW231341   4.603   4.881   6.951
10148SOL     OW31342   6.581   4.075   1.408
10148SOL    HW131343   6.495   4.124   1.422
10148SOL    HW231344   6.588   4.001   1.474
10149SOL     OW31345   4.708   4.597   1.259
10149SOL    HW131346   4.734   4.673   1.199
10149SOL    HW231347   4.724   4.510   1.212
10150SOL     OW31348   5.295   3.506   1.861
10150SOL    HW131349   5.316   3.543   1.771
10150SOL    HW231350   5.225   3.435   1.853
10151SOL     OW31351   0.354   6.793   5.589
10151SOL    HW131352   0.258   6.803   5.562
10151SOL    HW231353   0.401   6.733   5.525
10152SOL     OW31354   5.997   5.583   3.449
10152SOL    HW131355   5.923   5.517   3.436
10152SOL    HW231356   6.077   5.553   3.398
10153SOL     OW31357   4.492   6.083   3.487
10153SOL    HW131358   4.529   6.114   3.574
10153SOL    HW231359   4.395   6.108   3.480
10154SOL     OW31360   4.207   5.364   5.856
10154SOL    HW131361   4.116   5.405   5.862
10154SOL    HW231362   4.263   5.418   5.793
10155SOL     OW31363   5.172   1.851   6.188
10155SOL    HW131364   5.237   1.782   6.156
10155SOL    HW231365   5.104   1.808   6.248
10156SOL     OW31366   4.388   0.349   1.240
10156SOL    HW131367   4.444   0.430   1.261
10156SOL    HW231368   4.314   0.343   1.307
10157SOL     OW31369   0.243   2.049   0.316
10157SOL    HW131370   0.156   2.083   0.278
10157SOL    HW231371   0.230   2.027   0.413
10158SOL     OW31372   6.191   6.438   2.492
10158SOL    HW131373   6.256   6.458   2.565
10158SOL    HW231374   6.099   6.464   2.520
10159SOL     OW31375   3.427   3.222   2.595
10159SOL    HW131376   3.395   3.132   2.624
10159SOL    HW231377   3.437   3.222   2.495
10160SOL     OW31378   2.283   4.390   3.001
10160SOL    HW131379   2.251   4.296   3.010
10160SOL    HW231380   2.207   4.453   3.018
10161SOL     OW31381   3.760   4.589   6.672
10161SOL    HW131382   3.839   4.554   6.721
10161SOL    HW231383   3.688   4.612   6.738
10162SOL     OW31384   2.032   4.174   1.575
10162SOL    HW131385   2.029   4.138   1.668
10162SOL    HW231386   1.983   4.112   1.514
10163SOL     OW31387   1.069   5.800   5.735
10163SOL    HW131388   0.977   5.822   5.766
10163SOL    HW231389   1.064   5.732   5.661
10164SOL     OW31390   6.630   3.384   3.633
10164SOL    HW131391   6.548   3.328   3.631
10164SOL    HW231392   6.698   3.347   3.570
10165SOL     OW31393   5.952   2.450   3.566
10165SOL    HW131394   6.026   2.515   3.578
10165SOL    HW231395   5.936   2.401   3.652
10166SOL     OW31396   1.704   2.674   0.994
10166SOL    HW131397   1.651   2.737   0.937
10166SOL    HW231398   1.799   2.675   0.963
10167SOL     OW31399   0.285   5.009   6.983
10167SOL    HW131400   0.258   5.087   6.926
10167SOL    HW231401   0.207   4.979   0.017
10168SOL     OW31402   5.856   1.002   5.696
10168SOL    HW131403   5.891   1.088   5.660
10168SOL    HW231404   5.859   1.004   5.796
10169SOL     OW31405   6.959   3.914   2.820
10169SOL    HW131406   6.881   3.863   2.855
10169SOL    HW231407   6.989   3.981   2.888
10170SOL     OW31408   6.498   5.194   6.722
10170SOL    HW131409   6.564   5.121   6.740
10170SOL    HW231410   6.468   5.189   6.627
10171SOL     OW31411   0.985   2.640   5.756
10171SOL    HW131412   1.016   2.620   5.664
10171SOL    HW231413   0.943   2.731   5.759
10172SOL     OW31414   0.314   6.944   4.259
10172SOL    HW131415   0.396   6.992   4.227
10172SOL    HW231416   0.337   6.850   4.283
10173SOL     OW31417   3.151   3.924   0.114
10173SOL    HW131418   3.216   3.997   0.092
10173SOL    HW231419   3.058   3.957   0.099
10174SOL     OW31420   5.285   5.636   3.430
10174SOL    HW131421   5.375   5.643   3.388
10174SOL    HW231422   5.275   5.546   3.472
10175SOL     OW31423   6.631   1.543   3.228
10175SOL    HW131424   6.576   1.483   3.170
10175SOL    HW231425   6.700   1.590   3.172
10176SOL     OW31426   6.719   3.768   5.338
10176SOL    HW131427   6.690   3.697   5.274
10176SOL    HW231428   6.725   3.855   5.289
10177SOL     OW31429   2.161   0.238   1.190
10177SOL    HW131430   2.210   0.297   1.254
10177SOL    HW231431   2.097   0.292   1.136
10178SOL     OW31432   1.422   0.697   0.917
10178SOL    HW131433   1.414   0.624   0.984
10178SOL    HW231434   1.431   0.785   0.964
10179SOL     OW31435   0.103   4.180   0.170
10179SOL    HW131436   0.027   4.228   0.128
10179SOL    HW231437   0.126   4.224   0.257
10180SOL     OW31438   4.986   0.084   0.659
10180SOL    HW131439   4.960   0.171   0.616
10180SOL    HW231440   4.903   0.034   0.684
10181SOL     OW31441   6.956   3.311   1.233
10181SOL    HW131442   0.006   3.378   1.208
10181SOL    HW231443   7.000   3.227   1.264
10182SOL     OW31444   5.036   0.842   0.266
10182SOL    HW131445   4.963   0.867   0.203
10182SOL    HW231446   5.052   0.743   0.263
10183SOL     OW31447   5.951   2.998   5.792
10183SOL    HW131448   5.959   2.919   5.731
10183SOL    HW231449   5.870   2.987   5.850
10184SOL     OW31450   5.360   2.854   5.955
10184SOL    HW131451   5.314   2.920   5.896
10184SOL    HW231452   5.454   2.841   5.923
10185SOL     OW31453   4.554   5.978   2.662
10185SOL    HW131454   4.475   6.038   2.673
10185SOL    HW231455   4.543   5.923   2.579
10186SOL     OW31456   4.887   3.813   5.083
10186SOL    HW131457   4.908   3.715   5.092
10186SOL    HW231458   4.824   3.840   5.155
10187SOL     OW31459   2.265   4.175   5.266
10187SOL    HW131460   2.308   4.265   5.256
10187SOL    HW231461   2.308   4.110   5.202
10188SOL     OW31462   3.293   5.701   6.534
10188SOL    HW131463   3.296   5.754   6.450
10188SOL    HW231464   3.206   5.716   6.580
10189SOL     OW31465   1.233   0.720   0.127
10189SOL    HW131466   1.224   0.817   0.105
10189SOL    HW231467   1.285   0.674   0.056
10190SOL     OW31468   3.447   3.421   1.432
10190SOL    HW131469   3.512   3.349   1.454
10190SOL    HW231470   3.400   3.450   1.516
10191SOL     OW31471   5.725   5.920   1.395
10191SOL    HW131472   5.771   5.847   1.345
10191SOL    HW231473   5.774   5.938   1.481
10192SOL     OW31474   2.321   2.102   4.647
10192SOL    HW131475   2.242   2.159   4.626
10192SOL    HW231476   2.394   2.160   4.684
10193SOL     OW31477   3.249   3.767   2.394
10193SOL    HW131478   3.311   3.740   2.469
10193SOL    HW231479   3.155   3.753   2.423
10194SOL     OW31480   3.416   0.034   5.055
10194SOL    HW131481   3.442   0.121   5.014
10194SOL    HW231482   3.411   6.985   4.984
10195SOL     OW31483   6.741   0.161   1.609
10195SOL    HW131484   6.810   0.163   1.537
10195SOL    HW231485   6.651   0.146   1.569
10196SOL     OW31486   5.863   1.956   3.483
10196SOL    HW131487   5.932   2.019   3.518
10196SOL    HW231488   5.794   2.006   3.432
10197SOL     OW31489   5.752   0.688   4.239
10197SOL    HW131490   5.828   0.733   4.193
10197SOL    HW231491   5.671   0.746   4.234
10198SOL     OW31492   3.575   6.722   0.373
10198SOL    HW131493   3.523   6.637   0.364
10198SOL    HW231494   3.567   6.758   0.466
10199SOL     OW31495   0.561   1.155   6.761
10199SOL    HW131496   0.542   1.241   6.714
10199SOL    HW231497   0.654   1.125   6.737
10200SOL     OW31498   4.888   2.955   5.415
10200SOL    HW131499   4.917   3.048   5.394
10200SOL    HW231500   4.930   2.891   5.350
10201SOL     OW31501   0.519   6.123   1.263
10201SOL    HW131502   0.471   6.129   1.351
10201SOL    HW231503   0.460   6.078   1.196
10202SOL     OW31504   1.448   3.548   0.562
10202SOL    HW131505   1.350   3.570   0.563
10202SOL    HW231506   1.484   3.553   0.655
10203SOL     OW31507   1.645   2.706   1.938
10203SOL    HW131508   1.717   2.740   1.999
10203SOL    HW231509   1.674   2.718   1.843
10204SOL     OW31510   3.932   4.556   6.067
10204SOL    HW131511   3.894   4.497   5.996
10204SOL    HW231512   3.994   4.623   6.026
10205SOL     OW31513   3.948   1.156   2.861
10205SOL    HW131514   3.945   1.114   2.951
10205SOL    HW231515   3.858   1.150   2.818
10206SOL     OW31516   5.198   6.076   6.221
10206SOL    HW131517   5.109   6.105   6.187
10206SOL    HW231518   5.269   6.137   6.187
10207SOL     OW31519   1.390   0.474   1.118
10207SOL    HW131520   1.481   0.515   1.118
10207SOL    HW231521   1.354   0.474   1.211
10208SOL     OW31522   6.892   4.923   4.757
10208SOL    HW131523   6.989   4.945   4.763
10208SOL    HW231524   6.843   5.002   4.718
10209SOL     OW31525   0.494   1.048   5.381
10209SOL    HW131526   0.448   0.970   5.424
10209SOL    HW231527   0.474   1.131   5.433
10210SOL     OW31528   5.053   0.036   1.537
10210SOL    HW131529   4.994   6.979   1.515
10210SOL    HW231530   5.014   0.087   1.613
10211SOL     OW31531   4.464   6.531   5.789
10211SOL    HW131532   4.397   6.564   5.723
10211SOL    HW231533   4.475   6.599   5.861
10212SOL     OW31534   0.238   1.367   4.304
10212SOL    HW131535   0.171   1.324   4.243
10212SOL    HW231536   0.291   1.434   4.254
10213SOL     OW31537   6.196   1.805   2.642
10213SOL    HW131538   6.296   1.800   2.648
10213SOL    HW231539   6.156   1.721   2.678
10214SOL     OW31540   0.878   1.072   2.596
10214SOL    HW131541   0.841   1.125   2.520
10214SOL    HW231542   0.878   0.975   2.573
10215SOL     OW31543   3.418   2.777   5.214
10215SOL    HW131544   3.448   2.811   5.125
10215SOL    HW231545   3.394   2.680   5.207
10216SOL     OW31546   7.008   6.994   0.807
10216SOL    HW131547   0.085   7.001   0.787
10216SOL    HW231548   6.971   0.065   0.823
10217SOL     OW31549   2.304   1.248   3.637
10217SOL    HW131550   2.261   1.259   3.726
10217SOL    HW231551   2.403   1.253   3.647
10218SOL     OW31552   0.777   1.121   0.825
10218SOL    HW131553   0.788   1.022   0.821
10218SOL    HW231554   0.866   1.165   0.817
10219SOL     OW31555   0.495   2.980   1.833
10219SOL    HW131556   0.562   2.923   1.880
10219SOL    HW231557   0.531   3.007   1.743
10220SOL     OW31558   4.263   1.606   2.164
10220SOL    HW131559   4.337   1.666   2.196
10220SOL    HW231560   4.184   1.616   2.224
10221SOL     OW31561   1.355   1.852   3.880
10221SOL    HW131562   1.333   1.839   3.977
10221SOL    HW231563   1.271   1.868   3.828
10222SOL     OW31564   0.580   3.493   5.742
10222SOL    HW131565   0.626   3.544   5.669
10222SOL    HW231566   0.524   3.420   5.702
10223SOL     OW31567   2.161   5.845   6.302
10223SOL    HW131568   2.155   5.756   6.347
10223SOL    HW231569   2.162   5.832   6.203
10224SOL     OW31570   0.520   0.823   4.371
10224SOL    HW131571   0.427   0.852   4.349
10224SOL    HW231572   0.584   0.871   4.312
10225SOL     OW31573   1.563   6.233   5.337
10225SOL    HW131574   1.549   6.182   5.252
10225SOL    HW231575   1.560   6.331   5.318
10226SOL     OW31576   2.698   0.385   0.330
10226SOL    HW131577   2.604   0.375   0.298
10226SOL    HW231578   2.713   0.478   0.362
10227SOL     OW31579   4.765   4.838   1.106
10227SOL    HW131580   4.821   4.878   1.033
10227SOL    HW231581   4.734   4.911   1.167
10228SOL     OW31582   0.845   5.448   2.313
10228SOL    HW131583   0.807   5.431   2.404
10228SOL    HW231584   0.792   5.398   2.245
10229SOL     OW31585   1.180   1.283   4.434
10229SOL    HW131586   1.104   1.341   4.462
10229SOL    HW231587   1.147   1.214   4.370
10230SOL     OW31588   6.959   0.194   3.357
10230SOL    HW131589   6.919   0.108   3.387
10230SOL    HW231590   6.890   0.247   3.307
10231SOL     OW31591   0.228   6.080   5.886
10231SOL    HW131592   0.172   6.015   5.938
10231SOL    HW231593   0.306   6.109   5.941
10232SOL     OW31594   3.186   0.487   4.203
10232SOL    HW131595   3.285   0.484   4.217
10232SOL    HW231596   3.165   0.457   4.110
10233SOL     OW31597   5.268   3.341   5.079
10233SOL    HW131598   5.356   3.294   5.082
10233SOL    HW231599   5.207   3.303   5.148
10234SOL     OW31600   5.401   0.519   0.806
10234SOL    HW131601   5.369   0.424   0.795
10234SOL    HW231602   5.338   0.568   0.865
10235SOL     OW31603   4.674   1.761   0.577
10235SOL    HW131604   4.658   1.665   0.601
10235SOL    HW231605   4.773   1.775   0.564
10236SOL     OW31606   1.443   6.181   2.076
10236SOL    HW131607   1.384   6.251   2.036
10236SOL    HW231608   1.390   6.123   2.137
10237SOL     OW31609   6.161   4.013   1.076
10237SOL    HW131610   6.210   3.934   1.113
10237SOL    HW231611   6.226   4.089   1.063
10238SOL     OW31612   3.427   4.157   4.428
10238SOL    HW131613   3.343   4.136   4.477
10238SOL    HW231614   3.505   4.148   4.490
10239SOL     OW31615   1.322   3.857   5.158
10239SOL    HW131616   1.390   3.803   5.108
10239SOL    HW231617   1.336   3.846   5.256
10240SOL     OW31618   1.710   4.656   2.982
10240SOL    HW131619   1.777   4.721   2.946
10240SOL    HW231620   1.638   4.705   3.030
10241SOL     OW31621   0.362   0.632   2.072
10241SOL    HW131622   0.452   0.631   2.028
10241SOL    HW231623   0.372   0.660   2.168
10242SOL     OW31624   6.464   1.920   6.818
10242SOL    HW131625   6.493   1.937   6.913
10242SOL    HW231626   6.398   1.990   6.791
10243SOL     OW31627   0.222   5.415   1.288
10243SOL    HW131628   0.252   5.350   1.358
10243SOL    HW231629   0.237   5.375   1.197
10244SOL     OW31630   1.914   4.519   6.925
10244SOL    HW131631   1.910   4.536   6.826
10244SOL    HW231632   1.941   4.603   6.972
10245SOL     OW31633   3.169   4.117   0.349
10245SOL    HW131634   3.136   4.023   0.358
10245SOL    HW231635   3.234   4.123   0.273
10246SOL     OW31636   2.997   3.792   3.849
10246SOL    HW131637   2.968   3.761   3.758
10246SOL    HW231638   2.998   3.714   3.912
10247SOL     OW31639   0.391   5.583   4.615
10247SOL    HW131640   0.385   5.536   4.527
10247SOL    HW231641   0.447   5.665   4.606
10248SOL     OW31642   2.867   0.220   1.971
10248SOL    HW131643   2.848   0.124   1.996
10248SOL    HW231644   2.849   0.278   2.051
10249SOL     OW31645   3.143   0.702   5.852
10249SOL    HW131646   3.129   0.800   5.855
10249SOL    HW231647   3.143   0.665   5.945
10250SOL     OW31648   6.994   2.099   1.299
10250SOL    HW131649   6.912   2.135   1.344
10250SOL    HW231650   7.019   2.158   1.222
10251SOL     OW31651   2.125   2.671   5.176
10251SOL    HW131652   2.197   2.687   5.108
10251SOL    HW231653   2.091   2.759   5.209
10252SOL     OW31654   0.069   6.006   0.384
10252SOL    HW131655   0.051   5.941   0.311
10252SOL    HW231656   7.005   6.029   0.431
10253SOL     OW31657   5.281   6.235   0.768
10253SOL    HW131658   5.372   6.222   0.728
10253SOL    HW231659   5.291   6.275   0.860
10254SOL     OW31660   4.268   2.228   5.038
10254SOL    HW131661   4.247   2.326   5.032
10254SOL    HW231662   4.314   2.199   4.954
10255SOL     OW31663   2.678   5.247   1.914
10255SOL    HW131664   2.720   5.321   1.967
10255SOL    HW231665   2.682   5.162   1.966
10256SOL     OW31666   5.568   0.306   1.840
10256SOL    HW131667   5.587   0.353   1.753
10256SOL    HW231668   5.595   0.365   1.916
10257SOL     OW31669   2.184   5.171   4.088
10257SOL    HW131670   2.200   5.242   4.019
10257SOL    HW231671   2.086   5.156   4.099
10258SOL     OW31672   4.437   0.351   3.951
10258SOL    HW131673   4.391   0.308   4.028
10258SOL    HW231674   4.534   0.326   3.952
10259SOL     OW31675   0.942   5.305   3.283
10259SOL    HW131676   0.949   5.293   3.184
10259SOL    HW231677   0.984   5.393   3.309
10260SOL     OW31678   0.170   0.629   3.279
10260SOL    HW131679   0.260   0.593   3.303
10260SOL    HW231680   0.106   0.554   3.267
10261SOL     OW31681   6.909   6.390   2.312
10261SOL    HW131682   6.938   6.305   2.358
10261SOL    HW231683   6.812   6.383   2.287
10262SOL     OW31684   3.030   6.092   4.673
10262SOL    HW131685   3.115   6.064   4.718
10262SOL    HW231686   2.952   6.055   4.723
10263SOL     OW31687   4.556   1.275   6.651
10263SOL    HW131688   4.581   1.370   6.633
10263SOL    HW231689   4.605   1.215   6.588
10264SOL     OW31690   5.551   1.780   6.947
10264SOL    HW131691   5.533   1.682   6.947
10264SOL    HW231692   5.590   1.807   6.859
10265SOL     OW31693   3.628   2.069   2.923
10265SOL    HW131694   3.667   2.131   2.991
10265SOL    HW231695   3.620   2.116   2.835
10266SOL     OW31696   3.523   2.747   5.463
10266SOL    HW131697   3.468   2.738   5.380
10266SOL    HW231698   3.612   2.704   5.449
10267SOL     OW31699   6.411   1.950   6.174
10267SOL    HW131700   6.338   1.923   6.111
10267SOL    HW231701   6.499   1.949   6.125
10268SOL     OW31702   3.846   6.211   1.792
10268SOL    HW131703   3.790   6.213   1.709
10268SOL    HW231704   3.877   6.304   1.813
10269SOL     OW31705   1.685   2.258   5.491
10269SOL    HW131706   1.784   2.260   5.473
10269SOL    HW231707   1.665   2.188   5.560
10270SOL     OW31708   2.312   5.301   2.813
10270SOL    HW131709   2.395   5.244   2.808
10270SOL    HW231710   2.241   5.261   2.756
10271SOL     OW31711   4.013   3.402   0.111
10271SOL    HW131712   3.994   3.309   0.144
10271SOL    HW231713   3.967   3.468   0.170
10272SOL     OW31714   1.117   0.055   4.592
10272SOL    HW131715   1.053   0.105   4.650
10272SOL    HW231716   1.086   6.980   4.584
10273SOL     OW31717   4.761   5.282   3.599
10273SOL    HW131718   4.822   5.345   3.648
10273SOL    HW231719   4.687   5.254   3.660
10274SOL     OW31720   1.240   4.295   5.153
10274SOL    HW131721   1.278   4.220   5.208
10274SOL    HW231722   1.315   4.347   5.111
10275SOL     OW31723   0.933   6.935   1.944
10275SOL    HW131724   0.887   6.875   1.878
10275SOL    HW231725   0.897   0.007   1.935
10276SOL     OW31726   6.404   5.509   6.317
10276SOL    HW131727   6.369   5.569   6.389
10276SOL    HW231728   6.493   5.472   6.345
10277SOL     OW31729   2.742   5.940   4.060
10277SOL    HW131730   2.829   5.895   4.038
10277SOL    HW231731   2.670   5.871   4.068
10278SOL     OW31732   5.472   0.729   4.965
10278SOL    HW131733   5.460   0.805   4.902
10278SOL    HW231734   5.560   0.738   5.012
10279SOL     OW31735   2.639   6.728   4.129
10279SOL    HW131736   2.627   6.809   4.187
10279SOL    HW231737   2.731   6.729   4.090
10280SOL     OW31738   1.932   3.629   1.141
10280SOL    HW131739   2.023   3.612   1.102
10280SOL    HW231740   1.942   3.652   1.238
10281SOL     OW31741   6.348   2.198   2.766
10281SOL    HW131742   6.285   2.184   2.689
10281SOL    HW231743   6.439   2.164   2.740
10282SOL     OW31744   6.334   3.951   4.179
10282SOL    HW131745   6.253   3.952   4.238
10282SOL    HW231746   6.317   4.009   4.099
10283SOL     OW31747   1.099   3.188   0.282
10283SOL    HW131748   1.120   3.183   0.380
10283SOL    HW231749   1.133   3.275   0.245
10284SOL     OW31750   4.951   4.312   5.694
10284SOL    HW131751   4.857   4.310   5.659
10284SOL    HW231752   4.982   4.218   5.709
10285SOL     OW31753   4.612   0.513   0.873
10285SOL    HW131754   4.634   0.450   0.799
10285SOL    HW231755   4.682   0.508   0.943
10286SOL     OW31756   3.344   2.129   3.937
10286SOL    HW131757   3.293   2.134   4.023
10286SOL    HW231758   3.280   2.118   3.861
10287SOL     OW31759   1.268   6.432   1.641
10287SOL    HW131760   1.368   6.425   1.646
10287SOL    HW231761   1.233   6.364   1.577
10288SOL     OW31762   5.225   6.460   2.315
10288SOL    HW131763   5.211   6.463   2.216
10288SOL    HW231764   5.138   6.477   2.361
10289SOL     OW31765   3.538   0.858   2.302
10289SOL    HW131766   3.491   0.946   2.301
10289SOL    HW231767   3.501   0.800   2.230
10290SOL     OW31768   3.646   3.925   2.643
10290SOL    HW131769   3.708   3.980   2.588
10290SOL    HW231770   3.614   3.978   2.721
10291SOL     OW31771   4.095   1.004   4.388
10291SOL    HW131772   4.025   1.067   4.420
10291SOL    HW231773   4.055   0.938   4.324
10292SOL     OW31774   0.621   1.452   4.558
10292SOL    HW131775   0.526   1.462   4.588
10292SOL    HW231776   0.640   1.517   4.484
10293SOL     OW31777   1.936   6.329   3.406
10293SOL    HW131778   2.007   6.310   3.338
10293SOL    HW231779   1.849   6.290   3.376
10294SOL     OW31780   4.885   3.532   3.239
10294SOL    HW131781   4.883   3.601   3.167
10294SOL    HW231782   4.904   3.574   3.327
10295SOL     OW31783   6.311   5.155   6.181
10295SOL    HW131784   6.213   5.153   6.200
10295SOL    HW231785   6.331   5.091   6.106
10296SOL     OW31786   5.136   3.255   6.640
10296SOL    HW131787   5.075   3.327   6.674
10296SOL    HW231788   5.123   3.244   6.542
10297SOL     OW31789   2.484   6.483   5.042
10297SOL    HW131790   2.472   6.559   5.106
10297SOL    HW231791   2.394   6.445   5.018
10298SOL     OW31792   4.166   5.179   2.599
10298SOL    HW131793   4.156   5.080   2.589
10298SOL    HW231794   4.186   5.201   2.694
10299SOL     OW31795   4.603   4.675   2.370
10299SOL    HW131796   4.553   4.607   2.425
10299SOL    HW231797   4.563   4.766   2.387
10300SOL     OW31798   1.986   4.767   2.639
10300SOL    HW131799   1.936   4.715   2.570
10300SOL    HW231800   1.930   4.844   2.669
10301SOL     OW31801   5.938   1.981   2.854
10301SOL    HW131802   5.910   1.920   2.780
10301SOL    HW231803   5.874   1.972   2.931
10302SOL     OW31804   1.047   6.215   4.112
10302SOL    HW131805   1.113   6.180   4.179
10302SOL    HW231806   1.097   6.257   4.036
10303SOL     OW31807   3.330   4.938   1.175
10303SOL    HW131808   3.399   4.886   1.224
10303SOL    HW231809   3.368   4.974   1.090
10304SOL     OW31810   5.572   0.873   2.643
10304SOL    HW131811   5.484   0.920   2.641
10304SOL    HW231812   5.625   0.904   2.722
10305SOL     OW31813   0.148   5.120   6.559
10305SOL    HW131814   0.106   5.038   6.599
10305SOL    HW231815   0.101   5.201   6.592
10306SOL     OW31816   4.565   6.320   6.463
10306SOL    HW131817   4.466   6.319   6.476
10306SOL    HW231818   4.591   6.399   6.407
10307SOL     OW31819   2.496   1.943   4.525
10307SOL    HW131820   2.478   1.913   4.432
10307SOL    HW231821   2.429   2.013   4.552
10308SOL     OW31822   2.719   4.880   4.012
10308SOL    HW131823   2.677   4.801   4.057
10308SOL    HW231824   2.648   4.943   3.980
10309SOL     OW31825   6.463   0.486   3.956
10309SOL    HW131826   6.461   0.575   4.002
10309SOL    HW231827   6.424   0.416   4.016
10310SOL     OW31828   4.006   2.732   1.418
10310SOL    HW131829   3.947   2.663   1.460
10310SOL    HW231830   4.023   2.806   1.484
10311SOL     OW31831   0.709   5.832   0.688
10311SOL    HW131832   0.665   5.866   0.771
10311SOL    HW231833   0.667   5.875   0.608
10312SOL     OW31834   3.445   5.217   1.051
10312SOL    HW131835   3.402   5.285   1.110
10312SOL    HW231836   3.468   5.259   0.963
10313SOL     OW31837   3.769   6.796   2.345
10313SOL    HW131838   3.682   6.787   2.296
10313SOL    HW231839   3.816   6.879   2.314
10314SOL     OW31840   5.789   0.896   1.553
10314SOL    HW131841   5.691   0.918   1.553
10314SOL    HW231842   5.840   0.973   1.592
10315SOL     OW31843   6.328   6.210   4.575
10315SOL    HW131844   6.333   6.290   4.516
10315SOL    HW231845   6.358   6.234   4.668
10316SOL     OW31846   6.493   3.879   4.919
10316SOL    HW131847   6.422   3.884   4.989
10316SOL    HW231848   6.475   3.801   4.859
10317SOL     OW31849   3.492   4.705   6.190
10317SOL    HW131850   3.550   4.785   6.176
10317SOL    HW231851   3.486   4.686   6.288
10318SOL     OW31852   6.585   5.449   1.445
10318SOL    HW131853   6.503   5.478   1.494
10318SOL    HW231854   6.588   5.349   1.441
10319SOL     OW31855   1.124   3.482   5.116
10319SOL    HW131856   1.033   3.445   5.100
10319SOL    HW231857   1.132   3.510   5.212
10320SOL     OW31858   0.524   0.704   0.434
10320SOL    HW131859   0.481   0.692   0.524
10320SOL    HW231860   0.478   0.778   0.385
10321SOL     OW31861   4.111   0.367   5.058
10321SOL    HW131862   4.091   0.387   5.154
10321SOL    HW231863   4.117   0.452   5.006
10322SOL     OW31864   6.295   5.780   0.064
10322SOL    HW131865   6.224   5.847   0.086
10322SOL    HW231866   6.268   5.691   0.101
10323SOL     OW31867   6.595   3.825   6.068
10323SOL    HW131868   6.619   3.891   6.139
10323SOL    HW231869   6.624   3.733   6.096
10324SOL     OW31870   3.245   2.944   3.604
10324SOL    HW131871   3.332   2.924   3.559
10324SOL    HW231872   3.171   2.894   3.559
10325SOL     OW31873   6.371   4.690   3.799
10325SOL    HW131874   6.305   4.640   3.743
10325SOL    HW231875   6.458   4.641   3.800
10326SOL     OW31876   4.891   2.690   0.341
10326SOL    HW131877   4.935   2.601   0.325
10326SOL    HW231878   4.857   2.694   0.435
10327SOL     OW31879   2.886   1.675   2.233
10327SOL    HW131880   2.851   1.599   2.288
10327SOL    HW231881   2.868   1.657   2.136
10328SOL     OW31882   6.110   3.399   1.581
10328SOL    HW131883   6.182   3.463   1.607
10328SOL    HW231884   6.125   3.312   1.628
10329SOL     OW31885   2.712   0.466   4.927
10329SOL    HW131886   2.720   0.408   4.846
10329SOL    HW231887   2.641   0.430   4.988
10330SOL     OW31888   3.050   5.439   2.793
10330SOL    HW131889   3.017   5.361   2.739
10330SOL    HW231890   3.092   5.506   2.732
10331SOL     OW31891   6.351   0.507   3.068
10331SOL    HW131892   6.379   0.535   2.977
10331SOL    HW231893   6.348   0.587   3.128
10332SOL     OW31894   6.653   1.512   0.544
10332SOL    HW131895   6.672   1.528   0.641
10332SOL    HW231896   6.563   1.548   0.522
10333SOL     OW31897   5.814   4.555   4.306
10333SOL    HW131898   5.750   4.631   4.298
10333SOL    HW231899   5.871   4.567   4.388
10334SOL     OW31900   2.109   5.853   3.383
10334SOL    HW131901   2.118   5.860   3.482
10334SOL    HW231902   2.177   5.913   3.339
10335SOL     OW31903   1.503   4.339   6.650
10335SOL    HW131904   1.407   4.332   6.624
10335SOL    HW231905   1.512   4.395   6.732
10336SOL     OW31906   5.079   6.772   2.986
10336SOL    HW131907   5.080   6.771   3.086
10336SOL    HW231908   5.119   6.687   2.952
10337SOL     OW31909   0.205   5.752   5.360
10337SOL    HW131910   0.124   5.697   5.381
10337SOL    HW231911   0.227   5.811   5.437
10338SOL     OW31912   3.399   6.382   1.139
10338SOL    HW131913   3.479   6.437   1.115
10338SOL    HW231914   3.345   6.364   1.056
10339SOL     OW31915   3.577   4.749   1.130
10339SOL    HW131916   3.492   4.706   1.159
10339SOL    HW231917   3.638   4.680   1.091
10340SOL     OW31918   1.630   5.820   6.716
10340SOL    HW131919   1.693   5.835   6.640
10340SOL    HW231920   1.563   5.894   6.720
10341SOL     OW31921   1.995   2.796   1.713
10341SOL    HW131922   1.938   2.854   1.771
10341SOL    HW231923   2.089   2.830   1.714
10342SOL     OW31924   2.417   5.823   5.569
10342SOL    HW131925   2.477   5.816   5.489
10342SOL    HW231926   2.454   5.891   5.632
10343SOL     OW31927   2.417   4.079   0.189
10343SOL    HW131928   2.385   4.025   0.267
10343SOL    HW231929   2.510   4.051   0.166
10344SOL     OW31930   4.066   3.804   3.461
10344SOL    HW131931   4.101   3.879   3.405
10344SOL    HW231932   3.982   3.832   3.506
10345SOL     OW31933   1.981   1.094   6.874
10345SOL    HW131934   1.961   1.187   6.907
10345SOL    HW231935   1.948   1.085   6.780
10346SOL     OW31936   5.836   0.564   1.213
10346SOL    HW131937   5.935   0.571   1.197
10346SOL    HW231938   5.789   0.636   1.163
10347SOL     OW31939   5.211   2.330   1.226
10347SOL    HW131940   5.235   2.284   1.141
10347SOL    HW231941   5.283   2.316   1.293
10348SOL     OW31942   6.667   0.928   6.324
10348SOL    HW131943   6.581   0.974   6.344
10348SOL    HW231944   6.649   0.838   6.285
10349SOL     OW31945   6.104   0.605   1.171
10349SOL    HW131946   6.156   0.587   1.255
10349SOL    HW231947   6.168   0.626   1.097
10350SOL     OW31948   3.495   6.391   4.530
10350SOL    HW131949   3.404   6.373   4.566
10350SOL    HW231950   3.561   6.388   4.605
10351SOL     OW31951   5.677   5.010   5.981
10351SOL    HW131952   5.681   5.061   5.896
10351SOL    HW231953   5.581   4.997   6.007
10352SOL     OW31954   5.454   2.219   6.461
10352SOL    HW131955   5.507   2.300   6.437
10352SOL    HW231956   5.460   2.203   6.560
10353SOL     OW31957   6.793   2.904   3.910
10353SOL    HW131958   6.830   2.815   3.936
10353SOL    HW231959   6.866   2.962   3.874
10354SOL     OW31960   0.697   3.636   0.807
10354SOL    HW131961   0.778   3.587   0.839
10354SOL    HW231962   0.652   3.680   0.884
10355SOL     OW31963   0.824   0.846   0.804
10355SOL    HW131964   0.791   0.824   0.712
10355SOL    HW231965   0.752   0.830   0.870
10356SOL     OW31966   0.204   3.516   6.590
10356SOL    HW131967   0.121   3.469   6.562
10356SOL    HW231968   0.223   3.497   6.686
10357SOL     OW31969   2.735   2.134   5.712
10357SOL    HW131970   2.833   2.133   5.731
10357SOL    HW231971   2.715   2.072   5.636
10358SOL     OW31972   1.228   3.307   2.914
10358SOL    HW131973   1.154   3.268   2.969
10358SOL    HW231974   1.306   3.328   2.973
10359SOL     OW31975   4.927   2.325   2.225
10359SOL    HW131976   4.932   2.233   2.264
10359SOL    HW231977   4.871   2.383   2.284
10360SOL     OW31978   4.991   5.437   2.139
10360SOL    HW131979   4.953   5.445   2.231
10360SOL    HW231980   5.086   5.405   2.145
10361SOL     OW31981   2.690   0.755   2.408
10361SOL    HW131982   2.775   0.803   2.384
10361SOL    HW231983   2.697   0.659   2.381
10362SOL     OW31984   0.596   5.122   2.431
10362SOL    HW131985   0.587   5.023   2.433
10362SOL    HW231986   0.689   5.147   2.405
10363SOL     OW31987   4.973   2.887   0.928
10363SOL    HW131988   4.892   2.938   0.900
10363SOL    HW231989   4.946   2.800   0.968
10364SOL     OW31990   5.168   4.683   1.769
10364SOL    HW131991   5.112   4.602   1.783
10364SOL    HW231992   5.258   4.670   1.812
10365SOL     OW31993   5.768   4.975   0.410
10365SOL    HW131994   5.858   5.012   0.384
10365SOL    HW231995   5.753   4.888   0.362
10366SOL     OW31996   4.299   6.730   3.527
10366SOL    HW131997   4.234   6.657   3.549
10366SOL    HW231998   4.270   6.815   3.571
10367SOL     OW31999   6.973   1.646   1.858
10367SOL    HW132000   6.944   1.741   1.851
10367SOL    HW232001   0.002   1.633   1.944
10368SOL     OW32002   2.086   1.076   2.780
10368SOL    HW132003   2.073   1.034   2.870
10368SOL    HW232004   2.055   1.013   2.709
10369SOL     OW32005   2.681   6.442   6.224
10369SOL    HW132006   2.745   6.419   6.151
10369SOL    HW232007   2.599   6.483   6.185
10370SOL     OW32008   6.253   1.585   4.682
10370SOL    HW132009   6.283   1.678   4.704
10370SOL    HW232010   6.243   1.532   4.766
10371SOL     OW32011   2.962   6.903   3.509
10371SOL    HW132012   3.043   6.958   3.487
10371SOL    HW232013   2.954   6.894   3.608
10372SOL     OW32014   2.692   1.050   1.423
10372SOL    HW132015   2.599   1.088   1.419
10372SOL    HW232016   2.756   1.114   1.380
10373SOL     OW32017   0.842   6.521   4.900
10373SOL    HW132018   0.901   6.458   4.951
10373SOL    HW232019   0.850   6.613   4.939
10374SOL     OW32020   2.709   0.383   4.636
10374SOL    HW132021   2.781   0.333   4.683
10374SOL    HW232022   2.715   0.480   4.659
10375SOL     OW32023   3.244   2.197   6.439
10375SOL    HW132024   3.209   2.199   6.346
10375SOL    HW232025   3.211   2.277   6.490
10376SOL     OW32026   1.140   6.272   3.851
10376SOL    HW132027   1.073   6.231   3.789
10376SOL    HW232028   1.230   6.232   3.834
10377SOL     OW32029   0.897   1.815   1.571
10377SOL    HW132030   0.815   1.765   1.541
10377SOL    HW232031   0.939   1.766   1.648
10378SOL     OW32032   6.811   5.167   6.095
10378SOL    HW132033   6.879   5.192   6.164
10378SOL    HW232034   6.744   5.241   6.085
10379SOL     OW32035   3.697   5.451   3.563
10379SOL    HW132036   3.781   5.484   3.518
10379SOL    HW232037   3.702   5.471   3.661
10380SOL     OW32038   1.089   2.194   5.109
10380SOL    HW132039   1.162   2.201   5.177
10380SOL    HW232040   1.001   2.208   5.154
10381SOL     OW32041   4.006   3.943   0.593
10381SOL    HW132042   3.969   4.035   0.576
10381SOL    HW232043   4.102   3.950   0.619
10382SOL     OW32044   2.874   6.315   1.751
10382SOL    HW132045   2.893   6.230   1.800
10382SOL    HW232046   2.922   6.391   1.796
10383SOL     OW32047   2.185   3.827   0.365
10383SOL    HW132048   2.158   3.740   0.406
10383SOL    HW232049   2.169   3.824   0.266
10384SOL     OW32050   6.841   6.578   0.837
10384SOL    HW132051   6.875   6.527   0.916
10384SOL    HW232052   6.749   6.548   0.814
10385SOL     OW32053   4.184   5.983   6.421
10385SOL    HW132054   4.143   6.068   6.390
10385SOL    HW232055   4.165   5.970   6.519
10386SOL     OW32056   0.886   0.943   5.354
10386SOL    HW132057   0.838   0.859   5.328
10386SOL    HW232058   0.959   0.961   5.287
10387SOL     OW32059   4.642   2.679   2.878
10387SOL    HW132060   4.565   2.626   2.842
10387SOL    HW232061   4.727   2.630   2.859
10388SOL     OW32062   2.149   6.997   0.897
10388SOL    HW132063   2.147   6.903   0.930
10388SOL    HW232064   2.190   7.000   0.806
10389SOL     OW32065   5.479   3.524   1.464
10389SOL    HW132066   5.389   3.488   1.440
10389SOL    HW232067   5.473   3.623   1.478
10390SOL     OW32068   1.640   2.547   6.649
10390SOL    HW132069   1.581   2.497   6.713
10390SOL    HW232070   1.583   2.606   6.591
10391SOL     OW32071   1.089   6.428   3.527
10391SOL    HW132072   1.026   6.426   3.604
10391SOL    HW232073   1.097   6.336   3.488
10392SOL     OW32074   5.718   5.254   5.334
10392SOL    HW132075   5.720   5.168   5.386
10392SOL    HW232076   5.664   5.322   5.385
10393SOL     OW32077   2.050   3.531   3.724
10393SOL    HW132078   2.049   3.629   3.702
10393SOL    HW232079   2.094   3.481   3.649
10394SOL     OW32080   2.609   5.571   4.686
10394SOL    HW132081   2.556   5.599   4.766
10394SOL    HW232082   2.572   5.615   4.604
10395SOL     OW32083   0.069   0.005   1.110
10395SOL    HW132084   0.131   0.005   1.189
10395SOL    HW232085   0.072   0.095   1.065
10396SOL     OW32086   4.007   1.596   3.749
10396SOL    HW132087   3.987   1.498   3.741
10396SOL    HW232088   4.094   1.616   3.704
10397SOL     OW32089   3.140   1.830   3.929
10397SOL    HW132090   3.143   1.911   3.987
10397SOL    HW232091   3.214   1.768   3.955
10398SOL     OW32092   6.212   2.931   1.083
10398SOL    HW132093   6.136   2.882   1.126
10398SOL    HW232094   6.275   2.866   1.041
10399SOL     OW32095   5.915   2.234   3.233
10399SOL    HW132096   5.887   2.278   3.318
10399SOL    HW232097   5.983   2.292   3.186
10400SOL     OW32098   4.157   5.695   0.127
10400SOL    HW132099   4.112   5.780   0.157
10400SOL    HW232100   4.142   5.683   0.029
10401SOL     OW32101   0.230   6.647   2.021
10401SOL    HW132102   0.189   6.588   2.091
10401SOL    HW232103   0.162   6.667   1.950
10402SOL     OW32104   6.605   1.803   5.626
10402SOL    HW132105   6.673   1.866   5.664
10402SOL    HW232106   6.633   1.709   5.646
10403SOL     OW32107   5.033   2.014   3.504
10403SOL    HW132108   5.058   2.106   3.533
10403SOL    HW232109   4.979   1.970   3.575
10404SOL     OW32110   5.884   6.255   4.460
10404SOL    HW132111   5.859   6.219   4.371
10404SOL    HW232112   5.984   6.265   4.465
10405SOL     OW32113   1.037   0.332   4.853
10405SOL    HW132114   1.060   0.323   4.950
10405SOL    HW232115   1.104   0.391   4.808
10406SOL     OW32116   2.149   4.459   3.311
10406SOL    HW132117   2.067   4.505   3.343
10406SOL    HW232118   2.227   4.522   3.317
10407SOL     OW32119   2.496   6.941   6.194
10407SOL    HW132120   2.465   6.905   6.282
10407SOL    HW232121   2.591   6.971   6.202
10408SOL     OW32122   4.207   6.947   1.262
10408SOL    HW132123   4.126   6.900   1.227
10408SOL    HW232124   4.286   6.924   1.206
10409SOL     OW32125   0.315   4.799   0.812
10409SOL    HW132126   0.412   4.803   0.838
10409SOL    HW232127   0.307   4.759   0.721
10410SOL     OW32128   5.351   1.856   1.828
10410SOL    HW132129   5.335   1.940   1.880
10410SOL    HW232130   5.313   1.778   1.879
10411SOL     OW32131   3.449   6.572   3.358
10411SOL    HW132132   3.395   6.488   3.352
10411SOL    HW232133   3.407   6.635   3.423
10412SOL     OW32134   0.298   1.301   0.127
10412SOL    HW132135   0.305   1.258   0.037
10412SOL    HW232136   0.374   1.364   0.140
10413SOL     OW32137   0.251   2.887   0.271
10413SOL    HW132138   0.339   2.909   0.313
10413SOL    HW232139   0.259   2.893   0.171
10414SOL     OW32140   3.914   5.234   5.660
10414SOL    HW132141   4.005   5.195   5.668
10414SOL    HW232142   3.878   5.254   5.751
10415SOL     OW32143   1.490   3.669   5.060
10415SOL    HW132144   1.456   3.619   5.140
10415SOL    HW232145   1.590   3.669   5.061
10416SOL     OW32146   6.023   0.372   4.911
10416SOL    HW132147   5.949   0.307   4.891
10416SOL    HW232148   6.014   0.452   4.852
10417SOL     OW32149   3.269   5.320   3.695
10417SOL    HW132150   3.341   5.259   3.729
10417SOL    HW232151   3.182   5.296   3.739
10418SOL     OW32152   6.818   4.090   0.002
10418SOL    HW132153   6.863   4.179   0.006
10418SOL    HW232154   6.884   4.021   6.993
10419SOL     OW32155   2.811   6.867   6.003
10419SOL    HW132156   2.838   6.845   6.097
10419SOL    HW232157   2.765   6.788   5.962
10420SOL     OW32158   0.661   3.860   3.979
10420SOL    HW132159   0.709   3.859   4.067
10420SOL    HW232160   0.727   3.844   3.905
10421SOL     OW32161   0.746   1.979   3.946
10421SOL    HW132162   0.812   2.000   3.874
10421SOL    HW232163   0.662   2.032   3.931
10422SOL     OW32164   6.002   3.264   5.286
10422SOL    HW132165   5.946   3.282   5.367
10422SOL    HW232166   6.090   3.226   5.315
10423SOL     OW32167   6.176   5.550   5.572
10423SOL    HW132168   6.246   5.564   5.643
10423SOL    HW232169   6.213   5.578   5.483
10424SOL     OW32170   5.265   2.758   0.046
10424SOL    HW132171   5.244   2.679   0.104
10424SOL    HW232172   5.192   2.769   6.999
10425SOL     OW32173   1.091   0.184   1.685
10425SOL    HW132174   1.174   0.231   1.714
10425SOL    HW232175   1.107   0.085   1.681
10426SOL     OW32176   5.831   5.133   0.766
10426SOL    HW132177   5.884   5.069   0.823
10426SOL    HW232178   5.740   5.145   0.806
10427SOL     OW32179   3.917   1.128   6.610
10427SOL    HW132180   3.939   1.225   6.600
10427SOL    HW232181   3.846   1.117   6.679
10428SOL     OW32182   3.376   1.131   3.924
10428SOL    HW132183   3.339   1.051   3.875
10428SOL    HW232184   3.474   1.118   3.940
10429SOL     OW32185   0.165   4.349   1.360
10429SOL    HW132186   0.110   4.336   1.278
10429SOL    HW232187   0.257   4.313   1.345
10430SOL     OW32188   4.825   0.028   4.332
10430SOL    HW132189   4.852   0.123   4.325
10430SOL    HW232190   4.906   6.990   4.326
10431SOL     OW32191   2.971   6.163   4.434
10431SOL    HW132192   2.990   6.130   4.526
10431SOL    HW232193   3.054   6.203   4.395
10432SOL     OW32194   5.452   0.006   5.097
10432SOL    HW132195   5.437   0.030   5.000
10432SOL    HW232196   5.433   0.086   5.154
10433SOL     OW32197   1.215   5.923   1.526
10433SOL    HW132198   1.203   5.861   1.604
10433SOL    HW232199   1.126   5.948   1.489
10434SOL     OW32200   4.064   6.439   3.340
10434SOL    HW132201   4.147   6.388   3.320
10434SOL    HW232202   4.085   6.537   3.339
10435SOL     OW32203   6.832   1.163   4.827
10435SOL    HW132204   6.867   1.244   4.875
10435SOL    HW232205   6.884   1.151   4.742
10436SOL     OW32206   0.634   5.105   5.735
10436SOL    HW132207   0.679   5.093   5.824
10436SOL    HW232208   0.553   5.047   5.730
10437SOL     OW32209   4.734   4.130   5.616
10437SOL    HW132210   4.825   4.090   5.627
10437SOL    HW232211   4.674   4.064   5.571
10438SOL     OW32212   5.982   6.545   0.147
10438SOL    HW132213   5.910   6.600   0.105
10438SOL    HW232214   6.068   6.596   0.148
10439SOL     OW32215   3.934   0.921   5.421
10439SOL    HW132216   3.853   0.868   5.447
10439SOL    HW232217   3.945   0.917   5.322
10440SOL     OW32218   1.128   0.184   0.172
10440SOL    HW132219   1.201   0.185   0.241
10440SOL    HW232220   1.074   0.268   0.180
10441SOL     OW32221   3.071   0.302   1.492
10441SOL    HW132222   3.132   0.253   1.554
10441SOL    HW232223   2.992   0.336   1.542
10442SOL     OW32224   3.556   6.628   5.960
10442SOL    HW132225   3.498   6.553   5.927
10442SOL    HW232226   3.646   6.591   5.985
10443SOL     OW32227   4.767   4.188   4.286
10443SOL    HW132228   4.731   4.244   4.361
10443SOL    HW232229   4.691   4.149   4.234
10444SOL     OW32230   4.015   6.334   4.378
10444SOL    HW132231   3.965   6.420   4.392
10444SOL    HW232232   4.079   6.320   4.454
10445SOL     OW32233   0.586   4.812   4.582
10445SOL    HW132234   0.533   4.827   4.666
10445SOL    HW232235   0.572   4.889   4.519
10446SOL     OW32236   1.486   2.911   5.153
10446SOL    HW132237   1.429   2.993   5.141
10446SOL    HW232238   1.580   2.932   5.126
10447SOL     OW32239   0.379   1.088   1.704
10447SOL    HW132240   0.401   1.033   1.784
10447SOL    HW232241   0.443   1.067   1.630
10448SOL     OW32242   4.376   0.501   2.370
10448SOL    HW132243   4.311   0.555   2.423
10448SOL    HW232244   4.335   0.477   2.282
10449SOL     OW32245   2.817   5.052   4.506
10449SOL    HW132246   2.756   5.047   4.427
10449SOL    HW232247   2.768   5.092   4.584
10450SOL     OW32248   0.665   1.816   0.494
10450SOL    HW132249   0.598   1.849   0.428
10450SOL    HW232250   0.639   1.849   0.586
10451SOL     OW32251   1.064   5.899   2.496
10451SOL    HW132252   1.073   5.829   2.425
10451SOL    HW232253   1.123   5.977   2.473
10452SOL     OW32254   6.474   3.351   2.351
10452SOL    HW132255   6.469   3.279   2.282
10452SOL    HW232256   6.413   3.426   2.326
10453SOL     OW32257   3.769   6.637   1.288
10453SOL    HW132258   3.730   6.602   1.203
10453SOL    HW232259   3.735   6.583   1.365
10454SOL     OW32260   4.458   3.632   0.575
10454SOL    HW132261   4.398   3.650   0.497
10454SOL    HW232262   4.450   3.536   0.601
10455SOL     OW32263   6.444   6.095   3.616
10455SOL    HW132264   6.379   6.019   3.617
10455SOL    HW232265   6.499   6.092   3.699
10456SOL     OW32266   3.335   6.394   0.861
10456SOL    HW132267   3.272   6.350   0.798
10456SOL    HW232268   3.404   6.445   0.810
10457SOL     OW32269   3.033   3.611   1.972
10457SOL    HW132270   2.953   3.551   1.962
10457SOL    HW232271   3.100   3.567   2.032
10458SOL     OW32272   0.231   1.642   6.246
10458SOL    HW132273   0.205   1.549   6.220
10458SOL    HW232274   0.323   1.641   6.285
10459SOL     OW32275   4.473   6.174   1.261
10459SOL    HW132276   4.468   6.076   1.244
10459SOL    HW232277   4.427   6.223   1.186
10460SOL     OW32278   1.636   4.818   1.646
10460SOL    HW132279   1.545   4.791   1.678
10460SOL    HW232280   1.692   4.736   1.633
10461SOL     OW32281   1.065   4.784   5.390
10461SOL    HW132282   1.158   4.805   5.421
10461SOL    HW232283   1.005   4.777   5.469
10462SOL     OW32284   6.409   2.258   3.629
10462SOL    HW132285   6.341   2.260   3.556
10462SOL    HW232286   6.409   2.168   3.672
10463SOL     OW32287   3.787   2.833   5.856
10463SOL    HW132288   3.831   2.744   5.840
10463SOL    HW232289   3.748   2.866   5.771
10464SOL     OW32290   6.527   6.675   0.955
10464SOL    HW132291   6.438   6.711   0.982
10464SOL    HW232292   6.590   6.751   0.938
10465SOL     OW32293   0.011   5.910   1.254
10465SOL    HW132294   6.933   5.912   1.240
10465SOL    HW232295   0.037   5.825   1.301
10466SOL     OW32296   4.515   5.285   6.463
10466SOL    HW132297   4.605   5.311   6.498
10466SOL    HW232298   4.513   5.188   6.441
10467SOL     OW32299   1.831   2.305   6.011
10467SOL    HW132300   1.862   2.370   6.081
10467SOL    HW232301   1.886   2.222   6.017
10468SOL     OW32302   3.606   4.935   2.921
10468SOL    HW132303   3.559   4.863   2.971
10468SOL    HW232304   3.540   5.002   2.889
10469SOL     OW32305   4.153   3.330   5.527
10469SOL    HW132306   4.092   3.312   5.450
10469SOL    HW232307   4.169   3.429   5.535
10470SOL     OW32308   2.719   2.096   3.726
10470SOL    HW132309   2.809   2.052   3.737
10470SOL    HW232310   2.648   2.031   3.754
10471SOL     OW32311   2.710   2.213   0.850
10471SOL    HW132312   2.629   2.187   0.797
10471SOL    HW232313   2.715   2.156   0.933
10472SOL     OW32314   3.426   5.377   0.342
10472SOL    HW132315   3.509   5.369   0.287
10472SOL    HW232316   3.348   5.340   0.290
10473SOL     OW32317   6.588   0.735   0.315
10473SOL    HW132318   6.616   0.808   0.253
10473SOL    HW232319   6.522   0.770   0.381
10474SOL     OW32320   4.810   1.619   4.551
10474SOL    HW132321   4.844   1.583   4.464
10474SOL    HW232322   4.812   1.719   4.549
10475SOL     OW32323   5.290   6.938   2.640
10475SOL    HW132324   5.275   0.010   2.605
10475SOL    HW232325   5.307   6.943   2.739
10476SOL     OW32326   0.179   6.246   6.799
10476SOL    HW132327   0.224   6.216   6.715
10476SOL    HW232328   0.228   6.324   6.838
10477SOL     OW32329   6.275   1.741   4.113
10477SOL    HW132330   6.364   1.762   4.155
10477SOL    HW232331   6.212   1.816   4.130
10478SOL     OW32332   0.483   0.828   0.772
10478SOL    HW132333   0.444   0.919   0.787
10478SOL    HW232334   0.415   0.769   0.729
10479SOL     OW32335   0.254   2.585   1.569
10479SOL    HW132336   0.186   2.622   1.632
10479SOL    HW232337   0.332   2.551   1.621
10480SOL     OW32338   6.557   0.689   1.839
10480SOL    HW132339   6.481   0.724   1.785
10480SOL    HW232340   6.524   0.659   1.929
10481SOL     OW32341   2.305   6.823   4.686
10481SOL    HW132342   2.363   6.752   4.726
10481SOL    HW232343   2.342   6.913   4.709
10482SOL     OW32344   6.851   5.621   4.793
10482SOL    HW132345   6.926   5.584   4.849
10482SOL    HW232346   6.889   5.685   4.726
10483SOL     OW32347   0.152   5.315   0.576
10483SOL    HW132348   0.230   5.318   0.512
10483SOL    HW232349   0.105   5.403   0.575
10484SOL     OW32350   5.837   1.263   1.887
10484SOL    HW132351   5.900   1.271   1.810
10484SOL    HW232352   5.888   1.260   1.973
10485SOL     OW32353   3.016   3.863   2.133
10485SOL    HW132354   3.017   3.772   2.092
10485SOL    HW232355   2.996   3.931   2.062
10486SOL     OW32356   6.480   0.598   5.699
10486SOL    HW132357   6.384   0.583   5.673
10486SOL    HW232358   6.502   0.542   5.779
10487SOL     OW32359   4.130   1.939   2.076
10487SOL    HW132360   4.049   1.923   2.019
10487SOL    HW232361   4.163   2.032   2.062
10488SOL     OW32362   2.257   1.806   6.512
10488SOL    HW132363   2.257   1.714   6.550
10488SOL    HW232364   2.323   1.812   6.437
10489SOL     OW32365   6.012   6.979   4.042
10489SOL    HW132366   5.940   0.025   4.063
10489SOL    HW232367   5.972   6.902   3.991
10490SOL     OW32368   6.062   1.455   0.692
10490SOL    HW132369   6.155   1.431   0.722
10490SOL    HW232370   6.048   1.553   0.705
10491SOL     OW32371   2.453   2.348   5.300
10491SOL    HW132372   2.357   2.362   5.324
10491SOL    HW232373   2.505   2.430   5.324
10492SOL     OW32374   4.733   6.173   1.113
10492SOL    HW132375   4.761   6.077   1.111
10492SOL    HW232376   4.665   6.186   1.184
10493SOL     OW32377   2.429   6.520   1.705
10493SOL    HW132378   2.483   6.468   1.640
10493SOL    HW232379   2.448   6.618   1.694
10494SOL     OW32380   5.799   4.561   6.234
10494SOL    HW132381   5.792   4.657   6.205
10494SOL    HW232382   5.746   4.504   6.171
10495SOL     OW32383   0.220   0.374   0.816
10495SOL    HW132384   0.146   0.400   0.754
10495SOL    HW232385   0.182   0.322   0.893
10496SOL     OW32386   6.189   4.907   5.881
10496SOL    HW132387   6.203   4.892   5.979
10496SOL    HW232388   6.118   4.977   5.868
10497SOL     OW32389   0.991   6.549   2.096
10497SOL    HW132390   1.016   6.566   2.001
10497SOL    HW232391   0.999   6.634   2.148
10498SOL     OW32392   5.835   5.620   0.710
10498SOL    HW132393   5.933   5.598   0.707
10498SOL    HW232394   5.792   5.589   0.625
10499SOL     OW32395   4.612   0.293   2.070
10499SOL    HW132396   4.642   0.329   2.159
10499SOL    HW232397   4.533   0.234   2.084
10500SOL     OW32398   5.879   1.887   5.847
10500SOL    HW132399   5.841   1.844   5.930
10500SOL    HW232400   5.912   1.978   5.869
10501SOL     OW32401   2.393   5.887   2.008
10501SOL    HW132402   2.393   5.914   2.105
10501SOL    HW232403   2.447   5.953   1.956
10502SOL     OW32404   2.686   3.501   0.983
10502SOL    HW132405   2.679   3.575   1.050
10502SOL    HW232406   2.644   3.418   1.020
10503SOL     OW32407   5.954   3.635   0.604
10503SOL    HW132408   5.882   3.617   0.538
10503SOL    HW232409   5.952   3.732   0.630
10504SOL     OW32410   6.951   2.808   5.692
10504SOL    HW132411   6.874   2.856   5.650
10504SOL    HW232412   6.975   2.728   5.637
10505SOL     OW32413   5.886   6.133   1.336
10505SOL    HW132414   5.820   6.073   1.381
10505SOL    HW232415   5.945   6.174   1.406
10506SOL     OW32416   0.813   3.437   6.917
10506SOL    HW132417   0.881   3.497   6.876
10506SOL    HW232418   0.721   3.467   6.890
10507SOL     OW32419   2.433   5.439   6.990
10507SOL    HW132420   2.449   5.347   0.004
10507SOL    HW232421   2.474   5.449   6.899
10508SOL     OW32422   0.366   5.912   4.249
10508SOL    HW132423   0.293   5.882   4.311
10508SOL    HW232424   0.422   5.981   4.295
10509SOL     OW32425   6.330   4.807   5.077
10509SOL    HW132426   6.283   4.721   5.057
10509SOL    HW232427   6.425   4.787   5.104
10510SOL     OW32428   4.218   6.240   0.366
10510SOL    HW132429   4.279   6.320   0.367
10510SOL    HW232430   4.211   6.203   0.459
10511SOL     OW32431   3.140   1.448   2.558
10511SOL    HW132432   3.235   1.442   2.526
10511SOL    HW232433   3.082   1.479   2.483
10512SOL     OW32434   3.492   0.280   6.275
10512SOL    HW132435   3.444   0.205   6.321
10512SOL    HW232436   3.519   0.348   6.342
10513SOL     OW32437   6.562   2.967   3.022
10513SOL    HW132438   6.509   3.007   3.098
10513SOL    HW232439   6.512   2.890   2.983
10514SOL     OW32440   1.135   2.454   1.619
10514SOL    HW132441   1.073   2.392   1.572
10514SOL    HW232442   1.107   2.462   1.715
10515SOL     OW32443   1.513   3.451   4.584
10515SOL    HW132444   1.517   3.544   4.621
10515SOL    HW232445   1.443   3.398   4.632
10516SOL     OW32446   3.028   1.697   0.178
10516SOL    HW132447   3.100   1.726   0.241
10516SOL    HW232448   3.058   1.712   0.084
10517SOL     OW32449   1.406   3.945   1.809
10517SOL    HW132450   1.328   3.948   1.871
10517SOL    HW232451   1.421   4.036   1.769
10518SOL     OW32452   6.850   6.513   1.481
10518SOL    HW132453   6.827   6.418   1.462
10518SOL    HW232454   6.818   6.571   1.406
10519SOL     OW32455   3.033   3.899   0.911
10519SOL    HW132456   3.002   3.945   0.827
10519SOL    HW232457   3.079   3.814   0.887
10520SOL     OW32458   0.091   2.378   5.904
10520SOL    HW132459   0.066   2.427   5.988
10520SOL    HW232460   0.187   2.350   5.910
10521SOL     OW32461   0.308   5.812   1.472
10521SOL    HW132462   0.210   5.792   1.478
10521SOL    HW232463   0.347   5.765   1.393
10522SOL     OW32464   0.203   2.492   3.606
10522SOL    HW132465   0.278   2.527   3.550
10522SOL    HW232466   0.209   2.530   3.698
10523SOL     OW32467   0.508   4.450   3.533
10523SOL    HW132468   0.427   4.481   3.482
10523SOL    HW232469   0.558   4.529   3.568
10524SOL     OW32470   0.373   6.429   4.364
10524SOL    HW132471   0.280   6.430   4.327
10524SOL    HW232472   0.373   6.381   4.452
10525SOL     OW32473   3.792   0.690   5.251
10525SOL    HW132474   3.798   0.627   5.173
10525SOL    HW232475   3.725   0.761   5.231
10526SOL     OW32476   0.749   0.005   1.371
10526SOL    HW132477   0.731   0.033   1.465
10526SOL    HW232478   0.673   0.033   1.312
10527SOL     OW32479   1.400   0.985   5.857
10527SOL    HW132480   1.357   0.939   5.935
10527SOL    HW232481   1.416   0.918   5.785
10528SOL     OW32482   0.986   4.096   6.219
10528SOL    HW132483   1.045   4.155   6.274
10528SOL    HW232484   1.041   4.047   6.152
10529SOL     OW32485   2.438   6.046   4.247
10529SOL    HW132486   2.518   6.103   4.228
10529SOL    HW232487   2.460   5.951   4.224
10530SOL     OW32488   1.037   6.896   6.206
10530SOL    HW132489   1.039   6.822   6.273
10530SOL    HW232490   1.079   6.865   6.121
10531SOL     OW32491   2.937   2.235   4.367
10531SOL    HW132492   2.907   2.187   4.284
10531SOL    HW232493   2.870   2.221   4.439
10532SOL     OW32494   0.162   6.748   6.332
10532SOL    HW132495   0.117   6.769   6.245
10532SOL    HW232496   0.153   6.827   6.393
10533SOL     OW32497   3.493   5.871   3.590
10533SOL    HW132498   3.415   5.826   3.635
10533SOL    HW232499   3.498   5.841   3.495
10534SOL     OW32500   6.421   4.880   2.332
10534SOL    HW132501   6.337   4.920   2.297
10534SOL    HW232502   6.407   4.783   2.353
10535SOL     OW32503   1.982   1.685   2.103
10535SOL    HW132504   1.897   1.653   2.146
10535SOL    HW232505   2.035   1.737   2.170
10536SOL     OW32506   4.480   0.929   4.318
10536SOL    HW132507   4.435   1.013   4.347
10536SOL    HW232508   4.504   0.874   4.398
10537SOL     OW32509   5.143   6.661   4.010
10537SOL    HW132510   5.124   6.727   3.937
10537SOL    HW232511   5.059   6.643   4.061
10538SOL     OW32512   6.671   3.295   0.705
10538SOL    HW132513   6.631   3.299   0.797
10538SOL    HW232514   6.599   3.308   0.637
10539SOL     OW32515   6.271   5.664   1.293
10539SOL    HW132516   6.286   5.633   1.387
10539SOL    HW232517   6.330   5.611   1.231
10540SOL     OW32518   2.142   2.825   5.611
10540SOL    HW132519   2.202   2.893   5.568
10540SOL    HW232520   2.047   2.845   5.588
10541SOL     OW32521   3.707   3.485   3.312
10541SOL    HW132522   3.639   3.521   3.248
10541SOL    HW232523   3.798   3.506   3.278
10542SOL     OW32524   6.761   1.007   5.198
10542SOL    HW132525   6.817   0.925   5.186
10542SOL    HW232526   6.728   1.039   5.108
10543SOL     OW32527   0.920   1.849   4.090
10543SOL    HW132528   0.865   1.899   4.024
10543SOL    HW232529   0.959   1.913   4.157
10544SOL     OW32530   2.167   6.088   1.810
10544SOL    HW132531   2.238   6.035   1.762
10544SOL    HW232532   2.139   6.038   1.892
10545SOL     OW32533   1.819   2.438   1.653
10545SOL    HW132534   1.917   2.436   1.634
10545SOL    HW232535   1.802   2.407   1.747
10546SOL     OW32536   2.953   6.510   0.804
10546SOL    HW132537   2.920   6.502   0.709
10546SOL    HW232538   2.894   6.572   0.855
10547SOL     OW32539   5.471   2.515   3.989
10547SOL    HW132540   5.530   2.593   4.006
10547SOL    HW232541   5.410   2.535   3.912
10548SOL     OW32542   0.338   4.383   4.136
10548SOL    HW132543   0.250   4.354   4.174
10548SOL    HW232544   0.330   4.390   4.036
10549SOL     OW32545   0.556   1.284   0.864
10549SOL    HW132546   0.631   1.229   0.829
10549SOL    HW232547   0.568   1.380   0.836
10550SOL     OW32548   4.658   6.360   3.770
10550SOL    HW132549   4.726   6.430   3.790
10550SOL    HW232550   4.704   6.278   3.736
10551SOL     OW32551   1.672   1.714   6.886
10551SOL    HW132552   1.636   1.638   6.940
10551SOL    HW232553   1.597   1.761   6.839
10552SOL     OW32554   1.607   0.848   5.298
10552SOL    HW132555   1.635   0.833   5.203
10552SOL    HW232556   1.532   0.914   5.300
10553SOL     OW32557   0.416   4.786   1.232
10553SOL    HW132558   0.423   4.721   1.309
10553SOL    HW232559   0.440   4.877   1.264
10554SOL     OW32560   4.893   5.525   1.629
10554SOL    HW132561   4.855   5.441   1.590
10554SOL    HW232562   4.983   5.505   1.670
10555SOL     OW32563   2.722   2.776   0.960
10555SOL    HW132564   2.691   2.767   1.055
10555SOL    HW232565   2.700   2.692   0.910
10556SOL     OW32566   2.845   0.812   3.305
10556SOL    HW132567   2.934   0.769   3.317
10556SOL    HW232568   2.814   0.799   3.211
10557SOL     OW32569   1.500   3.005   3.723
10557SOL    HW132570   1.474   2.948   3.801
10557SOL    HW232571   1.588   2.974   3.687
10558SOL     OW32572   3.653   5.881   5.947
10558SOL    HW132573   3.586   5.825   5.998
10558SOL    HW232574   3.623   5.890   5.852
10559SOL     OW32575   3.830   6.850   1.492
10559SOL    HW132576   3.785   6.912   1.428
10559SOL    HW232577   3.820   6.756   1.460
10560SOL     OW32578   4.888   0.194   2.938
10560SOL    HW132579   4.885   0.174   2.840
10560SOL    HW232580   4.824   0.136   2.987
10561SOL     OW32581   3.745   4.236   1.689
10561SOL    HW132582   3.822   4.257   1.629
10561SOL    HW232583   3.680   4.312   1.686
10562SOL     OW32584   4.167   5.370   0.471
10562SOL    HW132585   4.099   5.395   0.403
10562SOL    HW232586   4.137   5.289   0.520
10563SOL     OW32587   0.906   0.813   1.929
10563SOL    HW132588   0.841   0.878   1.890
10563SOL    HW232589   0.894   0.809   2.028
10564SOL     OW32590   5.769   6.479   3.356
10564SOL    HW132591   5.823   6.513   3.279
10564SOL    HW232592   5.683   6.441   3.323
10565SOL     OW32593   6.483   6.259   5.703
10565SOL    HW132594   6.520   6.265   5.610
10565SOL    HW232595   6.384   6.251   5.699
10566SOL     OW32596   3.420   1.682   6.274
10566SOL    HW132597   3.356   1.663   6.199
10566SOL    HW232598   3.447   1.778   6.272
10567SOL     OW32599   1.773   2.864   5.782
10567SOL    HW132600   1.858   2.861   5.833
10567SOL    HW232601   1.790   2.841   5.686
10568SOL     OW32602   6.003   3.095   0.947
10568SOL    HW132603   6.067   3.057   1.013
10568SOL    HW232604   5.973   3.186   0.978
10569SOL     OW32605   5.522   0.565   2.191
10569SOL    HW132606   5.562   0.500   2.255
10569SOL    HW232607   5.482   0.641   2.241
10570SOL     OW32608   1.657   4.729   3.857
10570SOL    HW132609   1.701   4.641   3.873
10570SOL    HW232610   1.563   4.726   3.891
10571SOL     OW32611   0.150   4.112   5.092
10571SOL    HW132612   0.066   4.131   5.042
10571SOL    HW232613   0.217   4.070   5.030
10572SOL     OW32614   6.901   4.733   2.659
10572SOL    HW132615   6.827   4.711   2.596
10572SOL    HW232616   6.984   4.684   2.632
10573SOL     OW32617   4.900   0.199   4.879
10573SOL    HW132618   4.911   0.294   4.909
10573SOL    HW232619   4.835   0.196   4.804
10574SOL     OW32620   0.184   1.792   4.205
10574SOL    HW132621   0.209   1.851   4.281
10574SOL    HW232622   0.086   1.797   4.188
10575SOL     OW32623   0.123   0.828   3.500
10575SOL    HW132624   0.065   0.781   3.434
10575SOL    HW232625   0.149   0.918   3.463
10576SOL     OW32626   0.762   6.129   3.274
10576SOL    HW132627   0.692   6.177   3.221
10576SOL    HW232628   0.721   6.092   3.358
10577SOL     OW32629   1.602   4.366   0.451
10577SOL    HW132630   1.696   4.379   0.420
10577SOL    HW232631   1.564   4.453   0.482
10578SOL     OW32632   4.060   1.279   3.104
10578SOL    HW132633   4.105   1.246   3.020
10578SOL    HW232634   3.972   1.320   3.081
10579SOL     OW32635   4.018   2.823   1.730
10579SOL    HW132636   4.102   2.769   1.732
10579SOL    HW232637   3.945   2.772   1.775
10580SOL     OW32638   6.227   6.568   6.047
10580SOL    HW132639   6.301   6.515   6.007
10580SOL    HW232640   6.147   6.510   6.058
10581SOL     OW32641   5.872   0.654   2.872
10581SOL    HW132642   5.790   0.611   2.833
10581SOL    HW232643   5.934   0.583   2.906
10582SOL     OW32644   4.538   4.644   6.183
10582SOL    HW132645   4.506   4.712   6.118
10582SOL    HW232646   4.497   4.661   6.273
10583SOL     OW32647   4.522   0.680   3.918
10583SOL    HW132648   4.506   0.702   3.822
10583SOL    HW232649   4.443   0.709   3.973
10584SOL     OW32650   6.347   0.306   6.997
10584SOL    HW132651   6.403   0.223   7.001
10584SOL    HW232652   6.368   0.364   0.055
10585SOL     OW32653   2.519   1.877   5.370
10585SOL    HW132654   2.602   1.879   5.425
10585SOL    HW232655   2.523   1.952   5.303
10586SOL     OW32656   5.249   5.178   5.793
10586SOL    HW132657   5.306   5.103   5.761
10586SOL    HW232658   5.259   5.188   5.892
10587SOL     OW32659   6.668   4.964   6.730
10587SOL    HW132660   6.698   4.965   6.635
10587SOL    HW232661   6.582   4.914   6.737
10588SOL     OW32662   1.616   1.949   4.920
10588SOL    HW132663   1.593   1.852   4.916
10588SOL    HW232664   1.601   1.982   5.013
10589SOL     OW32665   4.896   0.652   4.616
10589SOL    HW132666   4.903   0.696   4.705
10589SOL    HW232667   4.918   0.718   4.544
10590SOL     OW32668   0.370   0.137   0.495
10590SOL    HW132669   0.345   0.103   0.586
10590SOL    HW232670   0.396   0.233   0.501
10591SOL     OW32671   2.260   2.326   0.558
10591SOL    HW132672   2.233   2.273   0.478
10591SOL    HW232673   2.219   2.417   0.553
10592SOL     OW32674   5.544   3.925   4.119
10592SOL    HW132675   5.527   3.832   4.087
10592SOL    HW232676   5.569   3.983   4.042
10593SOL     OW32677   3.252   5.829   0.832
10593SOL    HW132678   3.269   5.918   0.874
10593SOL    HW232679   3.168   5.833   0.777
10594SOL     OW32680   4.939   1.832   2.338
10594SOL    HW132681   4.849   1.806   2.372
10594SOL    HW232682   4.980   1.755   2.290
10595SOL     OW32683   5.731   6.904   0.435
10595SOL    HW132684   5.641   6.859   0.430
10595SOL    HW232685   5.761   6.907   0.530
10596SOL     OW32686   4.359   0.752   0.231
10596SOL    HW132687   4.358   0.810   0.150
10596SOL    HW232688   4.416   0.672   0.214
10597SOL     OW32689   3.258   1.529   6.104
10597SOL    HW132690   3.292   1.489   6.190
10597SOL    HW232691   3.300   1.482   6.027
10598SOL     OW32692   3.599   2.818   6.860
10598SOL    HW132693   3.557   2.844   6.773
10598SOL    HW232694   3.682   2.764   6.841
10599SOL     OW32695   5.883   3.506   6.791
10599SOL    HW132696   5.867   3.605   6.784
10599SOL    HW232697   5.922   3.473   6.706
10600SOL     OW32698   3.267   2.703   1.655
10600SOL    HW132699   3.169   2.710   1.673
10600SOL    HW232700   3.313   2.786   1.685
10601SOL     OW32701   1.510   4.494   5.819
10601SOL    HW132702   1.513   4.585   5.859
10601SOL    HW232703   1.564   4.431   5.875
10602SOL     OW32704   1.018   1.062   1.145
10602SOL    HW132705   1.067   1.015   1.072
10602SOL    HW232706   1.083   1.096   1.213
10603SOL     OW32707   4.323   0.145   3.304
10603SOL    HW132708   4.342   0.104   3.215
10603SOL    HW232709   4.236   0.110   3.338
10604SOL     OW32710   6.356   5.201   5.016
10604SOL    HW132711   6.274   5.223   5.069
10604SOL    HW232712   6.417   5.281   5.015
10605SOL     OW32713   2.167   6.542   6.926
10605SOL    HW132714   2.082   6.553   6.979
10605SOL    HW232715   2.144   6.523   6.831
10606SOL     OW32716   0.120   1.129   1.261
10606SOL    HW132717   0.118   1.029   1.262
10606SOL    HW232718   0.069   1.165   1.339
10607SOL     OW32719   3.877   4.778   0.434
10607SOL    HW132720   3.829   4.741   0.514
10607SOL    HW232721   3.944   4.712   0.402
10608SOL     OW32722   6.943   3.493   4.137
10608SOL    HW132723   7.008   3.556   4.179
10608SOL    HW232724   6.939   3.510   4.039
10609SOL     OW32725   2.878   6.761   6.926
10609SOL    HW132726   2.860   6.693   6.856
10609SOL    HW232727   2.971   6.796   6.915
10610SOL     OW32728   0.576   2.189   3.940
10610SOL    HW132729   0.480   2.196   3.914
10610SOL    HW232730   0.606   2.276   3.979
10611SOL     OW32731   3.162   4.683   6.455
10611SOL    HW132732   3.128   4.594   6.424
10611SOL    HW232733   3.091   4.752   6.442
10612SOL     OW32734   5.107   1.928   3.986
10612SOL    HW132735   5.101   1.929   4.086
10612SOL    HW232736   5.066   2.012   3.949
10613SOL     OW32737   6.496   5.498   5.942
10613SOL    HW132738   6.455   5.457   5.861
10613SOL    HW232739   6.446   5.582   5.965
10614SOL     OW32740   5.136   1.087   4.143
10614SOL    HW132741   5.210   1.073   4.209
10614SOL    HW232742   5.155   1.169   4.089
10615SOL     OW32743   3.379   1.104   5.952
10615SOL    HW132744   3.444   1.063   5.888
10615SOL    HW232745   3.389   1.204   5.950
10616SOL     OW32746   3.226   6.460   0.040
10616SOL    HW132747   3.173   6.401   0.101
10616SOL    HW232748   3.225   6.554   0.076
10617SOL     OW32749   3.149   3.937   1.357
10617SOL    HW132750   3.066   3.989   1.379
10617SOL    HW232751   3.197   3.915   1.442
10618SOL     OW32752   1.217   4.473   5.844
10618SOL    HW132753   1.298   4.493   5.789
10618SOL    HW232754   1.230   4.385   5.891
10619SOL     OW32755   0.145   2.802   3.579
10619SOL    HW132756   0.096   2.766   3.501
10619SOL    HW232757   0.137   2.902   3.581
10620SOL     OW32758   0.942   0.070   4.825
10620SOL    HW132759   0.987   0.023   4.902
10620SOL    HW232760   0.959   0.168   4.833
10621SOL     OW32761   0.817   4.854   2.038
10621SOL    HW132762   0.892   4.868   2.102
10621SOL    HW232763   0.730   4.880   2.080
10622SOL     OW32764   4.614   2.107   2.389
10622SOL    HW132765   4.565   2.156   2.317
10622SOL    HW232766   4.562   2.114   2.475
10623SOL     OW32767   6.587   5.171   5.857
10623SOL    HW132768   6.571   5.073   5.849
10623SOL    HW232769   6.622   5.193   5.948
10624SOL     OW32770   0.184   2.621   5.788
10624SOL    HW132771   0.273   2.606   5.746
10624SOL    HW232772   0.157   2.540   5.839
10625SOL     OW32773   0.866   4.225   1.261
10625SOL    HW132774   0.864   4.125   1.255
10625SOL    HW232775   0.815   4.255   1.341
10626SOL     OW32776   3.635   2.792   0.947
10626SOL    HW132777   3.650   2.876   1.000
10626SOL    HW232778   3.554   2.803   0.889
10627SOL     OW32779   5.550   1.519   6.926
10627SOL    HW132780   5.611   1.537   6.849
10627SOL    HW232781   5.458   1.501   6.892
10628SOL     OW32782   4.172   6.630   0.891
10628SOL    HW132783   4.179   6.606   0.988
10628SOL    HW232784   4.262   6.657   0.857
10629SOL     OW32785   2.703   5.030   4.247
10629SOL    HW132786   2.656   5.099   4.192
10629SOL    HW232787   2.725   4.951   4.189
10630SOL     OW32788   6.472   1.794   2.629
10630SOL    HW132789   6.545   1.860   2.610
10630SOL    HW232790   6.470   1.724   2.557
10631SOL     OW32791   4.077   4.594   5.372
10631SOL    HW132792   4.025   4.665   5.419
10631SOL    HW232793   4.024   4.509   5.369
10632SOL     OW32794   5.131   6.745   3.266
10632SOL    HW132795   5.111   6.783   3.357
10632SOL    HW232796   5.148   6.646   3.275
10633SOL     OW32797   2.726   2.649   1.696
10633SOL    HW132798   2.724   2.590   1.776
10633SOL    HW232799   2.667   2.728   1.711
10634SOL     OW32800   2.128   4.864   0.635
10634SOL    HW132801   2.093   4.857   0.729
10634SOL    HW232802   2.142   4.961   0.612
10635SOL     OW32803   1.643   3.320   6.788
10635SOL    HW132804   1.641   3.239   6.848
10635SOL    HW232805   1.727   3.319   6.734
10636SOL     OW32806   0.794   2.231   1.260
10636SOL    HW132807   0.816   2.325   1.232
10636SOL    HW232808   0.777   2.175   1.179
10637SOL     OW32809   1.146   5.094   6.020
10637SOL    HW132810   1.108   5.018   6.072
10637SOL    HW232811   1.072   5.143   5.974
10638SOL     OW32812   5.696   6.238   2.834
10638SOL    HW132813   5.641   6.193   2.764
10638SOL    HW232814   5.644   6.314   2.874
10639SOL     OW32815   1.141   3.700   2.626
10639SOL    HW132816   1.146   3.613   2.676
10639SOL    HW232817   1.058   3.748   2.653
10640SOL     OW32818   4.438   0.224   3.543
10640SOL    HW132819   4.407   0.198   3.452
10640SOL    HW232820   4.447   0.142   3.600
10641SOL     OW32821   2.394   1.667   2.673
10641SOL    HW132822   2.473   1.723   2.648
10641SOL    HW232823   2.375   1.678   2.771
10642SOL     OW32824   6.428   1.725   0.781
10642SOL    HW132825   6.342   1.682   0.808
10642SOL    HW232826   6.505   1.664   0.803
10643SOL     OW32827   2.460   5.677   4.476
10643SOL    HW132828   2.524   5.620   4.424
10643SOL    HW232829   2.385   5.706   4.416
10644SOL     OW32830   5.524   2.774   1.245
10644SOL    HW132831   5.577   2.718   1.308
10644SOL    HW232832   5.508   2.724   1.160
10645SOL     OW32833   1.722   3.099   4.260
10645SOL    HW132834   1.646   3.149   4.218
10645SOL    HW232835   1.731   3.010   4.216
10646SOL     OW32836   0.498   6.927   5.814
10646SOL    HW132837   0.543   7.015   5.796
10646SOL    HW232838   0.471   6.886   5.727
10647SOL     OW32839   3.006   5.625   4.346
10647SOL    HW132840   3.059   5.542   4.357
10647SOL    HW232841   3.018   5.661   4.253
10648SOL     OW32842   5.896   4.778   6.522
10648SOL    HW132843   5.951   4.812   6.598
10648SOL    HW232844   5.925   4.824   6.437
10649SOL     OW32845   0.621   4.297   3.343
10649SOL    HW132846   0.560   4.240   3.288
10649SOL    HW232847   0.566   4.358   3.400
10650SOL     OW32848   0.895   0.198   4.306
10650SOL    HW132849   0.828   0.160   4.370
10650SOL    HW232850   0.987   0.178   4.340
10651SOL     OW32851   6.099   6.580   6.697
10651SOL    HW132852   6.084   6.483   6.676
10651SOL    HW232853   6.067   6.598   6.790
10652SOL     OW32854   3.095   6.199   5.774
10652SOL    HW132855   3.084   6.184   5.675
10652SOL    HW232856   3.022   6.153   5.823
10653SOL     OW32857   4.103   5.765   4.373
10653SOL    HW132858   4.102   5.820   4.290
10653SOL    HW232859   4.069   5.820   4.450
10654SOL     OW32860   5.202   0.411   6.575
10654SOL    HW132861   5.189   0.346   6.500
10654SOL    HW232862   5.253   0.366   6.648
10655SOL     OW32863   2.357   5.666   0.365
10655SOL    HW132864   2.332   5.758   0.398
10655SOL    HW232865   2.440   5.672   0.310
10656SOL     OW32866   6.948   1.864   2.511
10656SOL    HW132867   6.942   1.764   2.505
10656SOL    HW232868   0.004   1.888   2.571
10657SOL     OW32869   6.077   0.090   5.249
10657SOL    HW132870   6.067   0.180   5.205
10657SOL    HW232871   5.987   0.046   5.254
10658SOL     OW32872   6.733   4.476   4.547
10658SOL    HW132873   6.792   4.551   4.576
10658SOL    HW232874   6.753   4.452   4.452
10659SOL     OW32875   0.870   5.550   0.907
10659SOL    HW132876   0.919   5.595   0.982
10659SOL    HW232877   0.798   5.491   0.944
10660SOL     OW32878   5.405   3.856   6.362
10660SOL    HW132879   5.347   3.914   6.419
10660SOL    HW232880   5.495   3.846   6.404
10661SOL     OW32881   0.687   6.999   0.903
10661SOL    HW132882   0.682   6.921   0.841
10661SOL    HW232883   0.670   6.969   0.997
10662SOL     OW32884   4.709   0.344   2.333
10662SOL    HW132885   4.634   0.391   2.380
10662SOL    HW232886   4.775   0.311   2.400
10663SOL     OW32887   0.793   1.942   2.401
10663SOL    HW132888   0.837   1.862   2.441
10663SOL    HW232889   0.725   1.913   2.334
10664SOL     OW32890   6.306   4.408   5.184
10664SOL    HW132891   6.277   4.425   5.278
10664SOL    HW232892   6.324   4.311   5.172
10665SOL     OW32893   0.754   1.749   6.926
10665SOL    HW132894   0.683   1.819   6.921
10665SOL    HW232895   0.754   1.708   7.017
10666SOL     OW32896   3.465   3.942   1.734
10666SOL    HW132897   3.491   3.875   1.804
10666SOL    HW232898   3.439   4.028   1.779
10667SOL     OW32899   4.957   2.383   4.160
10667SOL    HW132900   4.901   2.323   4.103
10667SOL    HW232901   4.933   2.370   4.256
10668SOL     OW32902   2.876   1.200   5.196
10668SOL    HW132903   2.887   1.101   5.188
10668SOL    HW232904   2.955   1.239   5.242
10669SOL     OW32905   5.586   0.094   1.529
10669SOL    HW132906   5.558   0.141   1.445
10669SOL    HW232907   5.526   0.121   1.604
10670SOL     OW32908   5.351   4.933   5.129
10670SOL    HW132909   5.425   4.881   5.086
10670SOL    HW232910   5.368   5.031   5.117
10671SOL     OW32911   1.940   1.932   3.844
10671SOL    HW132912   1.966   2.028   3.851
10671SOL    HW232913   1.844   1.925   3.814
10672SOL     OW32914   6.321   3.991   1.908
10672SOL    HW132915   6.410   3.948   1.896
10672SOL    HW232916   6.249   3.922   1.905
10673SOL     OW32917   0.319   1.218   6.888
10673SOL    HW132918   0.399   1.174   6.848
10673SOL    HW232919   0.236   1.179   6.849
10674SOL     OW32920   3.847   3.869   3.152
10674SOL    HW132921   3.853   3.881   3.251
10674SOL    HW232922   3.862   3.773   3.130
10675SOL     OW32923   1.680   7.006   6.965
10675SOL    HW132924   1.613   6.982   6.896
10675SOL    HW232925   1.707   6.924   7.015
10676SOL     OW32926   6.386   6.000   5.364
10676SOL    HW132927   6.357   6.095   5.372
10676SOL    HW232928   6.392   5.975   5.268
10677SOL     OW32929   1.432   0.919   1.104
10677SOL    HW132930   1.410   1.016   1.089
10677SOL    HW232931   1.525   0.910   1.137
10678SOL     OW32932   4.761   5.639   3.980
10678SOL    HW132933   4.686   5.696   4.010
10678SOL    HW232934   4.848   5.683   4.004
10679SOL     OW32935   4.334   5.597   6.634
10679SOL    HW132936   4.384   5.626   6.552
10679SOL    HW232937   4.396   5.549   6.696
10680SOL     OW32938   4.016   1.944   4.254
10680SOL    HW132939   3.950   1.950   4.180
10680SOL    HW232940   3.997   2.017   4.321
10681SOL     OW32941   0.898   3.959   0.532
10681SOL    HW132942   0.903   4.011   0.447
10681SOL    HW232943   0.803   3.937   0.552
10682SOL     OW32944   0.384   1.318   5.182
10682SOL    HW132945   0.484   1.314   5.176
10682SOL    HW232946   0.345   1.251   5.119
10683SOL     OW32947   4.796   1.631   3.880
10683SOL    HW132948   4.881   1.672   3.845
10683SOL    HW232949   4.720   1.692   3.861
10684SOL     OW32950   5.183   4.789   3.330
10684SOL    HW132951   5.283   4.780   3.325
10684SOL    HW232952   5.152   4.860   3.267
10685SOL     OW32953   0.778   5.745   1.763
10685SOL    HW132954   0.695   5.773   1.809
10685SOL    HW232955   0.858   5.774   1.816
10686SOL     OW32956   0.850   4.350   5.855
10686SOL    HW132957   0.824   4.255   5.841
10686SOL    HW232958   0.880   4.363   5.950
10687SOL     OW32959   5.891   5.264   3.649
10687SOL    HW132960   5.967   5.302   3.700
10687SOL    HW232961   5.910   5.169   3.626
10688SOL     OW32962   6.770   3.448   2.033
10688SOL    HW132963   6.858   3.486   2.005
10688SOL    HW232964   6.780   3.400   2.120
10689SOL     OW32965   0.188   6.680   3.835
10689SOL    HW132966   0.152   6.673   3.742
10689SOL    HW232967   0.128   6.739   3.889
10690SOL     OW32968   6.938   5.788   3.989
10690SOL    HW132969   6.953   5.850   3.912
10690SOL    HW232970   7.008   5.804   4.059
10691SOL     OW32971   0.801   2.318   2.263
10691SOL    HW132972   0.852   2.402   2.243
10691SOL    HW232973   0.831   2.281   2.350
10692SOL     OW32974   3.127   6.160   3.373
10692SOL    HW132975   3.206   6.196   3.421
10692SOL    HW232976   3.155   6.085   3.313
10693SOL     OW32977   1.958   6.195   0.463
10693SOL    HW132978   1.941   6.229   0.371
10693SOL    HW232979   2.049   6.223   0.493
10694SOL     OW32980   5.409   6.545   1.126
10694SOL    HW132981   5.391   6.611   1.053
10694SOL    HW232982   5.325   6.524   1.174
10695SOL     OW32983   0.019   2.408   2.678
10695SOL    HW132984   0.091   2.456   2.627
10695SOL    HW232985   0.027   2.430   2.775
10696SOL     OW32986   7.012   4.058   3.597
10696SOL    HW132987   6.967   4.102   3.519
10696SOL    HW232988   0.087   4.042   3.575
10697SOL     OW32989   6.703   5.724   4.970
10697SOL    HW132990   6.767   5.678   4.908
10697SOL    HW232991   6.753   5.786   5.030
10698SOL     OW32992   5.432   4.474   6.225
10698SOL    HW132993   5.372   4.523   6.163
10698SOL    HW232994   5.434   4.520   6.314
10699SOL     OW32995   3.657   4.142   1.925
10699SOL    HW132996   3.735   4.105   1.976
10699SOL    HW232997   3.690   4.184   1.840
10700SOL     OW32998   6.435   0.117   1.056
10700SOL    HW132999   6.517   0.124   1.114
10700SOL    HW233000   6.371   0.052   1.097
10701SOL     OW33001   3.080   6.425   6.740
10701SOL    HW133002   3.172   6.462   6.731
10701SOL    HW233003   3.084   6.326   6.755
10702SOL     OW33004   5.517   2.895   1.586
10702SOL    HW133005   5.580   2.818   1.570
10702SOL    HW233006   5.452   2.870   1.658
10703SOL     OW33007   3.240   2.899   4.959
10703SOL    HW133008   3.193   2.877   5.045
10703SOL    HW233009   3.338   2.908   4.977
10704SOL     OW33010   6.074   5.804   1.555
10704SOL    HW133011   6.123   5.834   1.473
10704SOL    HW233012   5.998   5.866   1.573
10705SOL     OW33013   5.392   4.656   2.451
10705SOL    HW133014   5.480   4.649   2.498
10705SOL    HW233015   5.322   4.610   2.506
10706SOL     OW33016   5.675   0.127   2.339
10706SOL    HW133017   5.614   0.094   2.266
10706SOL    HW233018   5.769   0.132   2.304
10707SOL     OW33019   0.109   0.082   4.141
10707SOL    HW133020   0.172   0.010   4.171
10707SOL    HW233021   0.049   0.108   4.217
10708SOL     OW33022   3.851   0.662   2.200
10708SOL    HW133023   3.941   0.691   2.168
10708SOL    HW233024   3.787   0.658   2.123
10709SOL     OW33025   5.947   5.451   5.522
10709SOL    HW133026   5.929   5.453   5.424
10709SOL    HW233027   6.040   5.484   5.539
10710SOL     OW33028   0.304   0.102   4.459
10710SOL    HW133029   0.213   0.140   4.441
10710SOL    HW233030   0.349   0.082   4.372
10711SOL     OW33031   1.652   6.729   4.499
10711SOL    HW133032   1.657   6.672   4.417
10711SOL    HW233033   1.594   6.808   4.481
10712SOL     OW33034   3.343   0.796   1.932
10712SOL    HW133035   3.301   0.771   1.845
10712SOL    HW233036   3.292   0.756   2.007
10713SOL     OW33037   0.723   3.343   1.479
10713SOL    HW133038   0.800   3.349   1.415
10713SOL    HW233039   0.753   3.298   1.563
10714SOL     OW33040   6.198   3.906   4.805
10714SOL    HW133041   6.245   3.900   4.717
10714SOL    HW233042   6.222   3.992   4.850
10715SOL     OW33043   4.739   0.723   2.516
10715SOL    HW133044   4.828   0.676   2.512
10715SOL    HW233045   4.693   0.714   2.428
10716SOL     OW33046   5.840   2.178   4.217
10716SOL    HW133047   5.792   2.099   4.180
10716SOL    HW233048   5.873   2.236   4.143
10717SOL     OW33049   1.223   1.967   1.317
10717SOL    HW133050   1.294   1.897   1.310
10717SOL    HW233051   1.136   1.925   1.343
10718SOL     OW33052   1.065   2.976   6.436
10718SOL    HW133053   1.127   3.044   6.396
10718SOL    HW233054   1.077   2.974   6.535
10719SOL     OW33055   6.491   5.652   2.150
10719SOL    HW133056   6.539   5.738   2.167
10719SOL    HW233057   6.557   5.581   2.124
10720SOL     OW33058   0.618   4.094   5.145
10720SOL    HW133059   0.538   4.146   5.177
10720SOL    HW233060   0.658   4.140   5.065
10721SOL     OW33061   6.023   4.411   4.888
10721SOL    HW133062   5.950   4.456   4.939
10721SOL    HW233063   6.111   4.449   4.915
10722SOL     OW33064   1.300   5.225   0.349
10722SOL    HW133065   1.264   5.158   0.414
10722SOL    HW233066   1.233   5.298   0.336
10723SOL     OW33067   0.310   3.994   6.155
10723SOL    HW133068   0.329   4.081   6.111
10723SOL    HW233069   0.328   3.919   6.090
10724SOL     OW33070   5.768   1.188   6.685
10724SOL    HW133071   5.736   1.127   6.758
10724SOL    HW233072   5.695   1.252   6.662
10725SOL     OW33073   0.802   5.161   4.666
10725SOL    HW133074   0.811   5.105   4.584
10725SOL    HW233075   0.809   5.103   4.747
10726SOL     OW33076   5.089   0.075   5.540
10726SOL    HW133077   5.034   0.033   5.468
10726SOL    HW233078   5.128   0.161   5.506
10727SOL     OW33079   0.163   4.929   4.653
10727SOL    HW133080   0.156   5.018   4.608
10727SOL    HW233081   0.258   4.915   4.683
10728SOL     OW33082   6.842   6.057   0.524
10728SOL    HW133083   6.746   6.084   0.513
10728SOL    HW233084   6.872   6.078   0.617
10729SOL     OW33085   5.389   1.318   1.710
10729SOL    HW133086   5.483   1.299   1.739
10729SOL    HW233087   5.390   1.363   1.621
10730SOL     OW33088   1.844   0.142   1.613
10730SOL    HW133089   1.933   0.163   1.652
10730SOL    HW233090   1.772   0.177   1.674
10731SOL     OW33091   3.365   6.161   0.519
10731SOL    HW133092   3.413   6.113   0.593
10731SOL    HW233093   3.320   6.242   0.555
10732SOL     OW33094   5.404   4.714   3.628
10732SOL    HW133095   5.314   4.672   3.636
10732SOL    HW233096   5.393   4.810   3.599
10733SOL     OW33097   6.212   2.392   0.459
10733SOL    HW133098   6.244   2.326   0.391
10733SOL    HW233099   6.286   2.456   0.480
10734SOL     OW33100   0.729   0.573   6.452
10734SOL    HW133101   0.724   0.510   6.529
10734SOL    HW233102   0.689   0.531   6.371
10735SOL     OW33103   1.794   3.115   3.194
10735SOL    HW133104   1.779   3.115   3.095
10735SOL    HW233105   1.866   3.049   3.216
10736SOL     OW33106   1.357   0.398   3.207
10736SOL    HW133107   1.319   0.306   3.193
10736SOL    HW233108   1.396   0.405   3.299
10737SOL     OW33109   1.947   2.132   6.894
10737SOL    HW133110   1.936   2.086   6.805
10737SOL    HW233111   2.044   2.134   6.918
10738SOL     OW33112   2.626   0.451   3.879
10738SOL    HW133113   2.658   0.360   3.907
10738SOL    HW233114   2.669   0.521   3.936
10739SOL     OW33115   0.343   1.503   1.146
10739SOL    HW133116   0.421   1.464   1.194
10739SOL    HW233117   0.267   1.514   1.210
10740SOL     OW33118   0.522   4.839   5.435
10740SOL    HW133119   0.430   4.874   5.453
10740SOL    HW233120   0.573   4.904   5.379
10741SOL     OW33121   0.017   6.887   1.958
10741SOL    HW133122   0.010   6.895   2.057
10741SOL    HW233123   6.985   6.809   1.927
10742SOL     OW33124   6.075   0.679   1.731
10742SOL    HW133125   6.126   0.594   1.736
10742SOL    HW233126   6.022   0.682   1.646
10743SOL     OW33127   3.156   2.018   5.551
10743SOL    HW133128   3.182   2.017   5.647
10743SOL    HW233129   3.191   2.101   5.507
10744SOL     OW33130   3.392   1.002   1.670
10744SOL    HW133131   3.459   1.032   1.739
10744SOL    HW233132   3.440   0.965   1.591
10745SOL     OW33133   0.367   5.368   0.091
10745SOL    HW133134   0.363   5.467   0.103
10745SOL    HW233135   0.327   5.343   0.003
10746SOL     OW33136   1.986   3.894   1.035
10746SOL    HW133137   1.940   3.814   1.074
10746SOL    HW233138   1.940   3.921   0.950
10747SOL     OW33139   4.150   0.786   3.045
10747SOL    HW133140   4.201   0.863   3.086
10747SOL    HW233141   4.193   0.700   3.072
10748SOL     OW33142   3.975   0.791   1.860
10748SOL    HW133143   3.966   0.717   1.794
10748SOL    HW233144   4.030   0.760   1.938
10749SOL     OW33145   0.067   5.553   3.516
10749SOL    HW133146   0.098   5.476   3.572
10749SOL    HW233147   0.145   5.591   3.466
10750SOL     OW33148   4.694   6.185   4.669
10750SOL    HW133149   4.758   6.108   4.672
10750SOL    HW233150   4.605   6.156   4.705
10751SOL     OW33151   1.552   5.051   4.098
10751SOL    HW133152   1.634   5.027   4.045
10751SOL    HW233153   1.470   5.022   4.048
10752SOL     OW33154   6.064   4.478   6.290
10752SOL    HW133155   5.978   4.529   6.291
10752SOL    HW233156   6.075   4.434   6.200
10753SOL     OW33157   4.103   6.805   4.487
10753SOL    HW133158   4.201   6.811   4.506
10753SOL    HW233159   4.076   6.881   4.427
10754SOL     OW33160   1.211   1.421   3.547
10754SOL    HW133161   1.208   1.394   3.644
10754SOL    HW233162   1.190   1.518   3.539
10755SOL     OW33163   0.142   1.313   6.494
10755SOL    HW133164   0.058   1.330   6.443
10755SOL    HW233165   0.121   1.259   6.576
10756SOL     OW33166   6.865   4.279   0.808
10756SOL    HW133167   6.865   4.183   0.834
10756SOL    HW233168   6.959   4.312   0.801
10757SOL     OW33169   1.561   2.740   7.009
10757SOL    HW133170   1.468   2.735   0.025
10757SOL    HW233171   1.625   2.746   0.065
10758SOL     OW33172   0.897   6.488   4.614
10758SOL    HW133173   0.857   6.506   4.704
10758SOL    HW233174   0.889   6.391   4.592
10759SOL     OW33175   1.458   2.799   0.466
10759SOL    HW133176   1.445   2.749   0.380
10759SOL    HW233177   1.368   2.821   0.505
10760SOL     OW33178   6.049   1.741   1.330
10760SOL    HW133179   6.020   1.649   1.303
10760SOL    HW233180   5.969   1.797   1.350
10761SOL     OW33181   0.912   1.581   6.350
10761SOL    HW133182   0.960   1.496   6.332
10761SOL    HW233183   0.934   1.648   6.279
10762SOL     OW33184   4.155   2.101   4.759
10762SOL    HW133185   4.160   2.033   4.832
10762SOL    HW233186   4.240   2.154   4.756
10763SOL     OW33187   4.679   6.316   1.943
10763SOL    HW133188   4.735   6.296   2.023
10763SOL    HW233189   4.621   6.395   1.962
10764SOL     OW33190   5.631   2.138   5.828
10764SOL    HW133191   5.552   2.198   5.812
10764SOL    HW233192   5.704   2.191   5.871
10765SOL     OW33193   5.375   2.502   0.852
10765SOL    HW133194   5.332   2.416   0.825
10765SOL    HW233195   5.307   2.575   0.853
10766SOL     OW33196   5.285   3.279   1.330
10766SOL    HW133197   5.334   3.193   1.342
10766SOL    HW233198   5.234   3.301   1.413
10767SOL     OW33199   0.792   0.774   0.025
10767SOL    HW133200   0.703   0.730   0.030
10767SOL    HW233201   0.809   0.826   0.108
10768SOL     OW33202   4.670   4.374   0.944
10768SOL    HW133203   4.714   4.325   0.870
10768SOL    HW233204   4.715   4.352   1.031
10769SOL     OW33205   2.604   4.848   4.766
10769SOL    HW133206   2.704   4.835   4.766
10769SOL    HW233207   2.569   4.832   4.673
10770SOL     OW33208   5.582   0.582   5.210
10770SOL    HW133209   5.550   0.641   5.284
10770SOL    HW233210   5.520   0.505   5.200
10771SOL     OW33211   5.139   1.134   3.355
10771SOL    HW133212   5.206   1.068   3.322
10771SOL    HW233213   5.117   1.114   3.450
10772SOL     OW33214   0.316   6.827   4.941
10772SOL    HW133215   0.365   6.777   4.870
10772SOL    HW233216   0.280   6.912   4.903
10773SOL     OW33217   6.760   5.569   6.850
10773SOL    HW133218   6.804   5.657   6.871
10773SOL    HW233219   6.809   5.495   6.895
10774SOL     OW33220   1.440   1.055   6.330
10774SOL    HW133221   1.366   1.111   6.294
10774SOL    HW233222   1.513   1.115   6.364
10775SOL     OW33223   0.454   3.879   1.075
10775SOL    HW133224   0.394   3.802   1.097
10775SOL    HW233225   0.458   3.942   1.153
10776SOL     OW33226   1.390   6.327   6.454
10776SOL    HW133227   1.393   6.382   6.371
10776SOL    HW233228   1.320   6.363   6.516
10777SOL     OW33229   3.583   6.089   2.976
10777SOL    HW133230   3.514   6.074   3.046
10777SOL    HW233231   3.558   6.168   2.920
10778SOL     OW33232   5.848   6.654   4.459
10778SOL    HW133233   5.889   6.724   4.401
10778SOL    HW233234   5.749   6.668   4.463
10779SOL     OW33235   6.379   5.024   3.294
10779SOL    HW133236   6.411   4.954   3.358
10779SOL    HW233237   6.456   5.059   3.241
10780SOL     OW33238   1.838   0.476   3.598
10780SOL    HW133239   1.773   0.420   3.649
10780SOL    HW233240   1.915   0.419   3.568
10781SOL     OW33241   4.198   0.352   3.550
10781SOL    HW133242   4.211   0.414   3.628
10781SOL    HW233243   4.287   0.313   3.524
10782SOL     OW33244   5.895   1.777   2.632
10782SOL    HW133245   5.899   1.797   2.534
10782SOL    HW233246   5.932   1.685   2.649
10783SOL     OW33247   0.675   3.423   3.162
10783SOL    HW133248   0.748   3.456   3.103
10783SOL    HW233249   0.693   3.450   3.257
10784SOL     OW33250   3.555   0.773   4.255
10784SOL    HW133251   3.561   0.731   4.164
10784SOL    HW233252   3.579   0.705   4.324
10785SOL     OW33253   0.049   5.482   2.170
10785SOL    HW133254   0.076   5.428   2.250
10785SOL    HW233255   7.013   5.559   2.200
10786SOL     OW33256   5.019   4.515   3.003
10786SOL    HW133257   4.948   4.469   3.056
10786SOL    HW233258   5.007   4.614   3.009
10787SOL     OW33259   2.300   1.819   4.770
10787SOL    HW133260   2.297   1.853   4.864
10787SOL    HW233261   2.316   1.895   4.708
10788SOL     OW33262   2.116   4.779   6.116
10788SOL    HW133263   2.024   4.771   6.076
10788SOL    HW233264   2.109   4.810   6.210
10789SOL     OW33265   6.621   2.691   6.534
10789SOL    HW133266   6.700   2.629   6.536
10789SOL    HW233267   6.590   2.703   6.440
10790SOL     OW33268   1.552   1.358   1.602
10790SOL    HW133269   1.452   1.365   1.605
10790SOL    HW233270   1.578   1.261   1.604
10791SOL     OW33271   0.687   6.872   0.504
10791SOL    HW133272   0.704   6.971   0.507
10791SOL    HW233273   0.707   6.838   0.412
10792SOL     OW33274   3.502   3.654   3.685
10792SOL    HW133275   3.468   3.590   3.755
10792SOL    HW233276   3.547   3.731   3.729
10793SOL     OW33277   6.356   3.606   4.398
10793SOL    HW133278   6.344   3.660   4.481
10793SOL    HW233279   6.268   3.594   4.353
10794SOL     OW33280   2.977   3.698   3.568
10794SOL    HW133281   3.072   3.693   3.598
10794SOL    HW233282   2.971   3.752   3.483
10795SOL     OW33283   6.942   4.343   2.742
10795SOL    HW133284   6.895   4.388   2.819
10795SOL    HW233285   0.017   4.371   2.741
10796SOL     OW33286   5.502   6.669   0.432
10796SOL    HW133287   5.438   6.734   0.392
10796SOL    HW233288   5.538   6.609   0.360
10797SOL     OW33289   4.194   2.531   1.204
10797SOL    HW133290   4.245   2.449   1.228
10797SOL    HW233291   4.097   2.508   1.195
10798SOL     OW33292   3.313   6.243   0.258
10798SOL    HW133293   3.329   6.210   0.351
10798SOL    HW233294   3.240   6.189   0.216
10799SOL     OW33295   3.642   0.654   2.027
10799SOL    HW133296   3.567   0.653   2.094
10799SOL    HW233297   3.632   0.733   1.967
10800SOL     OW33298   0.514   6.817   6.501
10800SOL    HW133299   0.506   6.722   6.469
10800SOL    HW233300   0.552   6.818   6.593
10801SOL     OW33301   0.532   5.990   6.068
10801SOL    HW133302   0.545   5.892   6.082
10801SOL    HW233303   0.572   6.041   6.144
10802SOL     OW33304   0.531   2.200   3.220
10802SOL    HW133305   0.561   2.123   3.276
10802SOL    HW233306   0.574   2.284   3.252
10803SOL     OW33307   2.841   4.106   5.884
10803SOL    HW133308   2.757   4.159   5.876
10803SOL    HW233309   2.857   4.055   5.800
10804SOL     OW33310   5.543   3.542   1.988
10804SOL    HW133311   5.453   3.522   1.949
10804SOL    HW233312   5.614   3.498   1.933
10805SOL     OW33313   3.856   0.233   0.062
10805SOL    HW133314   3.774   0.290   0.057
10805SOL    HW233315   3.871   0.203   0.156
10806SOL     OW33316   4.801   3.896   6.100
10806SOL    HW133317   4.889   3.943   6.098
10806SOL    HW233318   4.800   3.829   6.174
10807SOL     OW33319   1.263   0.245   1.981
10807SOL    HW133320   1.352   0.291   1.979
10807SOL    HW233321   1.261   0.173   1.911
10808SOL     OW33322   6.824   3.307   6.448
10808SOL    HW133323   6.734   3.348   6.437
10808SOL    HW233324   6.835   3.232   6.383
10809SOL     OW33325   3.151   5.275   3.322
10809SOL    HW133326   3.244   5.264   3.355
10809SOL    HW233327   3.148   5.259   3.224
10810SOL     OW33328   1.684   0.332   4.290
10810SOL    HW133329   1.658   0.235   4.286
10810SOL    HW233330   1.655   0.378   4.207
10811SOL     OW33331   3.759   4.311   5.928
10811SOL    HW133332   3.712   4.324   6.015
10811SOL    HW233333   3.745   4.217   5.896
10812SOL     OW33334   0.789   3.957   1.099
10812SOL    HW133335   0.691   3.964   1.083
10812SOL    HW233336   0.838   3.996   1.021
10813SOL     OW33337   1.821   4.796   6.313
10813SOL    HW133338   1.800   4.890   6.287
10813SOL    HW233339   1.889   4.796   6.386
10814SOL     OW33340   1.745   6.503   6.150
10814SOL    HW133341   1.821   6.460   6.100
10814SOL    HW233342   1.663   6.503   6.092
10815SOL     OW33343   4.494   4.597   3.505
10815SOL    HW133344   4.501   4.501   3.479
10815SOL    HW233345   4.404   4.633   3.479
10816SOL     OW33346   2.987   3.198   2.033
10816SOL    HW133347   2.914   3.224   1.970
10816SOL    HW233348   3.064   3.261   2.022
10817SOL     OW33349   4.737   6.635   2.969
10817SOL    HW133350   4.735   6.713   2.906
10817SOL    HW233351   4.799   6.565   2.933
10818SOL     OW33352   4.386   4.418   5.455
10818SOL    HW133353   4.333   4.340   5.490
10818SOL    HW233354   4.484   4.399   5.467
10819SOL     OW33355   6.487   4.736   0.018
10819SOL    HW133356   6.505   4.638   0.016
10819SOL    HW233357   6.390   4.752   0.036
10820SOL     OW33358   6.301   5.833   4.095
10820SOL    HW133359   6.383   5.873   4.136
10820SOL    HW233360   6.220   5.875   4.136
10821SOL     OW33361   6.093   0.205   2.571
10821SOL    HW133362   6.139   0.274   2.626
10821SOL    HW233363   6.156   0.170   2.502
10822SOL     OW33364   0.127   3.370   2.743
10822SOL    HW133365   0.069   3.391   2.664
10822SOL    HW233366   0.089   3.291   2.792
10823SOL     OW33367   1.492   6.287   1.248
10823SOL    HW133368   1.464   6.239   1.165
10823SOL    HW233369   1.479   6.227   1.327
10824SOL     OW33370   6.864   0.728   3.285
10824SOL    HW133371   6.882   0.649   3.344
10824SOL    HW233372   6.785   0.708   3.227
10825SOL     OW33373   2.329   1.227   6.488
10825SOL    HW133374   2.385   1.298   6.446
10825SOL    HW233375   2.243   1.267   6.519
10826SOL     OW33376   1.569   2.753   3.897
10826SOL    HW133377   1.520   2.715   3.819
10826SOL    HW233378   1.523   2.727   3.981
10827SOL     OW33379   6.604   3.562   4.346
10827SOL    HW133380   6.505   3.556   4.342
10827SOL    HW233381   6.639   3.498   4.415
10828SOL     OW33382   0.965   5.253   0.949
10828SOL    HW133383   0.879   5.212   0.979
10828SOL    HW233384   0.997   5.206   0.866
10829SOL     OW33385   3.914   2.249   1.034
10829SOL    HW133386   3.962   2.204   0.959
10829SOL    HW233387   3.900   2.184   1.109
10830SOL     OW33388   5.701   2.135   3.038
10830SOL    HW133389   5.729   2.213   3.094
10830SOL    HW233390   5.746   2.052   3.071
10831SOL     OW33391   2.731   6.159   2.372
10831SOL    HW133392   2.672   6.127   2.446
10831SOL    HW233393   2.690   6.134   2.284
10832SOL     OW33394   0.630   2.827   6.261
10832SOL    HW133395   0.703   2.874   6.310
10832SOL    HW233396   0.541   2.855   6.297
10833SOL     OW33397   1.139   1.037   2.156
10833SOL    HW133398   1.045   1.071   2.156
10833SOL    HW233399   1.173   1.035   2.062
10834SOL     OW33400   0.726   1.962   0.098
10834SOL    HW133401   0.734   1.865   0.118
10834SOL    HW233402   0.637   1.995   0.131
10835SOL     OW33403   5.896   1.867   6.885
10835SOL    HW133404   5.976   1.824   6.843
10835SOL    HW233405   5.914   1.885   6.982
10836SOL     OW33406   6.579   1.682   5.000
10836SOL    HW133407   6.541   1.675   4.908
10836SOL    HW233408   6.582   1.592   5.043
10837SOL     OW33409   6.968   5.517   1.620
10837SOL    HW133410   6.899   5.454   1.654
10837SOL    HW233411   6.974   5.596   1.680
10838SOL     OW33412   5.557   5.853   4.855
10838SOL    HW133413   5.628   5.923   4.867
10838SOL    HW233414   5.592   5.781   4.795
10839SOL     OW33415   4.292   3.071   1.743
10839SOL    HW133416   4.281   3.025   1.655
10839SOL    HW233417   4.379   3.045   1.784
10840SOL     OW33418   2.581   5.833   2.376
10840SOL    HW133419   2.658   5.840   2.440
10840SOL    HW233420   2.531   5.748   2.393
10841SOL     OW33421   5.376   5.189   7.004
10841SOL    HW133422   5.389   5.263   6.938
10841SOL    HW233423   5.331   5.224   0.065
10842SOL     OW33424   5.000   2.580   2.112
10842SOL    HW133425   4.951   2.494   2.127
10842SOL    HW233426   4.948   2.638   2.049
10843SOL     OW33427   1.195   2.741   1.557
10843SOL    HW133428   1.141   2.658   1.569
10843SOL    HW233429   1.272   2.740   1.621
10844SOL     OW33430   0.174   6.849   3.436
10844SOL    HW133431   0.190   6.912   3.512
10844SOL    HW233432   0.258   6.839   3.383
10845SOL     OW33433   3.331   0.441   5.522
10845SOL    HW133434   3.410   0.489   5.485
10845SOL    HW233435   3.361   0.369   5.584
10846SOL     OW33436   4.616   1.477   0.544
10846SOL    HW133437   4.679   1.400   0.542
10846SOL    HW233438   4.604   1.514   0.452
10847SOL     OW33439   3.869   3.271   6.744
10847SOL    HW133440   3.804   3.341   6.718
10847SOL    HW233441   3.946   3.271   6.680
10848SOL     OW33442   3.272   3.553   6.858
10848SOL    HW133443   3.270   3.513   6.949
10848SOL    HW233444   3.329   3.497   6.798
10849SOL     OW33445   2.009   5.844   3.100
10849SOL    HW133446   1.972   5.918   3.156
10849SOL    HW233447   2.069   5.882   3.030
10850SOL     OW33448   2.701   4.964   6.503
10850SOL    HW133449   2.795   4.931   6.507
10850SOL    HW233450   2.655   4.945   6.589
10851SOL     OW33451   1.697   3.093   6.935
10851SOL    HW133452   1.627   3.072   7.004
10851SOL    HW233453   1.756   3.013   6.922
10852SOL     OW33454   1.043   0.344   6.727
10852SOL    HW133455   1.017   0.287   6.804
10852SOL    HW233456   1.132   0.314   6.692
10853SOL     OW33457   1.937   1.891   5.847
10853SOL    HW133458   1.965   1.980   5.881
10853SOL    HW233459   2.005   1.857   5.783
10854SOL     OW33460   4.174   5.693   4.745
10854SOL    HW133461   4.078   5.713   4.726
10854SOL    HW233462   4.193   5.708   4.842
10855SOL     OW33463   2.871   6.960   0.490
10855SOL    HW133464   2.940   6.936   0.557
10855SOL    HW233465   2.878   0.037   0.469
10856SOL     OW33466   5.467   1.341   0.261
10856SOL    HW133467   5.475   1.333   0.360
10856SOL    HW233468   5.532   1.408   0.227
10857SOL     OW33469   6.978   2.861   2.671
10857SOL    HW133470   6.885   2.825   2.654
10857SOL    HW233471   6.973   2.959   2.687
10858SOL     OW33472   0.492   1.878   6.039
10858SOL    HW133473   0.532   1.946   5.977
10858SOL    HW233474   0.397   1.862   6.013
10859SOL     OW33475   2.041   3.732   4.230
10859SOL    HW133476   2.074   3.678   4.152
10859SOL    HW233477   1.943   3.718   4.241
10860SOL     OW33478   7.016   1.549   5.703
10860SOL    HW133479   0.073   1.612   5.695
10860SOL    HW233480   6.992   1.538   5.799
10861SOL     OW33481   3.352   3.413   2.764
10861SOL    HW133482   3.383   3.332   2.714
10861SOL    HW233483   3.424   3.482   2.764
10862SOL     OW33484   2.431   2.090   6.860
10862SOL    HW133485   2.440   1.991   6.849
10862SOL    HW233486   2.408   2.111   6.955
10863SOL     OW33487   3.359   0.953   3.537
10863SOL    HW133488   3.395   1.042   3.508
10863SOL    HW233489   3.413   0.880   3.495
10864SOL     OW33490   3.058   5.322   0.596
10864SOL    HW133491   2.984   5.277   0.647
10864SOL    HW233492   3.109   5.254   0.544
10865SOL     OW33493   6.896   1.543   2.332
10865SOL    HW133494   6.836   1.622   2.344
10865SOL    HW233495   6.850   1.474   2.277
10866SOL     OW33496   5.051   4.749   0.247
10866SOL    HW133497   5.014   4.832   0.289
10866SOL    HW233498   5.040   4.754   0.148
10867SOL     OW33499   3.626   3.604   0.529
10867SOL    HW133500   3.532   3.571   0.519
10867SOL    HW233501   3.644   3.675   0.461
10868SOL     OW33502   3.906   2.023   3.988
10868SOL    HW133503   3.810   2.053   3.997
10868SOL    HW233504   3.935   2.033   3.893
10869NA      NA33505   0.213   2.229   5.250
10870NA      NA33506   4.305   4.582   5.291
10871NA      NA33507   2.012   3.933   2.505
10872NA      NA33508   4.980   4.069   4.242
10873NA      NA33509   4.393   2.629   5.199
10874NA      NA33510   3.190   4.715   1.646
10875NA      NA33511   0.207   4.232   0.610
10876NA      NA33512   3.077   3.307   3.421
10877NA      NA33513   5.220   5.557   0.710
10878NA      NA33514   3.406   6.687   5.568
10879NA      NA33515   5.895   5.425   1.671
10880NA      NA33516   2.212   1.039   4.479
10881NA      NA33517   3.860   5.072   2.063
10882NA      NA33518   4.041   3.680   1.807
   7.02068   7.02068   7.02068
